Membrane in water
40344
    1TMC1    C1    1   1.163   3.694  12.057 -0.2722  0.8863  0.2850
    1TMC1    C2    2   1.104   3.768  11.955 -0.5021 -0.1084  0.6750
    1TMC1    C3    3   1.186   3.860  11.900  0.0312 -0.6435 -0.0546
    1TMC1    C4    4   1.280   3.708  12.116 -0.0416  0.1258 -0.3617
    1TMC1    C5    5   1.351   3.802  12.048  0.0502  0.8793  0.5809
    1TMC1    C6    6   1.313   3.881  11.941  0.2925 -0.0028  0.2253
    1TMC1     C    7   1.082   3.593  12.108  0.7197 -0.9184  0.3616
    1TMC1     O    8   0.961   3.607  12.113 -0.4572 -0.1578  0.1417
    1TMC1     H    9   1.006   3.747  11.916 -0.2004 -2.7913  1.3596
    1TMC1    H1   10   1.312   3.646  12.199  1.3137 -0.1821 -1.1110
    1TMC1    H2   11   1.380   3.948  11.890 -0.0726 -0.6708 -1.1442
    1TMC1    C7   12   1.471   3.856  12.117 -0.0781 -0.3314  0.6997
    1TMC1    C8   13   1.130   3.929  11.790 -0.1118  0.2003 -0.5911
    1TMC1    O1   14   1.529   3.952  12.078 -0.2807  0.1727  0.2456
    1TMC1    O2   15   1.027   3.891  11.737 -0.1233  0.0627  0.3484
    1TMC1    O3   16   1.509   3.777  12.222 -0.4282 -0.1319 -0.4218
    1TMC1    H3   17   1.492   3.681  12.210  0.9073 -0.5248  0.8991
    1TMC1    O5   18   1.191   4.051  11.773 -0.2350  0.4609 -0.5613
    1TMC1    H5   19   1.256   4.086  11.838  0.0885  0.0252 -0.6508
    2MPD2     C   20   1.023   3.113  12.292  0.0937 -0.0359  0.2228
    2MPD2    C1   21   0.952   3.230  12.306  0.7554 -0.2711 -0.5980
    2MPD2    C2   22   0.988   3.342  12.237 -0.3962 -0.7859 -0.3726
    2MPD2    C3   23   1.099   3.355  12.159  0.5776  0.8037  0.0476
    2MPD2    C4   24   1.174   3.241  12.144  0.5436 -0.2516 -0.7632
    2MPD2    C5   25   1.121   3.120  12.196  0.7404  0.3311  0.4044
    2MPD2     H   26   0.933   3.434  12.252  0.3282 -0.7194  1.8422
    2MPD2    H1   27   1.258   3.231  12.076  0.3273 -0.3632 -1.0166
    2MPD2    H2   28   0.980   3.020  12.325  0.4941 -0.9887 -1.9867
    2MPD2    H3   29   1.168   3.027  12.166  0.6367  0.7572 -1.0649
    2MPD2     N   30   1.151   3.470  12.102  1.0552 -0.5914  0.2609
    2MPD2    H5   31   1.244   3.482  12.063 -0.1291  0.1343 -2.3704
    2MPD2    N1   32   0.840   3.237  12.386  0.3372  0.4143  0.1004
    2MPD2    H7   33   0.789   3.324  12.378 -2.0179 -0.7849  2.1183
    3TMC1    C1   34   0.936   4.622   9.837  0.0994 -0.1691  0.3079
    3TMC1    C2   35   1.058   4.654   9.778  0.2730 -0.4566  0.0399
    3TMC1    C3   36   1.067   4.620   9.649  0.1292 -0.5851  0.1877
    3TMC1    C4   37   0.848   4.541   9.771  0.0770 -0.1912  0.5842
    3TMC1    C5   38   0.867   4.506   9.638 -0.3402 -0.6520 -0.2553
    3TMC1    C6   39   0.979   4.555   9.576 -0.1744  0.0367 -0.8736
    3TMC1     C   40   0.910   4.656   9.977 -0.1190 -0.1731  0.1260
    3TMC1     O   41   1.005   4.690  10.044  0.5146 -0.5135  0.2405
    3TMC1     H   42   1.126   4.718   9.833  0.4522 -1.8297  1.4184
    3TMC1    H1   43   0.756   4.501   9.810 -1.2984  2.2429 -0.1721
    3TMC1    H2   44   1.007   4.537   9.473 -2.6955  1.4188 -1.8291
    3TMC1    C7   45   0.802   4.385   9.593 -0.0983 -0.2151 -0.0891
    3TMC1    C8   46   1.194   4.647   9.596 -0.0680  0.2498  0.7687
    3TMC1    O1   47   0.747   4.303   9.665 -0.2202  0.4886 -0.4748
    3TMC1    O2   48   1.243   0.015   9.612 -0.1898 -0.0680  0.3181
    3TMC1    O3   49   0.838   4.365   9.461 -0.3035 -0.1266 -0.4565
    3TMC1    H3   50   0.825   4.453   9.419  3.0889 -0.0650 -1.4021
    3TMC1    O5   51   1.263   4.534   9.577 -0.4891  0.3185 -0.5766
    3TMC1    H5   52   1.214   4.450   9.578 -0.3956  0.2554 -1.2121
    4MPD2     C   53   0.576   4.733  10.360 -0.1428  0.1011 -0.0333
    4MPD2    C1   54   0.502   4.686  10.254  0.3348  0.1377 -0.3019
    4MPD2    C2   55   0.577   4.667  10.137 -0.0358 -0.8937  0.5353
    4MPD2    C3   56   0.716   4.685  10.130  0.0448 -0.0073 -0.2586
    4MPD2    C4   57   0.787   4.712  10.247 -0.0150 -0.1936 -1.1718
    4MPD2    C5   58   0.711   0.009  10.361 -0.1487 -0.6145 -0.5024
    4MPD2     H   59   0.528   4.648  10.043 -1.4309  2.8328  0.4955
    4MPD2    H1   60   0.895   4.711  10.246  0.0020 -1.4860  0.1673
    4MPD2    H2   61   0.530   0.019  10.455 -0.1602  0.3743 -0.1095
    4MPD2    H3   62   0.767   0.038  10.449 -3.1157 -0.0642  1.2130
    4MPD2     N   63   0.775   4.649  10.007 -0.7591 -0.1050  0.0461
    4MPD2    H5   64   0.711   4.631   9.931 -0.3590 -1.7209  0.0845
    4MPD2    N1   65   0.360   4.679  10.246  0.2900 -0.2879  0.0615
    4MPD2    H7   66   0.326   4.635  10.162  0.3981  0.1593 -0.2205
    5TCq1    O1   67   0.951   0.857  11.993 -0.4114 -0.2207  0.5360
    5TCq1    C1   68   1.059   0.841  11.919  0.2689  0.3867  0.2298
    5TCq1    O2   69   1.117   0.731  11.904 -0.2170  0.4665  0.2441
    5TCq1    C2   70   1.047   0.911  11.788 -0.4995  0.0714 -0.5928
    5TCq1    C3   71   0.949   1.006  11.766 -0.3486 -0.0885 -0.4357
    5TCq1    C4   72   0.947   1.061  11.644 -0.0542  0.0601  0.0012
    5TCq1    C5   73   1.037   1.032  11.545 -0.2661  0.3901 -0.2053
    5TCq1    C6   74   1.139   0.942  11.575 -0.0466 -0.5057 -0.2006
    5TCq1    C7   75   1.135   0.876  11.697  0.3723  0.3386 -0.7994
    5TCq1    C8   76   1.210   0.868  11.470 -0.1749 -0.3024  0.3208
    5TCq1    O4   77   1.253   0.758  11.506  0.7157  0.1010  0.0356
    5TCq1    C9   78   0.838   1.140  11.602  0.6112 -0.1020 -0.3728
    5TCq1    O5   79   0.816   1.148  11.479 -0.3401 -0.0521 -0.0865
    5TCq1    O6   80   0.767   1.179  11.694 -0.0683  0.0140 -0.3312
    5TCq1    H1   81   0.928   0.952  11.996  0.2875 -0.0430  0.0189
    5TCq1    H2   82   0.870   1.023  11.838 -0.4361  0.0095 -0.5546
    5TCq1    H3   83   1.027   1.086  11.451 -0.6434  0.9528  0.1587
    5TCq1    H4   84   1.205   0.796  11.719  0.3947  0.5663 -0.0267
    6MPD2     C   85   1.278   0.962  11.119  0.1507  0.4581 -0.2155
    6MPD2    C1   86   1.245   0.877  11.223 -0.3397 -0.4586  0.3375
    6MPD2    C2   87   1.261   0.736  11.207 -0.3206  0.0875 -0.7339
    6MPD2    C3   88   1.306   0.680  11.089  0.4345 -0.5139  0.3796
    6MPD2    C4   89   1.333   0.766  10.985 -0.3996 -0.5996 -0.2582
    6MPD2    C5   90   1.323   0.905  11.007 -1.0475 -1.1643  0.6094
    6MPD2     H   91   1.251   0.665  11.288 -0.5741  0.8255 -0.1194
    6MPD2    H1   92   1.381   0.739  10.891 -2.9202 -2.1191 -1.0990
    6MPD2    H2   93   1.271   1.070  11.119 -1.7159  0.3388 -4.1186
    6MPD2    H3   94   1.342   0.967  10.920  1.5391 -1.4449  0.9726
    6MPD2     N   95   1.334   0.543  11.085 -0.1941 -0.0974 -0.1019
    6MPD2    H5   96   1.316   0.482  11.164  0.3421  0.3713  0.3731
    6MPD2    N1   97   1.207   0.933  11.348  0.0441 -0.5721  0.1194
    6MPD2    H7   98   1.189   1.032  11.358  3.7418  0.2708 -1.4471
    7TCq1    O1   99   3.519   0.569  13.772 -0.2206  0.2285 -0.0142
    7TCq1    C1  100   3.531   0.472  13.679 -0.4722  0.3905  0.1601
    7TCq1    O2  101   3.599   0.372  13.698  0.3497  0.5285 -0.5435
    7TCq1    C2  102   3.402   0.469  13.612 -0.5983 -0.6321  0.9957
    7TCq1    C3  103   3.337   0.588  13.577 -0.5504  1.2812 -0.1910
    7TCq1    C4  104   3.210   0.582  13.520  0.3554 -0.6108  0.3491
    7TCq1    C5  105   3.141   0.468  13.500 -0.0939 -0.0797  0.2685
    7TCq1    C6  106   3.215   0.353  13.517 -0.1652 -0.6918  0.2822
    7TCq1    C7  107   3.339   0.356  13.580  0.5369  0.7837  0.4272
    7TCq1    C8  108   3.151   0.226  13.494 -0.5573  0.4521  0.2284
    7TCq1    O4  109   3.028   0.221  13.514  0.2049  0.1569  0.4602
    7TCq1    C9  110   3.149   0.708  13.488  0.7647  0.4566 -0.2515
    7TCq1    O5  111   3.230   0.806  13.489  0.0034  0.0194 -0.0043
    7TCq1    O6  112   3.025   0.706  13.470 -0.2613 -0.3879 -0.1981
    7TCq1    H1  113   3.451   0.635  13.746  0.5730  0.6434 -1.0415
    7TCq1    H2  114   3.390   0.682  13.587  1.4297 -0.0443  1.7109
    7TCq1    H3  115   3.040   0.467  13.461 -0.9694  1.5201  2.5312
    7TCq1    H4  116   3.376   0.257  13.606 -0.9745 -0.6179 -2.7990
    8MPD2     C  117   3.160   4.471  13.349  0.0302 -0.1511  0.4208
    8MPD2    C1  118   3.071   4.541  13.430  0.6541  0.1091  0.3222
    8MPD2    C2  119   3.091   4.670  13.454 -0.1398 -0.5374  0.0922
    8MPD2    C3  120   3.201   4.734  13.405 -0.6911  0.2320 -0.0932
    8MPD2    C4  121   3.302   4.669  13.333 -0.3305  0.1817  0.8084
    8MPD2    C5  122   3.279   4.535  13.307  0.2383 -0.2313 -0.0733
    8MPD2     H  123   3.014   4.731  13.500  1.0529  1.8218 -1.0050
    8MPD2    H1  124   3.391   4.713  13.289  1.1864 -2.0864  1.6201
    8MPD2    H2  125   3.150   4.365  13.324 -4.1854  0.2842  0.2769
    8MPD2    H3  126   3.358   4.482  13.255  1.6359  1.8727 -0.1045
    8MPD2     N  127   3.235   0.136  13.434 -0.4041  0.1802 -0.0658
    8MPD2    H5  128   3.323   0.173  13.402  0.9948 -1.9510  1.3056
    8MPD2    N1  129   2.964   4.481  13.499 -0.4874 -0.2262  0.2647
    8MPD2    H7  130   2.914   4.549  13.557  0.1317  0.6425 -0.2184
    9TMC1    C1  131   0.245   4.259  10.911  0.1827  0.0558  0.4747
    9TMC1    C2  132   0.132   4.239  10.990  0.8113  0.1077  0.0437
    9TMC1    C3  133   0.022   4.182  10.939  0.7379  0.7578  0.0926
    9TMC1    C4  134   0.235   4.235  10.780 -0.3215  0.6016  0.2156
    9TMC1    C5  135   0.118   4.194  10.727 -0.7036  0.2258 -0.1267
    9TMC1    C6  136   0.013   4.161  10.807  0.1574 -0.1966 -0.2690
    9TMC1     C  137   0.352   4.331  10.959  0.6688 -0.2989 -0.4677
    9TMC1     O  138   0.404   4.416  10.889 -0.0451 -0.3224  0.5168
    9TMC1     H  139   0.142   4.274  11.092 -0.2558  0.8932 -0.1231
    9TMC1    H1  140   0.318   4.266  10.719  1.0542 -0.4992  1.5323
    9TMC1    H2  141   4.654   4.135  10.765 -0.4788  1.0738  0.4341
    9TMC1    C7  142   0.107   4.206  10.578  0.0401 -0.5913 -1.1029
    9TMC1    C8  143   4.648   4.172  11.026 -0.2730  0.4637 -0.1715
    9TMC1    O1  144   0.204   4.250  10.521  0.1359  0.3656  0.5901
    9TMC1    O2  145   4.538   4.186  10.974 -0.1117 -0.0371  0.0162
    9TMC1    O3  146   0.014   4.121  10.522  0.3016 -0.1866 -0.1476
    9TMC1    H3  147   4.690   4.075  10.583  0.1763  0.7636  0.4499
    9TMC1    O5  148   4.677   4.096  11.131  0.3992 -0.7033 -0.0711
    9TMC1    H5  149   0.035   4.092  11.153  0.2821  2.3132  0.9578
   10MPD2     C  150   0.603   4.402  11.125  0.5308 -0.3964  0.6674
   10MPD2    C1  151   0.499   4.312  11.161  0.1022 -0.0579  0.0631
   10MPD2    C2  152   0.512   4.238  11.280 -0.0327  0.7735  0.1398
   10MPD2    C3  153   0.615   4.260  11.366 -0.0558  0.6737  0.7934
   10MPD2    C4  154   0.721   4.352  11.333  0.7338  0.0784 -0.6708
   10MPD2    C5  155   0.711   4.423  11.211 -0.8602 -0.4627  0.1445
   10MPD2     H  156   0.429   4.173  11.305  1.9188 -0.2354  3.9243
   10MPD2    H1  157   0.809   4.349  11.396 -0.0772 -1.5670  0.3819
   10MPD2    H2  158   0.605   4.459  11.032 -3.1439 -1.3375 -0.0052
   10MPD2    H3  159   0.789   4.492  11.178 -0.4031 -0.2566  1.6408
   10MPD2     N  160   0.634   4.185  11.487 -0.5493  0.1276 -0.7153
   10MPD2    H5  161   0.726   4.193  11.529 -0.5156 -2.4608 -0.2913
   10MPD2    N1  162   0.385   4.270  11.083 -0.0407  0.2396  0.3918
   10MPD2    H7  163   0.329   4.196  11.123  1.2476 -0.6761  0.5101
   11TCq1    O1  164   0.537   3.745  14.602  0.6410 -0.0022  0.3372
   11TCq1    C1  165   0.436   3.742  14.517  0.1105  1.4095 -0.1284
   11TCq1    O2  166   0.400   3.834  14.445 -0.5069  0.6429 -0.0147
   11TCq1    C2  167   0.441   3.614  14.455 -0.6657 -0.5068 -0.5045
   11TCq1    C3  168   0.455   3.587  14.318  0.0596 -0.3816  0.1988
   11TCq1    C4  169   0.467   3.463  14.274 -0.1533 -0.0679  0.2630
   11TCq1    C5  170   0.483   3.353  14.357  0.0605  0.5667 -0.4370
   11TCq1    C6  171   0.474   3.380  14.493  0.1174 -0.9063  0.1669
   11TCq1    C7  172   0.448   3.507  14.541  0.5702  0.4607 -0.7056
   11TCq1    C8  173   0.514   3.273  14.584 -0.0359  0.7648  0.2271
   11TCq1    O4  174   0.520   3.302  14.702 -0.0552  1.1262  0.7244
   11TCq1    C9  175   0.509   3.453  14.137 -0.1253  0.1609 -0.2132
   11TCq1    O5  176   0.506   3.338  14.086 -0.7677  0.0817  0.4641
   11TCq1    O6  177   0.565   3.552  14.083 -0.2432  0.3332  0.7490
   11TCq1    H1  178   0.594   3.665  14.601  1.8957  0.9006  0.0701
   11TCq1    H2  179   0.460   3.678  14.259  0.8274  0.4118  1.4824
   11TCq1    H3  180   0.504   3.258  14.309  0.1334  0.2719  0.1721
   11TCq1    H4  181   0.418   3.538  14.641 -0.7167 -2.3711 -0.2253
   12MPD2     C  182   0.572   3.016  14.694  0.5700 -0.2172  0.4979
   12MPD2    C1  183   0.584   3.040  14.559  0.2490  0.3063 -0.2811
   12MPD2    C2  184   0.637   2.947  14.478 -0.2495  0.0065  0.6998
   12MPD2    C3  185   0.689   2.831  14.526  0.4158  0.5613  0.1116
   12MPD2    C4  186   0.683   2.801  14.661  0.0428 -0.7172  0.1093
   12MPD2    C5  187   0.618   2.896  14.738 -0.2198 -0.3847  0.1532
   12MPD2     H  188   0.642   2.976  14.374 -2.9713 -0.7305  0.3461
   12MPD2    H1  189   0.725   2.707  14.694  0.5726 -0.7918 -0.8022
   12MPD2    H2  190   0.528   3.088  14.761 -0.8449 -0.2476 -0.3748
   12MPD2    H3  191   0.610   2.855  14.838  0.0091 -0.2299  0.2337
   12MPD2     N  192   0.730   2.725  14.444  0.2330  0.0433  0.6353
   12MPD2    H5  193   0.760   2.640  14.491 -1.6249 -1.4685 -0.9315
   12MPD2    N1  194   0.545   3.164  14.511 -0.8599  0.5289  0.3546
   12MPD2    H7  195   0.556   3.174  14.411 -0.5454 -3.6365 -0.0276
   13TCq1    O1  196   1.257   3.717  11.485 -0.1334 -0.3691  0.0765
   13TCq1    C1  197   1.232   3.608  11.564  0.3522 -0.3311  0.1765
   13TCq1    O2  198   1.286   3.585  11.674  0.1109 -0.4714  0.1116
   13TCq1    C2  199   1.100   3.561  11.536  0.1655  0.4684  0.2389
   13TCq1    C3  200   1.057   3.564  11.405  0.4630 -0.9853 -0.1695
   13TCq1    C4  201   0.929   3.532  11.375 -0.1457  0.2397 -0.2667
   13TCq1    C5  202   0.846   3.497  11.470 -0.0670  0.4735 -0.0570
   13TCq1    C6  203   0.886   3.514  11.606 -0.4615  0.3352  0.0829
   13TCq1    C7  204   1.013   3.535  11.643 -0.0377  0.3075 -0.0502
   13TCq1    C8  205   0.788   3.476  11.710 -0.1703  0.7655  0.2660
   13TCq1    O4  206   0.823   3.441  11.820 -0.2982 -0.4563 -0.8306
   13TCq1    C9  207   0.891   3.511  11.236  0.0435  0.7982  0.3913
   13TCq1    O5  208   0.771   3.467  11.211 -0.2850  0.2070  0.3533
   13TCq1    O6  209   0.970   3.552  11.149 -0.4401  0.6123  0.4423
   13TCq1    H1  210   1.190   3.721  11.413 -1.3763  0.6626  1.2841
   13TCq1    H2  211   1.123   3.581  11.321  0.0291  1.2170 -0.0526
   13TCq1    H3  212   0.754   3.444  11.445 -0.8055  0.0024  3.7473
   13TCq1    H4  213   1.056   3.523  11.742  0.7927  0.2389 -0.4145
   14MPD2     C  214   0.531   3.419  11.854 -0.3799 -0.4708 -0.3739
   14MPD2    C1  215   0.538   3.484  11.737 -0.5498  0.1894  0.1557
   14MPD2    C2  216   0.422   3.517  11.672  0.3053 -0.3637  0.4088
   14MPD2    C3  217   0.297   3.493  11.730 -0.2818 -0.0800  0.3589
   14MPD2    C4  218   0.292   3.430  11.858  0.3637 -0.6611 -0.3068
   14MPD2    C5  219   0.412   3.391  11.911 -0.1645  0.3521  0.3868
   14MPD2     H  220   0.420   3.572  11.579 -2.9249 -0.1973  0.5528
   14MPD2    H1  221   0.194   3.411  11.899 -0.4889  1.6875 -1.2469
   14MPD2    H2  222   0.621   3.381  11.902  0.2985  1.0049 -0.4627
   14MPD2    H3  223   0.422   3.318  11.990 -0.5107 -1.3187 -1.1113
   14MPD2     N  224   0.189   3.540  11.653 -0.4890 -0.3254 -0.5584
   14MPD2    H5  225   0.202   3.539  11.553 -1.0034  0.0587 -0.6299
   14MPD2    N1  226   0.657   3.508  11.670  0.3208  0.2228 -0.4002
   14MPD2    H7  227   0.643   3.556  11.582  0.0488  0.1391 -0.4022
   15TCq1    O1  228   2.788   2.881   1.995  0.2813 -0.2584 -0.0631
   15TCq1    C1  229   2.845   2.831   1.882 -0.6913 -0.1617 -0.3689
   15TCq1    O2  230   2.923   2.884   1.808 -0.0212 -0.3221  0.4820
   15TCq1    C2  231   2.749   2.745   1.822 -0.7149 -0.1108  0.4946
   15TCq1    C3  232   2.620   2.763   1.856  0.1277 -0.3250  0.1059
   15TCq1    C4  233   2.534   2.677   1.798  0.4245 -0.3513 -0.6886
   15TCq1    C5  234   2.573   2.584   1.701  0.2267  0.4959  0.4777
   15TCq1    C6  235   2.706   2.570   1.673 -0.8025  0.0199  0.6476
   15TCq1    C7  236   2.798   2.639   1.745 -0.3919  0.0417 -0.4227
   15TCq1    C8  237   2.740   2.443   1.616 -0.4408 -0.3728 -0.8309
   15TCq1    O4  238   2.835   2.379   1.660  0.2017  0.0813  0.8478
   15TCq1    C9  239   2.395   2.702   1.816  0.2574 -0.2893 -0.4078
   15TCq1    O5  240   2.321   2.647   1.731 -0.0752 -0.2162  0.1248
   15TCq1    O6  241   2.361   2.792   1.895  0.2999 -0.1632  0.9608
   15TCq1    H1  242   2.741   2.812   2.046 -0.3416 -0.0692 -0.3881
   15TCq1    H2  243   2.593   2.847   1.919 -0.7470 -0.9634  0.5865
   15TCq1    H3  244   2.495   2.534   1.644  1.7637 -0.6491 -0.6200
   15TCq1    H4  245   2.901   2.605   1.737  0.5181  2.1676  2.2895
   16MPD2     C  246   2.573   2.266   1.344 -0.1030  0.3097  0.8988
   16MPD2    C1  247   2.667   2.282   1.442  0.0577  0.3707  0.6130
   16MPD2    C2  248   2.754   2.179   1.476  0.0390  0.2410 -0.2079
   16MPD2    C3  249   2.748   2.057   1.412 -0.2528 -0.0461  0.6364
   16MPD2    C4  250   2.655   2.038   1.315  0.3771  0.1941  0.3362
   16MPD2    C5  251   2.569   2.143   1.282 -0.2783 -0.5423  0.3555
   16MPD2     H  252   2.829   2.200   1.550 -0.2584  0.8802 -0.0875
   16MPD2    H1  253   2.634   1.947   1.260 -2.0696  1.0547 -0.1359
   16MPD2    H2  254   2.498   2.342   1.324 -0.1354  0.1224  0.3195
   16MPD2    H3  255   2.501   2.122   1.200  0.9783 -0.3482 -0.7487
   16MPD2     N  256   2.838   1.958   1.451  0.3578  0.2968  0.0715
   16MPD2    H5  257   2.898   1.985   1.529  0.9022  1.4722 -0.7547
   16MPD2    N1  258   2.656   2.405   1.515 -0.4346 -0.5268  0.0739
   16MPD2    H7  259   2.597   2.477   1.476 -2.1496 -1.2769  1.3011
   17TMC1    C1  260   0.364   2.945  11.058  0.0369 -0.7390 -0.4151
   17TMC1    C2  261   0.462   2.944  10.963 -0.2036 -0.1530 -0.8842
   17TMC1    C3  262   0.438   2.862  10.858 -0.4770  0.2591 -0.1666
   17TMC1    C4  263   0.246   2.872  11.054  0.3154  0.2593 -0.2827
   17TMC1    C5  264   0.227   2.803  10.935  0.0431  0.0604 -0.5342
   17TMC1    C6  265   0.321   2.798  10.832 -0.2240 -1.4441 -0.4430
   17TMC1     C  266   0.383   3.016  11.193  0.3025  0.8469 -0.1066
   17TMC1     O  267   0.288   3.037  11.262  0.2210 -0.4218 -0.2096
   17TMC1     H  268   0.551   3.006  10.974 -1.0781  0.9737 -0.1727
   17TMC1    H1  269   0.164   2.890  11.123 -0.7644 -0.9053 -1.2626
   17TMC1    H2  270   0.317   2.733  10.745 -6.0788 -1.5304 -0.1632
   17TMC1    C7  271   0.148   2.677  10.949  0.0675 -0.2969  0.6286
   17TMC1    C8  272   0.533   2.872  10.751  0.4442  0.5033  0.5916
   17TMC1    O1  273   0.105   2.612  10.858 -0.5403 -0.1993 -0.3495
   17TMC1    O2  274   0.490   2.833  10.641 -0.1366 -0.9655  0.0615
   17TMC1    O3  275   0.150   2.649  11.084 -0.1999  0.5842 -0.6734
   17TMC1    H3  276   0.209   2.703  11.141 -0.7910  0.2850  0.2190
   17TMC1    O5  277   0.651   2.865  10.800  0.7211 -0.0140  0.0075
   17TMC1    H5  278   0.674   2.879  10.894  0.3839 -1.9683  0.3760
   18MPD2     C  279   0.493   3.132  11.432  0.6505  0.5184  0.9610
   18MPD2    C1  280   0.573   3.049  11.352  0.3695 -0.1576  0.7225
   18MPD2    C2  281   0.707   3.025  11.380  0.2814 -0.0090  0.0819
   18MPD2    C3  282   0.754   3.074  11.504 -0.8763 -0.0936  0.1896
   18MPD2    C4  283   0.676   3.156  11.582  0.4958  0.1359  0.4680
   18MPD2    C5  284   0.543   3.181  11.553 -0.0985 -0.9690  1.1269
   18MPD2     H  285   0.774   2.983  11.306  1.2419  1.3613  0.1729
   18MPD2    H1  286   0.728   3.183  11.673 -1.2386  0.5877  1.3218
   18MPD2    H2  287   0.397   3.169  11.399  0.6802  0.8022  1.1904
   18MPD2    H3  288   0.472   3.236  11.614 -0.5711  0.1537 -0.4369
   18MPD2     N  289   0.892   3.054  11.538 -0.0769 -0.3382  0.4340
   18MPD2    H5  290   0.927   3.112  11.613 -0.1422  0.0223  0.1859
   18MPD2    N1  291   0.515   3.006  11.229  0.5087 -0.4407  0.5485
   18MPD2    H7  292   0.579   2.972  11.158 -1.4948 -0.3244 -1.3098
   19TMC2    C1  293   2.065   3.685  14.212 -0.1816  0.0704 -0.0792
   19TMC2    C2  294   2.002   3.778  14.133 -0.2733  1.0806  0.2170
   19TMC2    C3  295   1.880   3.747  14.091  0.9694 -0.1021 -0.6672
   19TMC2    C4  296   2.007   3.569  14.259 -0.2361 -0.5784  0.0385
   19TMC2    C5  297   1.882   3.541  14.207  0.5419  0.5740 -0.4241
   19TMC2    C6  298   1.814   3.629  14.130  0.4570 -0.2301 -0.3425
   19TMC2     C  299   2.198   3.720  14.248  0.2423 -0.9257 -0.3187
   19TMC2     O  300   2.230   3.832  14.217  0.2206 -0.3248 -0.0739
   19TMC2     H  301   2.054   3.859  14.082 -1.0955  0.6579 -1.2714
   19TMC2    H1  302   2.063   3.488  14.306  0.2461 -0.1256  0.2417
   19TMC2    H2  303   1.724   3.604  14.075  0.5549  0.1960 -0.6946
   19TMC2    C7  304   1.851   3.398  14.202  0.0824  0.9600 -0.3703
   19TMC2    C8  305   1.828   3.822  13.980 -0.0978  0.1596 -0.3472
   19TMC2    O1  306   1.938   3.320  14.229 -0.3415 -0.4462 -0.4820
   19TMC2    O2  307   1.891   3.839  13.875  0.4844 -0.4217 -0.3078
   19TMC2    O5  308   1.696   3.840  13.990 -0.2955 -0.0882 -0.0388
   19TMC2    H5  309   1.669   3.811  14.080 -0.0764  0.5106  0.2218
   20MPD2     C  310   2.454   3.756  14.387 -0.2667  0.1421 -0.6668
   20MPD2    C1  311   2.392   3.637  14.370  0.5164  0.2926  0.6302
   20MPD2    C2  312   2.447   3.530  14.429 -0.2627 -0.1900 -0.2516
   20MPD2    C3  313   2.570   3.536  14.497 -0.2094 -0.8101  0.4964
   20MPD2    C4  314   2.631   3.655  14.505 -0.3797 -0.6828 -0.4797
   20MPD2    C5  315   2.578   3.761  14.447  0.3162  0.9300  0.2107
   20MPD2     H  316   2.395   3.435  14.426 -0.1962 -0.2067 -0.7441
   20MPD2    H1  317   2.727   3.661  14.555 -0.3324 -1.2969 -0.4998
   20MPD2    H2  318   2.411   3.851  14.358  1.4240  1.0160 -0.2823
   20MPD2    H3  319   2.625   3.856  14.469  0.2996  0.9466  0.1746
   20MPD2     N  320   2.632   3.426  14.565 -0.2667  0.3549 -0.7092
   20MPD2    H5  321   2.707   3.448  14.631 -1.7520  2.6124  0.2077
   20MPD2    N1  322   2.273   3.616  14.298  0.3654 -1.2070  0.0048
   20MPD2    H7  323   2.222   3.528  14.299 -1.6349 -0.0653 -0.9775
   21TMC2    C1  324   4.655   4.044  14.442  0.1298  0.3328  0.0255
   21TMC2    C2  325   4.734   3.939  14.461  0.4946  0.3403 -0.1362
   21TMC2    C3  326   4.702   3.840  14.554  0.2227  0.0227 -0.5900
   21TMC2    C4  327   4.547   4.065  14.528  0.3288 -0.0740  0.1098
   21TMC2    C5  328   4.515   3.965  14.619 -0.9592 -0.5769  0.2856
   21TMC2    C6  329   4.600   3.857  14.642 -0.3316 -0.3253  0.4225
   21TMC2     C  330   4.727   4.161  14.401  0.3555 -0.5453  0.1044
   21TMC2     O  331   0.104   4.143  14.358  0.0937  0.4083  0.0195
   21TMC2     H  332   0.081   3.924  14.396  0.6730  1.4082 -0.1414
   21TMC2    H1  333   4.476   4.145  14.510  1.3798  0.5622 -1.2087
   21TMC2    H2  334   4.567   3.782  14.713  0.1408 -1.3233 -0.4204
   21TMC2    C7  335   4.442   4.013  14.736 -0.2115  0.4805 -0.0878
   21TMC2    C8  336   0.062   3.734  14.577 -0.4389 -0.3388  0.0232
   21TMC2    O1  337   4.487   3.973  14.841  0.0679  0.0760  0.2165
   21TMC2    O2  338   0.094   3.689  14.688 -0.1109  0.4678 -0.1067
   21TMC2    O5  339   0.115   3.710  14.457  0.8033 -0.1926 -0.5760
   21TMC2    H5  340   0.057   3.736  14.382 -0.1171 -2.7671 -0.7543
   22MPD2     C  341   0.084   4.629  14.554 -0.1391 -0.8439  0.2263
   22MPD2    C1  342   0.172   4.529  14.535 -0.0897 -0.7713 -0.4132
   22MPD2    C2  343   0.115   4.409  14.485 -0.3238  0.4645 -0.0102
   22MPD2    C3  344   4.721   4.399  14.446 -0.3565  0.2285  0.3755
   22MPD2    C4  345   4.640   4.511  14.460  0.0450 -0.0917  0.4644
   22MPD2    C5  346   4.693   4.622  14.512  0.3989  0.2103  0.1373
   22MPD2     H  347   0.182   4.327  14.464  1.6761  2.2871 -0.7976
   22MPD2    H1  348   4.537   4.515  14.427  0.4404 -0.3506 -0.7847
   22MPD2    H2  349   0.104   4.724  14.602  2.8228 -1.0103 -0.6154
   22MPD2    H3  350   4.632   4.711  14.525 -1.1757 -1.0321  1.2179
   22MPD2     N  351   4.663   4.280  14.416 -0.2381  1.0292 -0.4086
   22MPD2    H5  352   4.563   4.274  14.429 -0.0965 -0.1693  0.1972
   22MPD2    N1  353   0.310   4.540  14.563  0.1592  0.3186  0.1226
   22MPD2    H7  354   0.369   4.463  14.534 -0.7638 -0.7644  1.1185
   23TMC2    C1  355   0.924   0.757  15.120  0.1330  0.5389  0.1283
   23TMC2    C2  356   0.819   0.773  15.210  0.5678  0.4962 -0.3749
   23TMC2    C3  357   0.694   0.768  15.165  0.2084 -0.3787  0.1234
   23TMC2    C4  358   0.900   0.766  14.981 -0.1966  1.1048 -0.1075
   23TMC2    C5  359   0.763   0.769  14.941  0.1948  0.2426  0.7086
   23TMC2    C6  360   0.666   0.768  15.034 -0.0142  0.5830  0.6130
   23TMC2     C  361   1.057   0.718  15.177 -0.4405 -0.6116 -0.2143
   23TMC2     O  362   1.053   0.689  15.298  0.0124  0.3119 -0.0431
   23TMC2     H  363   0.844   0.777  15.315  1.8935  2.4021 -0.7628
   23TMC2    H1  364   0.980   0.741  14.912 -2.0391 -0.3713 -1.6997
   23TMC2    H2  365   0.560   0.764  15.013  0.4009 -0.7766 -1.2128
   23TMC2    C7  366   0.735   0.750  14.800  0.0402  0.2227  0.0349
   23TMC2    C8  367   0.578   0.756  15.252 -0.3225 -0.5790 -0.4827
   23TMC2    O1  368   0.842   0.769  14.742 -0.1356 -0.3645  0.0946
   23TMC2    O2  369   0.472   0.818  15.243 -0.3787 -0.3527 -0.2631
   23TMC2    O5  370   0.586   0.641  15.318 -0.5289 -0.1223  0.2673
   23TMC2    H5  371   0.655   0.576  15.291 -1.6521 -0.9660 -0.5975
   24MPD2     C  372   1.530   0.541  15.153  0.3885 -0.2319 -0.3454
   24MPD2    C1  373   1.444   0.544  15.259  0.1942 -0.5123  0.4010
   24MPD2    C2  374   1.329   0.615  15.244 -0.3012  0.3010  0.1183
   24MPD2    C3  375   1.292   0.670  15.122 -0.1136  0.3974  0.6253
   24MPD2    C4  376   1.380   0.663  15.015  0.6166 -0.1192  0.3391
   24MPD2    C5  377   1.498   0.602  15.035 -0.1028 -0.2975  0.1542
   24MPD2     H  378   1.265   0.620  15.332  0.3677 -0.5352  0.6548
   24MPD2    H1  379   1.357   0.719  14.925 -1.3067 -3.3174 -1.1771
   24MPD2    H2  380   1.615   0.473  15.158 -1.1945 -2.2547 -0.8471
   24MPD2    H3  381   1.569   0.585  14.955 -0.1994  0.8236 -0.1644
   24MPD2     N  382   1.170   0.728  15.095  0.1244  0.1104 -0.2018
   24MPD2    H5  383   1.152   0.747  14.997  0.5638 -0.7126 -0.4414
   24MPD2    N1  384   1.464   0.476  15.380  0.5644 -0.6204 -0.2582
   24MPD2    H7  385   1.391   0.485  15.450  2.6274  1.0623  1.6847
   25TMC2    C1  386   0.598   2.193  12.279  0.8522 -0.3660 -0.1294
   25TMC2    C2  387   0.724   2.194  12.336 -0.1739  0.0850 -0.2351
   25TMC2    C3  388   0.732   2.107  12.444 -0.3048  0.7988  0.0411
   25TMC2    C4  389   0.492   2.110  12.316  0.3441 -0.0346 -0.6933
   25TMC2    C5  390   0.509   2.031  12.422 -0.0520 -0.2030  0.4663
   25TMC2    C6  391   0.626   2.035  12.489  0.2343 -0.1197 -0.2498
   25TMC2     C  392   0.556   2.310  12.206 -0.0824 -0.7212  0.7924
   25TMC2     O  393   0.639   2.399  12.192  0.2258 -0.2172 -0.0593
   25TMC2     H  394   0.808   2.258  12.310 -0.7190  1.3728  1.1839
   25TMC2    H1  395   0.390   2.111  12.279 -0.3677 -0.3737  1.2351
   25TMC2    H2  396   0.653   1.977  12.577  0.0720 -0.2861 -0.3089
   25TMC2    C7  397   0.382   2.003  12.494  0.6586  0.2027 -0.6564
   25TMC2    C8  398   0.852   2.126  12.519  0.7304 -0.0633 -0.4091
   25TMC2    O1  399   0.293   2.086  12.486  0.3249 -0.2097 -0.1493
   25TMC2    O2  400   0.951   2.156  12.464 -0.0282 -0.3311  0.0771
   25TMC2    O5  401   0.802   2.205  12.622 -0.3686  0.2495  0.2012
   25TMC2    H5  402   0.710   2.180  12.645  0.0852 -0.9119  0.7649
   26MPD2     C  403   0.196   2.605  11.960  0.3965 -0.3677  1.3940
   26MPD2    C1  404   0.157   2.474  11.958 -0.6444 -0.0665 -0.5900
   26MPD2    C2  405   0.245   2.378  12.009 -0.1963  0.2832 -0.0085
   26MPD2    C3  406   0.366   2.406  12.068  0.6720 -0.3638  0.0019
   26MPD2    C4  407   0.386   2.540  12.090 -0.3215 -0.5163 -0.6439
   26MPD2    C5  408   0.310   2.636  12.024  0.0838  0.1259  0.1875
   26MPD2     H  409   0.217   2.274  11.999 -0.9891  0.2793  2.1717
   26MPD2    H1  410   0.473   2.583  12.138 -0.4398 -1.6693  0.5965
   26MPD2    H2  411   0.135   2.681  11.912  1.0906 -1.1544 -0.7216
   26MPD2    H3  412   0.329   2.742  12.036 -0.9631  0.3676 -0.2559
   26MPD2     N  413   0.441   2.303  12.133 -0.2633 -0.5395 -0.8045
   26MPD2    H5  414   0.403   2.210  12.118  1.6145 -1.2701 -1.0079
   26MPD2    N1  415   0.043   2.430  11.886 -0.7847  0.3231 -0.3384
   26MPD2    H7  416   4.726   2.494  11.829 -2.0803  0.5354  1.1328
   27TMC2    C1  417   4.014   4.583  12.138  0.1152  0.2462 -0.2313
   27TMC2    C2  418   3.995   4.678  12.045 -1.0285 -0.2973 -0.5934
   27TMC2    C3  419   4.043   0.061  12.076 -0.2195  0.3429  0.2924
   27TMC2    C4  420   4.072   4.602  12.263 -0.4207 -0.1979  0.0988
   27TMC2    C5  421   4.093   4.731  12.299 -0.3560  0.2931  0.7796
   27TMC2    C6  422   4.092   0.094  12.202  0.2529  0.4772 -0.5202
   27TMC2     C  423   3.921   4.469  12.132  0.1895  0.5232  0.5986
   27TMC2     O  424   3.875   4.434  12.023  0.7049 -0.3286  0.9074
   27TMC2     H  425   3.945   4.662  11.951 -2.5364  0.1694  0.1195
   27TMC2    H1  426   4.095   4.521  12.330  1.4331 -0.3519 -0.7188
   27TMC2    H2  427   4.112   0.192  12.242 -2.1976  1.1638 -1.0243
   27TMC2    C7  428   4.043   0.025  12.428 -0.4107 -0.2396 -0.3560
   27TMC2    C8  429   4.039   0.158  11.966 -0.6296  0.2966 -0.7422
   27TMC2    O1  430   3.995   4.666  12.489  0.2866  0.8374  0.1918
   27TMC2    O2  431   4.038   0.131  11.847  0.3411  0.0666 -0.3703
   27TMC2    O5  432   4.032   0.282  12.016 -0.1221  0.3448  0.1407
   27TMC2    H5  433   4.007   0.296  12.109  0.6316  0.5598  0.3132
   28MPD2     C  434   3.573   4.142  12.331  0.2798  0.0838 -0.4526
   28MPD2    C1  435   3.602   4.236  12.433 -0.1551  0.3277  0.6986
   28MPD2    C2  436   3.704   4.329  12.403 -0.1990  0.0888  0.0529
   28MPD2    C3  437   3.773   4.334  12.283  0.1594 -0.0681  0.9164
   28MPD2    C4  438   3.736   4.238  12.190  0.3627  0.1958 -0.0755
   28MPD2    C5  439   3.636   4.151  12.209  0.1071 -0.0924  0.2535
   28MPD2     H  440   3.727   4.405  12.477 -1.2032  0.0210  0.4422
   28MPD2    H1  441   3.781   4.236  12.091 -2.7989  0.7436 -1.5005
   28MPD2    H2  442   3.491   4.071  12.339  0.4551 -0.4695 -3.5174
   28MPD2    H3  443   3.617   4.078  12.131 -0.6716 -0.3402  0.6771
   28MPD2     N  444   3.877   4.428  12.260 -0.2450 -0.2514  0.1103
   28MPD2    H5  445   3.898   4.492  12.336  0.7006 -0.7145  0.2480
   28MPD2    N1  446   3.525   4.246  12.546  0.3709 -0.0897  0.2299
   28MPD2    H7  447   3.459   4.170  12.563  1.4044 -1.3286 -1.3852
   29TMC2    C1  448   3.220   2.394  14.896 -1.0001 -0.1232  0.1045
   29TMC2    C2  449   3.180   2.363  15.026 -0.5672 -0.4790  0.6268
   29TMC2    C3  450   3.137   2.462  15.108 -0.1220 -0.1240  0.2243
   29TMC2    C4  451   3.219   2.523  14.848  0.1916 -0.1754  0.5082
   29TMC2    C5  452   3.205   2.617  14.944 -0.3650 -0.4224 -0.5351
   29TMC2    C6  453   3.169   2.586  15.073 -0.3247  0.1526 -0.2522
   29TMC2     C  454   3.250   2.283  14.805 -0.0532 -0.2767 -0.1136
   29TMC2     O  455   3.258   2.174  14.865  0.0498 -0.0532  0.4153
   29TMC2     H  456   3.170   2.257  15.045  0.5348 -0.4635  1.3081
   29TMC2    H1  457   3.226   2.551  14.743 -0.4468 -0.6848  0.3311
   29TMC2    H2  458   3.136   2.671  15.132  0.6249 -0.1165  0.6685
   29TMC2    C7  459   3.177   2.752  14.896 -0.2483 -0.7799 -0.6970
   29TMC2    C8  460   3.093   2.433  15.250 -0.1382 -0.2841  0.1486
   29TMC2    O1  461   3.061   2.792  14.874  0.0361  1.0453 -0.1051
   29TMC2    O2  462   3.117   2.504  15.343 -0.1131 -0.0645 -0.4191
   29TMC2    O5  463   3.004   2.330  15.245  0.3248 -0.0513 -0.3223
   29TMC2    H5  464   2.982   2.314  15.151 -1.6231  2.3869 -0.2940
   30MPD2     C  465   3.462   2.077  14.365  0.0251 -0.1759 -0.0964
   30MPD2    C1  466   3.403   2.013  14.475  0.4639  0.5623  1.2675
   30MPD2    C2  467   3.351   2.098  14.580 -0.2739 -0.5961  0.2462
   30MPD2    C3  468   3.360   2.234  14.582 -0.6176 -0.8691  0.1017
   30MPD2    C4  469   3.422   2.291  14.477 -0.1796  0.4957 -0.0782
   30MPD2    C5  470   3.471   2.214  14.371 -0.9735 -0.1712  0.6280
   30MPD2     H  471   3.303   2.054  14.667 -0.5745  2.4413  1.6201
   30MPD2    H1  472   3.430   2.400  14.477  0.7717  0.4118  1.9760
   30MPD2    H2  473   3.500   2.046  14.269  0.6055 -1.9323  0.6986
   30MPD2    H3  474   3.522   2.270  14.294 -0.9867  0.9975  1.4749
   30MPD2     N  475   3.314   2.319  14.692  0.2917 -0.6865 -0.3479
   30MPD2    H5  476   3.335   2.418  14.683  1.1289 -0.9217 -0.9564
   30MPD2    N1  477   3.398   1.874  14.477 -0.6064 -0.3612 -0.4203
   30MPD2    H7  478   3.375   1.829  14.565  0.3429 -0.4293 -0.2058
   31TMC2    C1  479   0.734   0.968  15.677 -0.7106 -0.1254 -0.0869
   31TMC2    C2  480   0.616   1.038  15.648  0.1967 -0.6152  0.4016
   31TMC2    C3  481   0.546   1.077  15.760  0.2843 -0.0696  0.1975
   31TMC2    C4  482   0.767   0.915  15.797 -0.0995  0.1549  0.5822
   31TMC2    C5  483   0.695   0.965  15.903 -0.1165  0.3139 -0.1831
   31TMC2    C6  484   0.586   1.043  15.886 -0.4010 -0.1014  0.2676
   31TMC2     C  485   0.830   0.961  15.566 -0.6364 -0.6458  0.4632
   31TMC2     O  486   0.793   1.002  15.459 -0.7536 -0.3030  0.3695
   31TMC2     H  487   0.593   1.077  15.550 -0.0872 -0.8456  0.3790
   31TMC2    H1  488   0.865   0.870  15.811  0.1180 -0.0971 -1.6691
   31TMC2    H2  489   0.520   1.050  15.972  0.1606 -0.0294  0.6929
   31TMC2    C7  490   0.735   0.911  16.039  0.1986 -0.1600 -0.0760
   31TMC2    C8  491   0.445   1.180  15.754  0.4229 -0.4498 -0.0493
   31TMC2    O1  492   0.823   0.831  16.048 -0.7954 -0.1979 -0.2776
   31TMC2    O2  493   0.397   1.228  15.854  0.2527  0.1499 -0.2256
   31TMC2    O5  494   0.428   1.223  15.627 -0.1458  0.2018 -0.0682
   31TMC2    H5  495   0.456   1.166  15.552 -0.5894 -0.4224  0.2400
   32MPD2     C  496   1.294   0.948  15.353 -0.3015 -1.3326  0.2889
   32MPD2    C1  497   1.176   1.009  15.321  0.9365 -0.2105  0.0133
   32MPD2    C2  498   1.065   1.004  15.400  0.1896 -0.4570  0.0637
   32MPD2    C3  499   1.065   0.929  15.513  0.6727 -0.1203 -0.0714
   32MPD2    C4  500   1.178   0.858  15.539  0.1453  0.3095 -0.2089
   32MPD2    C5  501   1.291   0.872  15.465  1.2307 -0.0628  0.2542
   32MPD2     H  502   0.974   1.058  15.377  0.1746  0.1774  1.6201
   32MPD2    H1  503   1.175   0.800  15.630  1.3036 -1.4816 -1.3122
   32MPD2    H2  504   1.382   0.971  15.294 -0.7215  0.3484  0.3253
   32MPD2    H3  505   1.374   0.810  15.496  1.4732 -0.4558 -1.1635
   32MPD2     N  506   0.954   0.912  15.597 -0.4963 -0.0810  0.3202
   32MPD2    H5  507   0.964   0.853  15.679 -0.0763 -1.9068 -1.0455
   32MPD2    N1  508   1.180   1.082  15.200 -0.6285 -0.0800 -0.1578
   32MPD2    H7  509   1.252   1.050  15.135 -1.5241  0.1942 -1.2853
   33TMC2    C1  510   1.441   3.207  10.830 -0.3893  0.3467 -0.1971
   33TMC2    C2  511   1.351   3.128  10.766 -0.0903 -0.2815  0.5421
   33TMC2    C3  512   1.274   3.179  10.665  0.0907  0.7590  0.5032
   33TMC2    C4  513   1.464   3.336  10.795  0.7374 -0.4540  0.4027
   33TMC2    C5  514   1.386   3.391  10.695  0.0025  0.2966  0.1938
   33TMC2    C6  515   1.298   3.310  10.623  0.7870 -0.4487 -0.0748
   33TMC2     C  516   1.463   3.169  10.971  0.1709 -0.4800  0.2469
   33TMC2     O  517   1.373   3.105  11.020 -0.0849  0.0504 -0.3822
   33TMC2     H  518   1.337   3.029  10.807  0.6708 -0.5727  0.0831
   33TMC2    H1  519   1.526   3.410  10.843  0.2029  0.2588  0.0040
   33TMC2    H2  520   1.252   3.339  10.530  1.1113 -1.7334 -0.6281
   33TMC2    C7  521   1.377   3.535  10.686 -0.0124 -0.0538  0.0308
   33TMC2    C8  522   1.204   3.089  10.581  0.2969 -0.1362  0.7302
   33TMC2    O1  523   1.477   3.598  10.727 -0.1049  0.3034  0.0411
   33TMC2    O2  524   1.132   3.125  10.488 -0.2167 -0.0549 -0.0310
   33TMC2    O5  525   1.259   2.969  10.587 -0.4742 -0.1073  0.8428
   33TMC2    H5  526   1.322   2.966  10.663 -0.1703 -0.7754  0.5558
   34MPD2     C  527   1.722   3.204  11.410 -0.0311  0.2063 -0.1397
   34MPD2    C1  528   1.592   3.173  11.385  0.3483  0.2177 -0.0853
   34MPD2    C2  529   1.545   3.179  11.255 -1.0437 -0.0876 -0.6771
   34MPD2    C3  530   1.627   3.217  11.153  0.0544 -0.2080 -0.6662
   34MPD2    C4  531   1.758   3.251  11.178 -0.2868 -0.0716  0.5221
   34MPD2    C5  532   1.804   3.233  11.303  0.3869 -0.2328  0.1292
   34MPD2     H  533   1.444   3.145  11.235  0.0555 -2.7038 -1.7345
   34MPD2    H1  534   1.836   3.280  11.109  0.4631 -1.3022  0.8559
   34MPD2    H2  535   1.765   3.185  11.507 -1.8914 -0.6756  0.4956
   34MPD2    H3  536   1.911   3.244  11.318 -0.1296  0.9377  2.9547
   34MPD2     N  537   1.584   3.222  11.017  0.2368 -1.5001  0.2287
   34MPD2    H5  538   1.643   3.258  10.942 -0.0560 -2.9218 -0.6896
   34MPD2    N1  539   1.506   3.145  11.490  0.4385  0.2640 -0.2854
   34MPD2    H7  540   1.549   3.123  11.579 -1.3265 -1.1457  0.2205
   35TMC2    C1  541   2.331   4.328  11.348  0.2376 -0.5789  0.5088
   35TMC2    C2  542   2.280   4.298  11.220  0.2181 -0.3035  0.6370
   35TMC2    C3  543   2.161   4.222  11.223 -0.5109 -0.2776 -0.9278
   35TMC2    C4  544   2.276   4.287  11.469  0.1371 -0.4189 -0.1310
   35TMC2    C5  545   2.161   4.213  11.462  0.5940  0.1756 -0.0719
   35TMC2    C6  546   2.109   4.175  11.342  0.0843 -0.5615 -0.2347
   35TMC2     C  547   2.464   4.388  11.350  0.8032 -0.1336 -0.0381
   35TMC2     O  548   2.500   4.445  11.244  0.4277 -0.4897  0.4680
   35TMC2     H  549   2.345   4.296  11.133 -1.7025 -1.7281 -0.7763
   35TMC2    H1  550   2.313   4.334  11.559 -0.6056  0.3372 -0.2284
   35TMC2    H2  551   2.023   4.111  11.325 -1.9900  1.5663  2.1151
   35TMC2    C7  552   2.092   4.170  11.583  0.1825  0.4075 -0.2244
   35TMC2    C8  553   2.104   4.164  11.107 -0.2941 -0.0054 -0.2819
   35TMC2    O1  554   2.155   4.182  11.687  0.2416 -0.8505  0.3537
   35TMC2    O2  555   2.026   4.070  11.111  0.1419 -0.4505  0.2459
   35TMC2    O5  556   2.104   4.253  11.012 -0.1202 -0.2185  0.0442
   35TMC2    H5  557   2.164   4.328  11.032  0.1157 -0.2867 -0.4196
   36MPD2     C  558   2.929   4.399  11.556 -0.0877 -0.1475 -0.2489
   36MPD2    C1  559   2.841   4.338  11.645  0.1941 -0.0588  0.0803
   36MPD2    C2  560   2.710   4.334  11.611 -0.3835  0.1063  0.0400
   36MPD2    C3  561   2.666   4.376  11.493 -0.0585 -0.1946 -0.4693
   36MPD2    C4  562   2.745   4.444  11.405  0.3771  0.1522  0.2913
   36MPD2    C5  563   2.881   4.453  11.442 -0.2125  0.7463 -0.2093
   36MPD2     H  564   2.639   4.292  11.682  0.2208 -2.0178 -0.6242
   36MPD2    H1  565   2.714   4.460  11.303  1.5091  0.5709  0.0189
   36MPD2    H2  566   3.036   4.400  11.577 -0.3259 -2.4650  1.0392
   36MPD2    H3  567   2.958   4.490  11.375  2.9485  0.6488  3.3650
   36MPD2     N  568   2.531   4.348  11.463  0.3058 -0.4984 -0.1985
   36MPD2    H5  569   2.477   4.290  11.526 -1.2059 -1.7479 -2.6482
   36MPD2    N1  570   2.906   4.276  11.761 -0.5613  0.1831 -0.3237
   36MPD2    H7  571   3.005   4.290  11.776 -0.3219  0.0935 -1.8217
   37TMC2    C1  572   0.297   4.641  11.978  0.5977  0.3128  0.0559
   37TMC2    C2  573   0.171   4.597  11.963 -0.5580  0.3159 -0.4723
   37TMC2    C3  574   0.104   4.606  11.845 -0.1677  0.0788 -0.0541
   37TMC2    C4  575   0.349   4.728  11.881 -0.2511  0.3776 -0.0779
   37TMC2    C5  576   0.276   0.005  11.761  0.1507  0.3642  0.1641
   37TMC2    C6  577   0.157   4.685  11.745  0.3492  0.1344 -0.1651
   37TMC2     C  578   0.339   4.672  12.114 -0.1632 -0.5642  0.6776
   37TMC2     O  579   0.296   4.593  12.196  0.3426 -0.0021 -0.0619
   37TMC2     H  580   0.130   4.538  12.045  0.3807  0.4318  0.0795
   37TMC2    H1  581   0.452   0.021  11.888 -0.3787  0.9687 -0.7017
   37TMC2    H2  582   0.109   4.685  11.648  1.4783 -1.1800 -0.7196
   37TMC2    C7  583   0.317   0.131  11.694 -0.0219  0.4567 -0.1531
   37TMC2    C8  584   4.701   4.598  11.865  0.4130 -0.7980 -0.4118
   37TMC2    O1  585   0.413   0.194  11.737  0.5061 -0.1120  0.0979
   37TMC2    O2  586   4.660   4.534  11.958  0.1731  0.0958 -1.1459
   37TMC2    O5  587   4.636   4.673  11.778  0.4238  0.0903  0.0686
   37TMC2    H5  588   4.699   4.735  11.736 -0.6636  1.4028  0.3784
   38MPD2     C  589   0.608   0.177  12.486 -0.3690 -0.5596  0.2392
   38MPD2    C1  590   0.629   0.248  12.372  0.3611  0.4881 -1.0466
   38MPD2    C2  591   0.566   0.194  12.259  0.2784 -0.3625  0.0610
   38MPD2    C3  592   0.476   0.090  12.260  0.1526 -0.8892 -0.4821
   38MPD2    C4  593   0.445   0.033  12.379  0.7830  1.1386  0.0650
   38MPD2    C5  594   0.512   0.074  12.487  0.2033  0.8119 -0.0128
   38MPD2     H  595   0.598   0.228  12.161  0.3663 -1.2957 -0.2322
   38MPD2    H1  596   0.374   4.689  12.386  1.4569  0.5118 -0.2968
   38MPD2    H2  597   0.650   0.201  12.583 -0.1100 -1.0304  0.2430
   38MPD2    H3  598   0.491   0.031  12.584  2.4942 -0.4793 -0.0793
   38MPD2     N  599   0.421   0.040  12.139  0.1804 -0.1193  0.4021
   38MPD2    H5  600   0.440   0.102  12.060  0.0852 -0.6095 -0.0052
   38MPD2    N1  601   0.712   0.361  12.355  0.4277  0.3220 -0.5484
   38MPD2    H7  602   0.711   0.402  12.262  1.0756 -1.8093 -1.5184
   39TMC2    C1  603   3.184   2.004   2.124 -0.6802  1.1025  0.9611
   39TMC2    C2  604   3.200   1.974   2.256 -0.2447 -0.7794 -0.1151
   39TMC2    C3  605   3.272   2.067   2.325 -0.4316  0.3866 -0.9918
   39TMC2    C4  606   3.198   2.126   2.065 -0.2087  0.7223  0.0113
   39TMC2    C5  607   3.260   2.223   2.141  0.1959  0.2518 -1.0503
   39TMC2    C6  608   3.297   2.193   2.273 -0.2683  0.0148 -0.2288
   39TMC2     C  609   3.142   1.905   2.030  0.9469  0.0165 -0.0796
   39TMC2     O  610   3.079   1.950   1.935  0.4217 -0.0194  0.3005
   39TMC2     H  611   3.178   1.875   2.294 -1.1354 -0.5360 -0.0051
   39TMC2    H1  612   3.166   2.146   1.963 -1.2687  0.4792  0.2943
   39TMC2    H2  613   3.362   2.260   2.328  1.1517 -0.4721 -1.3155
   39TMC2    C7  614   3.327   2.332   2.076 -0.9508 -0.0410  0.0221
   39TMC2    C8  615   3.314   2.046   2.464  0.0102 -0.1785  0.0002
   39TMC2    O1  616   3.366   2.424   2.146  0.3705  0.7401  0.0968
   39TMC2    O2  617   3.412   2.090   2.521  0.3203  0.9932  0.0645
   39TMC2    O5  618   3.215   1.979   2.532 -0.0538  0.2284 -0.0247
   39TMC2    H5  619   3.138   1.957   2.475 -0.7214  1.5882  0.3564
   40MPD2     C  620   3.187   1.545   2.025 -0.4676  0.2162 -0.5445
   40MPD2    C1  621   3.121   1.662   1.998 -0.3338 -0.1324 -0.1082
   40MPD2    C2  622   3.010   1.656   1.917  0.0167  0.0798 -0.1926
   40MPD2    C3  623   2.955   1.538   1.866 -0.2510 -0.6114  0.0747
   40MPD2    C4  624   3.021   1.426   1.897  0.1106  0.1586 -0.5569
   40MPD2    C5  625   3.138   1.429   1.980  0.0895  0.1376  0.8091
   40MPD2     H  626   2.968   1.755   1.901  0.9698  0.9976  2.8344
   40MPD2    H1  627   2.984   1.328   1.869  0.0855 -0.4462  1.5816
   40MPD2    H2  628   3.272   1.543   2.092 -1.5217 -1.1901  0.7427
   40MPD2    H3  629   3.194   1.338   1.995  0.6829  0.3545 -0.0280
   40MPD2     N  630   2.832   1.533   1.795 -0.1837  0.3424  0.2351
   40MPD2    H5  631   2.818   1.441   1.755 -2.4099  0.5864  0.4344
   40MPD2    N1  632   3.166   1.774   2.064 -0.0763 -0.4364  0.2279
   40MPD2    H7  633   3.230   1.766   2.141  1.6543  0.0155 -1.1653
   41TMC2    C1  634   2.504   0.103  14.461 -0.3210  0.4416  0.7436
   41TMC2    C2  635   2.448   4.724  14.433  0.5590 -0.1740  0.1926
   41TMC2    C3  636   2.452   4.688  14.297 -0.0481  0.1212 -0.6273
   41TMC2    C4  637   2.565   0.180  14.365 -0.2165  0.9263  0.0735
   41TMC2    C5  638   2.565   0.144  14.234 -0.0214  0.3631 -0.0063
   41TMC2    C6  639   2.505   0.024  14.195 -1.1648 -0.0478 -0.2972
   41TMC2     C  640   2.471   0.179  14.574 -0.0878 -0.1227 -0.0713
   41TMC2     O  641   2.556   0.249  14.629  0.2722 -0.6074  0.0844
   41TMC2     H  642   2.402   4.662  14.510  1.9136 -0.8404  0.4780
   41TMC2    H1  643   2.616   0.269  14.400 -1.0937  1.5767 -0.3167
   41TMC2    H2  644   2.508   4.728  14.092  3.2176 -1.6363  0.3139
   41TMC2    C7  645   2.659   0.224  14.156 -0.5685 -0.6800  0.2815
   41TMC2    C8  646   2.376   4.569  14.253  0.0126 -0.2070 -1.1891
   41TMC2    O1  647   2.735   0.293  14.221 -0.4660 -0.1665  1.0091
   41TMC2    O2  648   2.342   4.554  14.139  0.4088 -0.5274 -0.5831
   41TMC2    O5  649   2.373   4.474  14.344  0.2737 -0.0807 -0.1806
   41TMC2    H5  650   2.432   4.486  14.422  1.0676 -0.4264 -0.7279
   42MPD2     C  651   2.327   0.293  14.813 -0.5861 -0.3034  0.0784
   42MPD2    C1  652   2.275   0.255  14.690  0.7439  0.0688  0.2429
   42MPD2    C2  653   2.145   0.298  14.663  0.2775 -0.1573  0.2044
   42MPD2    C3  654   2.066   0.347  14.761  0.0825 -0.1676 -0.0085
   42MPD2    C4  655   2.120   0.376  14.884  0.3320  0.3716  0.3316
   42MPD2    C5  656   2.254   0.348  14.912  0.1772 -0.8591 -0.6757
   42MPD2     H  657   2.103   0.281  14.564  0.4419  0.0234  0.1041
   42MPD2    H1  658   2.064   0.424  14.963  2.2838  0.4025  1.6956
   42MPD2    H2  659   2.428   0.258  14.830  0.2774  1.7687 -0.7633
   42MPD2    H3  660   2.300   0.370  15.008  1.5406  0.1256 -1.5630
   42MPD2     N  661   1.929   0.385  14.743  0.6042 -0.0162  0.3832
   42MPD2    H5  662   1.890   0.443  14.816 -2.8719 -0.7215 -0.8957
   42MPD2    N1  663   2.334   0.177  14.594 -0.9209  0.3924  0.0022
   42MPD2    H7  664   2.274   0.122  14.533  0.2610  0.9168 -1.6390
   43TMC2    C1  665   3.157   3.212   1.054  0.4235  0.1250 -0.4626
   43TMC2    C2  666   3.057   3.293   1.095  0.0374  1.0354  0.0021
   43TMC2    C3  667   3.077   3.373   1.207 -0.5425 -0.3807  0.7068
   43TMC2    C4  668   3.276   3.219   1.110  0.6342 -0.1944  0.4009
   43TMC2    C5  669   3.294   3.300   1.221 -0.5415  0.5694 -0.0439
   43TMC2    C6  670   3.195   3.370   1.275  0.1160  0.6709 -0.1916
   43TMC2     C  671   3.135   3.081   0.995  0.1863  0.1984  0.5025
   43TMC2     O  672   3.196   2.984   1.035 -0.4503  0.4969 -0.0938
   43TMC2     H  673   2.953   3.277   1.068  0.9746 -2.1417 -1.7618
   43TMC2    H1  674   3.356   3.148   1.089 -0.5315 -1.6506  0.9135
   43TMC2    H2  675   3.204   3.432   1.364 -0.5199 -0.1577  0.4440
   43TMC2    C7  676   3.418   3.289   1.291 -0.2824 -0.2079 -1.1948
   43TMC2    C8  677   2.978   3.477   1.257  0.0356 -0.2679 -0.2811
   43TMC2    O1  678   3.525   3.259   1.236 -0.1738 -0.0280 -0.7238
   43TMC2    O2  679   2.962   3.510   1.374  0.8183 -0.3317 -0.5243
   43TMC2    O5  680   2.883   3.492   1.157 -0.3176 -0.1093 -0.1422
   43TMC2    H5  681   2.926   3.468   1.072  2.0211 -0.4454  1.1408
   44MPD2     C  682   2.918   2.820   0.609  0.6471  0.1820  0.4379
   44MPD2    C1  683   3.002   2.776   0.704 -0.3524 -0.9275  0.4254
   44MPD2    C2  684   3.030   2.858   0.812  0.4736  0.2969  0.5290
   44MPD2    C3  685   2.979   2.984   0.820  0.9914  0.1754 -0.0562
   44MPD2    C4  686   2.877   3.016   0.738  0.0418 -0.6916 -0.5020
   44MPD2    C5  687   2.848   2.935   0.638  0.0616 -0.0293 -0.0954
   44MPD2     H  688   3.089   2.813   0.891  0.6343 -0.0787  0.1945
   44MPD2    H1  689   2.817   3.105   0.727  0.6939  0.0457  1.8107
   44MPD2    H2  690   2.879   2.775   0.518  2.0110 -0.5753  0.2279
   44MPD2    H3  691   2.774   2.966   0.565  0.6127  2.7761  0.5513
   44MPD2     N  692   3.030   3.088   0.907  0.3073  0.9583  0.0388
   44MPD2    H5  693   2.997   3.183   0.890 -0.0692  0.2390 -3.3317
   44MPD2    N1  694   3.090   2.669   0.677 -0.1272  0.0074 -0.3063
   44MPD2    H7  695   3.165   2.642   0.739  1.5979 -0.1512 -2.4281
   45TMC2    C1  696   3.636   1.273   9.901  0.3458  0.4646 -0.9676
   45TMC2    C2  697   3.516   1.329   9.863 -0.2289 -0.2288  0.0379
   45TMC2    C3  698   3.498   1.460   9.892  0.1317  0.0203 -0.0986
   45TMC2    C4  699   3.728   1.354   9.965  0.5531 -0.6588  0.4187
   45TMC2    C5  700   3.705   1.481  10.001 -0.8492 -0.4623  0.3246
   45TMC2    C6  701   3.578   1.528   9.975  0.5831 -0.6199 -0.1618
   45TMC2     C  702   3.666   1.134   9.873  0.7778  0.1005 -0.4264
   45TMC2     O  703   3.778   1.101   9.857 -0.4006  0.5191  0.1768
   45TMC2     H  704   3.452   1.274   9.795  0.4718 -2.4890  1.1909
   45TMC2    H1  705   3.825   1.312   9.986  1.1847  0.1778 -0.8416
   45TMC2    H2  706   3.564   1.633   9.998  4.2316  0.0724 -1.0947
   45TMC2    C7  707   3.813   1.556  10.063  0.2480  0.2560  0.0540
   45TMC2    C8  708   3.361   1.505   9.900 -0.0959  0.2987  0.2421
   45TMC2    O1  709   3.888   1.503  10.142  0.2825 -0.1173 -0.0099
   45TMC2    O2  710   3.268   1.430   9.893 -0.1366  0.3402  0.2623
   45TMC2    O5  711   3.362   1.639   9.869  0.0301 -0.0242  0.0884
   45TMC2    H5  712   3.451   1.674   9.848 -0.1350 -0.4508 -1.3342
   46MPD2     C  713   3.668   0.845   9.780 -0.7367  0.3772  0.8221
   46MPD2    C1  714   3.551   0.923   9.802 -0.4160  0.0777  0.7149
   46MPD2    C2  715   3.429   0.865   9.788 -0.4663  0.5930  0.0879
   46MPD2    C3  716   3.418   0.732   9.762  0.1325 -0.1463 -1.0073
   46MPD2    C4  717   3.536   0.654   9.753  0.4219 -0.7951  0.0831
   46MPD2    C5  718   3.658   0.711   9.755 -0.9630 -0.6661 -0.0941
   46MPD2     H  719   3.344   0.925   9.817  1.0105  1.4759  2.5463
   46MPD2    H1  720   3.533   0.547   9.741 -0.5544 -0.7965  0.3329
   46MPD2    H2  721   3.769   0.883   9.795  0.3963 -0.9649 -3.3467
   46MPD2    H3  722   3.749   0.655   9.739 -0.9020 -0.8611  0.9462
   46MPD2     N  723   3.289   0.681   9.751  0.0495 -0.0567 -0.3184
   46MPD2    H5  724   3.212   0.747   9.739  0.0584  0.1497  0.7445
   46MPD2    N1  725   3.554   1.055   9.852 -0.0380  0.1268 -0.1885
   46MPD2    H7  726   3.466   1.102   9.869  0.1785  0.0468  1.1209
   47TMC2    C1  727   1.436   1.191   9.455  0.0230 -0.3875 -0.0008
   47TMC2    C2  728   1.416   1.060   9.408  0.0526  0.4720 -0.6878
   47TMC2    C3  729   1.305   1.056   9.320 -0.2930 -0.8472  0.1483
   47TMC2    C4  730   1.352   1.300   9.440  0.0008  0.1620 -0.1278
   47TMC2    C5  731   1.239   1.271   9.373  0.4612  0.7629 -0.1528
   47TMC2    C6  732   1.218   1.153   9.314  0.6903  0.0374 -0.2284
   47TMC2     C  733   1.560   1.217   9.526  0.2658  0.8749  0.2096
   47TMC2     O  734   1.590   1.340   9.537 -0.8394  0.1860  0.0181
   47TMC2     H  735   1.501   0.997   9.387 -1.7508 -2.5825  1.2499
   47TMC2    H1  736   1.376   1.393   9.491  0.1820 -2.0555  3.8611
   47TMC2    H2  737   1.130   1.141   9.251 -0.1650  0.2257  0.9373
   47TMC2    C7  738   1.139   1.370   9.348  0.6160 -0.0724  0.4009
   47TMC2    C8  739   1.266   0.932   9.266 -0.3865  0.0895  0.1901
   47TMC2    O1  740   1.025   1.325   9.342 -0.2823 -0.1045  0.4065
   47TMC2    O2  741   1.182   0.920   9.176 -0.2108  0.1857 -0.0061
   47TMC2    O5  742   1.289   0.839   9.369 -0.3564 -0.6694 -0.0136
   47TMC2    H5  743   1.340   0.875   9.445 -0.6910  1.7686 -0.9173
   48MPD2     C  744   1.790   1.199   9.701  0.6791 -0.4964 -0.0992
   48MPD2    C1  745   1.704   1.096   9.686 -0.2078 -0.0924 -0.0597
   48MPD2    C2  746   1.724   0.973   9.756 -0.2572 -0.7453  0.1553
   48MPD2    C3  747   1.832   0.953   9.835  0.0329  0.0518  0.0132
   48MPD2    C4  748   1.921   1.056   9.852  0.2293  0.0743 -0.5612
   48MPD2    C5  749   1.891   1.178   9.791  0.3176  0.2040 -0.1600
   48MPD2     H  750   1.652   0.892   9.748 -0.3933 -0.8174  2.2205
   48MPD2    H1  751   2.011   1.046   9.912  1.3709  0.0276 -2.2989
   48MPD2    H2  752   1.782   1.293   9.648  1.9171 -1.4237 -1.9864
   48MPD2    H3  753   1.965   1.258   9.799  1.3671 -0.8203  0.2860
   48MPD2     N  754   1.835   0.826   9.891 -0.5395  0.0757  0.4225
   48MPD2    H5  755   1.751   0.771   9.876 -1.7101  1.5397  1.4566
   48MPD2    N1  756   1.601   1.108   9.598 -0.2109 -0.1892 -0.3804
   48MPD2    H7  757   1.529   1.038   9.581 -0.7499 -0.0294  1.2747
   49TMC2    C1  758   0.357   2.438  10.695 -0.6919  0.2068 -0.3434
   49TMC2    C2  759   0.348   2.484  10.568  0.0924  0.6656 -0.0641
   49TMC2    C3  760   0.286   2.400  10.484 -0.9236  0.0750  0.6440
   49TMC2    C4  761   0.311   2.316  10.734 -0.4136  0.4030  0.1167
   49TMC2    C5  762   0.245   2.239  10.645 -0.1234 -0.8010 -0.7590
   49TMC2    C6  763   0.232   2.278  10.514 -0.3703  0.4378 -0.5853
   49TMC2     C  764   0.476   2.494  10.764 -0.4548  0.2424 -0.2367
   49TMC2     O  765   0.557   2.554  10.695  0.0351  0.6643  0.5023
   49TMC2     H  766   0.404   2.573  10.543  1.0478  0.0814 -0.0039
   49TMC2    H1  767   0.316   2.269  10.832  0.7622 -0.3854 -0.3197
   49TMC2    H2  768   0.171   2.227  10.442 -0.4691  0.0427 -0.2218
   49TMC2    C7  769   0.209   2.112  10.691  0.5414  0.0185  0.0561
   49TMC2    C8  770   0.256   2.436  10.348 -0.0375 -0.3684 -0.0679
   49TMC2    O1  771   0.172   2.095  10.807 -0.4108  0.1060  0.2413
   49TMC2    O2  772   0.225   2.360  10.253 -0.5707  0.1034  0.5513
   49TMC2    O5  773   0.213   2.559  10.362 -0.0756  0.6366  0.8620
   49TMC2    H5  774   0.202   2.589  10.455  0.8208  1.5638  0.6758
   50MPD2     C  775   0.670   2.592  10.958  0.0907 -0.3566  0.0194
   50MPD2    C1  776   0.539   2.554  10.991  0.2129 -0.1701  0.0789
   50MPD2    C2  777   0.493   2.576  11.121 -0.0723 -0.1176  0.1155
   50MPD2    C3  778   0.565   2.646  11.218 -0.4272  0.2316 -0.4744
   50MPD2    C4  779   0.702   2.671  11.186 -0.2128  0.5342  0.2373
   50MPD2    C5  780   0.751   2.638  11.058  0.1175  0.2088 -0.3882
   50MPD2     H  781   0.394   2.542  11.151 -0.5567 -1.8834 -3.3428
   50MPD2    H1  782   0.765   2.729  11.253 -0.4495  1.8416 -0.6877
   50MPD2    H2  783   0.713   2.570  10.861  0.3621  0.0987  0.0367
   50MPD2    H3  784   0.855   2.662  11.041 -0.3384  1.8346 -0.9197
   50MPD2     N  785   0.511   2.690  11.339  0.2189 -0.5314  1.3116
   50MPD2    H5  786   0.579   2.728  11.404  1.4755  1.6636 -1.3052
   50MPD2    N1  787   0.457   2.493  10.898  0.1014  0.3790  0.3563
   50MPD2    H7  788   0.371   2.450  10.931 -0.1566  0.6165 -0.0155
   51TMC2    C1  789   0.140   2.051   1.351  0.2620  0.3767 -1.0361
   51TMC2    C2  790   0.091   2.119   1.461 -0.4193  0.6710  0.4039
   51TMC2    C3  791   0.031   2.245   1.437  0.5431 -0.4943  0.2678
   51TMC2    C4  792   0.119   2.100   1.222  1.0520 -0.0082 -0.1167
   51TMC2    C5  793   0.072   2.229   1.210 -0.7536  0.1761  0.0400
   51TMC2    C6  794   0.026   2.300   1.320  0.2688 -0.3885  0.2496
   51TMC2     C  795   0.163   1.910   1.367  0.0432 -0.1189  0.4108
   51TMC2     O  796   0.213   1.862   1.469  0.6630 -0.1119  0.2444
   51TMC2     H  797   0.103   2.077   1.560  2.9476  0.3285 -0.1503
   51TMC2    H1  798   0.170   2.051   1.139  0.2554  0.9025 -1.1545
   51TMC2    H2  799   4.731   2.403   1.314  3.2864  0.5485  0.0057
   51TMC2    C7  800   0.082   2.299   1.084 -0.0391  0.1915 -0.5741
   51TMC2    C8  801   0.022   2.337   1.549  0.0144  0.3969  0.1488
   51TMC2    O1  802   0.030   2.404   1.074 -0.2642 -0.2280 -0.0426
   51TMC2    O2  803   0.084   2.310   1.653 -0.2955 -0.2762  0.3694
   51TMC2    O5  804   4.638   2.394   1.547  0.3358  0.0961  0.0779
   51TMC2    H5  805   4.591   2.396   1.461 -2.0216  2.4434  1.4465
   52MPD2     C  806   0.092   1.427   1.190 -0.6406 -0.1007 -0.6580
   52MPD2    C1  807   0.176   1.474   1.291  0.3534  0.4443  0.0086
   52MPD2    C2  808   0.174   1.606   1.318  0.8013 -0.1570 -0.7918
   52MPD2    C3  809   0.111   1.700   1.238 -0.2332  0.8164 -0.4842
   52MPD2    C4  810   0.045   1.655   1.122  0.1589  0.2541 -0.2895
   52MPD2    C5  811   0.041   1.521   1.101 -0.9163  0.0350  0.2826
   52MPD2     H  812   0.240   1.636   1.397  1.8726 -1.3145 -1.2490
   52MPD2    H1  813   0.006   1.725   1.050 -2.4216  1.6503  2.4977
   52MPD2    H2  814   0.089   1.328   1.145  2.7165  0.2614 -1.6681
   52MPD2    H3  815   4.734   1.485   1.009 -0.6793 -0.3943  0.3394
   52MPD2     N  816   0.114   1.839   1.261 -0.4820 -0.0730 -0.5689
   52MPD2    H5  817   0.070   1.897   1.191 -1.0592 -1.1622 -1.1061
   52MPD2    N1  818   0.254   1.393   1.369 -0.2618  0.5748 -0.6819
   52MPD2    H7  819   0.327   1.433   1.427 -0.2313 -2.0872  1.0863
   53TMC2    C1  820   0.576   0.794  11.491 -0.1652  0.7534 -0.0869
   53TMC2    C2  821   0.521   0.923  11.488  0.3224  0.0106  0.4395
   53TMC2    C3  822   0.537   0.998  11.591  0.6910  0.8659  0.1559
   53TMC2    C4  823   0.615   0.734  11.606  0.3482  0.0359  0.4968
   53TMC2    C5  824   0.624   0.812  11.718 -0.7255 -0.0547  0.9887
   53TMC2    C6  825   0.581   0.939  11.708 -1.2976 -0.1183  0.3391
   53TMC2     C  826   0.492   0.690  11.420 -0.5803 -0.3156  0.3286
   53TMC2     O  827   0.449   0.719  11.310  0.2224  0.2893  0.0361
   53TMC2     H  828   0.467   0.959  11.401  0.3990 -0.4590  0.1923
   53TMC2    H1  829   0.655   0.634  11.594 -0.4851 -0.3384  0.8347
   53TMC2    H2  830   0.564   0.999  11.797 -1.3811  0.6413 -0.1920
   53TMC2    C7  831   0.556   0.740  11.825 -0.3201  0.2197 -0.2925
   53TMC2    C8  832   0.445   1.110  11.599 -0.9638 -1.1100 -0.2066
   53TMC2    O1  833   0.499   0.636  11.786  0.0321 -0.8376  0.0282
   53TMC2    O2  834   0.342   1.103  11.539 -0.4287  0.6040  0.5594
   53TMC2    O5  835   0.523   1.216  11.603 -0.6245 -0.1949 -0.3167
   53TMC2    H5  836   0.614   1.198  11.636 -2.1068 -4.2121  1.4966
   54MPD2     C  837   0.278   0.499  11.337 -0.3236 -1.1723 -0.1769
   54MPD2    C1  838   0.351   0.494  11.451  0.5207 -0.2172 -0.1293
   54MPD2    C2  839   0.344   0.386  11.527 -0.0779  0.2961  0.1527
   54MPD2    C3  840   0.277   0.271  11.490  0.2025 -0.2562 -0.3168
   54MPD2    C4  841   0.221   0.272  11.362 -0.3016 -0.4283  0.1120
   54MPD2    C5  842   0.211   0.392  11.297 -0.4767  0.3352 -0.0402
   54MPD2     H  843   0.390   0.399  11.624  0.1106  0.5207  0.0332
   54MPD2    H1  844   0.165   0.186  11.328  0.8201 -1.2721  0.3762
   54MPD2    H2  845   0.260   0.594  11.288 -0.5304 -0.6657  0.8827
   54MPD2    H3  846   0.146   0.399  11.211  0.2427 -1.5032 -0.7187
   54MPD2     N  847   0.254   0.159  11.574 -0.5007  0.1504 -0.2868
   54MPD2    H5  848   0.182   0.094  11.547  0.1098 -0.7975  0.3968
   54MPD2    N1  849   0.442   0.599  11.498 -0.2412 -0.0422  0.2894
   54MPD2    H7  850   0.483   0.595  11.590  1.2698 -1.7978 -0.4733
   55TMC2    C1  851   1.587   2.912   0.098  0.2861  0.0389 -0.0537
   55TMC2    C2  852   1.574   2.885  17.714  0.4091 -0.6624 -0.1426
   55TMC2    C3  853   1.545   2.752  17.685 -0.1124  0.1996 -0.0705
   55TMC2    C4  854   1.561   2.819   0.201 -0.4284 -0.3088  0.0042
   55TMC2    C5  855   1.519   2.695   0.169 -0.0688  0.4219  0.9366
   55TMC2    C6  856   1.517   2.662   0.036  0.0315 -0.1498  0.2085
   55TMC2     C  857   1.546   3.044   0.143 -0.4354 -0.0508  0.4454
   55TMC2     O  858   1.569   3.070   0.260  0.1606 -0.4562 -0.2466
   55TMC2     H  859   1.609   2.953  17.637  1.7255 -0.8481  0.2879
   55TMC2    H1  860   1.560   2.851   0.305  1.3686 -0.0241 -0.0627
   55TMC2    H2  861   1.498   2.556   0.019 -1.1771 -0.1312  1.3768
   55TMC2    C7  862   1.480   2.599   0.269  0.2035 -0.1157 -0.5790
   55TMC2    C8  863   1.543   2.692  17.551  0.3825  0.4631 -0.0974
   55TMC2    O1  864   1.497   2.479   0.244  0.3635  0.4542 -0.6354
   55TMC2    O2  865   1.542   2.573  17.522 -0.1187  0.6615  0.4426
   55TMC2    O5  866   1.473   2.781  17.471 -0.0965  0.0878 -1.1602
   55TMC2    H5  867   1.457   2.874  17.498  0.2765 -0.1786 -0.0542
   56MPD2     C  868   1.422   3.315  17.684 -0.1117 -0.9194 -0.2042
   56MPD2    C1  869   1.446   3.249   0.051 -1.0187 -0.4040  0.7334
   56MPD2    C2  870   1.417   3.304   0.177  0.2944  0.3353 -0.0927
   56MPD2    C3  871   1.372   3.432   0.179  0.6163  0.1157  0.7773
   56MPD2    C4  872   1.349   3.500   0.062  0.4184  0.5143 -0.2713
   56MPD2    C5  873   1.365   3.441  17.687 -0.5328  0.3470 -1.0662
   56MPD2     H  874   1.436   3.250   0.269 -4.5276  0.2816  0.8573
   56MPD2    H1  875   1.309   3.601   0.064 -0.1820  0.2455  0.8870
   56MPD2    H2  876   1.455   3.273  17.590  0.5557  1.1219 -0.8826
   56MPD2    H3  877   1.326   3.504  17.608 -2.0691  1.7769  0.8307
   56MPD2     N  878   1.331   3.489   0.303 -0.7327 -0.4510  0.0874
   56MPD2    H5  879   1.353   3.432   0.384  0.8289  0.2498  0.1476
   56MPD2    N1  880   1.490   3.117   0.042 -0.1228  0.1955  0.1498
   56MPD2    H7  881   1.491   3.075  17.698  0.0325  1.0382 -0.2331
   57TMC2    C1  882   0.745   3.854  13.934  0.4081 -0.3710 -0.4592
   57TMC2    C2  883   0.764   3.752  14.023  0.3024  0.4162 -0.7550
   57TMC2    C3  884   0.871   3.676  13.991  0.5560 -0.0074 -0.3017
   57TMC2    C4  885   0.819   3.878  13.824 -0.3501  0.6297  0.1178
   57TMC2    C5  886   0.920   3.796  13.792  0.2626 -0.1812  0.5167
   57TMC2    C6  887   0.950   3.692  13.881  0.4258  0.8714 -0.5288
   57TMC2     C  888   0.608   3.898  13.915 -0.1864  0.3061 -0.2218
   57TMC2     O  889   0.588   3.994  13.843  0.0699 -0.1427  0.1995
   57TMC2     H  890   0.703   3.743  14.111  3.3688 -4.5217  0.8848
   57TMC2    H1  891   0.789   3.957  13.757 -1.5632 -0.4739 -0.6310
   57TMC2    H2  892   1.042   3.635  13.885  0.0710  0.2949 -0.5427
   57TMC2    C7  893   1.013   3.840  13.692 -0.5952  0.4275 -0.3839
   57TMC2    C8  894   0.916   3.581  14.089  0.6254 -0.9029  0.1526
   57TMC2    O1  895   0.975   3.928  13.618 -0.2001  0.0005  0.1184
   57TMC2    O2  896   1.032   3.546  14.092  0.5568 -0.8495 -0.7512
   57TMC2    O5  897   0.824   3.576  14.187 -0.4360  0.5810  0.2402
   57TMC2    H5  898   0.734   3.588  14.151 -0.4182 -1.4188 -0.4528
   58MPD2     C  899   0.112   3.821  13.971  0.0360 -0.6017  0.1120
   58MPD2    C1  900   0.186   3.942  13.978  0.0012  0.3084 -0.3828
   58MPD2    C2  901   0.319   3.932  13.959 -0.0717 -0.0725  0.7775
   58MPD2    C3  902   0.378   3.814  13.952  0.5781  0.1562 -1.1069
   58MPD2    C4  903   0.305   3.704  13.955 -0.6726  0.0688  0.1769
   58MPD2    C5  904   0.170   3.699  13.951 -0.2208  0.0044 -0.4676
   58MPD2     H  905   0.366   4.029  13.962  0.2549 -0.2386  1.0678
   58MPD2    H1  906   0.357   3.611  13.939 -0.2433 -0.1608  2.9165
   58MPD2    H2  907   0.004   3.813  13.969 -0.0173  0.5991 -2.5800
   58MPD2    H3  908   0.114   3.607  13.940  1.2087 -1.0288  1.0255
   58MPD2     N  909   0.519   3.804  13.946 -0.4715 -0.2478  0.4618
   58MPD2    H5  910   0.552   3.716  13.984 -0.2025 -1.0586 -1.6191
   58MPD2    N1  911   0.125   4.065  14.004 -0.3374 -0.0082 -0.1998
   58MPD2    H7  912   0.168   4.152  13.975  2.7259 -1.0758  1.1162
   59TMC2    C1  913   2.992   3.716  13.037 -0.3278  1.0320 -0.1416
   59TMC2    C2  914   3.089   3.629  13.075  0.8187  0.2076 -0.2676
   59TMC2    C3  915   3.114   3.520  13.003  0.1999 -0.0036 -0.5937
   59TMC2    C4  916   2.909   3.688  12.933 -0.1744  0.1366  0.2497
   59TMC2    C5  917   2.926   3.570  12.865  0.7822  1.3352 -0.3758
   59TMC2    C6  918   3.029   3.486  12.896 -0.4398  0.9718 -0.0151
   59TMC2     C  919   2.937   3.790  13.152 -0.8201 -0.0511 -0.0880
   59TMC2     O  920   2.819   3.803  13.166 -0.0474  0.2940 -0.0375
   59TMC2     H  921   3.155   3.651  13.158 -0.8575 -2.1311  1.6997
   59TMC2    H1  922   2.822   3.749  12.910 -1.2171 -0.0689  3.5338
   59TMC2    H2  923   3.036   3.396  12.835 -2.2297 -0.2688  1.5877
   59TMC2    C7  924   2.856   3.544  12.742 -0.0842  0.2649 -0.8923
   59TMC2    C8  925   3.185   3.416  13.081 -0.6011 -0.4451  0.1568
   59TMC2    O1  926   2.812   3.435  12.729  0.4075 -0.2187  0.0009
   59TMC2    O2  927   3.220   3.432  13.201  0.6395 -0.2021  0.4737
   59TMC2    O5  928   3.193   3.304  13.004 -0.8367 -0.2805  0.6170
   59TMC2    H5  929   3.210   3.332  12.911  2.8368  0.5125  1.5163
   60MPD2     C  930   2.911   3.874  13.429 -0.2240 -0.0708 -0.2154
   60MPD2    C1  931   3.018   3.909  13.347  0.3292 -0.3975  0.4295
   60MPD2    C2  932   3.118   3.998  13.397  0.8645  0.2338  0.0850
   60MPD2    C3  933   3.111   4.056  13.524  0.6323  0.2765  0.4432
   60MPD2    C4  934   3.005   4.018  13.599  0.9886  0.6311  0.5911
   60MPD2    C5  935   2.918   3.932  13.550  0.4594 -0.5011 -0.0630
   60MPD2     H  936   3.202   4.016  13.330  0.5713 -0.2833 -0.4201
   60MPD2    H1  937   3.002   4.062  13.698 -0.8236  1.8243  0.0042
   60MPD2    H2  938   2.832   3.802  13.410 -0.7047  1.2470 -3.1664
   60MPD2    H3  939   2.842   3.903  13.621  1.2526 -4.3202 -0.7484
   60MPD2     N  940   3.206   4.152  13.569 -0.1034  0.1864  0.0076
   60MPD2    H5  941   3.200   4.169  13.669  0.5277  0.8502 -0.0687
   60MPD2    N1  942   3.037   3.853  13.219  0.1798  0.2266 -0.4618
   60MPD2    H7  943   3.129   3.843  13.176  0.4345  1.5722 -0.2175
   61TMC2    C1  944   2.013   0.924  16.091  0.2575 -0.0155 -0.2080
   61TMC2    C2  945   2.072   0.870  16.204  1.0850  0.2520 -0.4649
   61TMC2    C3  946   2.091   0.958  16.304 -0.2936  0.3373 -0.0850
   61TMC2    C4  947   1.971   1.057  16.084  0.8500 -0.2220 -0.2730
   61TMC2    C5  948   1.998   1.140  16.185 -0.2071 -0.1234  0.6070
   61TMC2    C6  949   2.058   1.088  16.299  0.9323  0.1026  0.7838
   61TMC2     C  950   2.026   0.840  15.973  0.4540  0.1795  0.3458
   61TMC2     O  951   2.046   0.722  15.991 -0.1757  0.7248  0.9564
   61TMC2     H  952   2.107   0.769  16.222  1.9555  0.6915  0.2742
   61TMC2    H1  953   1.916   1.094  15.998  0.3847 -0.8161 -0.2358
   61TMC2    H2  954   2.107   1.148  16.375 -0.8435  1.6030  0.7646
   61TMC2    C7  955   2.010   1.273  16.150  0.0416 -0.3017  0.7205
   61TMC2    C8  956   2.143   0.903  16.426 -0.0819 -0.7725 -0.2573
   61TMC2    O1  957   1.971   1.299  16.038 -0.3055  0.3628 -0.6602
   61TMC2    O2  958   2.209   0.799  16.423  0.1961 -0.1577 -0.8310
   61TMC2    O5  959   2.072   0.946  16.536 -0.4794  0.4195  0.0408
   61TMC2    H5  960   2.008   1.016  16.510  0.0049  1.0081  0.4381
   62MPD2     C  961   2.044   0.719  15.694  0.3250  0.1768  0.1314
   62MPD2    C1  962   2.050   0.852  15.729  0.2460  0.3602  0.0289
   62MPD2    C2  963   2.063   0.942  15.625 -0.3334 -0.4762  0.2389
   62MPD2    C3  964   2.093   0.901  15.498  0.3297 -0.0946 -0.6551
   62MPD2    C4  965   2.087   0.767  15.467  0.5763 -0.0385  0.4237
   62MPD2    C5  966   2.067   0.676  15.570 -0.6969 -0.5244 -0.4528
   62MPD2     H  967   2.059   1.046  15.657 -1.8323 -0.1668 -0.9413
   62MPD2    H1  968   2.106   0.729  15.367  1.1345  1.3777 -0.0122
   62MPD2    H2  969   2.027   0.641  15.767 -1.7413  1.3564  0.8919
   62MPD2    H3  970   2.090   0.574  15.544 -0.3619 -0.4924 -0.2804
   62MPD2     N  971   2.126   0.984  15.394 -0.5735  0.1262  0.2825
   62MPD2    H5  972   2.140   0.939  15.304  2.3112 -2.8273  2.2015
   62MPD2    N1  973   2.028   0.910  15.857 -0.3507 -0.4906 -0.0469
   62MPD2    H7  974   2.025   1.011  15.872 -1.0640 -0.5514  0.1857
   63TMC2    C1  975   1.250   0.226  10.290  0.1962 -0.0734  0.6293
   63TMC2    C2  976   1.181   0.239  10.169  0.1654 -0.8665  0.4717
   63TMC2    C3  977   1.204   0.344  10.087 -0.3293 -0.1902 -0.4644
   63TMC2    C4  978   1.347   0.320  10.326 -0.5851 -0.4024 -0.2692
   63TMC2    C5  979   1.374   0.424  10.237  0.3181  0.1639  0.0155
   63TMC2    C6  980   1.310   0.426  10.119 -0.7809 -0.2616 -0.0459
   63TMC2     C  981   1.213   0.118  10.374 -0.0049 -0.1619  0.5710
   63TMC2     O  982   1.109   0.062  10.342 -0.3367 -0.4927  0.1151
   63TMC2     H  983   1.101   0.167  10.153  0.1436 -0.8249  0.3931
   63TMC2    H1  984   1.403   0.318  10.420 -3.0670  2.2125  1.2553
   63TMC2    H2  985   1.346   0.493  10.041  0.5133 -2.1020 -1.0214
   63TMC2    C7  986   1.398   0.560  10.286 -0.0570 -0.3212 -0.4064
   63TMC2    C8  987   1.169   0.331   9.949 -0.6038 -0.0553  0.3018
   63TMC2    O1  988   1.423   0.635  10.193 -0.0592  0.6600  0.1681
   63TMC2    O2  989   1.242   0.375   9.864  0.4968 -0.0312 -0.1008
   63TMC2    O5  990   1.054   0.263   9.930  0.5124 -0.2107  0.1775
   63TMC2    H5  991   1.004   0.247  10.013  0.7565  1.7643  0.7102
   64MPD2     C  992   1.295   4.492  10.733  0.7868  1.1521 -0.0795
   64MPD2    C1  993   1.398   4.585  10.753  0.2450 -0.2744  0.2314
   64MPD2    C2  994   1.392   4.700  10.671 -1.0282  0.1981 -0.5985
   64MPD2    C3  995   1.303   4.716  10.559  0.0098 -0.3198  0.0651
   64MPD2    C4  996   1.201   4.629  10.560 -0.1061  0.1005  0.3238
   64MPD2    C5  997   1.199   4.519  10.641 -0.0808 -0.0168  0.1644
   64MPD2     H  998   1.460   0.042  10.696 -0.7126  0.4397 -2.2306
   64MPD2    H1  999   1.126   4.619  10.482  0.2835 -0.8797  0.0782
   64MPD2    H2 1000   1.255   4.421  10.805  3.4638  2.3198  2.5324
   64MPD2    H3 1001   1.110   4.458  10.635  0.0349 -0.1430 -0.2985
   64MPD2     N 1002   1.310   0.087  10.467  0.3452  0.3041  0.1029
   64MPD2    H5 1003   1.386   0.151  10.482  1.7551 -1.1922 -0.6592
   64MPD2    N1 1004   1.489   4.563  10.861 -0.1915  0.8069  0.0063
   64MPD2    H7 1005   1.474   4.480  10.917  2.6701 -0.4625 -1.1325
   65TMC2    C1 1006   3.385   0.473  15.963 -0.0120 -0.2093  0.0238
   65TMC2    C2 1007   3.486   0.560  15.986 -0.2446  0.0213  0.8907
   65TMC2    C3 1008   3.452   0.687  15.966  0.5750  0.3822 -0.2065
   65TMC2    C4 1009   3.254   0.511  15.931  0.0466 -0.2880 -0.4763
   65TMC2    C5 1010   3.227   0.636  15.896 -0.1024  1.0142 -0.6340
   65TMC2    C6 1011   3.328   0.730  15.922 -0.3876 -0.5372 -0.1301
   65TMC2     C 1012   3.409   0.341  16.019 -0.2298 -0.6057 -0.7355
   65TMC2     O 1013   3.503   0.332  16.099  0.3335  0.1951 -0.0210
   65TMC2     H 1014   3.588   0.539  16.017 -0.0908  0.8683  0.9561
   65TMC2    H1 1015   3.170   0.443  15.938 -0.9621  0.9061 -1.1339
   65TMC2    H2 1016   3.312   0.836  15.908 -1.8113 -0.8628 -0.9880
   65TMC2    C7 1017   3.098   0.675  15.932 -0.4175  0.1340 -1.0813
   65TMC2    C8 1018   3.561   0.786  15.965  0.2601 -0.0676  0.0681
   65TMC2    O1 1019   3.014   0.650  15.849  0.6023 -0.5091 -0.7015
   65TMC2    O2 1020   3.559   0.886  15.895 -0.3609 -0.6561 -0.1056
   65TMC2    O5 1021   3.623   0.769  16.090  0.0899 -0.3428 -0.0460
   65TMC2    H5 1022   3.579   0.697  16.141 -0.6470 -1.0535 -1.6890
   66MPD2     C 1023   3.354   0.078  16.130  0.2747 -0.1770 -0.4298
   66MPD2    C1 1024   3.312   0.113  16.011 -0.5764 -0.3116 -0.2340
   66MPD2    C2 1025   3.243   0.021  15.942 -0.0599 -0.3928 -0.1621
   66MPD2    C3 1026   3.207   4.633  15.982  0.5131 -0.5646 -0.1943
   66MPD2    C4 1027   3.231   4.603  16.120 -0.9964  0.4903 -0.2754
   66MPD2    C5 1028   3.306   4.697  16.187 -0.4856 -0.2010  0.4253
   66MPD2     H 1029   3.220   0.052  15.841 -1.8800 -1.1077  0.0325
   66MPD2    H1 1030   3.190   4.517  16.170 -1.7182  0.1986 -1.3765
   66MPD2    H2 1031   3.406   0.147  16.195 -1.7395 -0.6601  1.7052
   66MPD2    H3 1032   3.322   4.688  16.294 -0.4255  0.6795  0.4925
   66MPD2     N 1033   3.140   4.535  15.905  0.1024  0.3794 -0.2694
   66MPD2    H5 1034   3.115   4.445  15.945  2.1366 -1.2223 -2.5617
   66MPD2    N1 1035   3.324   0.242  15.962 -0.0345  0.4114 -0.0229
   66MPD2    H7 1036   3.274   0.273  15.879  0.6598 -0.4485 -0.7684
   67TMC2    C1 1037   3.195   4.283  14.668 -0.2121 -0.7930  0.3293
   67TMC2    C2 1038   3.103   4.376  14.710  0.0255 -0.4135 -0.2818
   67TMC2    C3 1039   3.141   4.469  14.806 -0.2133  0.2676 -0.1306
   67TMC2    C4 1040   3.322   4.280  14.713  0.0581  0.0583 -0.6167
   67TMC2    C5 1041   3.355   4.373  14.811 -0.0065  0.0844  0.7814
   67TMC2    C6 1042   3.266   4.471  14.859 -0.0772  0.1043 -0.0187
   67TMC2     C 1043   3.163   4.200  14.550  0.2456  0.2375  0.1957
   67TMC2     O 1044   3.257   4.125  14.522  0.3716 -0.3746  0.1566
   67TMC2     H 1045   2.999   4.380  14.680 -0.2102 -0.0199  0.5737
   67TMC2    H1 1046   3.390   4.199  14.686 -0.1427 -0.2927 -0.0743
   67TMC2    H2 1047   3.282   4.543  14.939 -0.0765 -0.2148  0.2687
   67TMC2    C7 1048   3.480   4.362  14.890  0.3819 -0.4148 -0.4749
   67TMC2    C8 1049   3.035   4.516  14.897 -0.1641  0.4086  0.0977
   67TMC2    O1 1050   3.569   4.323  14.817  0.8539  0.0804 -0.5521
   67TMC2    O2 1051   2.931   4.446  14.906 -0.3537 -0.5829 -0.0622
   67TMC2    O5 1052   3.034   4.649  14.879 -0.2500 -0.5386  0.4794
   67TMC2    H5 1053   3.125   4.683  14.866  0.3960 -2.4193  0.2262
   68MPD2     C 1054   3.035   4.024  14.346  0.1895 -0.1162 -0.9893
   68MPD2    C1 1055   2.959   4.118  14.418 -0.6280  0.0439  0.8732
   68MPD2    C2 1056   2.823   4.139  14.392 -0.1803  0.6811 -0.2885
   68MPD2    C3 1057   2.755   4.048  14.306  0.4240  0.2409 -0.3713
   68MPD2    C4 1058   2.834   3.964  14.235  1.1433  0.2059 -0.1091
   68MPD2    C5 1059   2.968   3.951  14.257  0.5555  0.0724  0.6706
   68MPD2     H 1060   2.781   4.206  14.465  0.0118  0.7137 -0.2072
   68MPD2    H1 1061   2.776   3.900  14.170  1.0014  0.2733 -0.0487
   68MPD2    H2 1062   3.134   3.993  14.376  0.1790 -0.0973 -0.9341
   68MPD2    H3 1063   3.027   3.875  14.207  1.5379 -0.9754  3.4494
   68MPD2     N 1064   2.616   4.059  14.284  0.3474 -1.1749  0.4277
   68MPD2    H5 1065   2.576   4.025  14.197  3.0132 -1.4012 -0.6933
   68MPD2    N1 1066   3.027   4.198  14.515 -0.0880 -0.2405  0.1139
   68MPD2    H7 1067   2.975   4.256  14.579 -0.9596 -1.4918  0.5375
   69TMC2    C1 1068   1.136   0.812  12.554 -0.6124  0.1967 -0.2802
   69TMC2    C2 1069   1.006   0.835  12.522  0.0394 -0.9445  0.6369
   69TMC2    C3 1070   0.974   0.902  12.406 -0.1399 -0.4169 -0.1500
   69TMC2    C4 1071   1.235   0.852  12.472  0.1385 -0.0749 -0.1275
   69TMC2    C5 1072   1.202   0.912  12.355 -0.7520  0.0454 -0.6446
   69TMC2    C6 1073   1.066   0.923  12.313 -0.5296  0.3288 -0.0627
   69TMC2     C 1074   1.155   0.719  12.665 -0.1503 -0.4754  0.2816
   69TMC2     O 1075   1.066   0.710  12.749 -0.5353  0.2236  0.4784
   69TMC2     H 1076   0.932   0.810  12.597  0.9634 -0.0721  1.8221
   69TMC2    H1 1077   1.337   0.846  12.508  0.6305  1.2741 -1.2864
   69TMC2    H2 1078   1.045   0.957  12.212  1.0945  0.4687 -0.3486
   69TMC2    C7 1079   1.306   0.931  12.263 -0.0207 -0.4069  0.0998
   69TMC2    C8 1080   0.836   0.926  12.381  0.7449 -0.7725  0.3232
   69TMC2    O1 1081   1.403   0.857  12.281 -0.7246 -0.5566 -0.3217
   69TMC2    O2 1082   0.758   0.887  12.463 -0.4142  0.1448  0.2119
   69TMC2    O5 1083   0.838   1.046  12.318  0.6314 -0.3365 -0.1019
   69TMC2    H5 1084   0.913   1.048  12.255  1.9476  0.9836  1.5473
   70MPD2     C 1085   1.408   0.443  12.687  0.4496 -0.3654 -0.6639
   70MPD2    C1 1086   1.307   0.531  12.730  1.0437 -0.0750  0.3116
   70MPD2    C2 1087   1.234   0.491  12.846 -0.3425  0.2636  0.1694
   70MPD2    C3 1088   1.248   0.371  12.916 -0.2406 -0.1343  0.9179
   70MPD2    C4 1089   1.346   0.283  12.869 -0.5720  0.5591  0.0230
   70MPD2    C5 1090   1.419   0.320  12.763  0.1007  0.1543 -0.0188
   70MPD2     H 1091   1.168   0.560  12.898  3.1421  2.3189  1.8596
   70MPD2    H1 1092   1.382   0.197  12.925 -0.3042  0.0414 -0.9465
   70MPD2    H2 1093   1.464   0.469  12.598 -1.3655 -1.0218 -1.9829
   70MPD2    H3 1094   1.501   0.256  12.731 -0.2253 -0.6254  0.7257
   70MPD2     N 1095   1.194   0.342  13.048 -0.5211 -0.1512  0.1738
   70MPD2    H5 1096   1.244   0.270  13.099  0.3111  0.9735  0.9579
   70MPD2    N1 1097   1.278   0.649  12.656 -0.0794 -0.1846  0.0958
   70MPD2    H7 1098   1.335   0.666  12.574  0.2454 -0.1185  0.3317
   71TMC2    C1 1099   2.346   1.218   2.235  0.3686 -0.2512  0.0935
   71TMC2    C2 1100   2.442   1.307   2.284  0.0581 -0.2359 -0.3878
   71TMC2    C3 1101   2.401   1.401   2.373 -0.4932  0.0845 -0.4901
   71TMC2    C4 1102   2.214   1.223   2.260  0.2019  0.4969 -0.2527
   71TMC2    C5 1103   2.179   1.317   2.352  0.5344 -0.2580  0.4380
   71TMC2    C6 1104   2.271   1.402   2.399  0.3632 -0.4839 -0.7183
   71TMC2     C 1105   2.387   1.111   2.149 -0.0610 -0.0743 -0.8234
   71TMC2     O 1106   2.472   1.138   2.066  0.2861  0.2570 -0.1115
   71TMC2     H 1107   2.544   1.298   2.249 -0.8282 -1.1844 -2.7274
   71TMC2    H1 1108   2.134   1.163   2.218  1.0947 -0.1743 -1.0004
   71TMC2    H2 1109   2.236   1.477   2.469  1.1756 -0.1272 -0.6877
   71TMC2    C7 1110   2.035   1.339   2.382  0.2715  0.9686 -0.3285
   71TMC2    C8 1111   2.483   1.515   2.406 -0.8907 -1.0794 -0.9218
   71TMC2    O1 1112   2.004   1.421   2.470 -0.2277 -0.0480  0.2894
   71TMC2    O2 1113   2.432   1.629   2.403 -0.3832 -0.5009  0.1499
   71TMC2    O5 1114   2.612   1.489   2.413  0.2207 -0.0794 -0.3880
   71TMC2    H5 1115   2.636   1.397   2.433 -2.3724 -0.5507  0.5139
   72MPD2     C 1116   2.411   0.604   2.025 -0.1413  0.3578  0.2885
   72MPD2    C1 1117   2.457   0.715   1.962 -0.2265 -0.1028 -0.7205
   72MPD2    C2 1118   2.417   0.843   2.009  0.3282 -0.3409 -1.0573
   72MPD2    C3 1119   2.346   0.857   2.125  0.3135 -1.3042 -0.6301
   72MPD2    C4 1120   2.308   0.747   2.193 -0.2201 -0.4495  0.1003
   72MPD2    C5 1121   2.337   0.624   2.139  0.1131  0.4388  0.0850
   72MPD2     H 1122   2.435   0.933   1.951 -1.5553  0.4454 -0.4005
   72MPD2    H1 1123   2.249   0.760   2.283 -1.9546  0.9000 -1.2226
   72MPD2    H2 1124   2.418   0.500   1.994 -1.1629  0.6623 -0.9979
   72MPD2    H3 1125   2.308   0.529   2.181  1.6748  0.7022  1.7429
   72MPD2     N 1126   2.324   0.986   2.186 -0.6821 -0.1790  0.1707
   72MPD2    H5 1127   2.256   0.991   2.261  0.0047 -0.8671  0.8434
   72MPD2    N1 1128   2.538   0.711   1.844 -0.5121 -0.6848 -0.7652
   72MPD2    H7 1129   2.566   0.802   1.806 -0.8636 -0.2899 -0.0840
   73TMC2    C1 1130   2.334   2.974  14.175  0.6180 -0.2795 -0.3420
   73TMC2    C2 1131   2.253   2.998  14.286 -0.4253  0.1255  0.4709
   73TMC2    C3 1132   2.292   2.937  14.400 -0.2577  0.3608 -0.4936
   73TMC2    C4 1133   2.429   2.874  14.182 -0.2104 -0.3372  0.0281
   73TMC2    C5 1134   2.466   2.814  14.302  0.0860  0.5313  0.7197
   73TMC2    C6 1135   2.397   2.854  14.414 -0.2163 -0.4727 -0.4909
   73TMC2     C 1136   2.392   3.088  14.117  0.0610 -0.5947 -0.0825
   73TMC2     O 1137   2.512   3.112  14.127  0.1454 -0.2099  0.0684
   73TMC2     H 1138   2.179   3.077  14.288 -0.9366 -0.3477  0.3570
   73TMC2    H1 1139   2.495   2.848  14.101 -1.1903  0.3898 -0.9982
   73TMC2    H2 1140   2.423   2.810  14.510 -0.6417 -0.5197 -0.3956
   73TMC2    C7 1141   2.602   2.803  14.321 -1.0979 -0.2999 -0.3787
   73TMC2    C8 1142   2.220   2.968  14.523  0.1570  0.9854  0.5765
   73TMC2    O1 1143   2.642   2.721  14.406  0.1555  0.4954 -0.4318
   73TMC2    O2 1144   2.275   2.956  14.630  0.7725 -0.0190 -0.0292
   73TMC2    O5 1145   2.086   2.978  14.497 -0.1271 -0.1089  0.7558
   73TMC2    H5 1146   2.053   2.972  14.405  3.4836  0.5761 -0.5821
   74MPD2     C 1147   2.345   3.573  13.955 -0.3457 -0.3785 -0.4425
   74MPD2    C1 1148   2.448   3.498  14.017  0.4242 -0.1256 -0.0975
   74MPD2    C2 1149   2.422   3.371  14.060  0.1546 -0.2027 -0.2301
   74MPD2    C3 1150   2.306   3.306  14.027 -0.5047  0.3177 -0.4738
   74MPD2    C4 1151   2.212   3.380  13.971  0.5161 -0.0166 -0.1765
   74MPD2    C5 1152   2.220   3.514  13.937  0.2662  0.3468  0.6178
   74MPD2     H 1153   2.495   3.325  14.125  0.2864  1.1574  0.5883
   74MPD2    H1 1154   2.116   3.334  13.950 -0.0636  1.7124 -1.3263
   74MPD2    H2 1155   2.347   3.679  13.932 -0.0260  0.1937  2.2367
   74MPD2    H3 1156   2.137   3.559  13.883  1.3963  2.2983  0.5055
   74MPD2     N 1157   2.292   3.171  14.064  0.3501 -0.6506 -0.3922
   74MPD2    H5 1158   2.200   3.133  14.043  0.8762 -1.3834 -1.4130
   74MPD2    N1 1159   2.565   3.575  14.057  0.4040  0.3114  0.1124
   74MPD2    H7 1160   2.576   3.664  14.010  2.4679  1.9239  3.6398
   75TMC2    C1 1161   2.408   4.161  14.301 -0.0128  0.4761 -0.0415
   75TMC2    C2 1162   2.301   4.151  14.387  0.7445  1.2709 -0.4624
   75TMC2    C3 1163   2.178   4.143  14.325 -0.0305  0.3338  0.3425
   75TMC2    C4 1164   2.402   4.186  14.166  0.3919  0.4129 -0.4414
   75TMC2    C5 1165   2.276   4.183  14.108  0.3245  0.1101 -0.1091
   75TMC2    C6 1166   2.163   4.170  14.185 -0.9090  0.4844  0.8557
   75TMC2     C 1167   2.533   4.126  14.364 -0.3639  1.0453 -0.3200
   75TMC2     O 1168   2.548   4.160  14.481 -0.1050 -0.2612 -0.1194
   75TMC2     H 1169   2.323   4.097  14.479 -1.9523 -0.5563 -0.9028
   75TMC2    H1 1170   2.493   4.195  14.108  1.0447 -2.2621  0.1419
   75TMC2    H2 1171   2.073   4.133  14.137 -0.0767  0.7561 -0.9143
   75TMC2    C7 1172   2.256   4.207  13.970 -1.1148 -0.5509  0.5027
   75TMC2    C8 1173   2.081   4.063  14.395 -0.3243  0.3186  0.2673
   75TMC2    O1 1174   2.181   4.128  13.906 -0.0540  0.0179 -0.0633
   75TMC2    O2 1175   1.993   3.990  14.348 -0.1745  0.4869 -0.1144
   75TMC2    O5 1176   2.085   4.112  14.518 -0.2008 -0.1506 -0.5033
   75TMC2    H5 1177   2.141   4.191  14.535 -1.1374  0.6468 -1.1747
   76TMC2    C1 1178   2.166   4.542  12.286  0.5755  0.6472 -0.4245
   76TMC2    C2 1179   2.078   4.454  12.241 -0.0455  0.0598 -0.3074
   76TMC2    C3 1180   2.068   4.331  12.301 -0.4747  0.1115 -0.0833
   76TMC2    C4 1181   2.253   4.515  12.387  0.2249 -0.0853 -0.6745
   76TMC2    C5 1182   2.234   4.395  12.448  0.0166 -0.6978 -0.4675
   76TMC2    C6 1183   2.139   4.296  12.408 -0.7556 -0.3404  0.2027
   76TMC2     C 1184   2.159   4.670  12.231  0.3972 -0.1793  0.1943
   76TMC2     O 1185   2.055   4.689  12.167 -0.1123 -0.2222  0.5942
   76TMC2     H 1186   2.022   4.480  12.152  1.2597  0.2762 -1.0552
   76TMC2    H1 1187   2.334   4.583  12.410  0.1338  0.5623 -2.2756
   76TMC2    H2 1188   2.135   4.200  12.460 -2.4459  0.1727  1.0224
   76TMC2    C7 1189   2.322   4.362  12.558  0.0180  0.5955 -0.5628
   76TMC2    C8 1190   1.966   4.244  12.248 -0.0700 -0.0418 -0.4269
   76TMC2    O1 1191   2.340   4.240  12.578 -0.5233 -0.4694  0.3429
   76TMC2    O2 1192   1.870   4.286  12.184  0.0054  0.3280 -0.1388
   76TMC2    O5 1193   1.974   4.123  12.307 -0.1571  0.6041  0.5924
   76TMC2    H5 1194   2.067   4.115  12.336 -0.0462  0.5434  0.2177
   77MPD2     C 1195   2.265   0.429  12.172  0.4083 -0.0915 -0.0645
   77MPD2    C1 1196   2.167   0.349  12.124  0.2508  0.6648 -0.6558
   77MPD2    C2 1197   2.171   0.215  12.150  0.4976  1.1022 -0.0143
   77MPD2    C3 1198   2.261   0.159  12.232  0.7486 -0.1463 -0.2983
   77MPD2    C4 1199   2.366   0.233  12.279  0.3341  0.2161 -0.9176
   77MPD2    C5 1200   2.361   0.369  12.249 -0.2818 -0.1759  0.0797
   77MPD2     H 1201   2.086   0.164  12.105  0.2634  0.9207  0.6390
   77MPD2    H1 1202   2.437   0.193  12.351  0.1532  1.9690  0.2448
   77MPD2    H2 1203   2.280   0.533  12.145  1.1226 -0.1012  0.3103
   77MPD2    H3 1204   2.441   0.427  12.294 -0.5552  1.6773 -1.7981
   77MPD2     N 1205   2.260   0.021  12.270 -0.3268  0.0628  0.2880
   77MPD2    H5 1206   2.325   4.719  12.338 -0.7196  2.0382  1.8310
   77MPD2    N1 1207   2.066   0.401  12.027 -0.6827 -0.1471 -0.2087
   77MPD2    H7 1208   1.990   0.342  11.996 -0.8877  0.2892 -0.5323
   78TMC2    C1 1209   2.530   0.765   2.499 -0.1470 -0.3030 -0.0891
   78TMC2    C2 1210   2.529   0.896   2.548 -0.2541 -0.1431  0.3803
   78TMC2    C3 1211   2.588   0.997   2.476  0.5307  0.1602 -0.5487
   78TMC2    C4 1212   2.602   0.736   2.387  0.0749  0.3018 -0.1672
   78TMC2    C5 1213   2.649   0.843   2.316  0.1093 -0.0542 -0.2006
   78TMC2    C6 1214   2.635   0.968   2.357  0.2950  0.4058 -0.1437
   78TMC2     C 1215   2.451   0.667   2.573 -0.2530  0.0565 -0.8194
   78TMC2     O 1216   2.369   0.704   2.658 -0.1453  0.2624  0.1283
   78TMC2     H 1217   2.495   0.920   2.648  2.5195 -3.1552  2.0466
   78TMC2    H1 1218   2.605   0.636   2.346  2.8802  1.1924 -2.1425
   78TMC2    H2 1219   2.677   1.055   2.309 -0.8386 -0.1178 -2.1130
   78TMC2    C7 1220   2.738   0.832   2.203 -0.5069 -0.2791  0.4726
   78TMC2    C8 1221   2.625   1.121   2.541 -0.9475 -0.1309  1.0471
   78TMC2    O1 1222   2.816   0.924   2.188  0.7593 -0.0276  0.2149
   78TMC2    O2 1223   2.645   1.224   2.474 -0.6036 -0.3293  0.2295
   78TMC2    O5 1224   2.645   1.105   2.672 -0.0816 -0.1679  0.6664
   78TMC2    H5 1225   2.644   1.014   2.708 -1.8031 -0.6448 -0.5629
   79MPD1     C 1226   2.293   0.187   2.699  0.0683 -0.0634  0.0063
   79MPD1    C1 1227   2.244   0.310   2.731  0.9786 -0.1214 -0.5524
   79MPD1    C2 1228   2.308   0.425   2.682 -0.0224 -0.1413 -0.1559
   79MPD1    C3 1229   2.412   0.418   2.597  0.3495 -0.8654  0.9901
   79MPD1    C4 1230   2.454   0.295   2.552  1.1363  0.2916  0.5812
   79MPD1    C5 1231   2.397   0.184   2.612 -0.1938  0.4586 -0.2803
   79MPD1     H 1232   2.263   0.522   2.703  0.3074  0.1221 -0.6837
   79MPD1    H1 1233   2.538   0.283   2.485  0.4867 -2.4181  0.2801
   79MPD1    H2 1234   2.253   0.093   2.734  0.5619 -0.4192 -0.3744
   79MPD1    H3 1235   2.432   0.087   2.578  2.1118  1.6462 -1.2265
   79MPD1     N 1236   2.469   0.535   2.540 -0.6099 -0.2411 -0.5392
   79MPD1    H5 1237   2.528   0.517   2.459 -0.9980 -1.4788 -0.5402
   79MPD1    N1 1238   2.127   0.312   2.806  0.1374 -0.4289  0.4177
   79MPD1    H6 1239   2.081   0.402   2.816 -1.7918 -1.3114 -0.4651
   79MPD1    H7 1240   2.071   0.227   2.814 -2.5025  1.4991  2.4235
   80TMC2    C1 1241   0.569   0.129  11.409 -0.1627  0.0364 -0.0558
   80TMC2    C2 1242   0.512   0.144  11.286  0.1768 -0.1576  0.0408
   80TMC2    C3 1243   0.437   0.044  11.236 -0.4319  0.0239  0.2765
   80TMC2    C4 1244   0.557   0.013  11.478  0.1290 -0.0790  0.6920
   80TMC2    C5 1245   0.484   4.646  11.422  0.2309 -0.5712 -0.4604
   80TMC2    C6 1246   0.419   4.662  11.298 -0.2786  0.5374 -0.1858
   80TMC2     C 1247   0.668   0.226  11.441  0.8319 -0.9474  0.2651
   80TMC2     O 1248   0.738   0.250  11.344  0.1216  0.0054 -0.3524
   80TMC2     H 1249   0.508   0.244  11.243  2.3443  0.4996  1.3540
   80TMC2    H1 1250   0.616   0.004  11.569 -1.7711 -2.2125  1.7089
   80TMC2    H2 1251   0.351   4.587  11.259  0.3234 -0.5867  0.9046
   80TMC2    C7 1252   0.420   4.550  11.510 -0.0916  0.1845  0.1133
   80TMC2    C8 1253   0.349   0.068  11.121  0.1284  0.8467 -0.2711
   80TMC2    O1 1254   0.305   4.518  11.482  0.3087 -0.1985 -0.1253
   80TMC2    O2 1255   0.231   0.037  11.114  0.6828  0.5828  0.1208
   80TMC2    O5 1256   0.441   0.080  11.017  0.4213  0.3731  0.4352
   80TMC2    H5 1257   0.529   0.090  11.059  0.9894 -0.5484 -0.5529
   81MPD2     C 1258   0.830   0.463  11.523 -0.6432  0.3667  0.3524
   81MPD2    C1 1259   0.754   0.393  11.610 -0.6267  0.7987  0.1229
   81MPD2    C2 1260   0.756   0.437  11.749 -0.0577  0.0100  0.3495
   81MPD2    C3 1261   0.849   0.534  11.793  0.1959 -0.4305 -0.3672
   81MPD2    C4 1262   0.925   0.591  11.694 -0.1138  0.1799 -0.5137
   81MPD2    C5 1263   0.914   0.559  11.562  0.4713  0.3581  0.0811
   81MPD2     H 1264   0.692   0.386  11.820  1.5686 -2.2730  0.1589
   81MPD2    H1 1265   0.982   0.681  11.717  1.5566 -1.0401  0.1778
   81MPD2    H2 1266   0.819   0.446  11.416 -1.3940  1.7670  0.2097
   81MPD2    H3 1267   0.971   0.609  11.484  1.4103  1.1902  1.2985
   81MPD2     N 1268   0.869   0.576  11.929  0.0231 -0.5116 -0.2542
   81MPD2    H5 1269   0.943   0.642  11.950 -0.8648  0.4828 -0.2915
   81MPD2    N1 1270   0.665   0.279  11.569  0.2231  0.0644 -0.2560
   81MPD2    H7 1271   0.604   0.242  11.641 -0.0956 -1.6289 -1.4162
   82TMC2    C1 1272   3.561   3.599  11.263  0.3565  0.6727 -0.6685
   82TMC2    C2 1273   3.641   3.619  11.159  0.1273 -0.5416  1.0572
   82TMC2    C3 1274   3.672   3.510  11.080  0.5577  0.2952 -0.6220
   82TMC2    C4 1275   3.503   3.481  11.292 -0.6500 -0.0135 -0.3904
   82TMC2    C5 1276   3.530   3.378  11.210  0.3924 -0.2522 -0.3541
   82TMC2    C6 1277   3.622   3.388  11.106 -0.0021  0.3908  0.3400
   82TMC2     C 1278   3.501   3.718  11.329 -0.6444  0.0436  0.1506
   82TMC2     O 1279   3.555   3.829  11.327 -0.7802 -0.6506  0.0923
   82TMC2     H 1280   3.684   3.719  11.151  0.6753 -1.0088 -1.6716
   82TMC2    H1 1281   3.440   3.467  11.379  0.0676  1.9259  0.4540
   82TMC2    H2 1282   3.628   3.314  11.027 -0.9157  0.6643  0.0073
   82TMC2    C7 1283   3.450   3.253  11.217 -0.0978  0.3906  0.1913
   82TMC2    C8 1284   3.679   3.536  10.940 -0.1261  0.5756 -0.0930
   82TMC2    O1 1285   3.445   3.187  11.113 -0.5698 -0.1301 -0.1665
   82TMC2    O2 1286   3.589   3.492  10.874 -0.2656 -0.0377 -0.5097
   82TMC2    O5 1287   3.737   3.656  10.923 -0.3128 -0.1563 -0.7120
   82TMC2    H5 1288   3.814   3.658  10.983 -0.1595 -0.1462 -0.9071
   83MPD2     C 1289   3.101   3.982  11.479 -0.2734 -0.0747  0.3231
   83MPD2    C1 1290   3.062   3.854  11.451 -0.0097  0.2496  0.0731
   83MPD2    C2 1291   3.154   3.756  11.433 -0.2624  0.6193 -0.3534
   83MPD2    C3 1292   3.287   3.789  11.425 -0.0976  0.6266  0.5390
   83MPD2    C4 1293   3.317   3.919  11.454  0.1391 -0.1728 -0.4322
   83MPD2    C5 1294   3.231   4.013  11.491 -0.0553  0.0487 -0.3253
   83MPD2     H 1295   3.127   3.652  11.422  2.4346 -0.1037 -0.1334
   83MPD2    H1 1296   3.422   3.945  11.453  0.8461 -3.0485 -0.4652
   83MPD2    H2 1297   3.030   4.058  11.508  0.6789  0.4402  1.2819
   83MPD2    H3 1298   3.256   4.115  11.515 -0.8154  0.2790 -0.5305
   83MPD2     N 1299   3.372   3.695  11.371 -0.1114  0.1828  0.0325
   83MPD2    H5 1300   3.328   3.608  11.345 -2.6792  1.3027  0.5907
   83MPD2    N1 1301   2.926   3.829  11.423  0.0233  0.0081 -0.6054
   83MPD2    H7 1302   2.865   3.910  11.413  0.0882  0.1579  0.2791
   84TMC2    C1 1303   0.245   2.957  11.607 -0.1500  0.3361  0.2614
   84TMC2    C2 1304   0.338   2.955  11.706 -0.2395  0.0115 -0.3411
   84TMC2    C3 1305   0.447   2.872  11.696  0.2583  1.3703 -0.1253
   84TMC2    C4 1306   0.256   2.864  11.508 -0.1170  0.2301  0.6614
   84TMC2    C5 1307   0.359   2.780  11.501 -0.2518  0.8484  0.3395
   84TMC2    C6 1308   0.461   2.775  11.599 -1.2019  1.0296  0.0419
   84TMC2     C 1309   0.141   3.057  11.601  0.3893  0.1517 -0.0723
   84TMC2     O 1310   0.088   3.110  11.701 -0.1047 -0.3240  0.3802
   84TMC2     H 1311   0.330   3.029  11.785  2.9170  0.6735 -0.6393
   84TMC2    H1 1312   0.185   2.852  11.426  0.0940 -0.8334  0.6260
   84TMC2    H2 1313   0.536   2.698  11.598 -3.0202 -0.6988 -2.0396
   84TMC2    C7 1314   0.377   2.702  11.374  0.0631 -0.4815  0.8319
   84TMC2    C8 1315   0.551   2.900  11.785  0.4422  0.4409 -0.2073
   84TMC2    O1 1316   0.285   2.683  11.294  0.0837  0.4494 -0.4622
   84TMC2    O2 1317   0.544   2.973  11.884 -0.1561 -0.6473  0.1899
   84TMC2    O5 1318   0.665   2.870  11.729 -0.2110 -0.1379  0.4238
   84TMC2    H5 1319   0.647   2.808  11.654 -2.0167  0.4006  0.3970
   85TMC2    C1 1320   0.677   1.779  16.393 -0.3975 -0.1854  0.1764
   85TMC2    C2 1321   0.658   1.918  16.409 -0.5534  0.0202 -0.0017
   85TMC2    C3 1322   0.715   2.006  16.319 -0.3869  0.3966 -0.3731
   85TMC2    C4 1323   0.752   1.733  16.292  0.5010 -0.1268  0.3564
   85TMC2    C5 1324   0.797   1.828  16.203  0.1710  0.1175 -0.2598
   85TMC2    C6 1325   0.775   1.960  16.210  0.3285  0.4860  0.2891
   85TMC2     C 1326   0.666   1.701  16.519 -0.2028 -0.6520 -0.5504
   85TMC2     O 1327   0.654   1.762  16.626 -0.1818 -0.2835  0.0046
   85TMC2     H 1328   0.600   1.940  16.498 -1.1244 -2.0823  0.1501
   85TMC2    H1 1329   0.765   1.628  16.266  1.2191 -0.1664  0.8998
   85TMC2    H2 1330   0.813   2.033  16.140  1.7944 -0.6202 -0.0434
   85TMC2    C7 1331   0.866   1.771  16.088 -0.0778  0.0987 -0.7238
   85TMC2    C8 1332   0.683   2.146  16.315 -0.1293 -0.2324  0.2974
   85TMC2    O1 1333   0.915   1.660  16.104  0.2912  0.3427 -0.2435
   85TMC2    O2 1334   0.687   2.215  16.213 -0.2109 -0.3264  0.3122
   85TMC2    O5 1335   0.697   2.187  16.440 -0.0245 -0.1608  0.0291
   85TMC2    H5 1336   0.693   2.121  16.513  1.6382 -1.6347 -1.2198
   86MPD2     C 1337   0.523   1.300  16.806  0.3559 -0.3036 -0.1299
   86MPD2    C1 1338   0.493   1.270  16.672 -0.1275  0.4734 -0.4151
   86MPD2    C2 1339   0.529   1.366  16.573 -0.0213  0.1694 -0.7811
   86MPD2    C3 1340   0.597   1.483  16.605  0.4256  0.3921 -0.9032
   86MPD2    C4 1341   0.626   1.505  16.736  0.3520  0.0198  0.5117
   86MPD2    C5 1342   0.574   1.424  16.833 -0.0440 -0.6839 -0.4515
   86MPD2     H 1343   0.504   1.350  16.469 -1.5754  0.1526 -0.4119
   86MPD2    H1 1344   0.681   1.592  16.771  2.3945 -0.8252 -0.5537
   86MPD2    H2 1345   0.487   1.243  16.891 -1.6847  0.9378 -0.1556
   86MPD2    H3 1346   0.597   1.443  16.937  0.5885  1.8578 -1.0747
   86MPD2     N 1347   0.626   1.578  16.494 -0.1689 -0.0173 -0.6206
   86MPD2    H5 1348   0.616   1.546  16.398 -0.5832  0.5064 -0.7503
   86MPD2    N1 1349   0.422   1.155  16.634 -0.0732  0.2247 -0.3931
   86MPD2    H7 1350   0.384   1.140  16.541  0.8114 -1.8373 -0.4188
   87TMC2    C1 1351   2.987   3.913   1.324 -0.3084  0.3015  0.1960
   87TMC2    C2 1352   3.105   3.957   1.386  0.6028  0.8618 -0.6316
   87TMC2    C3 1353   3.090   4.015   1.513 -0.1202 -0.5570 -0.1673
   87TMC2    C4 1354   2.870   3.905   1.393 -0.3752  0.2135 -0.2542
   87TMC2    C5 1355   2.867   3.948   1.525 -0.6358 -0.0777 -0.4322
   87TMC2    C6 1356   2.979   4.001   1.590 -0.0636 -0.1348  0.2408
   87TMC2     C 1357   2.995   3.858   1.190 -0.6653  0.4292 -0.1667
   87TMC2     O 1358   2.901   3.866   1.115 -0.1323 -0.3885  0.4851
   87TMC2     H 1359   3.189   3.963   1.318  0.7747 -0.3530 -0.5209
   87TMC2    H1 1360   2.778   3.882   1.341  0.6651 -0.7125 -1.6954
   87TMC2    H2 1361   2.978   4.047   1.688 -0.8979 -1.3379  0.8071
   87TMC2    C7 1362   2.746   4.020   1.550  0.1308  1.4915  0.3399
   87TMC2    C8 1363   3.206   4.042   1.597  0.2872 -0.1937 -0.8385
   87TMC2    O1 1364   2.671   4.048   1.453  0.3936 -0.1081  0.0538
   87TMC2    O2 1365   3.205   4.009   1.715 -0.1076  0.0550  0.1288
   87TMC2    O5 1366   3.315   4.038   1.516 -0.0365 -0.8619  0.4831
   87TMC2    H5 1367   3.291   4.093   1.439  0.0916 -0.3918  0.7765
   88MPD2     C 1368   2.584   4.106   1.854 -0.2877  0.3586  0.0131
   88MPD2    C1 1369   2.630   4.126   1.728  0.0660 -0.9151  0.1656
   88MPD2    C2 1370   2.564   4.219   1.646 -0.3989  0.4115  0.2308
   88MPD2    C3 1371   2.453   4.288   1.697 -0.0326 -1.0384 -0.0589
   88MPD2    C4 1372   2.414   4.270   1.826 -0.2416  0.2434  0.1619
   88MPD2    C5 1373   2.474   4.175   1.900 -0.4041 -0.1407 -0.1864
   88MPD2     H 1374   2.591   4.237   1.543  0.0537  1.7643  0.5946
   88MPD2    H1 1375   2.333   4.328   1.868 -0.8582 -0.6976  0.2916
   88MPD2    H2 1376   2.630   4.038   1.925 -1.0150 -1.1860 -1.0032
   88MPD2    H3 1377   2.442   4.158   2.002 -0.0428  0.0447 -0.0432
   88MPD2     N 1378   2.390   4.397   1.626 -0.4089 -0.2162  0.6469
   88MPD2    H5 1379   2.307   4.445   1.659 -1.3938 -1.1365 -0.4536
   88MPD2    N1 1380   2.731   4.040   1.683 -0.2093 -0.0436  0.1156
   88MPD2    H7 1381   2.799   4.003   1.748 -0.1293 -1.1863 -0.6161
   89TMC2    C1 1382   3.452   2.528   1.274  0.4188 -0.6142 -0.4505
   89TMC2    C2 1383   3.414   2.397   1.248  0.4427  0.1492 -0.5829
   89TMC2    C3 1384   3.368   2.367   1.121 -0.2501 -0.1059  0.0630
   89TMC2    C4 1385   3.466   2.616   1.170 -0.1306  0.9543  0.3646
   89TMC2    C5 1386   3.405   2.585   1.049  0.5064 -0.4218 -0.9421
   89TMC2    C6 1387   3.355   2.462   1.021 -0.2241 -0.6120 -0.0388
   89TMC2     C 1388   3.488   2.572   1.407 -0.6566  0.3483 -0.5501
   89TMC2     O 1389   3.560   2.669   1.426  0.6074 -0.3841  0.3323
   89TMC2     H 1390   3.421   2.320   1.324  0.7398  1.4770  0.7354
   89TMC2    H1 1391   3.487   2.719   1.198  1.5753  0.3469  1.2871
   89TMC2    H2 1392   3.322   2.433   0.922 -0.1230 -0.5865 -0.0800
   89TMC2    C7 1393   3.392   2.678   0.941 -0.1933 -0.0194  0.4147
   89TMC2    C8 1394   3.335   2.226   1.092 -0.3149 -0.2256  0.8577
   89TMC2    O1 1395   3.303   2.648   0.859 -0.2722  0.0107 -0.2944
   89TMC2    O2 1396   3.298   2.137   1.167 -0.5640 -0.0353 -0.0820
   89TMC2    O5 1397   3.408   2.205   0.984 -0.3961  0.4605 -0.9182
   89TMC2    H5 1398   3.431   2.283   0.929  3.1324 -2.0851 -3.0922
   90MPD2     C 1399   3.516   2.502   1.914 -0.2362 -0.1557 -0.6065
   90MPD2    C1 1400   3.417   2.416   1.864 -0.0519  0.4951  0.1987
   90MPD2    C2 1401   3.394   2.420   1.726 -0.3277  0.3238  0.7934
   90MPD2    C3 1402   3.469   2.500   1.643 -0.0560  0.0437 -0.1666
   90MPD2    C4 1403   3.584   2.567   1.696  0.1430 -0.7906  0.4301
   90MPD2    C5 1404   3.601   2.569   1.829 -0.0830 -1.0798 -0.1792
   90MPD2     H 1405   3.332   2.338   1.692 -0.9923  0.1952  2.2916
   90MPD2    H1 1406   3.654   2.623   1.635 -0.6264  0.1941  0.4436
   90MPD2    H2 1407   3.543   2.503   2.019  3.1456  0.2992 -1.5055
   90MPD2    H3 1408   3.688   2.617   1.874  0.0877 -2.2569  0.7637
   90MPD2     N 1409   3.436   2.487   1.503  0.3211  0.2346  0.3662
   90MPD2    H5 1410   3.355   2.431   1.478 -0.0472  1.0447 -0.2421
   90MPD2    N1 1411   3.342   2.321   1.944  0.0166 -0.0461 -0.8124
   90MPD2    H7 1412   3.295   2.246   1.894  0.1548 -0.9559  0.4393
   91TMC2    C1 1413   0.293   2.488  16.659  0.2279 -0.6988 -0.0417
   91TMC2    C2 1414   0.354   2.548  16.550  0.6014 -0.3043  1.4578
   91TMC2    C3 1415   0.277   2.566  16.432  0.4740  0.4203  0.0736
   91TMC2    C4 1416   0.155   2.473  16.667 -0.1202 -0.3259  0.0370
   91TMC2    C5 1417   0.088   2.488  16.553 -0.4309  0.7142 -0.6775
   91TMC2    C6 1418   0.148   2.530  16.432  0.5736  0.0875 -0.5698
   91TMC2     C 1419   0.379   2.441  16.774  1.0573 -0.4981 -0.7122
   91TMC2     O 1420   0.324   2.434  16.885 -0.1125 -0.3403 -0.6206
   91TMC2     H 1421   0.457   2.580  16.550 -0.4412  3.0780  1.2954
   91TMC2    H1 1422   0.112   2.442  16.761  1.2800  0.1914  0.8355
   91TMC2    H2 1423   0.103   2.538  16.333  0.8153  1.6281 -0.5436
   91TMC2    C7 1424   4.686   2.482  16.561  0.1935 -0.1466 -0.7886
   91TMC2    C8 1425   0.340   2.619  16.314 -0.3474  0.2119  0.0450
   91TMC2    O1 1426   4.651   2.477  16.678  0.9266 -0.7348  0.1955
   91TMC2    O2 1427   0.453   2.587  16.286 -0.4962  0.0393  0.0565
   91TMC2    O5 1428   0.255   2.653  16.219 -0.4875 -0.2498 -0.0271
   91TMC2    H5 1429   0.179   2.700  16.260  0.5500  0.9800  0.4737
   92MPD2     C 1430   0.606   2.339  16.945 -0.4811  0.2199 -0.1610
   92MPD2    C1 1431   0.620   2.385  16.812  0.3377 -0.5302 -0.2067
   92MPD2    C2 1432   0.741   2.371  16.742 -0.6118 -0.1687 -0.1631
   92MPD2    C3 1433   0.856   2.341  16.801  0.0617 -0.1806  0.1545
   92MPD2    C4 1434   0.842   2.283  16.930 -0.5580  0.0791  0.2127
   92MPD2    C5 1435   0.723   2.284  16.996 -0.1026  0.4280  0.0706
   92MPD2     H 1436   0.739   2.398  16.637  2.6153  1.2574  0.1339
   92MPD2    H1 1437   0.929   2.241  16.979 -2.5235 -3.5684  0.6560
   92MPD2    H2 1438   0.518   2.324  17.006 -0.6675  1.0903 -0.2238
   92MPD2    H3 1439   0.723   2.245  17.097  2.1524  1.2481  0.3880
   92MPD2     N 1440   0.977   2.351  16.724  1.0546  0.0908 -0.3155
   92MPD2    H5 1441   0.972   2.399  16.634 -0.6422 -1.1786 -0.9054
   92MPD2    N1 1442   0.509   2.424  16.737  0.3805  0.0492 -0.3140
   92MPD2    H7 1443   0.527   2.430  16.637 -1.9036  0.4784 -0.7182
   93TMC2    C1 1444   2.431   2.182  14.346  0.0387  0.0728 -0.0171
   93TMC2    C2 1445   2.384   2.285  14.417  0.3661 -0.2579  0.3573
   93TMC2    C3 1446   2.475   2.382  14.464  0.9843  0.2648 -0.3349
   93TMC2    C4 1447   2.558   2.179  14.304  0.5263  0.3555  0.1698
   93TMC2    C5 1448   2.646   2.278  14.338  0.3003 -0.1466  1.1012
   93TMC2    C6 1449   2.599   2.394  14.410  1.1108  0.4133 -0.1269
   93TMC2     C 1450   2.331   2.083  14.290  0.8144  0.4850 -0.0333
   93TMC2     O 1451   2.371   2.016  14.195  0.1127  0.1439 -0.4472
   93TMC2     H 1452   2.280   2.287  14.448  0.3218  1.5963  0.1106
   93TMC2    H1 1453   2.590   2.099  14.238  2.3612  1.3643 -0.1622
   93TMC2    H2 1454   2.671   2.471  14.433  0.6612  0.8459 -0.1713
   93TMC2    C7 1455   2.770   2.282  14.264 -0.0631  0.0855 -0.3510
   93TMC2    C8 1456   2.426   2.469  14.568 -0.8558 -0.0891 -0.3184
   93TMC2    O1 1457   2.829   2.175  14.254 -0.1992 -0.4550  0.1715
   93TMC2    O2 1458   2.332   2.438  14.631 -0.5873  0.6111  0.5065
   93TMC2    O5 1459   2.480   2.594  14.567 -0.7631 -0.3362 -0.3180
   93TMC2    H5 1460   2.552   2.614  14.503 -1.2575  0.6332 -0.5602
   94MPD2     C 1461   2.088   1.938  14.210  0.8447  0.1289 -0.9140
   94MPD2    C1 1462   2.092   2.043  14.298  0.0415  0.9330  0.0243
   94MPD2    C2 1463   1.973   2.098  14.336 -0.2477 -0.5847  0.6891
   94MPD2    C3 1464   1.856   2.065  14.271  0.1027 -0.3323 -0.3489
   94MPD2    C4 1465   1.861   1.966  14.179  0.1311  0.2899 -0.0026
   94MPD2    C5 1466   1.973   1.906  14.142 -0.2037 -0.2278 -0.1502
   94MPD2     H 1467   1.973   2.170  14.417 -1.2994  1.0523 -0.7823
   94MPD2    H1 1468   1.774   1.955  14.115 -0.7690  2.1125  0.8859
   94MPD2    H2 1469   2.177   1.878  14.193  0.3331 -0.6302 -0.8744
   94MPD2    H3 1470   1.964   1.825  14.071  1.8712 -0.2934 -0.3157
   94MPD2     N 1471   1.735   2.145  14.276 -0.3287  0.2248 -0.6074
   94MPD2    H5 1472   1.660   2.115  14.214 -0.1169  0.9521 -1.2140
   94MPD2    N1 1473   2.213   2.092  14.347  0.3139 -0.4949 -0.7888
   94MPD2    H7 1474   2.204   2.158  14.423 -0.3364  1.7716 -2.8323
   95TMC2    C1 1475   2.325   4.339  16.445  0.0903 -0.2180  0.2570
   95TMC2    C2 1476   2.218   4.275  16.492  0.2346  0.3577 -0.2627
   95TMC2    C3 1477   2.164   4.313  16.605  0.4381 -0.1584 -0.0934
   95TMC2    C4 1478   2.375   4.449  16.509  0.2270  0.0701  0.2711
   95TMC2    C5 1479   2.310   4.493  16.620  0.4379  0.1204 -0.3137
   95TMC2    C6 1480   2.201   4.431  16.670 -0.4991 -0.1530 -1.0969
   95TMC2     C 1481   2.386   4.300  16.321  0.0059 -0.0509  0.5238
   95TMC2     O 1482   2.462   4.385  16.279 -0.6297 -0.0562  0.0055
   95TMC2     H 1483   2.180   4.182  16.450 -0.1879  0.6234 -0.4571
   95TMC2    H1 1484   2.456   4.506  16.466 -0.4228  1.3752  0.7777
   95TMC2    H2 1485   2.168   4.470  16.765  2.7356  0.0664 -0.0719
   95TMC2    C7 1486   2.375   4.603  16.693  0.0540 -0.7515 -0.1473
   95TMC2    C8 1487   2.083   4.215  16.682 -0.0277  0.2059 -0.9702
   95TMC2    O1 1488   2.298   4.671  16.758  0.4438  0.4459 -0.2903
   95TMC2    O2 1489   2.089   4.094  16.658  0.4152 -0.1356  0.3372
   95TMC2    O5 1490   1.970   4.274  16.732  0.4281  0.3596 -0.0008
   95TMC2    H5 1491   1.967   4.370  16.715  0.9947  0.5584  1.0240
   96MPD2     C 1492   2.574   3.982  15.976 -0.3381  0.3700 -0.3437
   96MPD2    C1 1493   2.591   4.123  15.993  0.3961 -0.3201  0.0190
   96MPD2    C2 1494   2.512   4.184  16.082  0.6475  0.3533  0.6188
   96MPD2    C3 1495   2.450   4.106  16.183 -0.3233 -0.0628 -0.3180
   96MPD2    C4 1496   2.455   3.969  16.182  0.3052 -1.1276  0.8701
   96MPD2    C5 1497   2.507   3.905  16.078  0.8834  0.1898 -0.8997
   96MPD2     H 1498   2.509   4.292  16.095  0.6356  0.3431  0.7036
   96MPD2    H1 1499   2.414   3.912  16.265 -0.2084  0.5581  1.7706
   96MPD2    H2 1500   2.620   3.920  15.900 -2.8640  0.0328 -1.5954
   96MPD2    H3 1501   2.507   3.799  16.055  0.4032 -0.4596  2.1196
   96MPD2     N 1502   2.385   4.166  16.291 -0.0699 -0.0639 -0.3650
   96MPD2    H5 1503   2.342   4.105  16.359  0.6721  0.6973  0.7839
   96MPD2    N1 1504   2.665   4.193  15.891 -0.1107  0.2199 -0.2623
   96MPD2    H7 1505   2.693   4.142  15.808 -0.0708 -1.7630  0.9534
   97TMC2    C1 1506   4.193   2.330   0.318  0.0702 -0.2971  0.1113
   97TMC2    C2 1507   4.065   2.384   0.322  1.0934 -0.0932  0.6083
   97TMC2    C3 1508   4.059   2.522   0.289 -0.6542  0.0485 -0.1268
   97TMC2    C4 1509   4.299   2.397   0.273  0.5095 -0.1819  0.0456
   97TMC2    C5 1510   4.289   2.533   0.237 -0.3895  0.4557 -0.4771
   97TMC2    C6 1511   4.170   2.598   0.251  0.3026 -0.1280  0.3090
   97TMC2     C 1512   4.214   2.204   0.395 -0.2963 -0.2046  0.1694
   97TMC2     O 1513   4.325   2.166   0.421  0.1753 -0.1004 -0.5002
   97TMC2     H 1514   3.977   2.338   0.366  0.1219  0.3734 -0.8382
   97TMC2    H1 1515   4.399   2.357   0.281  0.4470  0.1857  2.6601
   97TMC2    H2 1516   4.163   2.704   0.228  0.6324 -0.3735 -0.8954
   97TMC2    C7 1517   4.404   2.618   0.243 -0.3914 -0.0384  0.2939
   97TMC2    C8 1518   3.950   2.603   0.344  0.9525 -0.3859 -1.6340
   97TMC2    O1 1519   4.490   2.572   0.312 -0.2000  0.0545 -0.7244
   97TMC2    O2 1520   3.965   2.723   0.371 -0.2817 -0.1832 -0.4224
   97TMC2    O5 1521   3.851   2.526   0.387  0.3047  0.2698  0.3518
   97TMC2    H5 1522   3.837   2.436   0.351  0.9568  1.0774 -1.8868
   98MPD2     C 1523   4.015   1.805   0.616 -0.1600 -0.2175  0.0775
   98MPD2    C1 1524   4.136   1.863   0.649 -0.3964 -0.2985 -0.0004
   98MPD2    C2 1525   4.161   1.984   0.582  0.1880  0.3301 -0.2179
   98MPD2    C3 1526   4.066   2.031   0.490  0.0188  0.3308 -0.0700
   98MPD2    C4 1527   3.945   1.968   0.463 -1.0701 -0.2011  0.5066
   98MPD2    C5 1528   3.913   1.863   0.541 -0.4732 -0.4307 -0.3589
   98MPD2     H 1529   4.244   2.049   0.603  0.3688  0.2770 -0.7506
   98MPD2    H1 1530   3.873   2.007   0.392  1.6820  2.4544 -0.8325
   98MPD2    H2 1531   3.988   1.718   0.674 -0.4807 -0.2918 -0.1830
   98MPD2    H3 1532   3.814   1.818   0.545  0.4389 -2.2318  2.1281
   98MPD2     N 1533   4.094   2.148   0.418  0.9019  0.1504 -0.0485
   98MPD2    H5 1534   4.021   2.194   0.365 -0.2231 -1.8931 -0.2539
   98MPD2    N1 1535   4.229   1.796   0.736 -0.0541  0.4009  0.4699
   98MPD2    H7 1536   4.192   1.722   0.794 -1.4823 -1.1350 -2.3959
   99TMC2    C1 1537   3.577   3.531   2.085  0.3411 -0.2610 -0.4380
   99TMC2    C2 1538   3.656   3.521   2.197  0.5181 -0.0291 -0.2340
   99TMC2    C3 1539   3.604   3.506   2.319 -0.6524 -0.6038 -0.7377
   99TMC2    C4 1540   3.441   3.527   2.089  0.2091 -0.8613 -0.3915
   99TMC2    C5 1541   3.391   3.486   2.214  0.2025  0.2567 -0.0707
   99TMC2    C6 1542   3.469   3.466   2.324  0.0970 -0.2249 -0.2175
   99TMC2     C 1543   3.642   3.495   1.962 -0.5893 -0.0168  0.8473
   99TMC2     O 1544   3.764   3.496   1.971 -0.0766  0.3161  0.2783
   99TMC2     H 1545   3.763   3.536   2.193  0.5219 -0.4135 -1.5076
   99TMC2    H1 1546   3.376   3.540   2.004  0.8395 -1.2316 -0.9362
   99TMC2    H2 1547   3.425   3.430   2.416  0.0758 -0.5978 -0.3718
   99TMC2    C7 1548   3.251   3.485   2.244  1.0701 -0.0251  0.1791
   99TMC2    C8 1549   3.687   3.433   2.405 -0.7318 -0.2330  0.5553
   99TMC2    O1 1550   3.215   3.520   2.358 -0.1259  0.7342  0.6830
   99TMC2    O2 1551   3.788   3.483   2.447 -0.0706  0.8023  0.6035
   99TMC2    O5 1552   3.677   3.294   2.383 -0.1631 -0.4935 -0.9880
   99TMC2    H5 1553   3.602   3.267   2.326 -1.0855  0.9316 -0.4500
  100MPD2     C 1554   3.716   3.412   1.695  0.2423 -0.2158 -0.1283
  100MPD2    C1 1555   3.587   3.425   1.739  0.2920 -0.2887 -0.1195
  100MPD2    C2 1556   3.481   3.382   1.652 -0.2818  0.3452 -0.0804
  100MPD2    C3 1557   3.511   3.335   1.524  0.1955  0.1603 -0.3321
  100MPD2    C4 1558   3.645   3.329   1.488  0.1614 -0.2908 -0.3961
  100MPD2    C5 1559   3.738   3.360   1.575  0.4956  0.0619 -0.2614
  100MPD2     H 1560   3.380   3.392   1.692 -0.2369  1.3354 -0.1945
  100MPD2    H1 1561   3.688   3.306   1.391 -0.1540 -1.0238 -0.3562
  100MPD2    H2 1562   3.796   3.445   1.760 -1.2754  0.1342  1.5724
  100MPD2    H3 1563   3.843   3.338   1.560  0.3275 -0.9183 -0.0058
  100MPD2     N 1564   3.404   3.324   1.427 -0.1251  0.1589  0.5585
  100MPD2    H5 1565   3.314   3.344   1.468 -0.0585  1.0200  0.2805
  100MPD2    N1 1566   3.555   3.462   1.865  0.1204 -0.4802 -0.6306
  100MPD2    H7 1567   3.457   3.467   1.892  0.3736  0.7411  0.0577
  101TMC2    C1 1568   4.143   0.123  13.232  0.3527  0.0026 -0.0947
  101TMC2    C2 1569   4.081   0.240  13.242 -0.6119  0.3107  0.3187
  101TMC2    C3 1570   4.095   0.328  13.138  0.3981 -0.0940 -0.1519
  101TMC2    C4 1571   4.206   0.093  13.110  0.3580 -0.1650  0.5772
  101TMC2    C5 1572   4.226   0.188  13.013  0.7451 -0.2368 -0.3556
  101TMC2    C6 1573   4.174   0.307  13.025 -0.1320  0.9282 -0.5174
  101TMC2     C 1574   4.101   0.020  13.325 -0.0522 -0.1062  0.5717
  101TMC2     O 1575   4.000   0.042  13.389 -0.0878  0.4857 -0.1444
  101TMC2     H 1576   4.024   0.253  13.333  0.2720  2.5178  0.5416
  101TMC2    H1 1577   4.244   4.729  13.098 -0.1289 -0.0646 -1.8030
  101TMC2    H2 1578   4.175   0.379  12.944 -0.7955  1.3529 -0.1519
  101TMC2    C7 1579   4.302   0.155  12.888  0.2263 -0.1362 -0.3748
  101TMC2    C8 1580   4.069   0.465  13.167  0.1561 -0.4264  0.1749
  101TMC2    O1 1581   4.374   0.247  12.847  0.0445 -0.0432 -0.1159
  101TMC2    O2 1582   4.111   0.559  13.100 -0.5682 -0.1000 -0.2961
  101TMC2    O5 1583   3.958   0.481  13.241 -0.6133  0.2001 -0.2519
  101TMC2    H5 1584   3.912   0.398  13.269 -0.2540 -0.0576 -0.4337
  102MPD2     C 1585   4.211   4.413  13.341 -0.1614  0.4518 -0.1697
  102MPD2    C1 1586   4.138   4.525  13.370  0.3060 -0.1063  0.3001
  102MPD2    C2 1587   4.023   4.499  13.439  1.1813 -0.5322  0.1601
  102MPD2    C3 1588   3.981   4.373  13.468 -0.7311  0.4692  0.0625
  102MPD2    C4 1589   4.053   4.258  13.438 -0.0640 -1.5532 -0.8712
  102MPD2    C5 1590   4.170   4.285  13.379  1.0911 -0.5223  0.6319
  102MPD2     H 1591   3.951   4.577  13.464  0.7475 -0.4223 -1.3938
  102MPD2    H1 1592   4.023   4.156  13.461 -2.7055 -0.6692 -0.3755
  102MPD2    H2 1593   4.306   4.415  13.289 -0.3933  0.7597 -0.5828
  102MPD2    H3 1594   4.248   4.211  13.364 -1.0527 -2.3677 -1.3137
  102MPD2     N 1595   3.854   4.354  13.535  0.3477  0.2448 -0.0917
  102MPD2    H5 1596   3.809   4.440  13.566  0.1813  0.0325  0.2611
  102MPD2    N1 1597   4.177   4.647  13.320 -0.3334  0.1825  0.4762
  102MPD2    H7 1598   4.265   4.647  13.269 -0.4714 -2.4276  0.2466
  103TMC2    C1 1599   2.477   0.173  13.140  0.0098  0.2252 -0.4439
  103TMC2    C2 1600   2.499   0.299  13.097  0.1673 -0.2294 -0.1174
  103TMC2    C3 1601   2.569   0.383  13.175  0.1440  0.1424  0.4560
  103TMC2    C4 1602   2.513   0.133  13.269  0.3887 -0.2812  0.6215
  103TMC2    C5 1603   2.574   0.229  13.346  0.7772  0.1336 -0.4671
  103TMC2    C6 1604   2.608   0.354  13.300 -0.6283  0.5378  0.0552
  103TMC2     C 1605   2.456   0.076  13.037  0.2195 -0.1958 -1.1908
  103TMC2     O 1606   2.390   0.112  12.942 -0.4405 -0.1721 -0.2128
  103TMC2     H 1607   2.482   0.338  12.997  1.8121  0.5300 -0.0923
  103TMC2    H1 1608   2.483   0.036  13.307  3.7833 -1.3775  0.4409
  103TMC2    H2 1609   2.676   0.421  13.352  1.0835 -0.3634 -1.0408
  103TMC2    C7 1610   2.597   0.193  13.485  0.1809 -0.6081  0.3260
  103TMC2    C8 1611   2.617   0.505  13.107 -0.4572  0.0661  0.1078
  103TMC2    O1 1612   2.539   0.102  13.542  0.0492  0.2952  0.2118
  103TMC2    O2 1613   2.626   0.515  12.985 -1.0983 -0.4593  0.2412
  103TMC2    O5 1614   2.639   0.602  13.210 -0.1359  0.4111 -0.4107
  103TMC2    H5 1615   2.622   0.567  13.300  0.5279 -0.7237 -0.7295
  104MPD2     C 1616   2.537   4.454  13.009 -0.2690 -0.3960 -0.3696
  104MPD2    C1 1617   2.483   4.573  12.966  0.6514 -0.2064 -0.1633
  104MPD2    C2 1618   2.414   4.575  12.848  0.0713  0.3741 -0.2964
  104MPD2    C3 1619   2.410   4.458  12.774 -0.7403 -0.0725 -0.3847
  104MPD2    C4 1620   2.471   4.339  12.817 -0.1755 -1.1525 -0.3371
  104MPD2    C5 1621   2.526   4.342  12.936  0.4381  0.0433  0.2072
  104MPD2     H 1622   2.366   4.664  12.808 -4.0792 -0.6564  2.4071
  104MPD2    H1 1623   2.480   4.249  12.757  2.6989 -0.6182 -0.6935
  104MPD2    H2 1624   2.588   4.447  13.104  2.1708  2.1630 -1.4777
  104MPD2    H3 1625   2.581   4.251  12.957  2.7396  1.5345  0.6406
  104MPD2     N 1626   2.343   4.463  12.655 -0.3519  0.5475 -0.4726
  104MPD2    H5 1627   2.300   4.553  12.637  1.3366  0.8922 -2.8222
  104MPD2    N1 1628   2.508   4.686  13.053 -0.3307  0.4870  0.2336
  104MPD2    H7 1629   2.562   4.663  13.135 -0.1392  0.3474  0.0689
  105TMC2    C1 1630   2.929   3.683   0.252  0.2965 -0.2383  0.2241
  105TMC2    C2 1631   2.810   3.634   0.303  0.1741 -0.1086 -0.1222
  105TMC2    C3 1632   2.788   3.644   0.434  0.0563  0.0995  0.0681
  105TMC2    C4 1633   3.024   3.726   0.340 -0.0907 -0.9448 -0.6751
  105TMC2    C5 1634   2.997   3.730   0.474  0.0066 -0.4576  0.0701
  105TMC2    C6 1635   2.882   3.680   0.526 -0.1406  0.0642 -0.0285
  105TMC2     C 1636   2.959   3.629   0.115 -0.5606  0.3147 -0.2582
  105TMC2     O 1637   2.887   3.540   0.081  0.1777 -0.1238  0.0134
  105TMC2     H 1638   2.735   3.609   0.229 -0.3034 -0.8777  0.6189
  105TMC2    H1 1639   3.115   3.774   0.305 -0.6658  0.5677 -0.0441
  105TMC2    H2 1640   2.863   3.677   0.633 -1.6316  0.6484 -0.2752
  105TMC2    C7 1641   3.119   3.732   0.556  0.4341  0.5969 -0.2444
  105TMC2    C8 1642   2.669   3.584   0.505  0.9556  0.1694 -1.0802
  105TMC2    O1 1643   3.219   3.682   0.505 -0.0501 -0.1725  0.0385
  105TMC2    O2 1644   2.653   3.587   0.619  1.1258  0.0501 -0.0616
  105TMC2    O5 1645   2.575   3.552   0.416  0.0351 -0.6123 -0.2235
  105TMC2    H5 1646   2.607   3.563   0.323 -1.2007  0.8546 -0.4847
  106MPD2     C 1647   3.245   3.627  17.441 -0.2755  0.8752  0.1113
  106MPD2    C1 1648   3.270   3.739  17.517  1.1934 -0.2217  0.0500
  106MPD2    C2 1649   3.209   3.761  17.634  0.4705  0.4681  0.0912
  106MPD2    C3 1650   3.119   3.665  17.677  0.2796  0.4060  0.2664
  106MPD2    C4 1651   3.104   3.543  17.609 -0.5410  0.0113 -0.7461
  106MPD2    C5 1652   3.165   3.520  17.490  0.8919  0.3161  0.4123
  106MPD2     H 1653   3.228   3.853  17.687 -0.9219  1.6376 -1.4276
  106MPD2    H1 1654   3.025   3.481  17.651  1.1904 -2.8773 -1.7600
  106MPD2    H2 1655   3.298   3.599  17.350 -1.0509 -0.0732 -0.0519
  106MPD2    H3 1656   3.132   3.436  17.430 -0.5301 -1.6089  3.9087
  106MPD2     N 1657   3.053   3.697   0.047  0.4117  0.2724  0.2753
  106MPD2    H5 1658   3.085   3.785   0.086  0.2642  0.6206 -0.3737
  106MPD2    N1 1659   3.352   3.842  17.474  0.5172 -0.4159 -0.2035
  106MPD2    H7 1660   3.343   3.930  17.523  0.2196 -0.1160 -0.7986
  107TMC2    C1 1661   4.096   3.280  11.728  0.0941  0.0859 -0.3284
  107TMC2    C2 1662   3.975   3.254  11.674 -0.2385  0.4549 -0.3118
  107TMC2    C3 1663   3.957   3.263  11.539 -0.4090 -0.4746 -0.4034
  107TMC2    C4 1664   4.198   3.316  11.645  0.5379 -0.1485  0.4418
  107TMC2    C5 1665   4.174   3.321  11.509 -0.2322  0.3456 -0.7425
  107TMC2    C6 1666   4.053   3.296  11.446 -0.5370 -0.7777 -0.9600
  107TMC2     C 1667   4.101   3.309  11.870 -0.4605  0.7282 -0.3584
  107TMC2     O 1668   3.991   3.305  11.926  0.3444 -0.1990  0.0535
  107TMC2     H 1669   3.892   3.236  11.741  0.4162  0.3248  0.4669
  107TMC2    H1 1670   4.299   3.338  11.678  0.6973  0.2172 -0.2869
  107TMC2    H2 1671   4.033   3.306  11.340 -1.9023  1.8501 -0.4557
  107TMC2    C7 1672   4.285   3.327  11.411 -0.4319  0.3690 -0.6633
  107TMC2    C8 1673   3.817   3.265  11.493  0.2660  0.0181 -0.5007
  107TMC2    O1 1674   4.259   3.346  11.291 -0.2563 -0.4630  0.0912
  107TMC2    O2 1675   3.736   3.210  11.561  0.0503 -0.0308 -0.3171
  107TMC2    O5 1676   3.789   3.386  11.443 -0.5862  0.7029  0.1593
  107TMC2    H5 1677   3.863   3.432  11.397 -1.2179  0.2772 -1.2519
  108MPD2     C 1678   4.386   3.423  12.083  0.0841 -0.5743 -0.3331
  108MPD2    C1 1679   4.253   3.396  12.057  0.5973  0.7028 -0.2748
  108MPD2    C2 1680   4.160   3.422  12.155  0.2418  0.7090  0.1185
  108MPD2    C3 1681   4.188   3.478  12.277 -0.1557  0.4991 -0.1217
  108MPD2    C4 1682   4.323   3.515  12.301  0.3607 -0.5586 -0.1943
  108MPD2    C5 1683   4.418   3.486  12.202 -0.0795 -0.7472  0.0212
  108MPD2     H 1684   4.057   3.401  12.129  0.1176  0.3789  0.8719
  108MPD2    H1 1685   4.349   3.564  12.393 -0.3938 -1.9850  0.7799
  108MPD2    H2 1686   4.469   3.409  12.015  1.5341  2.0764  0.8986
  108MPD2    H3 1687   4.521   3.513  12.225  0.8758 -2.6601 -1.9748
  108MPD2     N 1688   4.093   3.509  12.371  0.4784 -0.7966  0.3038
  108MPD2    H5 1689   4.127   3.571  12.445 -0.2001  2.2425 -1.9571
  108MPD2    N1 1690   4.227   3.346  11.924 -0.2729  0.0883 -1.0121
  108MPD2    H7 1691   4.308   3.330  11.865  1.4557 -0.5814  1.5529
  109TMC2    C1 1692   3.842   0.755   0.917  0.3315  0.1968 -0.1265
  109TMC2    C2 1693   3.931   0.649   0.888  0.3783  0.2532  0.3857
  109TMC2    C3 1694   4.064   0.671   0.912 -0.0453 -0.4194  0.7522
  109TMC2    C4 1695   3.880   0.876   0.967  0.0818 -0.2788  0.3149
  109TMC2    C5 1696   4.017   0.888   0.996 -1.0890  0.0050 -0.1379
  109TMC2    C6 1697   4.101   0.785   0.968  0.0003 -0.6158  0.8688
  109TMC2     C 1698   3.703   0.706   0.945 -0.4259 -0.1817 -0.4468
  109TMC2     O 1699   3.673   0.599   0.895 -0.0325  0.3050 -0.3033
  109TMC2     H 1700   3.894   0.553   0.854 -2.1164  0.5428  2.3110
  109TMC2    H1 1701   3.802   0.951   0.969  0.2999  0.0035 -2.5087
  109TMC2    H2 1702   4.206   0.789   0.994  0.0198 -0.8400  0.8213
  109TMC2    C7 1703   4.075   1.012   1.049  0.2787 -0.1012  0.2282
  109TMC2    C8 1704   4.154   0.559   0.915  0.5340 -0.2374  0.3969
  109TMC2    O1 1705   4.196   1.021   1.049 -0.4559  0.2694 -0.5201
  109TMC2    O2 1706   4.265   0.565   0.968  0.1715  0.1788 -0.5204
  109TMC2    O5 1707   4.117   0.466   0.827 -0.6517  1.1127 -0.5375
  109TMC2    H5 1708   4.038   0.485   0.772 -0.6919 -0.6265 -1.0919
  110MPD2     C 1709   3.347   0.634   1.300  0.1631  0.1619 -0.6980
  110MPD2    C1 1710   3.441   0.715   1.356  0.3989 -0.0627 -0.9501
  110MPD2    C2 1711   3.534   0.762   1.268  0.2838 -0.2612  0.5931
  110MPD2    C3 1712   3.544   0.720   1.132  0.1003  0.7676  0.3235
  110MPD2    C4 1713   3.455   0.629   1.087 -0.4891 -0.3022  0.2656
  110MPD2    C5 1714   3.351   0.591   1.170 -0.6995 -0.1119 -0.1632
  110MPD2     H 1715   3.627   0.805   1.305  0.3544  0.0613  0.0334
  110MPD2    H1 1716   3.460   0.602   0.982 -0.1694 -0.4859  0.3288
  110MPD2    H2 1717   3.271   0.594   1.366  0.3852  2.4574  0.9400
  110MPD2    H3 1718   3.279   0.516   1.141 -0.1865 -1.8355  2.9908
  110MPD2     N 1719   3.649   0.773   1.053  0.1542 -0.1415 -0.5152
  110MPD2    H5 1720   3.710   0.842   1.096  1.2525 -2.2654  1.3115
  110MPD2    N1 1721   3.431   0.757   1.493 -0.5513  0.2953  0.2164
  110MPD2    H7 1722   3.354   0.721   1.549  1.1476 -0.6341  1.9824
  111TMC2    C1 1723   4.615   0.168  11.098 -0.3790  0.0051 -1.4872
  111TMC2    C2 1724   4.640   0.039  11.053  0.6696 -0.2293  0.1048
  111TMC2    C3 1725   4.656   4.683  11.158 -0.3019 -0.2182 -0.0463
  111TMC2    C4 1726   4.606   0.196  11.233  0.8414 -0.5788  0.1097
  111TMC2    C5 1727   4.630   0.106  11.321  0.2803  0.2443 -0.2382
  111TMC2    C6 1728   4.646   4.711  11.287  0.1159  0.3502 -0.0008
  111TMC2     C 1729   4.553   0.270  11.010  0.2161 -0.3689  0.4098
  111TMC2     O 1730   4.499   0.359  11.076  0.0036  0.3697 -0.5334
  111TMC2     H 1731   4.631   0.006  10.950 -1.9696 -0.6740  0.4685
  111TMC2    H1 1732   4.574   0.293  11.271 -1.6209 -1.2693 -0.2413
  111TMC2    H2 1733   4.626   4.632  11.357  0.0655 -1.4134 -2.0025
  111TMC2    C7 1734   4.633   0.139  11.462  1.1217  0.3684 -0.2524
  111TMC2    C8 1735   4.699   4.548  11.116 -0.0362  0.3117 -0.1116
  111TMC2    O1 1736   4.719   0.084  11.530  0.5257 -0.6020  0.2423
  111TMC2    O2 1737   4.685   4.448  11.185 -0.1258  0.4836  0.5567
  111TMC2    O5 1738   0.054   4.555  11.014 -0.3912 -0.4915 -0.3312
  111TMC2    H5 1739   0.080   4.642  10.978  0.1396  0.6072  2.7300
  112MPD2     C 1740   4.345   0.482  10.571 -0.8634  0.9719 -0.0805
  112MPD2    C1 1741   4.347   0.522  10.701  0.5018 -0.0077  0.3636
  112MPD2    C2 1742   4.418   0.451  10.800  0.3498 -0.8013  0.4069
  112MPD2    C3 1743   4.476   0.325  10.767 -0.2637 -0.3535  0.4510
  112MPD2    C4 1744   4.452   0.275  10.639 -0.3738  0.2960  0.3912
  112MPD2    C5 1745   4.391   0.353  10.545 -0.4855 -0.2210 -0.5533
  112MPD2     H 1746   4.423   0.499  10.896 -1.1356  0.3544 -0.0980
  112MPD2    H1 1747   4.485   0.175  10.613 -0.8151  0.3785 -0.4754
  112MPD2    H2 1748   4.295   0.538  10.492  0.9331  0.6655 -1.4182
  112MPD2    H3 1749   4.385   0.316  10.443 -1.7108 -0.6987 -0.3007
  112MPD2     N 1750   4.553   0.243  10.868  0.4845 -0.5959 -0.1643
  112MPD2    H5 1751   4.595   0.154  10.845  0.9874  0.2231 -2.3336
  112MPD2    N1 1752   4.275   0.640  10.741 -0.2412  0.2648  0.5133
  112MPD2    H7 1753   4.286   0.666  10.838 -0.3460  0.6472  0.4241
  113TMC2    C1 1754   1.989   3.265   0.783  0.4459  0.0042 -0.3208
  113TMC2    C2 1755   1.896   3.365   0.766  0.0186 -0.4740 -0.1975
  113TMC2    C3 1756   1.791   3.347   0.683  0.1890 -0.3120 -0.0925
  113TMC2    C4 1757   1.966   3.138   0.725  0.7826  0.2223  0.2195
  113TMC2    C5 1758   1.850   3.119   0.659  0.6489 -0.3335  0.3071
  113TMC2    C6 1759   1.764   3.226   0.631 -0.1601 -0.4562 -0.5214
  113TMC2     C 1760   2.078   3.282   0.900  0.1828  0.1831  0.7243
  113TMC2     O 1761   2.090   3.399   0.940 -0.4255 -0.1160 -0.9085
  113TMC2     H 1762   1.902   3.456   0.825  0.4595 -0.8035  0.2623
  113TMC2    H1 1763   2.033   3.055   0.741  0.5520  0.1046  0.5706
  113TMC2    H2 1764   1.678   3.195   0.571 -0.1773  0.6700 -1.0821
  113TMC2    C7 1765   1.803   2.982   0.620 -0.3789  0.7340 -0.2556
  113TMC2    C8 1766   1.686   3.442   0.682 -0.2130  0.0191  0.6143
  113TMC2    O1 1767   1.737   2.989   0.521 -0.1370 -0.3629 -0.2093
  113TMC2    O2 1768   1.678   3.521   0.776 -0.2673  0.5223  0.2778
  113TMC2    O5 1769   1.599   3.413   0.593 -0.0656  0.3920 -0.4380
  113TMC2    H5 1770   1.641   3.353   0.528 -0.3172 -0.2724  0.0117
  114MPD2     C 1771   2.449   3.082   1.207 -0.1153  0.1268 -0.0310
  114MPD2    C1 1772   2.409   3.214   1.193  0.7000  0.2506  0.0201
  114MPD2    C2 1773   2.301   3.232   1.109  0.1093 -0.6688  0.6842
  114MPD2    C3 1774   2.252   3.140   1.021  0.6907 -0.0441  0.4673
  114MPD2    C4 1775   2.309   3.013   1.032  0.4155 -0.5192 -0.3650
  114MPD2    C5 1776   2.409   2.985   1.121 -0.2147 -0.0734 -0.3242
  114MPD2     H 1777   2.259   3.331   1.104  1.8577  0.1593  2.2406
  114MPD2    H1 1778   2.271   2.936   0.967 -0.7055 -0.9102  0.7567
  114MPD2    H2 1779   2.517   3.051   1.286  0.2887 -0.5413 -0.6528
  114MPD2    H3 1780   2.448   2.887   1.145 -0.8271 -0.1181  0.5111
  114MPD2     N 1781   2.148   3.166   0.929  0.4657 -0.5265  0.4562
  114MPD2    H5 1782   2.117   3.082   0.881  0.6271 -1.3879  1.8659
  114MPD2    N1 1783   2.453   3.319   1.270  0.1424  0.9843 -0.1926
  114MPD2    H7 1784   2.392   3.400   1.277 -1.8858 -0.6845  1.6454
  115TMC2    C1 1785   3.294   1.409   0.585 -0.5213  0.0969  0.0607
  115TMC2    C2 1786   3.414   1.372   0.532 -0.1333  0.5252 -0.2082
  115TMC2    C3 1787   3.483   1.482   0.476 -0.2347 -0.1799 -0.3461
  115TMC2    C4 1788   3.241   1.539   0.592 -0.1715 -0.2555 -0.2993
  115TMC2    C5 1789   3.314   1.635   0.532  0.0122  0.1066 -0.5537
  115TMC2    C6 1790   3.436   1.607   0.472 -0.0746 -0.8566 -0.2369
  115TMC2     C 1791   3.194   1.299   0.599 -0.0144 -0.2623  0.5312
  115TMC2     O 1792   3.223   1.188   0.551 -0.0797  0.4650  0.4644
  115TMC2     H 1793   3.449   1.269   0.538  3.7489  1.8144 -0.9544
  115TMC2    H1 1794   3.151   1.573   0.640 -1.3571 -1.1902 -1.8638
  115TMC2    H2 1795   3.504   1.681   0.431  1.1023 -0.7934  1.8298
  115TMC2    C7 1796   3.255   1.771   0.524 -0.3477  0.7480  0.3678
  115TMC2    C8 1797   3.620   1.482   0.433  0.1083  0.1581  0.0365
  115TMC2    O1 1798   3.141   1.788   0.569  0.9065  0.1147  0.4632
  115TMC2    O2 1799   3.689   1.577   0.394 -0.8190 -0.0767 -0.5637
  115TMC2    O5 1800   3.648   1.353   0.400 -0.0188  0.2028  0.3097
  115TMC2    H5 1801   3.571   1.297   0.421  1.3938 -1.2726  1.5292
  116MPD2     C 1802   2.793   1.051   0.801  0.4196  0.0336  0.6851
  116MPD2    C1 1803   2.853   1.028   0.686  0.2162 -0.1382  0.7508
  116MPD2    C2 1804   2.962   1.112   0.652 -1.1437  0.0563  0.3867
  116MPD2    C3 1805   2.988   1.228   0.717  0.2638 -0.4025  0.9500
  116MPD2    C4 1806   2.910   1.260   0.830 -0.0265 -0.0697 -0.2447
  116MPD2    C5 1807   2.823   1.169   0.869  0.1507 -0.3591 -0.2455
  116MPD2     H 1808   3.018   1.086   0.563 -0.6993 -0.8330  0.9295
  116MPD2    H1 1809   2.918   1.352   0.886 -2.4588 -0.8619  1.3934
  116MPD2    H2 1810   2.705   0.994   0.830  0.1479  0.9341  1.6313
  116MPD2    H3 1811   2.765   1.196   0.957 -1.2084  1.4526 -1.7094
  116MPD2     N 1812   3.092   1.318   0.690  0.6308 -0.0367 -0.5003
  116MPD2    H5 1813   3.095   1.408   0.736 -0.6987 -0.3618  0.2171
  116MPD2    N1 1814   2.804   0.925   0.595  0.1363  0.3451 -0.3092
  116MPD2    H7 1815   2.726   0.872   0.632  1.5333 -0.6661  1.1965
  117TMC2    C1 1816   1.748   2.646  14.544  0.2062 -0.0736 -0.2315
  117TMC2    C2 1817   1.862   2.573  14.541  0.4092  0.5914 -0.0097
  117TMC2    C3 1818   1.952   2.602  14.446  0.0602  0.0709 -0.1730
  117TMC2    C4 1819   1.718   2.742  14.455  0.3483 -0.4288 -0.4252
  117TMC2    C5 1820   1.816   2.770  14.356 -1.0984  0.2254 -0.1514
  117TMC2    C6 1821   1.932   2.703  14.362 -0.3120 -0.7520 -0.2558
  117TMC2     C 1822   1.641   2.572  14.610  0.2061 -0.3671  0.1346
  117TMC2     O 1823   1.669   2.507  14.710  0.6106  0.2340  0.5024
  117TMC2     H 1824   1.887   2.493  14.610 -0.5926 -0.3449 -0.7430
  117TMC2    H1 1825   1.626   2.797  14.469 -0.4687 -2.0856  0.6702
  117TMC2    H2 1826   2.012   2.734  14.295  0.1162 -1.6071 -0.1567
  117TMC2    C7 1827   1.811   2.883  14.280 -0.0805 -0.3164 -0.7335
  117TMC2    C8 1828   2.084   2.545  14.453 -0.2831 -0.3244 -0.0513
  117TMC2    O1 1829   1.908   2.956  14.291 -0.1507  0.6781 -0.1197
  117TMC2    O2 1830   2.181   2.600  14.402  0.0666  0.6948  0.1020
  117TMC2    O5 1831   2.060   2.410  14.443  0.2323  0.1534 -0.1200
  117TMC2    H5 1832   1.965   2.394  14.424  0.3562  2.1805 -2.5304
  118MPD2     C 1833   1.494   3.022  14.154 -0.7478 -0.1957  0.3354
  118MPD2    C1 1834   1.625   3.021  14.191  0.8217  0.2455  0.2158
  118MPD2    C2 1835   1.699   3.142  14.189  0.1375 -0.4761  0.1514
  118MPD2    C3 1836   1.639   3.259  14.158  0.4190 -0.3014  0.0272
  118MPD2    C4 1837   1.506   3.262  14.115  0.1766  0.8284  1.2165
  118MPD2    C5 1838   1.440   3.142  14.109  0.6647  0.0619  0.7829
  118MPD2     H 1839   1.803   3.145  14.220  0.3550  0.1445 -0.6228
  118MPD2    H1 1840   1.455   3.353  14.083  1.0011  0.9096  0.1582
  118MPD2    H2 1841   1.435   2.932  14.155 -2.2347  0.7707 -0.2484
  118MPD2    H3 1842   1.340   3.148  14.068  1.5374  0.9276 -1.1772
  118MPD2     N 1843   1.714   3.386  14.171  0.2152 -0.8146 -0.9628
  118MPD2    H5 1844   1.666   3.474  14.154  0.4449 -0.4263  0.4284
  118MPD2    N1 1845   1.687   2.897  14.233  0.0330  0.6145 -0.7128
  118MPD2    H7 1846   1.622   2.822  14.257 -0.0429  1.2742  1.1002
  119TMC2    C1 1847   4.598   3.968  13.614  0.0278  0.1231  0.1387
  119TMC2    C2 1848   4.613   3.920  13.482  0.3504  0.5515  1.3645
  119TMC2    C3 1849   4.512   3.858  13.422  0.2984  0.3446  0.3893
  119TMC2    C4 1850   4.478   3.957  13.674  0.2899  0.0957  0.8443
  119TMC2    C5 1851   4.374   3.899  13.603 -0.2608  0.1645 -0.0033
  119TMC2    C6 1852   4.387   3.855  13.471 -0.2292 -0.2472  0.4194
  119TMC2     C 1853   4.669   4.088  13.636 -0.0506  0.4931 -0.0320
  119TMC2     O 1854   4.598   4.183  13.670 -0.2131 -0.0660 -0.1655
  119TMC2     H 1855   4.713   3.920  13.442 -0.8741  1.4812 -1.6314
  119TMC2    H1 1856   4.458   4.014  13.764 -0.4501  0.8265  0.2293
  119TMC2    H2 1857   4.299   3.835  13.411 -0.1572 -0.5545  0.4144
  119TMC2    C7 1858   4.239   3.932  13.647 -0.4665 -0.5143  0.0500
  119TMC2    C8 1859   4.535   3.848  13.287  0.3791 -0.7420 -0.7711
  119TMC2    O1 1860   4.150   3.923  13.565  0.3581  0.4062 -0.0085
  119TMC2    O2 1861   4.617   3.914  13.232  0.5735  0.6841  0.2508
  119TMC2    O5 1862   4.431   3.776  13.227 -0.1068 -0.4355  0.0046
  119TMC2    H5 1863   4.397   3.705  13.286  0.0148 -1.6020 -1.3161
  120MPD2     C 1864   0.344   4.325  13.794 -0.1825 -0.2811  0.1312
  120MPD2    C1 1865   0.215   4.349  13.816  0.1521  0.0031 -0.4488
  120MPD2    C2 1866   0.123   4.277  13.749 -0.0512  0.1626 -0.8152
  120MPD2    C3 1867   0.157   4.165  13.680  0.3405  0.5736 -0.8571
  120MPD2    C4 1868   0.293   4.136  13.663 -0.3297 -0.5817 -0.2538
  120MPD2    C5 1869   0.390   4.221  13.715  0.5337 -0.7433  0.2161
  120MPD2     H 1870   0.018   4.303  13.750 -0.0337  0.2289 -0.2289
  120MPD2    H1 1871   0.333   4.058  13.599 -2.6471 -2.4867  0.6146
  120MPD2    H2 1872   0.424   4.379  13.845  0.2541 -1.8367  1.0911
  120MPD2    H3 1873   0.497   4.224  13.704  0.5376 -1.8265 -0.0905
  120MPD2     N 1874   0.063   4.072  13.636 -0.1340  0.4393  0.5534
  120MPD2    H5 1875   0.097   3.979  13.615 -0.6114  0.5649 -0.7716
  120MPD2    N1 1876   0.182   4.468  13.897  0.7655  0.1947 -0.0847
  120MPD2    H7 1877   0.252   4.540  13.911  2.3879 -1.8329  2.0104
  121TMC2    C1 1878   0.954   0.533  14.078  0.2130  0.2398  0.4570
  121TMC2    C2 1879   0.975   0.426  14.157 -0.7195 -0.0119  0.4801
  121TMC2    C3 1880   0.892   0.312  14.167  0.5124 -0.1328  0.1640
  121TMC2    C4 1881   0.835   0.540  14.008  0.8344 -0.3418  0.4027
  121TMC2    C5 1882   0.757   0.425  14.010  0.5660  0.0003  0.2218
  121TMC2    C6 1883   0.782   0.313  14.092 -0.0022  0.9233  0.2555
  121TMC2     C 1884   1.036   0.647  14.103 -0.3890 -0.3452  0.2933
  121TMC2     O 1885   1.051   0.675  14.217 -0.5451 -0.3450  0.5707
  121TMC2     H 1886   1.058   0.436  14.226  0.5870  0.8435 -1.2314
  121TMC2    H1 1887   0.824   0.630  13.949 -0.4664  0.1538  1.4002
  121TMC2    H2 1888   0.708   0.234  14.095  1.0010 -0.0648 -1.5570
  121TMC2    C7 1889   0.622   0.429  13.953  0.2228 -0.2108 -0.0381
  121TMC2    C8 1890   0.943   0.201  14.248 -0.0964 -0.0470 -0.4335
  121TMC2    O1 1891   0.562   0.321  13.937  0.4550  0.0184  0.0166
  121TMC2    O2 1892   1.063   0.188  14.267 -0.2865 -0.3995  0.1052
  121TMC2    O5 1893   0.852   0.123  14.306 -0.4547 -0.0776 -0.1945
  121TMC2    H5 1894   0.760   0.153  14.291  0.2008  1.6787 -0.7340
  122MPD2     C 1895   1.202   0.904  14.102  0.5441  0.3566  0.5299
  122MPD2    C1 1896   1.171   0.834  13.986 -0.1660 -0.0233 -0.4201
  122MPD2    C2 1897   1.205   0.878  13.859 -0.6378 -0.1794 -0.0637
  122MPD2    C3 1898   1.279   0.996  13.848 -0.9611  0.7872  0.1567
  122MPD2    C4 1899   1.307   1.068  13.960  0.0824 -0.1527 -0.2336
  122MPD2    C5 1900   1.265   1.025  14.087 -0.1436 -0.0412  0.2664
  122MPD2     H 1901   1.175   0.819  13.774 -0.4760 -0.0976 -0.1776
  122MPD2    H1 1902   1.340   1.170  13.944 -2.5552  0.8886  0.9916
  122MPD2    H2 1903   1.189   0.874  14.205  0.3243 -1.9157 -0.1586
  122MPD2    H3 1904   1.288   1.094  14.167  1.5236 -3.3012  2.5878
  122MPD2     N 1905   1.314   1.059  13.721 -0.1497 -0.0864 -0.6025
  122MPD2    H5 1906   1.381   1.135  13.724 -0.1867 -0.0845  0.2749
  122MPD2    N1 1907   1.087   0.713  13.987  0.5402  0.1688 -0.1127
  122MPD2    H7 1908   1.053   0.683  13.896 -0.7972 -0.6610  0.6632
  123TMC2    C1 1909   4.210   4.160  10.122 -0.2145  0.5776 -0.5871
  123TMC2    C2 1910   4.303   4.260  10.138  1.3070  0.2448 -0.2538
  123TMC2    C3 1911   4.409   4.227  10.208 -0.4549 -0.3685  0.0378
  123TMC2    C4 1912   4.218   4.035  10.182  0.6734  0.5533 -0.5422
  123TMC2    C5 1913   4.332   4.013  10.255  0.1548 -0.1217 -0.0190
  123TMC2    C6 1914   4.421   4.107  10.269 -0.5948 -0.3100  0.4938
  123TMC2     C 1915   4.124   4.163  10.010 -0.3028 -0.1648 -0.2540
  123TMC2     O 1916   4.061   4.059   9.980  0.3428 -0.0528  0.2265
  123TMC2     H 1917   4.291   4.360  10.098  1.1320  1.1236  2.0006
  123TMC2    H1 1918   4.132   3.969  10.176 -0.7770  2.3689  0.0682
  123TMC2    H2 1919   4.516   4.091  10.318 -0.1754 -0.8093 -0.4685
  123TMC2    C7 1920   4.352   3.891  10.322  0.2043  0.5133 -0.1358
  123TMC2    C8 1921   4.509   4.326  10.229  0.6971  0.1372 -0.1582
  123TMC2    O1 1922   4.454   3.887  10.396  0.4996  0.2662  0.2975
  123TMC2    O2 1923   4.581   4.337  10.326 -0.5050  0.2061 -0.1458
  123TMC2    O5 1924   4.516   4.408  10.115  0.0093  0.3912 -0.0680
  123TMC2    H5 1925   4.460   4.387  10.037 -0.2850  2.1913 -0.3371
  124MPD2     C 1926   3.865   4.400   9.636  0.7636 -0.0748 -0.3599
  124MPD2    C1 1927   3.968   4.479   9.679 -0.2696 -0.3716 -0.1948
  124MPD2    C2 1928   4.063   4.440   9.769  0.2452  0.1745  0.2142
  124MPD2    C3 1929   4.039   4.322   9.834 -0.1079  0.0773  0.4749
  124MPD2    C4 1930   3.933   4.242   9.797  0.1376 -0.1131  0.0973
  124MPD2    C5 1931   3.856   4.277   9.690 -0.6006  0.7616  0.3511
  124MPD2     H 1932   4.150   4.503   9.787 -0.5595  0.5311  2.8542
  124MPD2    H1 1933   3.903   4.152   9.849  0.9354  0.8978  2.3165
  124MPD2    H2 1934   3.796   4.436   9.560  0.0431  0.4117  0.5272
  124MPD2    H3 1935   3.782   4.203   9.659  1.4372 -1.1786  0.1110
  124MPD2     N 1936   4.125   4.283   9.942  0.1485 -0.4150  0.0560
  124MPD2    H5 1937   4.200   4.347   9.963  1.4871 -1.6987 -0.8090
  124MPD2    N1 1938   3.947   4.611   9.641 -0.1370 -0.3574 -0.1158
  124MPD2    H7 1939   3.881   4.628   9.566  1.1404  0.6397 -1.0224
  125TMC2    C1 1940   0.456   1.735   9.611  0.8345  0.0694  1.1551
  125TMC2    C2 1941   0.331   1.767   9.558 -0.0400 -0.4388 -0.0292
  125TMC2    C3 1942   0.317   1.815   9.431  0.4383 -0.1087 -0.2562
  125TMC2    C4 1943   0.566   1.745   9.535  0.2270  0.0358 -0.5911
  125TMC2    C5 1944   0.552   1.788   9.404 -0.0548  0.3912 -0.3525
  125TMC2    C6 1945   0.431   1.830   9.355  0.1698  0.0923  0.5633
  125TMC2     C 1946   0.459   1.652   9.732  0.5658  0.0556  0.7622
  125TMC2     O 1947   0.350   1.630   9.778 -0.2271  0.5711 -0.2850
  125TMC2     H 1948   0.242   1.743   9.616  0.9642 -2.2241  0.7581
  125TMC2    H1 1949   0.664   1.746   9.580 -0.1471  2.7119  0.1697
  125TMC2    H2 1950   0.417   1.867   9.254 -0.0028 -1.5225  0.0051
  125TMC2    C7 1951   0.671   1.821   9.326  0.2401  0.5452  0.0494
  125TMC2    C8 1952   0.194   1.890   9.401 -0.1971 -0.3365 -0.2133
  125TMC2    O1 1953   0.665   1.906   9.236 -0.1874  0.4661  0.4933
  125TMC2    O2 1954   0.177   1.927   9.284  0.5830 -0.3011 -0.2602
  125TMC2    O5 1955   0.175   1.975   9.502 -0.7339 -0.4961  0.3989
  125TMC2    H5 1956   0.214   1.956   9.591 -2.5209 -1.1689  1.0502
  126MPD1     C 1957   0.694   1.418  10.132 -0.2549 -0.6278  0.0618
  126MPD1    C1 1958   0.791   1.468  10.044 -0.7406  0.0296 -0.2570
  126MPD1    C2 1959   0.744   1.527   9.928  0.0298  0.3453 -0.2782
  126MPD1    C3 1960   0.613   1.547   9.896 -0.3699 -0.6268  0.3637
  126MPD1    C4 1961   0.518   1.504   9.989  0.3548 -0.0244 -0.0026
  126MPD1    C5 1962   0.562   1.441  10.104 -0.6309  0.1671 -0.5204
  126MPD1     H 1963   0.822   1.567   9.863 -0.5908  3.9398  1.1726
  126MPD1    H1 1964   0.414   1.532   9.977  0.9161  2.3532  0.8146
  126MPD1    H2 1965   0.715   1.367  10.225  0.5827  1.1243  0.8342
  126MPD1    H3 1966   0.492   1.407  10.180 -1.0112 -0.0757 -0.9810
  126MPD1     N 1967   0.585   1.612   9.773 -0.5706 -0.0118 -1.1271
  126MPD1    H5 1968   0.668   1.631   9.717 -1.3948  1.9010 -1.7124
  126MPD1    N1 1969   0.921   1.431  10.057 -0.3913 -0.4078 -0.0067
  126MPD1    H6 1970   0.981   1.494  10.005 -0.5567 -0.0597  0.2283
  126MPD1    H7 1971   0.957   1.435  10.152  0.7626 -3.3375 -0.2940
  127TMC2    C1 1972   1.571   4.423  10.433 -0.2963  0.1032 -0.3385
  127TMC2    C2 1973   1.681   4.385  10.510  0.3065 -0.3491  0.4441
  127TMC2    C3 1974   1.663   4.284  10.603  0.4497 -0.2996 -0.5224
  127TMC2    C4 1975   1.454   4.354  10.437 -0.4129 -0.3723  0.2413
  127TMC2    C5 1976   1.445   4.241  10.518 -1.2143  0.4201  0.6056
  127TMC2    C6 1977   1.543   4.218  10.613  0.4657 -0.3690 -0.1959
  127TMC2     C 1978   1.587   4.542  10.353 -0.9131 -0.1345  0.9995
  127TMC2     O 1979   1.694   4.597  10.360  0.0362  0.4723 -0.1639
  127TMC2     H 1980   1.780   4.426  10.491 -0.5520  1.2950 -0.4703
  127TMC2    H1 1981   1.377   4.372  10.363 -1.6013 -0.0718  1.5381
  127TMC2    H2 1982   1.540   4.133  10.680  1.9454  0.6079  1.1039
  127TMC2    C7 1983   1.327   4.168  10.523 -0.4259  0.8249  0.1399
  127TMC2    C8 1984   1.761   4.267  10.699  0.1050  0.6758 -0.2553
  127TMC2    O1 1985   1.227   4.223  10.477 -0.0401  0.2583  0.3971
  127TMC2    O2 1986   1.759   4.173  10.776  0.1402  0.4882 -0.9652
  127TMC2    O5 1987   1.786   4.393  10.744  0.0580  0.4325  0.4194
  127TMC2    H5 1988   1.773   4.465  10.678 -0.3051  0.7098  0.7986
  128MPD2     C 1989   1.384   4.693  10.095  0.2226  0.9570  0.3008
  128MPD2    C1 1990   1.481   4.692  10.195  0.0356  0.1339 -0.3956
  128MPD2    C2 1991   1.569   0.061  10.210  0.4291 -0.7946 -0.3290
  128MPD2    C3 1992   1.581   0.164  10.120 -0.2325 -0.2595  0.7408
  128MPD2    C4 1993   1.493   0.161  10.015  0.4428  0.2320 -0.4298
  128MPD2    C5 1994   1.399   0.056  10.001  0.1334  0.4149  0.2435
  128MPD2     H 1995   1.625   0.076  10.301  0.8318 -0.2023 -0.6760
  128MPD2    H1 1996   1.486   0.243   9.944  0.3586  1.7178  1.2955
  128MPD2    H2 1997   1.305   4.620  10.083  0.9089  0.1139  0.9895
  128MPD2    H3 1998   1.327   0.061   9.920  1.5074 -1.2654 -1.0636
  128MPD2     N 1999   1.677   0.270  10.140 -0.0241  0.0458  0.2487
  128MPD2    H5 2000   1.734   0.262  10.223 -0.6037 -0.6388  0.5778
  128MPD2    N1 2001   1.480   4.576  10.280 -0.4429  0.1711  0.0886
  128MPD2    H7 2002   1.394   4.523  10.286 -0.0290 -0.5288 -0.1873
  129TMC2    C1 2003   0.218   0.384   2.028  0.2189 -0.0921  0.5774
  129TMC2    C2 2004   0.102   0.458   2.017 -0.5660 -0.2374  0.3000
  129TMC2    C3 2005   4.725   0.409   2.073  0.0698  0.2760  0.3851
  129TMC2    C4 2006   0.219   0.262   2.084  0.5514 -0.3616 -0.3012
  129TMC2    C5 2007   0.102   0.216   2.132  0.0351 -0.0562  0.9200
  129TMC2    C6 2008   4.725   0.287   2.137  0.5123 -0.2692 -0.2591
  129TMC2     C 2009   0.338   0.421   1.957  0.7001 -0.6101 -0.1560
  129TMC2     O 2010   0.440   0.368   1.985 -0.0434 -0.4819  0.2176
  129TMC2     H 2011   0.105   0.564   1.997 -0.5938 -0.2165  0.4047
  129TMC2    H1 2012   0.315   0.212   2.084  0.7352 -0.0123  0.7777
  129TMC2    H2 2013   4.628   0.253   2.171  0.3821  1.8144  1.4749
  129TMC2    C7 2014   0.073   0.073   2.124 -0.3086  0.0975 -0.5244
  129TMC2    C8 2015   4.615   0.491   2.095 -0.0192  0.5425 -0.0376
  129TMC2    O1 2016   4.694   0.033   2.126 -0.0171 -0.2862 -0.9236
  129TMC2    O2 2017   4.584   0.576   2.019  0.1041  0.3753  0.5989
  129TMC2    O5 2018   4.627   0.527   2.219  0.1264  0.3086  0.1666
  129TMC2    H5 2019   4.686   0.466   2.268 -0.7418 -1.2932 -0.7955
  130MPD2     C 2020   0.546   0.474   1.729 -0.3060  0.3098 -0.0101
  130MPD2    C1 2021   0.428   0.544   1.760 -0.0070  0.4743 -0.4677
  130MPD2    C2 2022   0.421   0.664   1.694 -0.1229  0.4539  0.3870
  130MPD2    C3 2023   0.519   0.714   1.600  0.5522  0.3381 -0.0617
  130MPD2    C4 2024   0.629   0.637   1.575 -0.5500  0.0139  0.2320
  130MPD2    C5 2025   0.649   0.525   1.648 -0.1216 -0.2786  0.0636
  130MPD2     H 2026   0.330   0.719   1.711 -2.3645 -3.0298 -0.3488
  130MPD2    H1 2027   0.699   0.665   1.498 -2.5116  1.2275 -1.1014
  130MPD2    H2 2028   0.565   0.375   1.769  0.5388  0.2534 -0.5317
  130MPD2    H3 2029   0.746   0.477   1.635  0.5122  1.1568 -0.4460
  130MPD2     N 2030   0.495   0.839   1.542  0.1064  0.3745 -0.1300
  130MPD2    H5 2031   0.414   0.885   1.583  0.6102 -0.2188  1.5497
  130MPD2    N1 2032   0.328   0.511   1.849  0.0746  0.0425 -0.5664
  130MPD2    H7 2033   0.252   0.578   1.852 -0.9533 -1.3119  4.3566
  131TMC2    C1 2034   4.707   0.397  10.207  0.7125 -0.8079  0.1438
  131TMC2    C2 2035   0.080   0.340  10.159 -0.9287  0.4084  0.4865
  131TMC2    C3 2036   0.179   0.310  10.248  0.4454  0.2841 -0.0587
  131TMC2    C4 2037   4.683   0.420  10.341 -0.1846 -0.3538  0.7488
  131TMC2    C5 2038   0.045   0.383  10.429 -0.1995  0.7516 -0.2619
  131TMC2    C6 2039   0.164   0.326  10.388 -0.1659  0.4195 -0.9295
  131TMC2     C 2040   4.585   0.374  10.141 -0.4793 -0.5729  0.8354
  131TMC2     O 2041   4.575   0.282  10.061  0.3098  0.3689  0.4718
  131TMC2     H 2042   0.074   0.313  10.054  1.0813  1.1964  0.1776
  131TMC2    H1 2043   4.589   0.454  10.384  0.2506 -0.7236  1.9977
  131TMC2    H2 2044   0.233   0.297  10.466 -1.4190  1.0516  0.4230
  131TMC2    C7 2045   0.039   0.404  10.564  0.8279 -0.5039  0.1680
  131TMC2    C8 2046   0.309   0.277  10.200  0.4813  0.2622 -0.0895
  131TMC2    O1 2047   0.097   0.321  10.638 -0.9795 -0.6025  0.2606
  131TMC2    O2 2048   0.325   0.261  10.078 -0.2261  0.1133  0.1767
  131TMC2    O5 2049   0.397   0.353  10.275 -0.4631  0.2831  0.4976
  131TMC2    H5 2050   0.367   0.356  10.369  0.5444 -1.0280  0.8760
  132MPD2     C 2051   4.309   0.609  10.184 -0.1621 -0.1767  0.2026
  132MPD2    C1 2052   4.383   0.524  10.112 -0.3347  0.0134  0.5863
  132MPD2    C2 2053   4.334   0.473   9.993  0.3850  0.2833 -0.1372
  132MPD2    C3 2054   4.206   0.497   9.951 -0.2756  0.3267  0.6205
  132MPD2    C4 2055   4.139   0.597  10.022 -0.6445  0.4016 -0.7404
  132MPD2    C5 2056   4.185   0.643  10.139  0.5044  0.0668 -0.2319
  132MPD2     H 2057   4.389   0.407   9.927 -1.1784  0.2657 -1.4176
  132MPD2    H1 2058   4.039   0.633  10.006 -0.6723  0.5662 -0.2054
  132MPD2    H2 2059   4.344   0.652  10.277  0.1505  0.7869 -0.3577
  132MPD2    H3 2060   4.130   0.722  10.187 -0.2062 -1.3120  1.2028
  132MPD2     N 2061   4.144   0.423   9.849  0.3143  0.0918  0.3424
  132MPD2    H5 2062   4.196   0.354   9.796 -0.1270 -0.4198  0.5646
  132MPD2    N1 2063   4.512   0.492  10.165  0.1973 -0.0745 -0.3084
  132MPD2    H7 2064   4.552   0.558  10.232  0.0801  0.6231 -0.9254
  133TMC2    C1 2065   3.051   4.271   9.606  0.0516  1.4778  0.6009
  133TMC2    C2 2066   2.965   4.169   9.582 -0.6223  0.5335 -0.1725
  133TMC2    C3 2067   3.024   4.050   9.560 -0.0279 -0.0338 -0.0814
  133TMC2    C4 2068   3.181   4.256   9.621 -0.4377 -0.1401 -0.1018
  133TMC2    C5 2069   3.236   4.132   9.610  0.2797 -0.9015 -0.2720
  133TMC2    C6 2070   3.159   4.028   9.564  0.3580 -0.3384  0.1009
  133TMC2     C 2071   3.005   4.407   9.635 -0.1916 -0.5740 -0.4551
  133TMC2     O 2072   3.092   4.497   9.633  0.8963  0.2891 -0.7697
  133TMC2     H 2073   2.870   4.185   9.531 -0.9756  0.2314  0.3923
  133TMC2    H1 2074   3.253   4.335   9.644  0.3460 -0.1255 -2.6745
  133TMC2    H2 2075   3.205   3.940   9.520 -3.0457 -2.3508  0.5630
  133TMC2    C7 2076   3.369   4.103   9.661  0.0369  0.1182 -0.0554
  133TMC2    C8 2077   2.948   3.949   9.492  0.1223  0.0806 -0.5516
  133TMC2    O1 2078   3.444   4.200   9.668 -0.2562  0.5575  0.4762
  133TMC2    O2 2079   2.998   3.876   9.402  0.1200 -0.0724 -0.4295
  133TMC2    O5 2080   2.841   3.923   9.565 -0.6647 -0.0416 -0.5561
  133TMC2    H5 2081   2.845   3.957   9.657 -0.5668 -2.0743  0.1931
  134MPD2     C 2082   2.655   4.514   9.702 -0.2466 -0.0721 -0.0599
  134MPD2    C1 2083   2.794   4.530   9.683  0.2789  0.6801 -0.0049
  134MPD2    C2 2084   2.849   4.651   9.721  0.2014  0.3973 -0.0161
  134MPD2    C3 2085   2.769   0.023   9.757 -0.1926 -0.4661  0.1941
  134MPD2    C4 2086   2.635   0.000   9.785 -0.3219 -0.3887 -0.0391
  134MPD2    C5 2087   2.581   4.616   9.751 -0.0082 -0.2952 -0.6167
  134MPD2     H 2088   2.955   4.655   9.702  0.4232  0.3545  1.2435
  134MPD2    H1 2089   2.576   0.077   9.833  2.7066  0.3485  2.4596
  134MPD2    H2 2090   2.601   4.424   9.676 -2.8982  1.2027  0.9679
  134MPD2    H3 2091   2.474   4.607   9.764  0.6506 -2.3105  3.3085
  134MPD2     N 2092   2.819   0.150   9.777 -0.2974  0.5944 -0.0465
  134MPD2    H5 2093   2.756   0.210   9.830 -2.0479 -0.2126 -1.2219
  134MPD2    N1 2094   2.868   4.415   9.646 -0.0075 -0.2013 -1.1783
  134MPD2    H7 2095   2.820   4.326   9.644  2.0429 -1.2684 -3.0923
  135TMC2    C1 2096   1.491   1.875   9.835  0.3088 -0.4444  0.8157
  135TMC2    C2 2097   1.469   1.913   9.706 -0.2319  1.0651  0.1644
  135TMC2    C3 2098   1.347   1.975   9.687 -0.4927 -0.2497  0.5672
  135TMC2    C4 2099   1.397   1.900   9.934  0.2674 -0.0176 -0.1661
  135TMC2    C5 2100   1.274   1.956   9.901  0.5573  0.2140  0.8637
  135TMC2    C6 2101   1.249   2.010   9.779  0.7853  0.1029 -0.0019
  135TMC2     C 2102   1.627   1.855   9.876  0.0238  0.2477  1.1755
  135TMC2     O 2103   1.649   1.888   9.991  0.2035 -0.2858  0.5765
  135TMC2     H 2104   1.547   1.921   9.632 -0.3173  1.3716  0.1103
  135TMC2    H1 2105   1.422   1.864  10.034  1.9068  0.0165 -0.5650
  135TMC2    H2 2106   1.152   2.045   9.746  0.3164  0.4019  1.6903
  135TMC2    C7 2107   1.173   1.971  10.008 -0.1346 -0.3440 -0.0812
  135TMC2    C8 2108   1.319   2.030   9.557  0.2034 -0.2628 -0.3666
  135TMC2    O1 2109   1.106   2.072   9.994 -0.1921 -0.1266  0.1788
  135TMC2    O2 2110   1.231   2.112   9.535 -0.1239  1.0151 -0.1265
  135TMC2    O5 2111   1.351   1.932   9.470 -0.6384 -0.2033  0.0717
  135TMC2    H5 2112   1.420   1.868   9.499 -0.4972 -0.1115 -0.0656
  136MPD2     C 2113   1.920   1.871   9.870 -0.0275 -0.5452  0.7707
  136MPD2    C1 2114   1.846   1.790   9.779  0.4905  0.2953 -0.0849
  136MPD2    C2 2115   1.913   1.703   9.695 -0.0982 -0.1060  0.4798
  136MPD2    C3 2116   2.051   1.698   9.698 -0.3646  0.1698  0.0521
  136MPD2    C4 2117   2.119   1.775   9.786 -0.0322  1.0760  0.0685
  136MPD2    C5 2118   2.060   1.865   9.868  0.3500 -0.3353 -0.3864
  136MPD2     H 2119   1.854   1.641   9.629  2.1648  1.5742 -3.1365
  136MPD2    H1 2120   2.227   1.776   9.774  0.1938 -0.9126  2.0173
  136MPD2    H2 2121   1.882   1.942   9.943 -1.4595  0.4596 -0.9437
  136MPD2    H3 2122   2.128   1.917   9.935  1.8514 -0.4119 -1.8309
  136MPD2     N 2123   2.127   1.592   9.633  0.6149 -0.2755  0.5072
  136MPD2    H5 2124   2.226   1.596   9.655  1.3312  0.5385 -2.8054
  136MPD2    N1 2125   1.704   1.797   9.774  0.3562  0.0659  0.0042
  136MPD2    H7 2126   1.655   1.746   9.702 -1.0814 -1.6705  2.1929
  137TMC2    C1 2127   4.465   1.653   9.811  0.0315  0.8271 -0.5938
  137TMC2    C2 2128   4.351   1.586   9.757  0.6476  0.0781 -0.0418
  137TMC2    C3 2129   4.248   1.566   9.842  0.1873  0.3789  0.7084
  137TMC2    C4 2130   4.473   1.673   9.946  0.1464 -0.0808  0.8981
  137TMC2    C5 2131   4.360   1.653  10.022  0.7264  0.0417 -0.0769
  137TMC2    C6 2132   4.241   1.612   9.974 -0.1226 -0.4579  0.4962
  137TMC2     C 2133   4.584   1.602   9.755 -0.1742 -0.0242 -0.4768
  137TMC2     O 2134   4.650   1.529   9.826  0.6840 -0.5001 -0.1226
  137TMC2     H 2135   4.347   1.538   9.660  0.9056  0.4675 -0.2438
  137TMC2    H1 2136   4.563   1.718   9.985  0.8717 -1.2331  0.5527
  137TMC2    H2 2137   4.161   1.593  10.045 -0.8165  3.7524  0.8868
  137TMC2    C7 2138   4.358   1.669  10.168 -0.1105  0.1707 -0.4875
  137TMC2    C8 2139   4.156   1.469   9.788 -0.0027 -0.3669  0.0268
  137TMC2    O1 2140   4.299   1.586  10.233 -0.3546 -0.4620 -0.5217
  137TMC2    O2 2141   4.139   1.451   9.670 -0.4528  0.3553  0.3864
  137TMC2    O5 2142   4.074   1.428   9.882 -0.0047 -0.0595  0.1381
  137TMC2    H5 2143   4.115   1.396   9.965 -0.4705  0.1737  0.4558
  138MPD2     C 2144   4.689   1.622   9.411  0.2777 -0.0663  0.0582
  138MPD2    C1 2145   4.705   1.596   9.542 -0.8715 -0.0491 -0.1391
  138MPD2    C2 2146   0.075   1.518   9.583  0.3707 -0.4360  0.5565
  138MPD2    C3 2147   0.167   1.469   9.491  0.0563  0.4249  0.7967
  138MPD2    C4 2148   0.155   1.505   9.361  0.1129  0.9408  0.3509
  138MPD2    C5 2149   0.042   1.580   9.327 -0.8690 -0.0008  0.1196
  138MPD2     H 2150   0.095   1.503   9.688  1.6242  0.3476  0.4348
  138MPD2    H1 2151   0.218   1.463   9.284 -0.5363 -1.6614  1.2600
  138MPD2    H2 2152   4.597   1.664   9.372  2.1964  1.3661 -2.8649
  138MPD2    H3 2153   0.026   1.603   9.222  0.9110 -0.8580 -0.3513
  138MPD2     N 2154   0.284   1.405   9.540  0.4912 -0.5154  0.0564
  138MPD2    H5 2155   0.276   1.379   9.638  0.7590 -0.0801  0.1941
  138MPD2    N1 2156   4.602   1.639   9.625 -0.8670  0.3948  1.0241
  138MPD2    H7 2157   4.541   1.708   9.583 -1.3282 -1.1019 -0.7903
  139TMC2    C1 2158   1.760   3.807  13.586  0.2699 -0.1226 -0.1595
  139TMC2    C2 2159   1.842   3.898  13.530  0.4951 -0.4936  0.0520
  139TMC2    C3 2160   1.802   4.031  13.532 -0.5584 -0.1510 -0.7461
  139TMC2    C4 2161   1.647   3.845  13.652 -0.0986  0.0467 -0.1257
  139TMC2    C5 2162   1.613   3.977  13.665  0.3472  0.2267  0.3377
  139TMC2    C6 2163   1.685   4.077  13.601 -0.8230  0.2231  0.6426
  139TMC2     C 2164   1.803   3.663  13.569 -0.3611  0.2069  0.2968
  139TMC2     O 2165   1.887   3.643  13.484  0.2187  0.0104 -0.4391
  139TMC2     H 2166   1.935   3.861  13.488  0.2157  0.2120 -1.1810
  139TMC2    H1 2167   1.571   3.773  13.680 -0.0502  0.3075  0.6957
  139TMC2    H2 2168   1.674   4.185  13.610  2.9371  0.6104  0.7746
  139TMC2    C7 2169   1.504   4.021  13.740 -0.0418  0.0143 -0.0430
  139TMC2    C8 2170   1.868   4.145  13.467  0.3786 -0.1474  0.9266
  139TMC2    O1 2171   1.454   4.126  13.703  0.0292 -0.4672  0.3720
  139TMC2    O2 2172   1.824   4.211  13.373  0.5619 -0.0164  0.0564
  139TMC2    O5 2173   1.998   4.103  13.490  0.2011  0.1361  0.5624
  139TMC2    H5 2174   1.998   4.058  13.578 -3.1311 -1.3000 -0.1478
  140MPD2     C 2175   1.702   3.385  13.778  0.4648 -0.2919 -0.2241
  140MPD2    C1 2176   1.787   3.460  13.698 -0.2421  0.4462  0.0870
  140MPD2    C2 2177   1.905   3.406  13.653  0.3103  0.4348 -0.3555
  140MPD2    C3 2178   1.953   3.284  13.701 -0.6447  0.1517 -0.2526
  140MPD2    C4 2179   1.878   3.212  13.797 -0.3554  0.8678 -0.7243
  140MPD2    C5 2180   1.750   3.260  13.822 -0.5451 -0.3828 -0.8949
  140MPD2     H 2181   1.965   3.462  13.582 -2.3083  0.5300 -2.4724
  140MPD2    H1 2182   1.906   3.121  13.849 -0.5274  1.9762  1.3058
  140MPD2    H2 2183   1.598   3.413  13.789  0.2503 -0.6105 -1.4318
  140MPD2    H3 2184   1.693   3.208  13.899  0.8170  0.5523  0.7382
  140MPD2     N 2185   2.083   3.234  13.666 -0.2211 -0.1523 -0.3058
  140MPD2    H5 2186   2.148   3.291  13.613  0.4394 -0.2963  0.3577
  140MPD2    N1 2187   1.750   3.591  13.667 -0.0873 -0.9840 -0.3719
  140MPD2    H7 2188   1.675   3.624  13.726 -1.0926 -1.4760 -1.3905
  141TMC2    C1 2189   1.726   0.412  14.620 -0.2784  0.0567 -0.3643
  141TMC2    C2 2190   1.638   0.355  14.530  0.3055  0.0154  0.2907
  141TMC2    C3 2191   1.521   0.423  14.507  0.3273 -0.0457  1.1744
  141TMC2    C4 2192   1.712   0.541  14.669 -0.2702 -0.3675  0.0555
  141TMC2    C5 2193   1.600   0.610  14.644  0.3208 -0.5700 -0.1351
  141TMC2    C6 2194   1.507   0.550  14.563  0.3084 -0.3703 -0.0883
  141TMC2     C 2195   1.857   0.353  14.631  0.8021 -0.0408 -0.3049
  141TMC2     O 2196   1.883   0.284  14.537 -0.5935  0.4360  0.0154
  141TMC2     H 2197   1.658   0.262  14.477  1.0119  0.4611 -0.2139
  141TMC2    H1 2198   1.788   0.586  14.732 -1.0176 -0.9578  1.3780
  141TMC2    H2 2199   1.412   0.602  14.552  0.3591 -0.4765 -1.0571
  141TMC2    C7 2200   1.580   0.751  14.675 -0.1452  1.0253  0.2667
  141TMC2    C8 2201   1.420   0.365  14.423 -0.8413 -0.3330 -0.3708
  141TMC2    O1 2202   1.499   0.810  14.605  0.3656  0.5236  0.1935
  141TMC2    O2 2203   1.336   0.432  14.362  0.2984  0.0734 -0.1358
  141TMC2    O5 2204   1.415   0.232  14.458  0.2640  0.4454  0.0278
  141TMC2    H5 2205   1.487   0.198  14.515  0.8503 -1.6809 -1.9549
  142TMC2    C1 2206   4.661   3.214  10.838  0.0383 -0.1505 -0.2671
  142TMC2    C2 2207   0.027   3.261  10.917 -0.3383  0.2577  0.5207
  142TMC2    C3 2208   0.053   3.393  10.903  0.5499 -0.1234  0.0475
  142TMC2    C4 2209   4.599   3.288  10.740  0.0155 -0.2189 -1.0858
  142TMC2    C5 2210   4.632   3.419  10.731  0.9622  0.4431 -0.4421
  142TMC2    C6 2211   4.722   3.474  10.817 -0.3069 -0.2705  0.0298
  142TMC2     C 2212   4.576   3.106  10.890 -0.5242  0.0085 -0.1197
  142TMC2     O 2213   4.488   3.061  10.821 -0.3331 -0.1300  0.3329
  142TMC2     H 2214   0.076   3.194  10.987  1.6334 -0.3924 -1.4978
  142TMC2    H1 2215   4.533   3.234  10.673 -0.3303 -0.4261 -0.5786
  142TMC2    H2 2216   0.008   3.579  10.808 -1.4354 -0.3317 -3.5776
  142TMC2    C7 2217   4.561   3.512  10.643 -0.0963  0.2667 -0.4815
  142TMC2    C8 2218   0.173   3.440  10.975  0.3469  0.8509  0.2196
  142TMC2    O1 2219   4.625   3.604  10.596 -0.2272 -0.4989 -0.2790
  142TMC2    O2 2220   0.214   3.392  11.081 -0.1993 -0.6624  0.2104
  142TMC2    O5 2221   0.248   3.509  10.884 -0.0000 -0.2006  0.1253
  142TMC2    H5 2222   0.205   3.512  10.796 -1.1624 -3.5094  0.5789
  143MPD2     C 2223   4.490   2.725  11.216 -0.2024  0.4351  0.1535
  143MPD2    C1 2224   4.454   2.736  11.083  0.1736 -0.7979 -0.6491
  143MPD2    C2 2225   4.503   2.844  11.010  0.7394  0.3699 -0.4328
  143MPD2    C3 2226   4.572   2.947  11.080  0.6353  0.3789  0.1149
  143MPD2    C4 2227   4.587   2.938  11.218  0.6864  0.1265  0.4658
  143MPD2    C5 2228   4.563   2.818  11.279 -0.1202  0.1654  0.1195
  143MPD2     H 2229   4.481   2.858  10.905 -0.5028  2.4391  0.1052
  143MPD2    H1 2230   4.628   3.026  11.266  0.3574  0.3812  0.2768
  143MPD2    H2 2231   4.453   2.643  11.277  2.3365  0.1173  1.2327
  143MPD2    H3 2232   4.590   2.806  11.383 -1.2144 -2.1171  0.1427
  143MPD2     N 2233   4.607   3.071  11.018 -0.2190  0.5254  0.2951
  143MPD2    H5 2234   4.666   3.136  11.069  1.0209  0.4854 -1.0888
  143MPD2    N1 2235   4.368   2.638  11.032 -0.0851 -0.1170 -0.2654
  143MPD2    H7 2236   4.322   2.569  11.091 -0.4693  0.9355  0.6649
  144TMC2    C1 2237   2.736   2.518   0.766  0.3771  0.8436  0.5544
  144TMC2    C2 2238   2.766   2.402   0.705  0.1248 -0.2056  0.4376
  144TMC2    C3 2239   2.863   2.321   0.756 -0.8289  0.1596 -0.0456
  144TMC2    C4 2240   2.805   2.561   0.878  0.5451 -0.0114 -0.3142
  144TMC2    C5 2241   2.895   2.474   0.931 -0.7457  0.8351 -0.2067
  144TMC2    C6 2242   2.925   2.354   0.868 -0.2665  0.2770  0.0154
  144TMC2     C 2243   2.616   2.594   0.713 -0.0233  0.4102 -0.1154
  144TMC2     O 2244   2.557   2.535   0.624  0.0548 -0.3122 -0.5984
  144TMC2     H 2245   2.718   2.386   0.609 -0.4087  0.9934  0.4970
  144TMC2    H1 2246   2.779   2.658   0.919  3.6927  0.1115  1.4221
  144TMC2    H2 2247   3.004   2.292   0.908 -0.7635 -0.4137 -0.0785
  144TMC2    C7 2248   2.965   2.498   1.061 -0.2031  0.3943  0.0018
  144TMC2    C8 2249   2.946   2.276   0.650  0.8779  0.2919 -0.1735
  144TMC2    O1 2250   3.049   2.413   1.085  0.0226  0.0295  0.2678
  144TMC2    O2 2251   3.067   2.289   0.663  0.8571 -0.3322  0.1994
  144TMC2    O5 2252   2.882   2.190   0.569  0.1239  0.2930 -0.5770
  144TMC2    H5 2253   2.797   2.174   0.614 -0.1288  0.2066 -1.0907
  145MPD2     C 2254   2.308   2.995   0.652 -0.1627  0.0056 -0.0692
  145MPD2    C1 2255   2.315   2.872   0.590 -0.2929 -0.8067  0.6127
  145MPD2    C2 2256   2.417   2.784   0.614  0.0080 -0.1592  0.8261
  145MPD2    C3 2257   2.515   2.822   0.703 -0.1910 -0.2232 -0.0064
  145MPD2    C4 2258   2.518   2.946   0.749  0.3398  0.0165  0.0855
  145MPD2    C5 2259   2.412   3.031   0.731  0.3770 -0.3651  0.0136
  145MPD2     H 2260   2.412   2.684   0.574 -0.3038  0.8490 -1.6594
  145MPD2    H1 2261   2.591   2.985   0.819  1.3653  0.4580 -1.2269
  145MPD2    H2 2262   2.232   3.071   0.635 -0.0834  0.2902  0.8475
  145MPD2    H3 2263   2.419   3.127   0.780  0.1228  0.3133 -1.2808
  145MPD2     N 2264   2.601   2.726   0.757  0.0245  0.1953 -0.3744
  145MPD2    H5 2265   2.670   2.760   0.823  2.2037 -1.2470 -1.9092
  145MPD2    N1 2266   2.220   2.821   0.492 -0.2787 -0.0241  0.1543
  145MPD2    H7 2267   2.238   2.726   0.459 -0.7054 -0.7529  2.0222
  146TMC2    C1 2268   3.362   1.347  12.940 -0.1803  0.0522  0.4858
  146TMC2    C2 2269   3.339   1.408  12.815 -0.2994  0.1886  0.0697
  146TMC2    C3 2270   3.344   1.334  12.704  1.4965  0.4936 -0.7223
  146TMC2    C4 2271   3.401   1.212  12.959  0.8625 -0.0254 -0.6288
  146TMC2    C5 2272   3.397   1.140  12.839 -0.5109 -0.3448  0.2381
  146TMC2    C6 2273   3.374   1.199  12.717 -0.1011  0.0604 -0.2373
  146TMC2     C 2274   3.349   1.431  13.063  0.3750 -0.0953 -0.2314
  146TMC2     O 2275   3.289   1.535  13.046  0.2335 -0.2203  0.6368
  146TMC2     H 2276   3.314   1.513  12.812  0.2858  0.3461  0.5343
  146TMC2    H1 2277   3.388   1.161  13.053 -1.9994  2.0165  0.0852
  146TMC2    H2 2278   3.346   1.132  12.636 -0.1518 -2.9076  2.2044
  146TMC2    C7 2279   3.453   1.006  12.841 -0.2840 -0.2785 -0.6633
  146TMC2    C8 2280   3.341   1.389  12.568  0.6680 -0.3620  0.7805
  146TMC2    O1 2281   3.446   0.948  12.733 -0.4404  0.1171 -0.3971
  146TMC2    O2 2282   3.378   1.333  12.467  0.3875 -0.1589 -0.2333
  146TMC2    O5 2283   3.270   1.504  12.566 -0.1008 -0.2510  0.1941
  146TMC2    H5 2284   3.221   1.522  12.649  1.2412  0.7661  0.7816
  147MPD2     C 2285   3.783   0.663  13.020 -0.2938 -0.4749  0.1672
  147MPD2    C1 2286   3.807   0.780  13.087  0.3213  0.3530  0.6053
  147MPD2    C2 2287   3.720   0.883  13.057 -0.3810 -0.4700  0.1107
  147MPD2    C3 2288   3.626   0.872  12.959 -0.4830 -0.1829  0.4704
  147MPD2    C4 2289   3.619   0.763  12.878 -0.0084 -0.4257 -0.6574
  147MPD2    C5 2290   3.687   0.651  12.924  0.0943 -0.4126 -0.4509
  147MPD2     H 2291   3.720   0.976  13.113  2.6235 -0.4707  0.1566
  147MPD2    H1 2292   3.561   0.754  12.787 -1.9819  0.6774  0.4905
  147MPD2    H2 2293   3.862   0.590  13.018 -0.6512 -0.9019  1.6703
  147MPD2    H3 2294   3.682   0.551  12.881 -0.8832 -0.1855 -0.8767
  147MPD2     N 2295   3.534   0.980  12.946 -0.4068  0.0563 -0.0492
  147MPD2    H5 2296   3.540   1.047  13.021 -1.6058 -0.3361  0.4122
  147MPD2    N1 2297   3.909   0.793  13.176 -0.2014 -0.1610 -0.1137
  147MPD2    H7 2298   3.967   0.713  13.199  0.1847  0.4234  0.9436
  148TMC2    C1 2299   3.847   0.041  10.321 -0.3334  0.7806 -0.7176
  148TMC2    C2 2300   3.938   0.141  10.289  0.2275  0.0824  0.4658
  148TMC2    C3 2301   4.064   0.100  10.277 -0.5391  0.1670  0.0601
  148TMC2    C4 2302   3.875   4.649  10.335  0.4904 -0.5043 -0.3352
  148TMC2    C5 2303   4.006   4.616  10.332 -0.0398  0.5951 -0.2743
  148TMC2    C6 2304   4.106   4.710  10.305  0.6971 -0.5359 -0.3199
  148TMC2     C 2305   3.709   0.084  10.313  0.5673  0.0204  0.1285
  148TMC2     O 2306   3.679   0.204  10.326  0.0513 -0.0968 -0.2661
  148TMC2     H 2307   3.911   0.245  10.299 -1.9113 -0.2158 -2.2847
  148TMC2    H1 2308   3.814   4.565  10.364  0.5599 -0.1379  0.8834
  148TMC2    H2 2309   4.212   4.689  10.296  0.6041 -0.5500 -1.4432
  148TMC2    C7 2310   4.058   4.477  10.340  0.0620  0.0456  0.3040
  148TMC2    C8 2311   4.164   0.207  10.268 -0.1851  0.2826  0.4794
  148TMC2    O1 2312   3.969   4.403  10.298 -0.1046 -0.5751  0.0568
  148TMC2    O2 2313   4.284   0.179  10.268  0.7151  0.2333 -1.1793
  148TMC2    O5 2314   4.115   0.292  10.181  0.0050 -0.0885 -0.5156
  148TMC2    H5 2315   4.018   0.293  10.170 -0.1334  4.7120  1.1854
  149MPD2     C 2316   3.410   0.076  10.291 -0.4342  0.2894 -0.9937
  149MPD2    C1 2317   3.490   4.706  10.289 -0.2776 -0.2154 -0.6450
  149MPD2    C2 2318   3.427   4.582  10.279 -0.0964 -0.3256  0.0344
  149MPD2    C3 2319   3.292   4.567  10.302 -0.8532  0.1466  0.6831
  149MPD2    C4 2320   3.209   4.685  10.308  0.2869 -0.7806  0.3956
  149MPD2    C5 2321   3.276   0.066  10.301 -0.3298 -0.5553 -0.4666
  149MPD2     H 2322   3.496   4.498  10.283  0.5798  0.4139  3.6044
  149MPD2    H1 2323   3.101   4.682  10.314  0.2509  1.8965  0.8973
  149MPD2    H2 2324   3.453   0.175  10.293  0.0588  0.0839 -1.6328
  149MPD2    H3 2325   3.217   0.157  10.295  0.0621 -0.1876  1.1102
  149MPD2     N 2326   3.224   4.440  10.297 -0.9722  0.5710 -0.4023
  149MPD2    H5 2327   3.123   4.439  10.297 -0.9758  1.0411 -0.7251
  149MPD2    N1 2328   3.632   4.712  10.301 -0.4723 -0.5320  0.5024
  149MPD2    H7 2329   3.682   4.624  10.299 -0.9289 -0.7544 -1.4825
  150TMC2    C1 2330   1.481   4.261  12.304  0.7218  0.0310 -0.0486
  150TMC2    C2 2331   1.493   4.363  12.212  0.4395 -0.2386  0.8857
  150TMC2    C3 2332   1.588   4.459  12.232 -0.0914 -0.0235  0.6508
  150TMC2    C4 2333   1.558   4.257  12.419 -0.1431 -0.2867  0.0530
  150TMC2    C5 2334   1.649   4.361  12.430 -0.0388 -0.0237  1.1493
  150TMC2    C6 2335   1.670   4.463  12.342 -0.4322  0.3951 -0.4800
  150TMC2     C 2336   1.391   4.148  12.294  0.2569 -0.0672 -0.0895
  150TMC2     O 2337   1.415   4.048  12.365 -0.1727  0.6038 -0.0383
  150TMC2     H 2338   1.454   4.361  12.111  0.0658 -3.0194  1.0869
  150TMC2    H1 2339   1.554   4.177  12.492  0.6158  0.3149  0.7636
  150TMC2    H2 2340   1.744   4.541  12.352 -1.8340  1.6554  0.1458
  150TMC2    C7 2341   1.765   4.346  12.510  0.3310  0.0638  0.8848
  150TMC2    C8 2342   1.618   4.551  12.121 -0.2816 -0.9342  0.3302
  150TMC2    O1 2343   1.825   4.445  12.554  0.6648  0.4983 -0.5342
  150TMC2    O2 2344   1.536   4.622  12.062  0.1356  0.2043  0.8394
  150TMC2    O5 2345   1.736   4.515  12.073 -0.1264  0.1652 -0.2775
  150TMC2    H5 2346   1.767   4.439  12.128 -0.4071  0.9907  1.0167
  151MPD2     C 2347   0.942   3.901  12.238 -0.0214  0.3641  0.0645
  151MPD2    C1 2348   0.949   3.996  12.142  0.0005  0.2789  0.2670
  151MPD2    C2 2349   1.062   4.080  12.138  0.1281 -0.1364 -0.4041
  151MPD2    C3 2350   1.162   4.072  12.232  0.3283 -0.2292  0.2041
  151MPD2    C4 2351   1.144   3.978  12.334  0.6006 -0.6466  0.0966
  151MPD2    C5 2352   1.024   3.905  12.343 -0.3047 -0.4396 -0.1852
  151MPD2     H 2353   1.070   4.139  12.047 -0.1184  1.2834  0.4917
  151MPD2    H1 2354   1.214   3.959  12.414  0.9758 -2.2097 -0.6090
  151MPD2    H2 2355   0.857   3.833  12.238  0.9937 -0.9006 -2.6116
  151MPD2    H3 2356   1.026   3.828  12.420  1.5847  0.3886  0.5973
  151MPD2     N 2357   1.281   4.153  12.213 -0.2035  0.4257  0.2725
  151MPD2    H5 2358   1.273   4.226  12.143  1.3405 -1.0605 -1.4588
  151MPD2    N1 2359   0.856   3.987  12.040  0.4891  0.2294 -0.1198
  151MPD2    H7 2360   0.787   3.913  12.042  1.1057 -0.3282  0.5311
  152TMC2    C1 2361   1.226   3.702  12.939 -0.3717 -0.4311  0.1832
  152TMC2    C2 2362   1.198   3.621  13.047 -0.3405  0.7624 -0.5043
  152TMC2    C3 2363   1.305   3.572  13.118 -0.4618 -1.1122  0.9959
  152TMC2    C4 2364   1.353   3.742  12.917 -0.1571  0.7800 -0.4936
  152TMC2    C5 2365   1.455   3.691  12.988  0.7159  0.4648 -0.6057
  152TMC2    C6 2366   1.434   3.607  13.090 -0.4400 -0.0222  0.6379
  152TMC2     C 2367   1.126   3.754  12.852  0.2701  0.0421 -0.2665
  152TMC2     O 2368   1.165   3.781  12.737  0.2993 -0.0024  0.1296
  152TMC2     H 2369   1.101   3.575  13.053  0.4575 -1.2002 -2.5277
  152TMC2    H1 2370   1.363   3.805  12.830  1.3122 -0.6705 -1.3552
  152TMC2    H2 2371   1.516   3.571  13.150 -1.0068  0.5875  1.7662
  152TMC2    C7 2372   1.568   3.776  13.014 -0.1868 -1.1203 -0.1632
  152TMC2    C8 2373   1.286   3.451  13.197 -0.0995  0.8467 -0.3547
  152TMC2    O1 2374   1.663   3.729  13.079 -0.5203 -0.6244  0.2144
  152TMC2    O2 2375   1.372   3.367  13.199 -0.6003 -0.3844 -0.0209
  152TMC2    O5 2376   1.166   3.452  13.255  0.0476  0.3744  0.3812
  152TMC2    H5 2377   1.126   3.541  13.261  0.9182  0.8419 -0.7457
  153MPD2     C 2378   0.833   3.935  12.947 -0.1614 -0.2527 -0.5622
  153MPD2    C1 2379   0.929   3.884  12.861 -0.4394 -0.2168 -0.2327
  153MPD2    C2 2380   0.924   3.929  12.728  0.6151  0.0886  0.3408
  153MPD2    C3 2381   0.844   4.036  12.688 -0.3910 -0.3772  0.2053
  153MPD2    C4 2382   0.752   4.081  12.779  0.9129  0.7819  0.4603
  153MPD2    C5 2383   0.743   4.024  12.904 -0.4707 -0.1276 -0.0035
  153MPD2     H 2384   0.998   3.889  12.660  2.0689  1.1379  1.2818
  153MPD2    H1 2385   0.688   4.166  12.757 -2.6073 -1.5744  1.4743
  153MPD2    H2 2386   0.823   3.902  13.050  1.0141  1.4863  0.1005
  153MPD2    H3 2387   0.667   4.055  12.976 -0.2259 -0.3754  0.3613
  153MPD2     N 2388   0.871   4.104  12.565 -0.0163 -0.4477  0.0668
  153MPD2    H5 2389   0.948   4.073  12.508 -0.7070  0.1261 -1.1691
  153MPD2    N1 2390   1.016   3.789  12.917  0.1865  0.0050  0.4795
  153MPD2    H7 2391   1.001   3.761  13.014  2.0198 -0.0691  0.7463
  154TMC2    C1 2392   2.328   3.255   0.427  0.1519 -0.4415 -0.7687
  154TMC2    C2 2393   2.296   3.184   0.315  0.6028 -0.1762 -0.5380
  154TMC2    C3 2394   2.394   3.121   0.251 -0.4612 -0.0725  0.2836
  154TMC2    C4 2395   2.461   3.264   0.481  0.0311 -0.0939  0.3640
  154TMC2    C5 2396   2.557   3.207   0.404  1.0363 -0.1504  0.1567
  154TMC2    C6 2397   2.524   3.130   0.299 -0.6697  0.4774  0.8784
  154TMC2     C 2398   2.230   3.351   0.471 -0.4932  0.5437 -0.5576
  154TMC2     O 2399   2.256   3.404   0.579 -0.4656 -0.1471 -0.3257
  154TMC2     H 2400   2.190   3.165   0.303  0.7265  0.8130 -3.1678
  154TMC2    H1 2401   2.482   3.324   0.569  1.0856 -0.2435  0.2120
  154TMC2    H2 2402   2.596   3.056   0.267 -0.2485  0.4791  1.8334
  154TMC2    C7 2403   2.700   3.203   0.446  0.3399 -0.2662  0.9762
  154TMC2    C8 2404   2.357   2.997   0.184 -0.0489  0.2243  0.0602
  154TMC2    O1 2405   2.770   3.147   0.365 -0.3518 -0.5209 -0.3142
  154TMC2    O2 2406   2.434   2.903   0.163 -0.7059 -0.5327 -0.5369
  154TMC2    O5 2407   2.269   3.049   0.095  0.1855 -0.4540 -0.0179
  154TMC2    H5 2408   2.238   3.140   0.116 -0.1292 -1.0044  1.9278
  155MPD2     C 2409   2.004   3.556   0.263 -0.8558  0.1548  0.1281
  155MPD2    C1 2410   2.061   3.512   0.381  0.9360  0.3783  0.0248
  155MPD2    C2 2411   2.018   3.566   0.502  0.1490 -0.5470 -0.7919
  155MPD2    C3 2412   1.948   3.683   0.500  0.1707 -0.2686 -0.0787
  155MPD2    C4 2413   1.909   3.738   0.383  0.6214  0.0615  0.3070
  155MPD2    C5 2414   1.934   3.673   0.264 -0.5194  0.2500 -0.6726
  155MPD2     H 2415   2.054   3.544   0.602 -1.9411  0.9624  0.3012
  155MPD2    H1 2416   1.845   3.823   0.360 -0.4728 -0.7309  0.4275
  155MPD2    H2 2417   2.019   3.506   0.168  2.0753 -1.0976  1.2604
  155MPD2    H3 2418   1.911   3.720   0.169 -0.5199 -0.6303 -1.0998
  155MPD2     N 2419   1.899   3.735   0.629  0.2250  0.4864 -0.2017
  155MPD2    H5 2420   1.932   3.695   0.717  1.4923  1.8530 -0.0480
  155MPD2    N1 2421   2.151   3.401   0.370 -0.1568  0.2173 -0.2937
  155MPD2    H7 2422   2.171   3.365   0.277  3.9644  1.9957 -0.1187
  156TMC2    C1 2423   0.433   1.577  11.825  0.2039 -0.5401 -0.2888
  156TMC2    C2 2424   0.306   1.551  11.825  0.1421 -0.9433  0.3102
  156TMC2    C3 2425   0.216   1.631  11.743  0.3282  0.4403  0.1501
  156TMC2    C4 2426   0.477   1.682  11.756 -0.2978 -0.3021 -0.7728
  156TMC2    C5 2427   0.394   1.760  11.681  0.6701  0.0311  0.4206
  156TMC2    C6 2428   0.257   1.734  11.667 -0.2072 -0.3614 -0.3397
  156TMC2     C 2429   0.520   1.528  11.936  0.2888 -0.0977 -0.4932
  156TMC2     O 2430   0.605   1.610  11.974 -0.2094  0.1213  0.4111
  156TMC2     H 2431   0.262   1.469  11.881  0.9342 -1.4775  0.1520
  156TMC2    H1 2432   0.585   1.696  11.754 -0.4061  0.5548 -0.1940
  156TMC2    H2 2433   0.198   1.806  11.610  0.4654 -0.2960 -0.9593
  156TMC2    C7 2434   0.447   1.897  11.660  0.0383 -0.0487 -0.6693
  156TMC2    C8 2435   0.075   1.594  11.756 -0.0338 -0.2407 -0.0928
  156TMC2    O1 2436   0.565   1.913  11.642 -0.1625  0.0844 -0.6231
  156TMC2    O2 2437   0.018   1.537  11.848  0.2575 -0.0724 -0.1957
  156TMC2    O5 2438   0.025   1.601  11.629 -0.7169  0.0341 -0.1160
  156TMC2    H5 2439   0.096   1.626  11.566 -1.0276  1.6316  0.1797
  157MPD2     C 2440   0.474   1.259  12.189 -0.1268  0.4844 -0.3739
  157MPD2    C1 2441   0.539   1.364  12.118 -0.6050 -0.5181 -0.1848
  157MPD2    C2 2442   0.674   1.397  12.163  0.5102 -0.1868 -0.3121
  157MPD2    C3 2443   0.718   1.357  12.291  0.2324  0.2455  0.2272
  157MPD2    C4 2444   0.640   1.263  12.359  0.2804  0.1743  0.2386
  157MPD2    C5 2445   0.531   1.204  12.303 -0.0810  0.0650  0.1134
  157MPD2     H 2446   0.735   1.468  12.109  1.6038 -0.7764  0.1589
  157MPD2    H1 2447   0.678   1.213  12.447 -1.2413  0.9598  1.3264
  157MPD2    H2 2448   0.382   1.216  12.154 -0.5464  0.2778  0.9795
  157MPD2    H3 2449   0.475   1.125  12.352 -1.3301  1.0958  0.3441
  157MPD2     N 2450   0.842   1.417  12.336 -0.7413  0.2257 -0.5390
  157MPD2    H5 2451   0.878   1.497  12.286  0.1547  0.0467 -0.1858
  157MPD2    N1 2452   0.474   1.413  11.999 -0.0851  0.4896 -0.5688
  157MPD2    H7 2453   0.385   1.373  11.972  0.2702  0.6755 -2.0277
  158TMC2    C1 2454   1.531   0.486  13.922  0.0313  0.2039  0.1591
  158TMC2    C2 2455   1.577   0.611  13.888 -0.6624  0.2164  0.2081
  158TMC2    C3 2456   1.507   0.683  13.802  0.2818  0.5373 -0.1377
  158TMC2    C4 2457   1.417   0.429  13.869 -0.3207  0.5766  0.0312
  158TMC2    C5 2458   1.338   0.515  13.789  0.1202  0.1652 -1.0929
  158TMC2    C6 2459   1.387   0.638  13.747  0.4486  0.0906  0.0149
  158TMC2     C 2460   1.622   0.407  14.004  0.1967  0.1304  0.4351
  158TMC2     O 2461   1.721   0.468  14.043  0.5509  0.5800  0.3902
  158TMC2     H 2462   1.683   0.632  13.898 -0.0597 -0.7334 -4.0124
  158TMC2    H1 2463   1.389   0.325  13.882 -0.2343  0.5216 -0.2285
  158TMC2    H2 2464   1.346   0.691  13.662  0.9448  1.1960  0.4599
  158TMC2    C7 2465   1.196   0.478  13.765 -0.1388 -0.7152  0.0354
  158TMC2    C8 2466   1.592   0.778  13.724 -0.3724 -0.1651 -0.5057
  158TMC2    O1 2467   1.127   0.565  13.713  0.6922 -1.1996  0.0211
  158TMC2    O2 2468   1.572   0.810  13.606  0.4858 -0.3442  0.0968
  158TMC2    O5 2469   1.640   0.864  13.812  0.2813 -0.1749  0.1103
  158TMC2    H5 2470   1.635   0.839  13.907  0.1052 -2.2486 -0.4484
  159MPD2     C 2471   1.749   0.004  14.290 -0.2621 -0.0472  0.4651
  159MPD2    C1 2472   1.616   4.726  14.251 -0.4442 -0.2215  0.2110
  159MPD2    C2 2473   1.562   0.086  14.166 -1.0765  0.0398 -0.0890
  159MPD2    C3 2474   1.632   0.196  14.125 -0.2740  0.1235 -0.4740
  159MPD2    C4 2475   1.752   0.222  14.177  0.1199  0.1690  0.0511
  159MPD2    C5 2476   1.805   0.125  14.260 -0.5092  0.0992 -0.3021
  159MPD2     H 2477   1.464   0.064  14.125 -1.0221 -0.4914  0.0654
  159MPD2    H1 2478   1.822   0.302  14.155  1.9880 -1.3780  0.2712
  159MPD2    H2 2479   1.787   4.667  14.359  1.9322  0.3513 -0.3014
  159MPD2    H3 2480   1.899   0.139  14.311  0.1383 -0.1580 -1.4407
  159MPD2     N 2481   1.569   0.288  14.041 -0.3255 -0.3562  0.7291
  159MPD2    H5 2482   1.475   0.259  14.012 -0.1844 -1.9147  1.8346
  159MPD2    N1 2483   1.547   4.618  14.312 -0.7129  0.3939 -0.6733
  159MPD2    H7 2484   1.592   4.564  14.385 -0.4359 -0.4911 -1.4936
  160TMC2    C1 2485   1.149   2.593   1.442  0.2615  0.7246  0.6003
  160TMC2    C2 2486   1.045   2.509   1.405 -0.0986  0.2871  0.4980
  160TMC2    C3 2487   1.072   2.426   1.305 -0.2063 -0.8343  0.2153
  160TMC2    C4 2488   1.270   2.604   1.379 -0.6808  0.9029  0.2033
  160TMC2    C5 2489   1.293   2.512   1.276  0.0701 -0.0960  0.0192
  160TMC2    C6 2490   1.190   2.428   1.232 -0.3026  0.7898  0.1046
  160TMC2     C 2491   1.127   2.681   1.549 -1.1554  1.0174  0.0877
  160TMC2     O 2492   1.223   2.730   1.612  0.2040  0.3860 -0.1924
  160TMC2     H 2493   0.948   2.508   1.452 -0.4701  1.4045 -0.2503
  160TMC2    H1 2494   1.351   2.661   1.425 -0.5284  1.2952 -0.5450
  160TMC2    H2 2495   1.221   2.352   1.161  0.2442  2.1452 -1.1166
  160TMC2    C7 2496   1.385   2.548   1.168  0.1754  0.1575  0.6858
  160TMC2    C8 2497   0.967   2.343   1.256 -0.2216  0.6013  0.3582
  160TMC2    O1 2498   1.394   2.482   1.067 -0.4396 -0.1917 -0.1458
  160TMC2    O2 2499   0.865   2.315   1.321  0.2502  0.3199 -0.2868
  160TMC2    O5 2500   0.966   2.354   1.119  0.2549 -0.7566 -0.3455
  160TMC2    H5 2501   1.034   2.419   1.091 -0.2908  0.4785  1.1906
  161MPD2     C 2502   1.004   2.878   1.744  0.5914 -0.3927  0.8966
  161MPD2    C1 2503   0.954   2.842   1.619 -0.3205 -0.0334  0.4713
  161MPD2    C2 2504   0.844   2.907   1.579  0.4042 -0.7384 -0.5357
  161MPD2    C3 2505   0.770   2.997   1.654  0.3193  0.3901 -0.4195
  161MPD2    C4 2506   0.821   3.038   1.776  0.4323  0.1857 -0.3564
  161MPD2    C5 2507   0.938   2.977   1.818 -0.0432 -0.1482 -0.2734
  161MPD2     H 2508   0.799   2.875   1.485  1.5375 -0.0830 -1.2996
  161MPD2    H1 2509   0.774   3.107   1.845 -0.7544 -1.4466  0.4805
  161MPD2    H2 2510   1.092   2.830   1.784  1.8020 -0.3563 -1.7259
  161MPD2    H3 2511   0.973   2.999   1.918  0.3564 -1.4157 -0.1448
  161MPD2     N 2512   0.648   3.049   1.617 -0.6903 -0.0222 -0.7004
  161MPD2    H5 2513   0.596   3.100   1.688 -2.3194 -1.2051 -1.0205
  161MPD2    N1 2514   1.000   2.731   1.542 -0.5756  0.4116 -0.7353
  161MPD2    H7 2515   0.943   2.700   1.463  1.9310 -0.6104 -2.1248
  162TMC2    C1 2516   3.882   0.291   1.751 -0.6803 -0.2137 -0.4126
  162TMC2    C2 2517   3.786   0.387   1.780  0.8169 -0.3264 -0.3691
  162TMC2    C3 2518   3.674   0.345   1.844 -0.4164  0.7437 -0.8559
  162TMC2    C4 2519   3.861   0.159   1.792  0.7332  0.0926  0.3687
  162TMC2    C5 2520   3.748   0.123   1.864  0.0949 -0.3317  0.3544
  162TMC2    C6 2521   3.654   0.214   1.891 -0.1071 -0.5872 -0.2975
  162TMC2     C 2522   4.002   0.322   1.675  0.1830  0.7599  0.4081
  162TMC2     O 2523   4.083   0.233   1.654 -0.3672 -0.4084 -0.3564
  162TMC2     H 2524   3.788   0.495   1.769 -1.5347 -0.4105 -1.5523
  162TMC2    H1 2525   3.939   0.086   1.772 -0.6169 -1.7073  1.6207
  162TMC2    H2 2526   3.559   0.178   1.928  0.1098  0.5969  1.3809
  162TMC2    C7 2527   3.719   4.720   1.885 -0.9478  0.1867 -0.2370
  162TMC2    C8 2528   3.566   0.443   1.859  0.5081 -0.4758 -0.1685
  162TMC2    O1 2529   3.604   4.675   1.887 -0.0139  0.1494 -0.4488
  162TMC2    O2 2530   3.483   0.407   1.937  0.2455 -0.0000  0.3994
  162TMC2    O5 2531   3.543   0.514   1.746  0.6555  0.0029 -0.2667
  162TMC2    H5 2532   3.615   0.500   1.680 -1.3133  0.8112 -2.5904
  163MPD2     C 2533   4.225   0.614   1.310  0.1381  0.1297 -0.2421
  163MPD2    C1 2534   4.233   0.481   1.329  0.6598  0.4010 -0.6504
  163MPD2    C2 2535   4.169   0.425   1.437  0.4129  0.5333 -0.2268
  163MPD2    C3 2536   4.086   0.505   1.525  0.5355 -0.1448  0.6905
  163MPD2    C4 2537   4.071   0.638   1.499 -0.7661 -0.2885 -0.5965
  163MPD2    C5 2538   4.139   0.689   1.386  0.2811 -0.6374  0.3647
  163MPD2     H 2539   4.159   0.319   1.458  0.3682  0.3575 -1.1284
  163MPD2    H1 2540   4.006   0.697   1.564  0.8616  2.2085 -1.2327
  163MPD2    H2 2541   4.272   0.647   1.219  0.1124  0.3750 -0.1647
  163MPD2    H3 2542   4.117   0.792   1.360  0.1480 -0.7954 -0.1562
  163MPD2     N 2543   4.001   0.450   1.619  0.1171  0.1086  0.1275
  163MPD2    H5 2544   3.934   0.520   1.649  1.8547  1.0302  1.8611
  163MPD2    N1 2545   4.283   0.399   1.227 -0.0783 -0.3904  0.2237
  163MPD2    H7 2546   4.323   0.445   1.146  1.7751 -2.4137 -0.0362
  164TMC2    C1 2547   0.138   4.708  10.299 -0.4537 -0.6832  0.3378
  164TMC2    C2 2548   0.108   4.715  10.169 -0.4041  0.0524 -0.2543
  164TMC2    C3 2549   4.714   4.690  10.126  0.2831  0.0514 -0.5377
  164TMC2    C4 2550   0.046   4.706  10.401 -0.0634  0.0426 -0.8711
  164TMC2    C5 2551   4.655   4.687  10.356  0.2853  0.1294 -0.5530
  164TMC2    C6 2552   4.611   4.684  10.223 -0.2772 -0.3723  0.3498
  164TMC2     C 2553   0.275   4.699  10.349  0.2320 -0.5145 -0.2504
  164TMC2     O 2554   0.300   4.727  10.465  0.5812  0.4230 -0.9509
  164TMC2     H 2555   0.181   4.706  10.089 -1.3905 -1.6830 -0.9565
  164TMC2    H1 2556   0.068   4.694  10.507  0.8163  0.0021 -1.0651
  164TMC2    H2 2557   4.509   4.667  10.190 -0.8281  1.6827  0.9826
  164TMC2    C7 2558   4.551   4.654  10.452 -0.1699  0.4057  0.0425
  164TMC2    C8 2559   4.680   4.707   9.989 -0.4861  0.0088 -1.4675
  164TMC2    O1 2560   4.438   4.646  10.401 -0.5769 -0.8745 -0.0561
  164TMC2    O2 2561   0.009   0.041   9.913 -0.6096 -0.2331  0.0619
  164TMC2    O5 2562   4.644   4.585   9.951 -0.1142  0.1077 -0.2545
  164TMC2    H5 2563   4.618   4.537  10.033  5.0585 -1.3837  0.5052
  165TMC2    C1 2564   0.708   2.141   0.637 -0.6447  0.3648  0.3328
  165TMC2    C2 2565   0.732   2.151   0.499 -0.1811  0.3733 -0.5626
  165TMC2    C3 2566   0.861   2.139   0.459 -0.5794 -0.2970  0.0462
  165TMC2    C4 2567   0.807   2.112   0.723  0.0008  0.5934  0.1474
  165TMC2    C5 2568   0.935   2.101   0.675  0.4161 -0.4838  0.0963
  165TMC2    C6 2569   0.965   2.120   0.544 -0.4562 -0.2904  0.7696
  165TMC2     C 2570   0.575   2.151   0.690  0.5768 -0.0401 -0.5891
  165TMC2     O 2571   0.556   2.076   0.788  0.6281 -0.2076  0.1231
  165TMC2     H 2572   0.650   2.155   0.428  0.0935 -1.0944 -0.9694
  165TMC2    H1 2573   0.791   2.108   0.830  1.5357  0.2443  0.3657
  165TMC2    H2 2574   1.068   2.113   0.512 -0.1435  1.9085  1.2748
  165TMC2    C7 2575   1.044   2.084   0.768  0.2226  0.3347  0.7126
  165TMC2    C8 2576   0.893   2.171   0.322  0.2788 -0.1605  0.1429
  165TMC2    O1 2577   1.157   2.122   0.723 -0.2197  0.5923 -0.0604
  165TMC2    O2 2578   0.997   2.232   0.300 -0.5423 -0.3602 -0.1661
  165TMC2    O5 2579   0.837   2.078   0.249  0.3713  0.1907 -0.2483
  165TMC2    H5 2580   0.814   2.013   0.319  0.4400 -2.1471 -2.3939
  166MPD2     C 2581   0.165   2.424   0.817  0.5249  0.5416  0.4597
  166MPD2    C1 2582   0.223   2.310   0.876  0.2747 -0.5255 -0.9977
  166MPD2    C2 2583   0.325   2.248   0.813 -0.1459 -0.4459 -0.3267
  166MPD2    C3 2584   0.378   2.299   0.698 -0.2744  0.5893  0.3078
  166MPD2    C4 2585   0.321   2.408   0.641  0.1073  0.3373  0.3866
  166MPD2    C5 2586   0.215   2.476   0.703 -0.4015 -0.4670  0.9137
  166MPD2     H 2587   0.380   2.167   0.861 -1.2433 -2.0007 -1.7131
  166MPD2    H1 2588   0.367   2.469   0.564  1.2743 -0.0221  0.8105
  166MPD2    H2 2589   0.079   2.475   0.861  0.1145  0.0294  0.2474
  166MPD2    H3 2590   0.178   2.567   0.658 -0.1084  0.0478  1.7092
  166MPD2     N 2591   0.498   2.252   0.637  0.0315  0.0024 -0.4160
  166MPD2    H5 2592   0.536   2.307   0.561  0.6935 -0.4266 -0.3935
  166MPD2    N1 2593   0.179   2.245   0.998 -0.5317  0.2653 -0.1553
  166MPD2    H7 2594   0.232   2.168   1.037  1.1534  0.8437 -1.3132
  167TMC2    C1 2595   3.765   0.026  13.113 -0.5480  0.1324  0.1915
  167TMC2    C2 2596   3.740   0.054  13.243 -0.6610 -0.2801 -0.3228
  167TMC2    C3 2597   3.702   4.693  13.330  0.3298 -0.0945  0.1367
  167TMC2    C4 2598   3.750   4.640  13.062  0.4458  0.7635 -0.5439
  167TMC2    C5 2599   3.705   4.542  13.145 -0.4563  0.1444  0.4640
  167TMC2    C6 2600   3.679   4.566  13.277 -0.2468  0.0516 -0.2657
  167TMC2     C 2601   3.799   0.139  13.029  0.2600 -0.0012  0.3299
  167TMC2     O 2602   3.812   0.247  13.085 -0.2001 -0.0246  0.0574
  167TMC2     H 2603   3.752   0.155  13.282  2.8937 -1.3530  1.3171
  167TMC2    H1 2604   3.776   4.619  12.959  0.1085 -2.2361 -0.0223
  167TMC2    H2 2605   3.664   4.483  13.345  2.6047 -0.5056 -0.3512
  167TMC2    C7 2606   3.658   4.418  13.094  0.0399 -0.0517  0.1929
  167TMC2    C8 2607   3.719   4.713  13.469  0.0193  0.6312 -0.2060
  167TMC2    O1 2608   3.573   4.358  13.159  0.4429  0.6024 -0.5290
  167TMC2    O2 2609   3.745   4.616  13.543 -0.9979  0.4695  0.4309
  167TMC2    O5 2610   3.650   0.086  13.500 -0.1973 -0.3095  0.2188
  167TMC2    H5 2611   3.612   0.128  13.420  1.0806  1.5503  0.5770
  168MPD2     C 2612   3.912   0.329  12.819 -0.1519 -0.1147 -0.1605
  168MPD2    C1 2613   3.914   0.187  12.813  0.4249  0.2461  0.1376
  168MPD2    C2 2614   3.968   0.126  12.699 -0.5294 -0.7986  0.0235
  168MPD2    C3 2615   4.010   0.206  12.596  0.5974  0.0790  0.1463
  168MPD2    C4 2616   4.004   0.342  12.605 -0.3012 -0.4074  0.6062
  168MPD2    C5 2617   3.959   0.408  12.718  0.3186  0.0968  0.5013
  168MPD2     H 2618   3.977   0.019  12.686 -0.0620 -0.7350 -0.2166
  168MPD2    H1 2619   4.039   0.410  12.528 -0.1371  0.7726  1.7159
  168MPD2    H2 2620   3.884   0.375  12.912 -0.9298 -0.6892 -0.1086
  168MPD2    H3 2621   3.965   0.516  12.724 -1.1060  0.2053 -0.0899
  168MPD2     N 2622   4.055   0.156  12.472 -0.0354 -0.7083  0.1417
  168MPD2    H5 2623   4.093   0.225  12.408  1.2557 -1.8105 -0.2673
  168MPD2    N1 2624   3.854   0.101  12.909  1.0176 -0.1971 -0.0968
  168MPD2    H7 2625   3.879   0.005  12.889 -1.2054 -0.6836 -0.5312
  169MPD1     C 2626   2.002   0.544   9.439 -0.0733  0.2645  0.4625
  169MPD1    C1 2627   1.945   0.423   9.401 -0.2106 -0.0110  0.2138
  169MPD1    C2 2628   1.916   0.328   9.496  0.5822  0.7568 -0.1584
  169MPD1    C3 2629   1.934   0.360   9.628  0.6999 -0.3507 -0.1445
  169MPD1    C4 2630   1.978   0.487   9.665 -0.4382  0.4264 -0.1518
  169MPD1    C5 2631   2.009   0.578   9.565 -0.4293  0.5018 -0.5800
  169MPD1     H 2632   1.889   0.229   9.461  0.2531  0.4534  0.9551
  169MPD1    H1 2633   1.999   0.523   9.765  0.8442 -1.5531  0.3007
  169MPD1    H2 2634   2.023   0.624   9.369 -0.3649  0.3616  0.4840
  169MPD1    H3 2635   2.048   0.675   9.590  2.1083 -0.6640  0.0308
  169MPD1     N 2636   1.912   0.258   9.722  0.3173 -0.1844 -0.7531
  169MPD1    H5 2637   1.879   0.165   9.698 -0.0935 -0.1182 -0.4397
  169MPD1    N1 2638   1.937   0.396   9.266  0.4620  0.2579  0.3851
  169MPD1    H6 2639   1.853   0.340   9.248  0.4785  0.6311 -0.8413
  169MPD1    H7 2640   1.938   0.485   9.216 -0.1256  1.3894  2.4030
  170MPD1     C 2641   0.090   1.865  13.138 -0.0297 -0.4853  0.4445
  170MPD1    C1 2642   4.734   1.810  13.225 -0.7041  0.3827 -0.1600
  170MPD1    C2 2643   4.692   1.889  13.329 -0.2411 -0.2845  0.5016
  170MPD1    C3 2644   0.001   2.017  13.336  0.2279 -0.2211  0.1692
  170MPD1    C4 2645   0.110   2.063  13.270  0.6817  0.8630  1.0396
  170MPD1    C5 2646   0.154   1.989  13.160  0.1339  1.3072  0.0012
  170MPD1     H 2647   4.608   1.861  13.392 -0.1069  0.2723  0.9267
  170MPD1    H1 2648   0.158   2.156  13.298 -1.3302  2.1391  0.2960
  170MPD1    H2 2649   0.122   1.800  13.057  1.5341 -0.2315  0.8649
  170MPD1    H3 2650   0.242   2.016  13.103 -0.3529  0.6712 -1.0529
  170MPD1     N 2651   4.690   2.091  13.440  0.3218 -0.2949  0.0095
  170MPD1    H5 2652   4.617   2.042  13.491  2.1439 -0.5649  2.3927
  170MPD1    N1 2653   4.656   1.703  13.183 -0.2511  0.3984  0.2804
  170MPD1    H6 2654   4.648   1.642  13.264 -0.1815 -0.3680 -0.2878
  170MPD1    H7 2655   4.699   1.644  13.112  3.1976  2.2087  0.8341
  171MPD1     C 2656   3.039   3.681  15.652  0.0077  1.0287 -0.3096
  171MPD1    C1 2657   2.986   3.555  15.641  0.2638  0.0608 -0.1379
  171MPD1    C2 2658   3.064   3.447  15.661 -0.4872 -0.4186  0.2543
  171MPD1    C3 2659   3.201   3.458  15.667  0.2413  0.7190  0.2752
  171MPD1    C4 2660   3.258   3.580  15.665  0.0213 -0.2864  0.0056
  171MPD1    C5 2661   3.178   3.690  15.652 -1.0194 -0.0158  0.0322
  171MPD1     H 2662   3.005   3.357  15.671 -0.1745 -0.4410  1.8947
  171MPD1    H1 2663   3.365   3.600  15.666  0.3465 -1.9286 -1.5053
  171MPD1    H2 2664   2.972   3.766  15.653 -1.0497  0.2196 -1.5382
  171MPD1    H3 2665   3.217   3.789  15.670  0.2988 -0.8581  1.8991
  171MPD1     N 2666   3.289   3.352  15.699 -0.2624 -0.2062  0.2748
  171MPD1    H5 2667   3.387   3.370  15.715  0.6368 -2.7128 -2.2552
  171MPD1    N1 2668   2.851   3.540  15.661  0.4867 -0.0529  0.0406
  171MPD1    H6 2669   2.823   3.450  15.623  0.1013 -1.5644  4.0261
  171MPD1    H7 2670   2.798   3.615  15.618 -1.6366 -1.0865  0.8958
  172MPD1     C 2671   2.100   2.895  17.304  0.1458  0.0217 -0.0751
  172MPD1    C1 2672   2.161   2.999  17.238 -0.0117 -0.1109  0.6527
  172MPD1    C2 2673   2.278   3.059  17.287  0.5027  0.0281 -0.8727
  172MPD1    C3 2674   2.330   3.004  17.406 -0.2263  0.1210 -0.0241
  172MPD1    C4 2675   2.266   2.897  17.455 -0.2284 -0.0792 -0.6605
  172MPD1    C5 2676   2.154   2.839  17.414  0.4164  0.3160 -0.0241
  172MPD1     H 2677   2.319   3.148  17.240 -0.9078 -0.1342 -2.4128
  172MPD1    H1 2678   2.313   2.847  17.540 -0.6820  0.3267 -0.1761
  172MPD1    H2 2679   2.006   2.860  17.263  1.1737 -2.1650 -0.5458
  172MPD1    H3 2680   2.120   2.749  17.464 -0.3153  1.6288  1.8190
  172MPD1     N 2681   2.440   3.052  17.469 -0.0611  0.3366  0.0404
  172MPD1    H5 2682   2.487   3.000  17.542  2.5749 -0.0963 -1.9412
  172MPD1    N1 2683   2.089   3.052  17.134 -0.2870 -0.2752 -0.1863
  172MPD1    H6 2684   2.031   2.977  17.097 -0.1798  0.9623 -2.8259
  172MPD1    H7 2685   2.148   3.099  17.067 -1.3093  2.2637  0.6979
  173MPD1     C 2686   4.386   2.800  14.310 -0.2090  0.3993 -0.1601
  173MPD1    C1 2687   4.381   2.797  14.450  0.0546 -0.2148 -0.8163
  173MPD1    C2 2688   4.285   2.723  14.513 -0.4528 -1.4533 -0.7371
  173MPD1    C3 2689   4.205   2.644  14.434  0.3039  0.4879  0.2513
  173MPD1    C4 2690   4.227   2.630  14.301 -0.0988 -1.2230 -1.2350
  173MPD1    C5 2691   4.317   2.710  14.242 -0.6000 -1.1144 -0.0794
  173MPD1     H 2692   4.270   2.721  14.620 -2.7213 -1.4633 -1.0699
  173MPD1    H1 2693   4.171   2.557  14.244 -0.7569 -1.9139  0.2832
  173MPD1    H2 2694   4.471   2.850  14.266 -0.3697  1.1236  0.3460
  173MPD1    H3 2695   4.322   2.685  14.136 -0.2794 -1.6105  0.0516
  173MPD1     N 2696   4.102   2.565  14.491  0.5897 -0.5235 -0.0895
  173MPD1    H5 2697   4.056   2.495  14.434 -0.1151  1.1071 -1.5325
  173MPD1    N1 2698   4.446   2.902  14.526 -0.3079  0.2218 -0.2114
  173MPD1    H6 2699   4.540   2.906  14.486  0.1855  0.1917  0.9424
  173MPD1    H7 2700   4.461   2.862  14.618 -0.0008  0.7952 -0.0133
  174MPD1     C 2701   3.855   1.902  14.077 -0.1370 -0.3711 -0.3554
  174MPD1    C1 2702   3.769   1.881  14.188 -0.3293 -0.6770 -0.1131
  174MPD1    C2 2703   3.779   1.964  14.303 -0.6144 -0.1358 -0.2066
  174MPD1    C3 2704   3.849   2.084  14.286  0.1042 -0.1929 -0.1254
  174MPD1    C4 2705   3.907   2.110  14.166  0.0840  0.3255  0.1440
  174MPD1    C5 2706   3.928   2.015  14.069 -0.3590 -0.7025  0.2097
  174MPD1     H 2707   3.738   1.934  14.398  2.5457 -2.0054  0.5847
  174MPD1    H1 2708   3.960   2.204  14.154 -0.0245  0.5640  1.4744
  174MPD1    H2 2709   3.848   1.832  13.995  1.0840 -2.6092  1.4402
  174MPD1    H3 2710   3.985   2.045  13.982 -0.2993  3.3167  1.6298
  174MPD1     N 2711   3.850   2.174  14.394  0.3048 -0.0148 -0.1330
  174MPD1    H5 2712   3.886   2.264  14.364  1.1288  0.0625  1.0977
  174MPD1    N1 2713   3.691   1.764  14.189 -0.1809 -0.0531 -0.6630
  174MPD1    H6 2714   3.620   1.773  14.261  0.8776  1.5557  0.2047
  174MPD1    H7 2715   3.649   1.756  14.097 -2.2932  0.5627  0.2519
  175MPD1     C 2716   2.475   3.644  15.250  0.4457  0.0398  0.8410
  175MPD1    C1 2717   2.537   3.568  15.343  0.2876 -0.2327  0.4051
  175MPD1    C2 2718   2.465   3.532  15.458 -0.5176  0.0746 -0.0814
  175MPD1    C3 2719   2.331   3.551  15.469 -0.2625 -0.5006  0.4395
  175MPD1    C4 2720   2.266   3.625  15.365  0.3165 -0.4879 -0.0277
  175MPD1    C5 2721   2.341   3.668  15.260 -0.0267 -0.3334  0.1253
  175MPD1     H 2722   2.529   3.478  15.527 -1.6359 -0.1532  0.7750
  175MPD1    H1 2723   2.161   3.650  15.379  0.3455 -1.0932  1.2337
  175MPD1    H2 2724   2.525   3.688  15.164 -0.1345 -0.5900  0.1752
  175MPD1    H3 2725   2.303   3.732  15.180 -0.9677 -1.0615 -0.0111
  175MPD1     N 2726   2.252   3.507  15.574  0.1611 -0.0081  0.4358
  175MPD1    H5 2727   2.161   3.552  15.580  0.2466  0.0701  1.0991
  175MPD1    N1 2728   2.672   3.545  15.338  0.5898 -0.2193 -0.2655
  175MPD1    H6 2729   2.685   3.457  15.387  0.0625  0.8101  1.7361
  175MPD1    H7 2730   2.709   3.516  15.248 -2.2897 -0.5193 -1.3390
  176MPD1     C 2731   4.118   0.091  17.228  0.3924  0.5343  0.2139
  176MPD1    C1 2732   4.033   0.195  17.223 -0.0535  0.0211  0.4059
  176MPD1    C2 2733   4.055   0.304  17.305  0.3614 -0.6322 -0.1516
  176MPD1    C3 2734   4.159   0.308  17.400  0.5449 -0.4727 -1.3881
  176MPD1    C4 2735   4.251   0.198  17.396 -0.0632  0.6684  0.1132
  176MPD1    C5 2736   4.222   0.092  17.317  0.7727  0.5228 -0.1227
  176MPD1     H 2737   3.987   0.388  17.309 -0.7003 -1.5339  0.8649
  176MPD1    H1 2738   4.335   0.196  17.464 -0.3568 -1.4017  0.4238
  176MPD1    H2 2739   4.098   0.007  17.163 -2.3356  1.3188  0.0041
  176MPD1    H3 2740   4.281   0.002  17.332  1.6228  0.8187 -1.6845
  176MPD1     N 2741   4.166   0.415  17.489  0.0866 -0.0676 -0.0359
  176MPD1    H5 2742   4.096   0.487  17.478 -0.8289 -0.6803  1.8918
  176MPD1    N1 2743   3.933   0.204  17.124 -0.2741 -0.0596  0.1733
  176MPD1    H6 2744   3.909   0.113  17.086  1.4418 -1.2662  1.9659
  176MPD1    H7 2745   3.842   0.248  17.139 -1.1339 -1.5632 -0.6773
  177MPD1     C 2746   2.583   0.353  10.427  0.1503  0.4824 -0.1858
  177MPD1    C1 2747   2.594   0.408  10.300 -0.0772  0.3801 -0.7049
  177MPD1    C2 2748   2.476   0.443  10.237  0.1644  0.4467  0.2286
  177MPD1    C3 2749   2.357   0.441  10.300  0.2361 -0.1249  0.3674
  177MPD1    C4 2750   2.349   0.399  10.433 -0.4062  0.1392 -0.3106
  177MPD1    C5 2751   2.467   0.352  10.489  0.4795 -0.2765 -0.1006
  177MPD1     H 2752   2.487   0.460  10.130  0.2324  0.3170  0.2150
  177MPD1    H1 2753   2.258   0.389  10.491  1.4025 -0.1058  2.4889
  177MPD1    H2 2754   2.661   0.290  10.471 -0.0196  1.8753  2.0792
  177MPD1    H3 2755   2.470   0.295  10.581  3.5359  1.8365  1.1049
  177MPD1     N 2756   2.242   0.472  10.230 -0.6795  0.4065  0.1456
  177MPD1    H5 2757   2.256   0.499  10.133  2.8982  0.2824  0.6316
  177MPD1    N1 2758   2.715   0.401  10.237 -0.9042  0.1444  0.3709
  177MPD1    H6 2759   2.798   0.386  10.295 -1.1274 -0.9693  0.4171
  177MPD1    H7 2760   2.727   0.479  10.173 -0.7557 -0.1815  0.0013
  178MPD1     C 2761   0.129   2.176   0.465  0.0921 -0.4888  0.2666
  178MPD1    C1 2762   0.014   2.128   0.415  0.7709 -0.1344 -0.1346
  178MPD1    C2 2763   0.005   2.011   0.339  0.1744 -0.6474 -0.0644
  178MPD1    C3 2764   0.124   1.939   0.318 -0.0087  0.3263  0.5453
  178MPD1    C4 2765   0.246   1.989   0.375 -0.6210 -0.5851  0.0319
  178MPD1    C5 2766   0.244   2.107   0.448 -0.1743 -0.2543 -0.3034
  178MPD1     H 2767   4.649   1.979   0.295  0.0021 -0.8568  0.4648
  178MPD1    H1 2768   0.341   1.947   0.344 -1.4210 -0.1680 -3.0394
  178MPD1    H2 2769   0.137   2.268   0.521 -1.4482  0.8784 -1.7784
  178MPD1    H3 2770   0.339   2.152   0.473  0.0460 -0.8744 -0.0286
  178MPD1     N 2771   0.136   1.825   0.244 -0.6377 -0.1006  0.2294
  178MPD1    H5 2772   0.228   1.782   0.247 -0.7248 -0.4883 -2.3077
  178MPD1    N1 2773   4.638   2.213   0.430 -0.5973  0.1536 -0.6243
  178MPD1    H6 2774   4.544   2.181   0.407 -1.0253  1.9439 -1.3974
  178MPD1    H7 2775   4.629   2.250   0.524 -1.9315 -2.7887  0.3962
  179MPD1     C 2776   4.364   0.073  15.349  0.1149 -0.2917  0.2668
  179MPD1    C1 2777   4.266   4.734  15.290 -0.0966 -0.6790  0.0930
  179MPD1    C2 2778   4.205   4.636  15.368 -0.1979  0.0656 -0.3185
  179MPD1    C3 2779   4.254   4.603  15.493 -0.7183  0.1837  0.0097
  179MPD1    C4 2780   4.347   4.681  15.554 -0.0284  0.5978  0.0577
  179MPD1    C5 2781   4.398   0.047  15.484 -0.1220  0.3196  0.3750
  179MPD1     H 2782   4.128   4.577  15.320  0.7451  0.6417 -2.5435
  179MPD1    H1 2783   4.389   4.659  15.652 -2.0216 -2.7165  0.1673
  179MPD1    H2 2784   4.395   0.163  15.298  1.5775 -1.6661 -1.2560
  179MPD1    H3 2785   4.471   0.113  15.529  1.0796  0.2396 -1.4549
  179MPD1     N 2786   4.223   4.488  15.569 -0.2344  0.0900 -0.0747
  179MPD1    H5 2787   4.272   4.470  15.655 -2.9725  0.1090  1.4961
  179MPD1    N1 2788   4.208   0.039  15.162  0.1095  0.0316  0.4320
  179MPD1    H6 2789   4.129   0.102  15.173 -0.7611 -1.3217  1.9690
  179MPD1    H7 2790   4.260   0.113  15.116 -1.1832  0.6238 -0.0605
  180MPD1     C 2791   0.045   1.570  15.242  0.3134 -0.0797  0.5883
  180MPD1    C1 2792   0.024   1.592  15.102  0.5019 -0.1872  0.4835
  180MPD1    C2 2793   4.677   1.504  15.041  0.4529  0.5539  0.4411
  180MPD1    C3 2794   4.591   1.427  15.127 -0.2459 -0.0616 -0.2574
  180MPD1    C4 2795   4.600   1.423  15.264  0.1296 -0.0051  0.3294
  180MPD1    C5 2796   4.710   1.489  15.314 -1.3444  0.1296 -0.3978
  180MPD1     H 2797   4.656   1.499  14.934  2.4944  1.2500  0.0132
  180MPD1    H1 2798   4.536   1.366  15.329 -0.8859  0.4825 -0.2446
  180MPD1    H2 2799   0.117   1.631  15.297  1.5026  0.0872 -1.1290
  180MPD1    H3 2800   4.719   1.482  15.422 -0.3573  0.8175 -0.4392
  180MPD1     N 2801   4.487   1.367  15.057  0.4140  0.4655  0.4593
  180MPD1    H5 2802   4.489   1.381  14.956  0.1257  1.4688  0.5917
  180MPD1    N1 2803   0.118   1.671  15.025 -0.3296  0.1004 -0.2072
  180MPD1    H6 2804   0.077   1.702  14.937  0.4491  1.5775 -0.0524
  180MPD1    H7 2805   0.157   1.749  15.079 -0.7520 -0.2703  0.6350
  181MPD1     C 2806   1.294   2.979   9.489  0.2054  0.2331  0.1931
  181MPD1    C1 2807   1.354   3.077   9.560 -0.7562  0.0280  0.2123
  181MPD1    C2 2808   1.388   3.042   9.689  0.4064 -0.2300 -0.1958
  181MPD1    C3 2809   1.357   2.918   9.737  0.1457  0.3928  0.0553
  181MPD1    C4 2810   1.311   2.817   9.657 -0.2157 -0.1436  0.7644
  181MPD1    C5 2811   1.285   2.842   9.525 -0.1851  0.3788  0.0546
  181MPD1     H 2812   1.452   3.112   9.740 -0.8365  0.6861  0.1204
  181MPD1    H1 2813   1.300   2.717   9.698 -1.8679 -0.3588 -0.2120
  181MPD1    H2 2814   1.256   3.010   9.392 -2.7104  1.2287  1.6501
  181MPD1    H3 2815   1.248   2.774   9.449 -0.9919  0.3477  0.4723
  181MPD1     N 2816   1.384   2.872   9.872 -0.0275 -0.5904  0.0159
  181MPD1    H5 2817   1.376   2.774   9.896 -2.9933 -0.0084  1.3853
  181MPD1    N1 2818   1.356   3.208   9.511 -0.0072  0.4066 -0.6620
  181MPD1    H6 2819   1.342   3.242   9.416  0.6894  1.8706 -0.2401
  181MPD1    H7 2820   1.424   3.269   9.555  0.0450 -1.0580  1.3218
  182MPD1     C 2821   2.386   1.393   1.934  0.3162 -0.0421 -1.0700
  182MPD1    C1 2822   2.316   1.510   1.937  0.4396 -0.1467 -0.0114
  182MPD1    C2 2823   2.233   1.534   1.825 -0.1038  0.2971  0.5123
  182MPD1    C3 2824   2.228   1.447   1.716 -0.2625 -0.5290 -0.1392
  182MPD1    C4 2825   2.304   1.331   1.716  0.5449  0.8290 -0.1929
  182MPD1    C5 2826   2.388   1.313   1.822  0.1635 -0.0560  0.6920
  182MPD1     H 2827   2.178   1.627   1.822 -1.4886 -0.4921  1.7345
  182MPD1    H1 2828   2.297   1.262   1.633 -0.3854  0.1499  0.4369
  182MPD1    H2 2829   2.458   1.382   2.015 -1.4035 -4.4219 -0.1355
  182MPD1    H3 2830   2.440   1.219   1.835 -1.4310 -0.9607  0.5000
  182MPD1     N 2831   2.155   1.470   1.597 -0.2670  0.5637  0.1548
  182MPD1    H5 2832   2.144   1.385   1.542  4.7785  1.6827 -2.6019
  182MPD1    N1 2833   2.312   1.569   2.065  0.0278  0.2152  0.3439
  182MPD1    H6 2834   2.405   1.570   2.107  0.0867  2.0165  0.1619
  182MPD1    H7 2835   2.278   1.665   2.065  1.6764  0.8027  2.6407
  183MPD1     C 2836   2.753   3.151   9.316  0.2778  0.4101 -0.2300
  183MPD1    C1 2837   2.791   3.255   9.402  0.7175  0.5126  0.4850
  183MPD1    C2 2838   2.919   3.242   9.455 -0.3804 -0.4945  0.7848
  183MPD1    C3 2839   3.001   3.127   9.430 -0.5541  0.6778 -0.3059
  183MPD1    C4 2840   2.961   3.031   9.339 -0.2271 -0.3149 -0.5882
  183MPD1    C5 2841   2.838   3.041   9.285  0.9383  0.2260 -0.1612
  183MPD1     H 2842   2.971   3.326   9.499  0.5423 -0.7424  0.1824
  183MPD1    H1 2843   3.024   2.947   9.313 -0.8612 -0.9646 -0.0309
  183MPD1    H2 2844   2.651   3.145   9.281 -0.3745  0.3885  1.6257
  183MPD1    H3 2845   2.788   2.967   9.224  2.5618  0.2514 -1.5083
  183MPD1     N 2846   3.124   3.122   9.499  0.2239 -0.4951  0.5567
  183MPD1    H5 2847   3.140   3.200   9.561  3.0541 -1.8651  1.5879
  183MPD1    N1 2848   2.722   3.372   9.414  0.4879  0.1747  0.3064
  183MPD1    H6 2849   2.743   3.416   9.503  0.6215  1.5991 -0.4275
  183MPD1    H7 2850   2.622   3.356   9.423  0.2652  1.0716 -0.4851
  184MPD1     C 2851   0.668   0.986   9.343 -0.1903  0.1830 -0.5836
  184MPD1    C1 2852   0.780   1.068   9.352  0.6206 -0.3017  0.2740
  184MPD1    C2 2853   0.866   1.039   9.459 -0.0395  0.2832 -0.4189
  184MPD1    C3 2854   0.844   0.938   9.551 -0.5963  1.0019  0.0069
  184MPD1    C4 2855   0.729   0.863   9.534  0.9706 -0.1291  0.2939
  184MPD1    C5 2856   0.643   0.887   9.430 -0.3396  0.6929 -0.2592
  184MPD1     H 2857   0.958   1.094   9.466  0.2800 -0.3357  0.2910
  184MPD1    H1 2858   0.697   0.787   9.604  1.9272  0.4303  1.3362
  184MPD1    H2 2859   0.591   1.005   9.270  0.9448  1.1783 -1.5188
  184MPD1    H3 2860   0.549   0.835   9.424 -1.3819  2.7914 -2.1779
  184MPD1     N 2861   0.933   0.917   9.659  0.0003  0.1206 -1.3533
  184MPD1    H5 2862   0.914   0.831   9.710 -2.2462  1.6042  0.3454
  184MPD1    N1 2863   0.818   1.150   9.249 -0.2265 -0.0451 -0.5466
  184MPD1    H6 2864   0.878   1.220   9.291 -0.2539  0.1845 -0.8898
  184MPD1    H7 2865   0.745   1.197   9.196 -3.0361 -2.5295  1.0864
  185MPD1     C 2866   1.031   0.498  10.571 -0.1091  0.0293  0.1117
  185MPD1    C1 2867   1.099   0.614  10.584 -0.1504 -0.6415 -0.2547
  185MPD1    C2 2868   1.097   0.702  10.485  0.7866 -0.3475  0.7055
  185MPD1    C3 2869   1.050   0.668  10.354 -0.3181  0.5700 -0.3803
  185MPD1    C4 2870   0.990   0.549  10.341 -0.4432  0.0794 -0.2462
  185MPD1    C5 2871   0.983   0.467  10.446 -0.0655  0.0516 -0.9003
  185MPD1     H 2872   1.142   0.799  10.502 -1.6137  1.3390 -2.4819
  185MPD1    H1 2873   0.947   0.520  10.245  1.8045 -0.1396 -1.1792
  185MPD1    H2 2874   1.007   0.429  10.652 -3.1779  0.9500  0.0064
  185MPD1    H3 2875   0.929   0.374  10.434 -1.5781  0.9286 -0.8059
  185MPD1     N 2876   1.081   0.747  10.241  0.3078 -0.0707  0.4371
  185MPD1    H5 2877   1.146   0.824  10.256  0.0378  0.3080 -0.3307
  185MPD1    N1 2878   1.144   0.647  10.713 -0.3662 -0.4468  0.1099
  185MPD1    H6 2879   1.213   0.576  10.737  0.6683  0.5228 -0.0457
  185MPD1    H7 2880   1.202   0.730  10.719 -2.0019  0.9036 -2.6064
  186MPD1     C 2881   0.137   4.391  16.152 -0.6386 -0.4249  0.1846
  186MPD1    C1 2882   0.036   4.383  16.245  0.0105  0.7349  0.5617
  186MPD1    C2 2883   0.030   4.469  16.353  0.1212  0.9062 -0.6545
  186MPD1    C3 2884   0.110   4.590  16.346 -0.2406  0.2724  0.3537
  186MPD1    C4 2885   0.201   4.601  16.247 -0.3003 -0.7765 -0.5656
  186MPD1    C5 2886   0.215   4.503  16.148  0.2902  0.2478  0.5035
  186MPD1     H 2887   4.693   4.460  16.431 -0.8851 -0.2432 -1.7579
  186MPD1    H1 2888   0.259   4.692  16.237 -1.4606 -0.0210 -0.5083
  186MPD1    H2 2889   0.155   4.318  16.073  0.7767 -0.8807  0.9257
  186MPD1    H3 2890   0.294   4.513  16.075 -0.8183  2.8615 -0.3287
  186MPD1     N 2891   0.107   4.689  16.441  0.1699 -0.7382  0.1162
  186MPD1    H5 2892   0.131   0.041  16.400  0.0615 -0.5757  0.4085
  186MPD1    N1 2893   4.694   4.271  16.246 -0.3277 -0.2624  0.8435
  186MPD1    H6 2894   4.667   4.233  16.155  0.1056  0.8208  0.2589
  186MPD1    H7 2895   4.606   4.300  16.286 -1.0646 -0.5880 -0.5128
  187MPD1     C 2896   4.596   1.435   0.671 -0.1364 -0.2191 -0.4952
  187MPD1    C1 2897   4.470   1.369   0.661  0.3741  0.0030 -0.6554
  187MPD1    C2 2898   4.374   1.413   0.572  0.4506 -0.0208 -0.4745
  187MPD1    C3 2899   4.395   1.531   0.502 -0.5778  0.7040 -0.6778
  187MPD1    C4 2900   4.519   1.587   0.504  0.1034  0.7009  0.3416
  187MPD1    C5 2901   4.613   1.541   0.590 -0.2697 -0.0478  0.1293
  187MPD1     H 2902   4.279   1.360   0.568  1.0457 -1.3046  2.5013
  187MPD1    H1 2903   4.545   1.680   0.455  3.8090  0.5195  1.9491
  187MPD1    H2 2904   4.683   1.393   0.720 -1.4891 -2.0481  0.3380
  187MPD1    H3 2905   4.709   1.591   0.596  1.7732 -3.9859  0.5323
  187MPD1     N 2906   4.302   1.592   0.418  0.0500  0.3060  0.2394
  187MPD1    H5 2907   4.335   1.676   0.371 -0.3929  0.7532  0.7228
  187MPD1    N1 2908   4.447   1.253   0.743  0.2813  0.2417  0.1309
  187MPD1    H6 2909   4.480   1.267   0.839 -2.5580  3.1805  0.6831
  187MPD1    H7 2910   4.347   1.231   0.746  0.1395  0.7960 -0.5976
  188MPD1     C 2911   3.642   1.260  10.265 -0.0910 -0.2166  0.4453
  188MPD1    C1 2912   3.748   1.179  10.262  0.3882 -0.2219 -0.8169
  188MPD1    C2 2913   3.715   1.041  10.242 -0.2000  0.1526 -0.2676
  188MPD1    C3 2914   3.585   0.997  10.209  0.5692 -0.2454  0.1174
  188MPD1    C4 2915   3.480   1.082  10.226  0.1906  0.0116  0.1498
  188MPD1    C5 2916   3.516   1.213  10.242 -0.5720  0.2501 -1.0434
  188MPD1     H 2917   3.796   0.972  10.262 -2.0414 -2.0285 -0.2943
  188MPD1    H1 2918   3.379   1.065  10.189 -0.2820 -0.7922  1.8470
  188MPD1    H2 2919   3.657   1.367  10.273  0.4406 -0.0838 -2.4346
  188MPD1    H3 2920   3.439   1.289  10.237 -0.3656  0.2960 -3.2907
  188MPD1     N 2921   3.558   0.860  10.186  0.6243  0.4630  0.2785
  188MPD1    H5 2922   3.463   0.831  10.204  0.9664 -1.2365 -0.5260
  188MPD1    N1 2923   3.873   1.224  10.299  0.0406  0.2727  0.2141
  188MPD1    H6 2924   3.869   1.322  10.270  3.7434  0.9326  1.9335
  188MPD1    H7 2925   3.952   1.194  10.243 -0.4951 -0.5880 -0.0823
  189MPD1     C 2926   0.728   2.396   0.874  0.0076 -0.3766 -0.0148
  189MPD1    C1 2927   0.788   2.463   0.773  0.5456  0.2251  0.8673
  189MPD1    C2 2928   0.717   2.564   0.709  0.2567  0.0736  0.3132
  189MPD1    C3 2929   0.588   2.599   0.752 -0.1039 -0.1743  0.7429
  189MPD1    C4 2930   0.538   2.535   0.850 -0.0060  0.3081  0.4411
  189MPD1    C5 2931   0.606   2.441   0.918  0.7305 -0.1272  0.1912
  189MPD1     H 2932   0.766   2.605   0.621 -0.1029  0.0680  0.1117
  189MPD1    H1 2933   0.438   2.558   0.886 -0.3513 -1.4549  0.6418
  189MPD1    H2 2934   0.774   2.314   0.927 -0.4755 -1.1373 -0.7881
  189MPD1    H3 2935   0.577   2.418   1.020 -0.7148 -0.6158 -0.3254
  189MPD1     N 2936   0.512   2.699   0.694  0.0913  0.1218  0.3468
  189MPD1    H5 2937   0.415   2.708   0.722  0.8673 -0.6088  3.2424
  189MPD1    N1 2938   0.901   2.413   0.712 -0.2638  0.1036 -0.2483
  189MPD1    H6 2939   0.964   2.374   0.782  1.8636  1.4381 -1.3986
  189MPD1    H7 2940   0.952   2.477   0.651  0.0112  0.6055  0.5189
  190MPD1     C 2941   4.066   1.454  16.157  0.5456  0.5386 -0.2164
  190MPD1    C1 2942   4.161   1.504  16.247 -0.1854 -0.3297 -0.1343
  190MPD1    C2 2943   4.281   1.440  16.248 -0.0692  0.2794  0.2934
  190MPD1    C3 2944   4.317   1.331  16.167 -0.2814  0.0567  0.0682
  190MPD1    C4 2945   4.214   1.272  16.086  0.2643  0.0466 -0.9085
  190MPD1    C5 2946   4.091   1.345  16.085 -0.3671  0.0502  0.2559
  190MPD1     H 2947   4.361   1.468  16.316  3.1443  0.5535 -3.6144
  190MPD1    H1 2948   4.232   1.180  16.033 -1.7264 -0.3171 -0.9443
  190MPD1    H2 2949   3.967   1.499  16.160  0.3523  0.1585 -0.8016
  190MPD1    H3 2950   4.010   1.297  16.031  0.0193  0.1362 -0.4016
  190MPD1     N 2951   4.445   1.271  16.183 -0.4777 -0.2012 -0.4734
  190MPD1    H5 2952   4.502   1.301  16.261 -2.5374  0.6816  0.6840
  190MPD1    N1 2953   4.138   1.600  16.340 -0.2718 -0.2749 -0.4217
  190MPD1    H6 2954   4.093   1.558  16.421  1.0782 -2.4128 -0.7743
  190MPD1    H7 2955   4.227   1.639  16.372  0.4022 -1.5326 -0.7721
  191MPD1     C 2956   3.515   2.671  13.490 -0.2773 -0.4962 -0.2004
  191MPD1    C1 2957   3.443   2.798  13.496  0.3272  0.2149  0.3219
  191MPD1    C2 2958   3.447   2.879  13.390 -0.4141 -1.4360  0.9647
  191MPD1    C3 2959   3.532   2.854  13.279 -0.4869 -0.2011  0.2576
  191MPD1    C4 2960   3.601   2.733  13.273  0.0942 -0.0081  0.0378
  191MPD1    C5 2961   3.586   2.644  13.378  0.0709 -0.4469 -0.1114
  191MPD1     H 2962   3.386   2.965  13.415 -0.5516 -0.6394 -2.0442
  191MPD1    H1 2963   3.665   2.707  13.190  1.2631  0.0015  0.9202
  191MPD1    H2 2964   3.509   2.603  13.575  0.3545 -0.2781  0.0170
  191MPD1    H3 2965   3.636   2.548  13.366 -0.3360 -0.6321 -0.3329
  191MPD1     N 2966   3.546   2.956  13.180 -0.7085 -0.5133 -0.0120
  191MPD1    H5 2967   3.492   3.040  13.197  0.5331  0.3092 -0.1000
  191MPD1    N1 2968   3.385   2.842  13.620 -0.1987  0.3303 -0.2157
  191MPD1    H6 2969   3.328   2.926  13.612 -0.0785  0.2606 -1.8599
  191MPD1    H7 2970   3.356   2.768  13.683 -0.6611  2.3956  1.9953
  192MPD1     C 2971   3.463   3.843  13.264 -0.3561 -0.0215 -0.2802
  192MPD1    C1 2972   3.414   3.811  13.140  0.8113  0.5396 -0.3826
  192MPD1    C2 2973   3.434   3.689  13.087 -0.6007 -0.6513  0.1726
  192MPD1    C3 2974   3.521   3.590  13.152 -0.4382  0.2690  0.4825
  192MPD1    C4 2975   3.571   3.628  13.278  0.2664 -0.6040  0.6776
  192MPD1    C5 2976   3.547   3.751  13.334 -0.6333  0.5007  0.4220
  192MPD1     H 2977   3.407   3.679  12.983 -0.9818 -0.2565  0.2330
  192MPD1    H1 2978   3.627   3.557  13.337  0.9304  0.0435  0.8408
  192MPD1    H2 2979   3.447   3.940  13.310 -1.1490  0.9412 -2.6149
  192MPD1    H3 2980   3.574   3.773  13.437 -0.0521  0.6486  0.2381
  192MPD1     N 2981   3.552   3.461  13.097  0.1062 -0.0423 -0.5250
  192MPD1    H5 2982   3.606   3.393  13.150  2.3848  2.5046  0.3813
  192MPD1    N1 2983   3.332   3.906  13.069 -0.1225 -0.3216 -0.0131
  192MPD1    H6 2984   3.362   4.002  13.088 -0.7289 -0.1132 -0.1176
  192MPD1    H7 2985   3.342   3.887  12.969  2.7567 -0.2888  0.2519
  193MPD1     C 2986   3.046   2.806  16.321 -0.0980  0.0611 -0.1879
  193MPD1    C1 2987   3.038   2.935  16.275  0.2133  0.5505 -0.1624
  193MPD1    C2 2988   3.115   3.034  16.342  0.6269  0.5723 -0.0717
  193MPD1    C3 2989   3.225   3.002  16.420  0.4993 -0.7976 -0.4671
  193MPD1    C4 2990   3.253   2.863  16.432  0.3539  0.0479  0.1824
  193MPD1    C5 2991   3.156   2.772  16.395 -0.5603 -0.2734 -0.2947
  193MPD1     H 2992   3.097   3.141  16.334  1.2278  0.7790  1.3031
  193MPD1    H1 2993   3.339   2.823  16.485 -1.1682  2.0402  4.1648
  193MPD1    H2 2994   2.974   2.731  16.291 -0.0515  0.0135 -0.1797
  193MPD1    H3 2995   3.166   2.667  16.419 -0.1897 -0.2774 -0.4586
  193MPD1     N 2996   3.315   3.099  16.480 -0.9923  0.1208  0.3470
  193MPD1    H5 2997   3.401   3.062  16.518  0.0266  0.0058 -2.0946
  193MPD1    N1 2998   2.922   2.971  16.204 -0.4582  0.1607  0.5800
  193MPD1    H6 2999   2.934   3.061  16.157 -1.2842 -0.4605 -0.8137
  193MPD1    H7 3000   2.918   2.898  16.133 -0.4037 -1.1352  1.9184
  194MPD1     C 3001   1.474   0.168  17.518  0.4170 -0.4788  0.6256
  194MPD1    C1 3002   1.384   0.213  17.424  0.5132  0.4931  0.6680
  194MPD1    C2 3003   1.291   0.121  17.383 -0.5221  0.3382  0.4397
  194MPD1    C3 3004   1.310   4.724  17.394 -0.1368 -0.3406 -0.0539
  194MPD1    C4 3005   1.409   4.677  17.477  0.7181 -0.3554 -0.1661
  194MPD1    C5 3006   1.495   0.035  17.536  0.0028 -0.8156 -0.3837
  194MPD1     H 3007   1.205   0.151  17.323  1.2540  1.2625 -1.6229
  194MPD1    H1 3008   1.438   4.574  17.491 -1.0757 -0.6619  1.3409
  194MPD1    H2 3009   1.536   0.237  17.574 -0.1270  1.5162 -1.2297
  194MPD1    H3 3010   1.569   0.002  17.608 -0.7145  0.6078  0.9881
  194MPD1     N 3011   1.239   4.620  17.326  0.1647 -0.0287  0.0471
  194MPD1    H5 3012   1.267   4.527  17.354  1.6467  1.2281  2.7409
  194MPD1    N1 3013   1.359   0.352  17.422  0.9322 -0.0492 -0.1490
  194MPD1    H6 3014   1.336   0.392  17.331 -0.3556 -0.7101 -0.1055
  194MPD1    H7 3015   1.441   0.406  17.451  1.8543 -1.5954  0.0960
  195MPD1     C 3016   4.016   1.987   1.292  0.3264  0.0481 -0.7154
  195MPD1    C1 3017   4.089   1.958   1.185 -0.3035  0.1319  0.2144
  195MPD1    C2 3018   4.058   1.838   1.114 -0.0694 -0.1804  0.4717
  195MPD1    C3 3019   3.963   1.743   1.160  0.2142 -0.0724 -0.1736
  195MPD1    C4 3020   3.885   1.781   1.268 -0.5094  0.6031  0.3419
  195MPD1    C5 3021   3.919   1.895   1.329  0.2276 -0.4114  0.4390
  195MPD1     H 3022   4.111   1.827   1.021 -0.7857 -1.2084  0.1827
  195MPD1    H1 3023   3.800   1.726   1.307  0.9814 -1.8059  0.1817
  195MPD1    H2 3024   4.019   2.078   1.352 -1.7858  1.6702 -3.0701
  195MPD1    H3 3025   3.870   1.914   1.424  0.7142 -0.3843  0.6853
  195MPD1     N 3026   3.914   1.640   1.086 -0.6269 -0.0879 -0.0997
  195MPD1    H5 3027   3.843   1.581   1.129  0.0274 -0.4606  0.4886
  195MPD1    N1 3028   4.171   2.057   1.125  0.3466  0.6824  0.7837
  195MPD1    H6 3029   4.210   2.120   1.196 -0.2891 -0.7577  2.4115
  195MPD1    H7 3030   4.252   2.023   1.074 -0.1954 -2.2497  1.8831
  196MPD1     C 3031   2.119   0.451   1.038 -0.1572  0.3723 -0.0284
  196MPD1    C1 3032   2.238   0.479   0.985 -0.8916  0.5953 -0.2092
  196MPD1    C2 3033   2.340   0.513   1.071 -0.1419  0.1700 -0.1020
  196MPD1    C3 3034   2.315   0.541   1.210  0.4432 -0.2773 -0.9540
  196MPD1    C4 3035   2.186   0.530   1.258  0.2027  0.2967 -0.1707
  196MPD1    C5 3036   2.091   0.480   1.167 -0.1348 -0.3752 -0.3752
  196MPD1     H 3037   2.446   0.510   1.049  0.4078  0.7732  2.4609
  196MPD1    H1 3038   2.153   0.560   1.357  1.2878  1.0782 -0.0458
  196MPD1    H2 3039   2.043   0.409   0.973  0.8318 -2.8910  0.8808
  196MPD1    H3 3040   1.989   0.460   1.199  0.0205  2.8435  2.1335
  196MPD1     N 3041   2.414   0.579   1.310  0.0153 -0.6738 -0.0041
  196MPD1    H5 3042   2.381   0.596   1.404 -1.1535  1.8212 -0.8463
  196MPD1    N1 3043   2.266   0.443   0.856  0.0503  0.1079 -0.1497
  196MPD1    H6 3044   2.349   0.481   0.810 -0.3032  2.3761  1.0821
  196MPD1    H7 3045   2.189   0.451   0.790  0.9927  1.4983 -1.0931
  197MPD1     C 3046   1.579   3.465  16.816  0.1847  0.0716  0.1346
  197MPD1    C1 3047   1.611   3.467  16.946 -0.4351  0.5435 -0.2874
  197MPD1    C2 3048   1.743   3.428  16.982  0.1468 -0.0106  0.1864
  197MPD1    C3 3049   1.833   3.382  16.888  0.0520 -0.0090  0.0679
  197MPD1    C4 3050   1.793   3.368  16.758 -0.7802 -0.3027  0.3153
  197MPD1    C5 3051   1.664   3.410  16.723 -0.3668 -0.0789 -0.3919
  197MPD1     H 3052   1.773   3.429  17.086 -1.3538 -1.3591  0.6449
  197MPD1    H1 3053   1.851   3.312  16.686 -0.7650 -0.3214  0.3425
  197MPD1    H2 3054   1.481   3.500  16.787  0.5954  1.2539  0.1804
  197MPD1    H3 3055   1.627   3.397  16.621 -0.4280  1.3190 -0.5527
  197MPD1     N 3056   1.968   3.353  16.919  0.5427  0.3205  0.2251
  197MPD1    H5 3057   2.027   3.330  16.840  2.7133  0.5924  1.7764
  197MPD1    N1 3058   1.531   3.549  17.027 -0.0548 -0.7717  0.2158
  197MPD1    H6 3059   1.542   3.541  17.128  0.1176 -0.8866  0.1873
  197MPD1    H7 3060   1.433   3.556  17.001  0.3939 -0.2852 -1.3474
  198MPD1     C 3061   3.769   1.637  15.705 -0.3976 -0.1207 -0.3809
  198MPD1    C1 3062   3.852   1.647  15.813  0.1239  0.1628  0.9315
  198MPD1    C2 3063   3.915   1.771  15.829 -0.5723  0.7931  0.1789
  198MPD1    C3 3064   3.893   1.875  15.743 -0.2226 -0.2423  0.0018
  198MPD1    C4 3065   3.805   1.860  15.640 -0.5133  0.5125  0.2801
  198MPD1    C5 3066   3.751   1.735  15.610  0.3701  0.4288  0.2728
  198MPD1     H 3067   3.994   1.790  15.901 -0.8546  1.7555  0.2291
  198MPD1    H1 3068   3.786   1.946  15.576 -0.8976  1.4841  1.7179
  198MPD1    H2 3069   3.720   1.545  15.674 -0.9470  0.1663 -0.3552
  198MPD1    H3 3070   3.694   1.712  15.521 -1.5791  3.3327  0.7287
  198MPD1     N 3071   3.959   1.997  15.771  0.3099 -0.9683  0.2878
  198MPD1    H5 3072   4.018   1.983  15.853 -0.3643  1.0641  1.1244
  198MPD1    N1 3073   3.883   1.540  15.900  0.2462  0.5255  0.5149
  198MPD1    H6 3074   3.820   1.463  15.878  0.4951 -0.0070  1.6543
  198MPD1    H7 3075   3.866   1.574  15.995 -3.1153 -1.9816  0.8181
  199MPD1     C 3076   2.109   3.452  10.339  0.3291  0.0984 -0.0321
  199MPD1    C1 3077   2.004   3.393  10.408  0.4958 -0.1672 -0.3774
  199MPD1    C2 3078   1.882   3.454  10.391 -0.5164  0.0842  0.3774
  199MPD1    C3 3079   1.859   3.540  10.279 -0.8337  0.1388  0.1461
  199MPD1    C4 3080   1.965   3.574  10.202  0.4737 -0.2987  0.2162
  199MPD1    C5 3081   2.091   3.544  10.240 -0.9957  0.8103 -0.1848
  199MPD1     H 3082   1.802   3.413  10.451  0.0041  0.3530  1.2453
  199MPD1    H1 3083   1.958   3.662  10.138 -0.3152  0.0783  0.8285
  199MPD1    H2 3084   2.209   3.415  10.359 -0.0174  1.3030  4.0083
  199MPD1    H3 3085   2.175   3.590  10.191 -0.0465  1.9122  2.4625
  199MPD1     N 3086   1.736   3.603  10.250 -0.5716  0.6962  0.2356
  199MPD1    H5 3087   1.742   3.669  10.173 -2.3994  1.4698  0.7538
  199MPD1    N1 3088   2.028   3.307  10.517 -0.4123 -0.3891  0.0166
  199MPD1    H6 3089   2.088   3.233  10.481 -0.6075 -0.0799 -0.9261
  199MPD1    H7 3090   1.937   3.268  10.539  0.0846  0.1559  3.0902
  200MPD1     C 3091   0.973   3.752  15.768  0.3508  0.2802 -0.5019
  200MPD1    C1 3092   1.094   3.730  15.707  0.2199  0.7470 -0.4455
  200MPD1    C2 3093   1.143   3.828  15.626 -1.4990 -0.4427 -0.0112
  200MPD1    C3 3094   1.066   3.944  15.610 -0.4030 -0.1856  0.6564
  200MPD1    C4 3095   0.940   3.961  15.671 -0.4865  0.2627  0.5464
  200MPD1    C5 3096   0.897   3.860  15.749  0.0477  0.1149 -0.4047
  200MPD1     H 3097   1.248   3.816  15.601 -1.4726  0.1500 -0.1909
  200MPD1    H1 3098   0.884   4.051  15.651  0.8492  0.6638 -1.3905
  200MPD1    H2 3099   0.932   3.683  15.842 -0.3276 -1.7592 -2.7781
  200MPD1    H3 3100   0.803   3.858  15.804  0.2135  0.0458 -0.1246
  200MPD1     N 3101   1.127   4.050  15.535 -0.9479 -0.0109 -0.2177
  200MPD1    H5 3102   1.200   4.025  15.470 -1.2553 -0.9491 -0.1980
  200MPD1    N1 3103   1.182   3.622  15.740 -0.0251  0.4852 -0.0860
  200MPD1    H6 3104   1.224   3.591  15.653  0.0841 -2.7612  1.1179
  200MPD1    H7 3105   1.117   3.547  15.764  1.7998 -1.3997 -0.9905
  201MPD1     C 3106   2.604   2.414  13.403 -0.1188 -0.7718  0.0812
  201MPD1    C1 3107   2.686   2.364  13.504  0.3308  0.6401  0.3019
  201MPD1    C2 3108   2.723   2.228  13.495 -0.3247  0.4267 -0.0258
  201MPD1    C3 3109   2.687   2.150  13.384 -0.5881 -0.4307  0.1598
  201MPD1    C4 3110   2.612   2.203  13.282 -0.1896 -0.0303 -0.3079
  201MPD1    C5 3111   2.572   2.338  13.294 -0.2278  0.5239  0.0600
  201MPD1     H 3112   2.789   2.186  13.570  1.3257  1.7751 -0.7407
  201MPD1    H1 3113   2.561   2.137  13.213 -0.5591 -1.2283  1.1225
  201MPD1    H2 3114   2.564   2.514  13.419  1.6097 -0.3020  1.4296
  201MPD1    H3 3115   2.495   2.366  13.222  1.1270  0.1726 -1.5373
  201MPD1     N 3116   2.734   2.013  13.386  1.3226  0.7674  0.0544
  201MPD1    H5 3117   2.806   1.989  13.454  0.6486  2.0035  1.2060
  201MPD1    N1 3118   2.702   2.440  13.626  0.0695  0.1824  0.6943
  201MPD1    H6 3119   2.705   2.541  13.615  1.6161  0.1565  0.9436
  201MPD1    H7 3120   2.785   2.407  13.675  1.3274  2.4596  0.0488
  202MPD1     C 3121   2.681   2.141   9.559  0.1110 -0.2097  0.8393
  202MPD1    C1 3122   2.704   2.007   9.591 -0.3857  0.4311  0.5929
  202MPD1    C2 3123   2.828   1.983   9.655 -0.3256  0.2663  0.4982
  202MPD1    C3 3124   2.892   2.080   9.732  0.3833  0.3211  0.0763
  202MPD1    C4 3125   2.838   2.208   9.735  0.9599 -0.3809  0.1578
  202MPD1    C5 3126   2.739   2.232   9.644 -0.5543  0.4848  0.1919
  202MPD1     H 3127   2.865   1.882   9.662 -0.2854  0.3066  0.8932
  202MPD1    H1 3128   2.881   2.292   9.788 -0.4106 -1.1920  2.5343
  202MPD1    H2 3129   2.608   2.182   9.490 -0.4842 -2.0534  0.3750
  202MPD1    H3 3130   2.705   2.335   9.641 -0.4035  0.4467 -2.5990
  202MPD1     N 3131   3.004   2.062   9.815 -0.3780  0.1038  0.2987
  202MPD1    H5 3132   3.036   2.144   9.865  0.5767  0.3298 -0.7093
  202MPD1    N1 3133   2.656   1.909   9.500 -0.0874  0.4783  0.3103
  202MPD1    H6 3134   2.568   1.941   9.461 -0.7578 -0.5671  0.9503
  202MPD1    H7 3135   2.646   1.818   9.545  0.8461 -0.5070 -1.4951
  203MPD1     C 3136   1.969   2.482  12.654  0.4257  0.0871  0.6625
  203MPD1    C1 3137   1.911   2.385  12.573 -0.0096 -0.0882 -0.5399
  203MPD1    C2 3138   1.934   2.253  12.597  0.1075  0.0477  0.1871
  203MPD1    C3 3139   2.010   2.216  12.709 -0.1465  0.1761  0.5225
  203MPD1    C4 3140   2.064   2.313  12.789 -0.3245  0.2577  0.3200
  203MPD1    C5 3141   2.042   2.448  12.761 -0.2426  0.5596 -0.1537
  203MPD1     H 3142   1.893   2.178  12.530 -2.0497  2.3267 -1.0545
  203MPD1    H1 3143   2.134   2.285  12.867 -0.2846  0.9769  0.5391
  203MPD1    H2 3144   1.959   2.588  12.637  2.6149  0.7698  3.7445
  203MPD1    H3 3145   2.088   2.534  12.809  0.3073 -0.3780  0.9840
  203MPD1     N 3146   2.052   2.076  12.718 -0.0939 -0.1610  0.2123
  203MPD1    H5 3147   2.028   2.022  12.635  0.7064  1.0462 -0.8011
  203MPD1    N1 3148   1.849   2.429  12.458  0.3547 -0.2241  0.2366
  203MPD1    H6 3149   1.791   2.511  12.474 -0.9920 -0.7603 -1.8863
  203MPD1    H7 3150   1.792   2.353  12.423  1.0419 -1.9184  2.7988
  204MPD1     C 3151   0.638   3.768   0.195 -0.4171  0.2740  0.0551
  204MPD1    C1 3152   0.751   3.812   0.131  0.2320 -0.1794 -0.1733
  204MPD1    C2 3153   0.856   3.736   0.100 -0.0092  0.1115 -0.4648
  204MPD1    C3 3154   0.851   3.605   0.139 -0.2071 -0.0145  0.2706
  204MPD1    C4 3155   0.751   3.560   0.220  0.1447  0.3119 -0.4233
  204MPD1    C5 3156   0.643   3.644   0.248  0.0289  0.3624  0.0391
  204MPD1     H 3157   0.938   3.773   0.040 -2.3598  0.9484 -3.1340
  204MPD1    H1 3158   0.741   3.458   0.256 -0.9807 -0.1217 -1.9839
  204MPD1    H2 3159   0.548   3.827   0.209 -0.1188  0.9698 -0.9022
  204MPD1    H3 3160   0.557   3.612   0.305  0.0244  0.3652  0.0339
  204MPD1     N 3161   0.958   3.518   0.098 -0.1418 -0.0530 -0.2395
  204MPD1    H5 3162   1.007   3.549   0.014  1.6843  1.4012  1.3592
  204MPD1    N1 3163   0.755   3.955   0.116 -0.5317  0.0353 -0.7228
  204MPD1    H6 3164   0.812   3.986   0.037 -0.7067  0.7457 -0.5684
  204MPD1    H7 3165   0.663   3.990   0.091 -0.6215  0.8161  0.6823
  205MPD1     C 3166   1.496   1.729  17.182  0.2448 -0.1583 -0.0064
  205MPD1    C1 3167   1.391   1.821  17.167  0.7066  0.5179  0.2548
  205MPD1    C2 3168   1.381   1.908  17.272 -0.7507 -0.3358 -0.4371
  205MPD1    C3 3169   1.460   1.903  17.387  0.1369  0.4313 -0.6291
  205MPD1    C4 3170   1.555   1.804  17.397 -0.6517  0.5087 -1.0814
  205MPD1    C5 3171   1.570   1.718  17.292 -0.2111  0.0272  0.0300
  205MPD1     H 3172   1.305   1.985  17.270  0.0801  0.4813 -0.2306
  205MPD1    H1 3173   1.625   1.795  17.479 -1.9724  1.7586  0.1905
  205MPD1    H2 3174   1.508   1.654  17.106 -1.6095  0.6015 -1.0579
  205MPD1    H3 3175   1.649   1.643  17.296 -0.6932 -0.5010 -0.5076
  205MPD1     N 3176   1.438   1.980  17.501 -0.3086  0.2344 -0.7766
  205MPD1    H5 3177   1.501   1.961  17.578 -0.9882 -0.9633 -0.5158
  205MPD1    N1 3178   1.327   1.834  17.044 -0.0057 -0.1638 -0.3879
  205MPD1    H6 3179   1.231   1.863  17.061  0.5404  0.5716  1.4748
  205MPD1    H7 3180   1.337   1.751  16.986  0.9306 -1.1012  1.0984
  206MPD1     C 3181   1.647   0.424  17.231 -0.1448  0.1924 -0.4611
  206MPD1    C1 3182   1.605   0.550  17.205  0.1159  0.0506  0.0983
  206MPD1    C2 3183   1.554   0.589  17.083  0.3820  0.2879  0.7757
  206MPD1    C3 3184   1.549   0.495  16.980 -0.7088 -0.1264 -0.0821
  206MPD1    C4 3185   1.613   0.373  17.000 -0.3389 -1.0848 -0.4752
  206MPD1    C5 3186   1.647   0.338  17.127 -0.1570  0.4097 -0.1938
  206MPD1     H 3187   1.514   0.688  17.067 -1.0399 -0.2449  1.0006
  206MPD1    H1 3188   1.615   0.307  16.914 -0.7922 -0.6046 -0.8561
  206MPD1    H2 3189   1.687   0.396  17.328 -1.0482  1.4320  0.2694
  206MPD1    H3 3190   1.694   0.244  17.150 -1.1748  0.0222  0.3217
  206MPD1     N 3191   1.498   0.525  16.853  0.0234  0.0034  0.2727
  206MPD1    H5 3192   1.514   0.459  16.777 -1.6258 -1.7981  1.4748
  206MPD1    N1 3193   1.616   0.640  17.307  0.9142 -0.0433  0.0464
  206MPD1    H6 3194   1.603   0.597  17.398  0.3425 -0.5385 -0.2725
  206MPD1    H7 3195   1.555   0.721  17.301  0.3096 -0.5046 -0.0089
  207MPD1     C 3196   3.989   2.414  10.092  0.9503  0.1150  0.3969
  207MPD1    C1 3197   3.983   2.298  10.163 -0.3180 -0.1225 -0.8398
  207MPD1    C2 3198   4.017   2.307  10.298 -0.1567  0.6258  0.1739
  207MPD1    C3 3199   4.079   2.413  10.356 -0.5321 -0.1810 -0.0865
  207MPD1    C4 3200   4.095   2.518  10.276 -0.3443  0.7311 -0.0015
  207MPD1    C5 3201   4.040   2.530  10.150  0.2457  0.3323 -0.2845
  207MPD1     H 3202   4.003   2.216  10.355 -1.1546  0.6890  0.0303
  207MPD1    H1 3203   4.150   2.604  10.314  0.8773 -0.4945  1.0198
  207MPD1    H2 3204   3.959   2.417   9.988  3.2674  3.7461 -0.1512
  207MPD1    H3 3205   4.061   2.622  10.097 -1.6680  1.0388  0.1532
  207MPD1     N 3206   4.105   2.432  10.492 -0.3479 -0.3345 -0.4129
  207MPD1    H5 3207   4.164   2.512  10.514  0.4832 -0.8741 -0.6895
  207MPD1    N1 3208   3.920   2.180  10.118  0.0623  0.5322 -0.1980
  207MPD1    H6 3209   3.954   2.089  10.150  1.0494  0.5715 -1.1448
  207MPD1    H7 3210   3.921   2.164  10.018  0.4251  2.1796 -0.4524
  208MPD1     C 3211   2.391   2.315   0.381  0.6395  0.1921  0.0307
  208MPD1    C1 3212   2.256   2.281   0.376  0.7798  0.7047 -0.4020
  208MPD1    C2 3213   2.227   2.148   0.360 -0.3445  0.1609 -0.2360
  208MPD1    C3 3214   2.321   2.051   0.357  0.9122 -0.6300  0.2255
  208MPD1    C4 3215   2.450   2.091   0.378  0.3147  0.2165  0.2507
  208MPD1    C5 3216   2.480   2.221   0.389 -0.0483 -0.2196  0.3195
  208MPD1     H 3217   2.125   2.113   0.357 -0.1321 -0.4312 -0.5116
  208MPD1    H1 3218   2.528   2.016   0.375  0.8134  0.8011 -1.7470
  208MPD1    H2 3219   2.426   2.417   0.379 -1.1459  0.7835 -0.9577
  208MPD1    H3 3220   2.584   2.249   0.403 -0.3153  1.8469 -1.8318
  208MPD1     N 3221   2.278   1.918   0.355 -0.4994 -0.7927  0.2252
  208MPD1    H5 3222   2.178   1.906   0.341 -0.6073 -1.0353  1.2395
  208MPD1    N1 3223   2.150   2.377   0.359 -0.0655 -0.2670  0.6276
  208MPD1    H6 3224   2.170   2.465   0.406  0.5193  0.3613 -0.8063
  208MPD1    H7 3225   2.067   2.338   0.403  0.3081 -2.5507 -0.6749
  209MPD1     C 3226   3.264   2.047  12.191  0.1668  0.3735 -0.5607
  209MPD1    C1 3227   3.297   1.977  12.080 -0.0353 -0.8508  0.2824
  209MPD1    C2 3228   3.415   1.996  12.017 -0.0197 -0.2547 -0.1927
  209MPD1    C3 3229   3.502   2.094  12.065 -0.6220  0.2081  0.0059
  209MPD1    C4 3230   3.469   2.167  12.178 -0.4453  0.4026  0.3972
  209MPD1    C5 3231   3.351   2.142  12.244  0.1242 -0.1966  0.1336
  209MPD1     H 3232   3.434   1.929  11.934 -0.1522 -0.2105 -0.2583
  209MPD1    H1 3233   3.535   2.248  12.207  0.0728  0.3204 -0.5586
  209MPD1    H2 3234   3.170   2.019  12.238 -0.1788  1.2592 -0.7262
  209MPD1    H3 3235   3.326   2.186  12.341  0.8569  1.3386 -0.3762
  209MPD1     N 3236   3.623   2.123  11.989 -0.7670 -0.3621 -0.6604
  209MPD1    H5 3237   3.630   2.065  11.906 -1.0806 -1.6154  0.1953
  209MPD1    N1 3238   3.202   1.887  12.033  1.2151 -0.0273 -0.2614
  209MPD1    H6 3239   3.233   1.812  11.971  0.3185 -0.5210 -0.1119
  209MPD1    H7 3240   3.132   1.840  12.090  0.4848  0.5389 -0.7002
  210MPD1     C 3241   4.199   2.941  11.937  0.1075  0.0015 -0.6004
  210MPD1    C1 3242   4.201   2.881  11.809 -0.3283  0.0759  0.1510
  210MPD1    C2 3243   4.151   2.748  11.797  0.3863  0.3138  0.2616
  210MPD1    C3 3244   4.143   2.675  11.915 -0.1599 -0.7099 -0.6783
  210MPD1    C4 3245   4.179   2.726  12.037 -0.2929 -0.5113 -0.0727
  210MPD1    C5 3246   4.210   2.860  12.044  0.3064  0.7873 -0.1369
  210MPD1     H 3247   4.120   2.708  11.701 -0.7694  0.9274  0.3863
  210MPD1    H1 3248   4.172   2.666  12.127  1.1984 -0.3288  0.1520
  210MPD1    H2 3249   4.217   3.047  11.953  0.3974 -0.6473  3.3826
  210MPD1    H3 3250   4.219   2.909  12.140 -0.7928  2.6732 -1.0074
  210MPD1     N 3251   4.096   2.539  11.922  0.2276  0.1246  0.0194
  210MPD1    H5 3252   4.087   2.493  12.012  0.2127  0.3116  0.1133
  210MPD1    N1 3253   4.200   2.964  11.696 -0.6652  0.3151  0.2721
  210MPD1    H6 3254   4.281   3.025  11.701 -1.5494  1.7261 -2.6658
  210MPD1    H7 3255   4.215   2.908  11.612 -0.9862 -0.8571  1.0062
  211MPD1     C 3256   1.571   1.959  16.012 -0.1633  0.0813  0.2254
  211MPD1    C1 3257   1.545   2.091  15.988  0.4853  0.0562 -0.1164
  211MPD1    C2 3258   1.504   2.167  16.091  0.4332 -0.2440  1.1306
  211MPD1    C3 3259   1.491   2.122  16.216 -0.1486  0.1269 -0.8118
  211MPD1    C4 3260   1.526   1.993  16.246 -0.6757 -0.9006 -0.9418
  211MPD1    C5 3261   1.574   1.916  16.142  0.2530 -0.3591 -0.0232
  211MPD1     H 3262   1.478   2.272  16.087 -0.3105 -0.4891 -0.6915
  211MPD1    H1 3263   1.523   1.949  16.345  2.6209  2.0083  0.4318
  211MPD1    H2 3264   1.593   1.888  15.933  0.0918  1.9484 -1.3893
  211MPD1    H3 3265   1.588   1.811  16.166  2.4874 -0.5226 -2.0612
  211MPD1     N 3266   1.443   2.213  16.316  0.0941 -0.2296 -0.5712
  211MPD1    H5 3267   1.420   2.308  16.287  0.3218 -0.2944 -0.9686
  211MPD1    N1 3268   1.535   2.126  15.852  0.0939 -0.2627  0.1253
  211MPD1    H6 3269   1.592   2.076  15.783 -3.2755 -1.1576 -1.9842
  211MPD1    H7 3270   1.544   2.227  15.841 -1.0878 -0.0597  1.1616
  212MPD1     C 3271   0.827   0.834  16.916 -0.0099 -0.1390 -0.1299
  212MPD1    C1 3272   0.705   0.874  16.958  0.4463  0.1097 -0.6150
  212MPD1    C2 3273   0.625   0.777  17.021  0.4855 -0.1499  0.2853
  212MPD1    C3 3274   0.665   0.644  17.031 -0.1342  0.4019 -0.7215
  212MPD1    C4 3275   0.785   0.610  16.973 -0.2102 -0.2697 -0.1747
  212MPD1    C5 3276   0.875   0.709  16.934 -0.5899 -0.0525 -0.5267
  212MPD1     H 3277   0.531   0.802  17.068  0.3364 -1.0510  0.4729
  212MPD1    H1 3278   0.834   0.516  16.993 -1.1502 -0.3582  1.6600
  212MPD1    H2 3279   0.901   0.909  16.889 -0.3348  1.7656  4.2186
  212MPD1    H3 3280   0.975   0.672  16.913 -1.5929 -2.9109 -0.2125
  212MPD1     N 3281   0.601   0.550  17.109  0.1129  0.7320 -0.3615
  212MPD1    H5 3282   0.637   0.456  17.102  1.6934  1.3799 -1.0744
  212MPD1    N1 3283   0.675   1.010  16.972  0.9860  0.0475 -0.0045
  212MPD1    H6 3284   0.574   1.024  16.972  0.9369 -0.2950 -0.3302
  212MPD1    H7 3285   0.715   1.058  16.891 -2.5773  0.0084 -1.7831
  213MPD1     C 3286   3.761   1.291  16.285  0.5052  0.9631  0.1780
  213MPD1    C1 3287   3.781   1.198  16.188 -0.0766 -0.4357 -0.0658
  213MPD1    C2 3288   3.688   1.196  16.087  0.3743  0.5228  0.4328
  213MPD1    C3 3289   3.602   1.307  16.067 -0.4328  0.6693  0.4054
  213MPD1    C4 3290   3.595   1.407  16.157  0.1282 -0.0056  0.4822
  213MPD1    C5 3291   3.677   1.401  16.262  0.0545 -0.0712  0.4215
  213MPD1     H 3292   3.695   1.129  16.002  0.4063 -0.5961  1.3173
  213MPD1    H1 3293   3.518   1.484  16.155  0.9497  0.7735 -0.9951
  213MPD1    H2 3294   3.830   1.302  16.368  2.0322 -2.5210 -0.6458
  213MPD1    H3 3295   3.686   1.479  16.337  1.1752  0.7863 -0.6204
  213MPD1     N 3296   3.520   1.299  15.952  1.0241  0.6301 -0.4927
  213MPD1    H5 3297   3.534   1.215  15.897  0.2313  1.5003 -2.0294
  213MPD1    N1 3298   3.853   1.087  16.231 -0.1544 -0.2460 -0.1108
  213MPD1    H6 3299   3.938   1.110  16.283 -1.8482 -0.7965  2.9013
  213MPD1    H7 3300   3.885   1.037  16.148  2.7866  0.8585  0.3505
  214MPD1     C 3301   2.920   0.771  15.384  0.0591 -0.1554 -0.1666
  214MPD1    C1 3302   2.970   0.756  15.516 -0.5748 -0.0121 -0.2055
  214MPD1    C2 3303   3.049   0.858  15.572 -0.0729 -0.5957 -0.0913
  214MPD1    C3 3304   3.085   0.970  15.494  0.4852 -0.5484  0.8625
  214MPD1    C4 3305   3.046   0.975  15.363  0.3566 -0.4718 -0.3528
  214MPD1    C5 3306   2.959   0.884  15.312 -0.5690 -0.1629  0.7471
  214MPD1     H 3307   3.085   0.840  15.672 -1.3289  1.8218  0.7749
  214MPD1    H1 3308   3.067   1.062  15.301  0.4961 -0.3850 -0.1834
  214MPD1    H2 3309   2.870   0.695  15.326  1.4156 -1.6534  0.6144
  214MPD1    H3 3310   2.923   0.904  15.211 -2.0860  0.1658  1.3479
  214MPD1     N 3311   3.149   1.086  15.544 -0.1715 -0.4490  0.1426
  214MPD1    H5 3312   3.182   1.149  15.471  1.6929 -2.0803 -0.4433
  214MPD1    N1 3313   2.973   0.627  15.568 -0.3369  0.0938 -0.4497
  214MPD1    H6 3314   2.887   0.572  15.560 -0.7423  0.7665 -0.7161
  214MPD1    H7 3315   2.991   0.636  15.668 -2.0028 -0.1251 -0.1202
  215MPD1     C 3316   2.953   2.260  11.428  0.8743 -0.0355  0.2979
  215MPD1    C1 3317   3.018   2.213  11.538  0.6965  0.1985  0.0572
  215MPD1    C2 3318   3.143   2.269  11.570  0.0243 -0.0581 -0.1791
  215MPD1    C3 3319   3.211   2.344  11.483 -0.5297  0.1965  0.6888
  215MPD1    C4 3320   3.148   2.381  11.364  0.5947 -0.8547  0.3535
  215MPD1    C5 3321   3.017   2.339  11.340 -0.7263 -0.7648  0.0034
  215MPD1     H 3322   3.178   2.256  11.672  2.1476  0.6441 -0.8325
  215MPD1    H1 3323   3.199   2.450  11.298  0.8179  0.3229  1.7452
  215MPD1    H2 3324   2.846   2.250  11.418  1.1658 -2.1184 -0.8831
  215MPD1    H3 3325   2.962   2.373  11.253 -1.5026 -1.0742  0.3683
  215MPD1     N 3326   3.346   2.382  11.516 -0.3935 -0.5407 -0.5388
  215MPD1    H5 3327   3.373   2.367  11.613 -0.3315 -3.7850 -1.0450
  215MPD1    N1 3328   2.938   2.148  11.634  0.2063  0.7511 -0.1745
  215MPD1    H6 3329   2.983   2.127  11.723 -1.1846 -0.7841  0.1642
  215MPD1    H7 3330   2.863   2.086  11.603 -0.7073  0.9096  1.7084
  216MPD1     C 3331   0.853   0.693  17.369  0.6741  0.0559  0.0356
  216MPD1    C1 3332   0.819   0.683  17.507  0.1679  0.1168 -0.1065
  216MPD1    C2 3333   0.821   0.559  17.566 -0.4507  0.6792  0.3391
  216MPD1    C3 3334   0.868   0.450  17.493 -0.4902 -0.3916 -0.1043
  216MPD1    C4 3335   0.909   0.466  17.362  0.3644 -1.1283  0.5095
  216MPD1    C5 3336   0.891   0.588  17.302 -0.4725  0.4338  0.4000
  216MPD1     H 3337   0.789   0.544  17.669  0.3221 -2.5347  0.1113
  216MPD1    H1 3338   0.947   0.391  17.293 -1.9904  0.1029 -2.1383
  216MPD1    H2 3339   0.850   0.791  17.322 -1.7056  1.1160  2.3541
  216MPD1    H3 3340   0.919   0.603  17.198  3.2044 -2.2839  0.9935
  216MPD1     N 3341   0.880   0.325  17.555  1.1248 -0.0634 -0.3100
  216MPD1    H5 3342   0.870   0.314  17.655 -1.7338  1.3749 -0.4271
  216MPD1    N1 3343   0.742   0.791  17.560 -0.0658  0.2291  0.1737
  216MPD1    H6 3344   0.775   0.874  17.512  0.3648  0.8846  1.6028
  216MPD1    H7 3345   0.746   0.809  17.660 -0.1590  2.1968 -0.1883
  217MPD1     C 3346   1.686   0.796   9.237  0.0690 -1.2603  0.6461
  217MPD1    C1 3347   1.728   0.768   9.369  0.0163  0.0650  0.5686
  217MPD1    C2 3348   1.827   0.857   9.414 -0.4907  0.3758 -0.2068
  217MPD1    C3 3349   1.872   0.963   9.332 -0.8656  0.6051  0.6998
  217MPD1    C4 3350   1.819   0.978   9.205  0.8405  0.4153  0.0215
  217MPD1    C5 3351   1.734   0.890   9.158  0.4216  0.4709 -0.4941
  217MPD1     H 3352   1.862   0.850   9.516 -1.6860  1.4456  0.2835
  217MPD1    H1 3353   1.853   1.053   9.135  0.8959  1.7159  1.4528
  217MPD1    H2 3354   1.600   0.741   9.198 -0.6367 -0.2858  0.8335
  217MPD1    H3 3355   1.696   0.904   9.057 -2.0326 -0.6573  0.2841
  217MPD1     N 3356   1.974   1.057   9.367 -0.2210 -0.3051  1.1488
  217MPD1    H5 3357   2.002   1.138   9.313 -1.0291 -0.2489  0.8209
  217MPD1    N1 3358   1.658   0.681   9.459  0.2894  0.1222 -0.0047
  217MPD1    H6 3359   1.627   0.601   9.405 -1.8779  0.6231  0.5287
  217MPD1    H7 3360   1.724   0.643   9.527 -0.5777 -0.6824  0.3768
  218MPD1     C 3361   2.953   3.151  13.419 -0.2158 -0.1521  0.4896
  218MPD1    C1 3362   2.955   3.151  13.282 -0.1915  0.1484 -0.6931
  218MPD1    C2 3363   3.032   3.057  13.217 -0.0483 -0.1715 -0.2772
  218MPD1    C3 3364   3.092   2.955  13.284  0.4517 -0.0766 -0.1356
  218MPD1    C4 3365   3.076   2.944  13.423  0.5065 -0.0770  0.6665
  218MPD1    C5 3366   3.014   3.046  13.494 -0.2661 -0.3505 -0.0838
  218MPD1     H 3367   3.045   3.059  13.109  0.1998 -0.7360 -0.2583
  218MPD1    H1 3368   3.129   2.872  13.484  0.2032 -0.3878  0.5623
  218MPD1    H2 3369   2.903   3.233  13.469  0.3902  0.2773  0.3857
  218MPD1    H3 3370   3.019   3.039  13.602  2.0345  1.1307 -0.1048
  218MPD1     N 3371   3.165   2.857  13.210  0.0440  0.1614  0.4076
  218MPD1    H5 3372   3.179   2.864  13.109 -0.7248 -0.6211  0.2446
  218MPD1    N1 3373   2.909   3.259  13.209  0.3033 -0.0234 -0.4144
  218MPD1    H6 3374   2.892   3.220  13.117  1.6942  0.7143 -0.9733
  218MPD1    H7 3375   2.825   3.298  13.253 -0.9301 -1.5722 -1.3796
  219MPD1     C 3376   3.468   2.644  12.312 -0.2374  0.4756 -0.9452
  219MPD1    C1 3377   3.523   2.735  12.403 -0.3300  0.3166  0.1188
  219MPD1    C2 3378   3.493   2.716  12.538  0.2367  0.1396 -0.0819
  219MPD1    C3 3379   3.437   2.602  12.593 -0.3215 -0.2206  0.0864
  219MPD1    C4 3380   3.405   2.501  12.509 -0.0718  0.1761 -0.2444
  219MPD1    C5 3381   3.421   2.532  12.370  0.0041 -0.9790  0.5000
  219MPD1     H 3382   3.524   2.795  12.605  0.5851  0.6796 -0.8691
  219MPD1    H1 3383   3.362   2.411  12.551  2.2003 -0.9638 -0.3270
  219MPD1    H2 3384   3.491   2.649  12.206  0.2981  1.1881 -0.8024
  219MPD1    H3 3385   3.394   2.451  12.304 -0.8900 -0.5175  0.2970
  219MPD1     N 3386   3.434   2.579  12.735  0.2218 -0.3085  0.0153
  219MPD1    H5 3387   3.399   2.486  12.759 -0.3374  0.2227  1.2321
  219MPD1    N1 3388   3.583   2.848  12.349  0.2455  0.6919 -0.4200
  219MPD1    H6 3389   3.661   2.885  12.404  0.9150 -0.6469 -0.4543
  219MPD1    H7 3390   3.620   2.830  12.256  0.2375  2.8516 -0.8480
  220MPD1     C 3391   3.319   3.078   9.917 -0.0821  0.1938  0.3374
  220MPD1    C1 3392   3.436   3.114   9.981 -0.1356 -0.1148 -0.0878
  220MPD1    C2 3393   3.476   3.037  10.084 -0.1772  0.0143  0.5110
  220MPD1    C3 3394   3.412   2.916  10.118 -0.3078  0.3030 -0.1488
  220MPD1    C4 3395   3.294   2.883  10.052 -0.1811 -0.5307 -0.0418
  220MPD1    C5 3396   3.248   2.967   9.953  0.2385 -0.1472  0.5240
  220MPD1     H 3397   3.562   3.075  10.138  0.2477 -0.3836  0.1133
  220MPD1    H1 3398   3.240   2.791  10.074  0.0460 -0.9440 -1.2180
  220MPD1    H2 3399   3.290   3.136   9.830 -1.9739  0.1552  0.9533
  220MPD1    H3 3400   3.161   2.944   9.892  2.2224 -2.4209 -1.4562
  220MPD1     N 3401   3.453   2.827  10.220 -0.5561  0.3593 -0.1863
  220MPD1    H5 3402   3.387   2.755  10.249 -1.1137 -0.4961 -3.6528
  220MPD1    N1 3403   3.477   3.248   9.968 -0.3968 -0.8299 -0.3167
  220MPD1    H6 3404   3.567   3.268  10.011 -1.0855 -0.7262  1.0684
  220MPD1    H7 3405   3.477   3.304   9.883  0.9968  0.3645  0.4840
  221MPD1     C 3406   1.320   0.706  17.438 -0.8416  0.0339  0.7514
  221MPD1    C1 3407   1.375   0.831  17.459 -0.6409  0.6300  0.5591
  221MPD1    C2 3408   1.387   0.917  17.347  0.4366 -0.3142  0.1790
  221MPD1    C3 3409   1.333   0.886  17.225  0.1990 -0.3272 -0.0407
  221MPD1    C4 3410   1.260   0.778  17.212  0.4606 -0.4234  0.7044
  221MPD1    C5 3411   1.269   0.688  17.314 -0.7012  0.0116 -0.4178
  221MPD1     H 3412   1.447   1.006  17.358 -0.7656  0.1934  2.6088
  221MPD1    H1 3413   1.209   0.748  17.122  2.3384 -0.1105 -0.4653
  221MPD1    H2 3414   1.318   0.629  17.514 -1.3553 -3.2574 -2.5339
  221MPD1    H3 3415   1.221   0.592  17.301  0.9504 -0.6214 -1.9251
  221MPD1     N 3416   1.354   0.959  17.111  0.3938  0.1249  0.3169
  221MPD1    H5 3417   1.336   0.915  17.022  0.9197 -0.9329  0.7266
  221MPD1    N1 3418   1.439   0.852  17.578  0.0760  0.6787 -0.5329
  221MPD1    H6 3419   1.390   0.802  17.652 -2.4394  2.3333 -1.1241
  221MPD1    H7 3420   1.441   0.950  17.606  1.3411  0.8770 -1.2907
  222MPD1     C 3421   0.611   4.519   0.127 -0.2564  0.1706 -0.3513
  222MPD1    C1 3422   0.604   4.622   0.035  0.5629  0.2729 -0.4689
  222MPD1    C2 3423   0.646   0.015   0.076 -0.8824 -0.0060 -0.1362
  222MPD1    C3 3424   0.697   0.040   0.202 -0.3926  0.1640  0.5625
  222MPD1    C4 3425   0.700   4.671   0.288 -0.4269  0.1768  0.1342
  222MPD1    C5 3426   0.647   4.551   0.254 -0.3722 -0.1958 -0.0911
  222MPD1     H 3427   0.639   0.093   0.002  3.5591  0.4777 -0.0757
  222MPD1    H1 3428   0.738   4.680   0.389  0.5230  1.0789 -0.2983
  222MPD1    H2 3429   0.568   4.420   0.114  0.7901 -0.5290  1.6356
  222MPD1    H3 3430   0.629   4.480   0.334  0.7607  1.7769  1.9149
  222MPD1     N 3431   0.722   0.164   0.260 -0.2049 -0.1646  0.1905
  222MPD1    H5 3432   0.755   0.161   0.356 -0.6050 -0.8360  0.3075
  222MPD1    N1 3433   0.573   4.589  17.652 -0.3837  0.0841  0.3210
  222MPD1    H6 3434   0.491   4.528  17.654  0.8667 -1.6448 -0.5251
  222MPD1    H7 3435   0.541   4.674  17.608 -1.0153 -0.8919 -1.1011
  223MPD1     C 3436   0.412   0.630   1.075 -1.0814  0.6030 -0.1249
  223MPD1    C1 3437   0.496   0.725   1.026 -0.5789 -0.5150 -0.0287
  223MPD1    C2 3438   0.550   0.717   0.901  0.3219  0.4020  0.0756
  223MPD1    C3 3439   0.536   0.604   0.826 -0.1328  0.6680  0.3030
  223MPD1    C4 3440   0.450   0.506   0.875  0.2567  0.0652 -0.4047
  223MPD1    C5 3441   0.402   0.515   1.003 -0.6048  1.0120  0.4538
  223MPD1     H 3442   0.606   0.803   0.866  3.5401 -1.0837  1.5922
  223MPD1    H1 3443   0.425   0.414   0.824  0.8645  0.0539 -0.6811
  223MPD1    H2 3444   0.352   0.642   1.164  1.1983  0.7124  1.3925
  223MPD1    H3 3445   0.340   0.434   1.040  0.6685 -0.0954  0.1812
  223MPD1     N 3446   0.607   0.589   0.704 -0.4727 -0.0208 -0.2223
  223MPD1    H5 3447   0.661   0.672   0.685 -0.7726  0.5422  1.3931
  223MPD1    N1 3448   0.493   0.849   1.099  0.2508  0.3004 -0.3569
  223MPD1    H6 3449   0.496   0.835   1.199 -1.0811  0.2662 -0.3150
  223MPD1    H7 3450   0.559   0.917   1.061 -1.4731  0.8170 -2.4421
  224MPD1     C 3451   1.746   1.935   9.312  0.2416  0.2144 -0.3926
  224MPD1    C1 3452   1.841   1.856   9.359 -0.5525  0.0322 -0.2020
  224MPD1    C2 3453   1.940   1.918   9.432  0.4529  0.1848  0.1874
  224MPD1    C3 3454   1.935   2.049   9.473 -0.3631  0.3943 -0.0424
  224MPD1    C4 3455   1.827   2.123   9.423  0.0808  0.1151 -0.5832
  224MPD1    C5 3456   1.731   2.063   9.348 -0.4137 -0.0015  0.3475
  224MPD1     H 3457   2.030   1.863   9.458 -0.0408 -0.0399  1.4343
  224MPD1    H1 3458   1.826   2.229   9.443 -3.3076 -0.0096 -0.1546
  224MPD1    H2 3459   1.679   1.901   9.233 -3.1232  1.2905  1.9575
  224MPD1    H3 3460   1.653   2.126   9.308 -0.4233 -2.1178 -2.9760
  224MPD1     N 3461   2.027   2.116   9.551 -0.2098  0.2590 -0.4693
  224MPD1    H5 3462   2.019   2.212   9.581 -0.8121  0.7581 -2.2669
  224MPD1    N1 3463   1.853   1.721   9.313 -0.3290 -0.0321 -0.0013
  224MPD1    H6 3464   1.918   1.664   9.368  1.1733  2.2895  0.6270
  224MPD1    H7 3465   1.769   1.679   9.272 -1.3615  1.3265  0.7265
  225MPD1     C 3466   2.738   2.878  13.799  0.4941  0.5235 -0.3100
  225MPD1    C1 3467   2.808   2.771  13.737  0.3327  0.1114 -0.2674
  225MPD1    C2 3468   2.800   2.761  13.596  0.2080  0.5193 -0.0777
  225MPD1    C3 3469   2.716   2.848  13.526 -0.1823  0.1112  0.3500
  225MPD1    C4 3470   2.646   2.942  13.591 -0.0703  0.0814  0.0731
  225MPD1    C5 3471   2.660   2.956  13.719  0.2854 -0.5172  0.2667
  225MPD1     H 3472   2.861   2.688  13.544 -1.0307 -0.1377 -0.6072
  225MPD1    H1 3473   2.585   3.018  13.544 -1.1632  0.0721  1.4487
  225MPD1    H2 3474   2.743   2.907  13.903  1.9099  0.5754 -0.3912
  225MPD1    H3 3475   2.619   3.046  13.763  0.1559 -0.3332 -0.2359
  225MPD1     N 3476   2.700   2.851  13.386  0.0902  0.6048  0.4822
  225MPD1    H5 3477   2.664   2.936  13.344 -1.0603 -0.0124  0.1995
  225MPD1    N1 3478   2.909   2.692  13.805 -0.4614  0.1141 -0.2412
  225MPD1    H6 3479   2.942   2.609  13.756 -0.5599  0.3866 -0.7793
  225MPD1    H7 3480   2.864   2.663  13.891  0.5491 -1.0070 -0.1054
  226MPD1     C 3481   3.009   4.248   9.188  0.3813  0.2223  0.5325
  226MPD1    C1 3482   3.083   4.353   9.234  1.0497  0.6574 -0.2620
  226MPD1    C2 3483   3.214   4.326   9.262  0.6579  0.1138 -0.1759
  226MPD1    C3 3484   3.262   4.199   9.273 -0.8730 -0.4770  0.0790
  226MPD1    C4 3485   3.173   4.092   9.238 -0.4110 -0.5494 -0.0544
  226MPD1    C5 3486   3.053   4.119   9.195 -0.6432  0.1411  0.0800
  226MPD1     H 3487   3.274   4.416   9.267  2.8314 -1.2680 -1.5172
  226MPD1    H1 3488   3.199   3.987   9.248 -0.2002 -0.5790 -0.9262
  226MPD1    H2 3489   2.904   4.251   9.160  0.2771 -0.4102  0.8531
  226MPD1    H3 3490   2.987   4.033   9.186  0.9464 -1.0344 -0.3808
  226MPD1     N 3491   3.395   4.184   9.321 -1.0645 -0.4310  0.6301
  226MPD1    H5 3492   3.444   4.271   9.340  0.6848 -1.8193  2.3845
  226MPD1    N1 3493   3.043   4.492   9.225 -0.7545 -0.3310  0.3611
  226MPD1    H6 3494   2.943   4.508   9.224 -0.8107 -0.6724  0.8044
  226MPD1    H7 3495   3.094   4.553   9.289  0.0783 -0.2711 -0.3538
  227MPD1     C 3496   3.994   0.076   9.238 -0.3787  0.6102 -0.2071
  227MPD1    C1 3497   3.859   0.059   9.215 -0.1567  0.0317 -0.4002
  227MPD1    C2 3498   3.795   4.670   9.223 -0.5534  0.1406 -0.2966
  227MPD1    C3 3499   3.867   4.560   9.273  0.1811 -0.2950  0.2008
  227MPD1    C4 3500   4.000   4.593   9.319 -0.3964 -0.1030  0.3482
  227MPD1    C5 3501   4.060   4.713   9.299  0.9635 -0.5572  0.8301
  227MPD1     H 3502   3.691   4.662   9.196 -0.3743 -3.5694  0.1869
  227MPD1    H1 3503   4.057   4.517   9.372 -1.3880 -0.2161  1.2503
  227MPD1    H2 3504   4.037   0.174   9.224 -0.3032  0.8126  1.3683
  227MPD1    H3 3505   4.165   4.723   9.323  1.3154 -3.2360  0.3402
  227MPD1     N 3506   3.810   4.430   9.286 -0.0843 -0.3308 -0.7736
  227MPD1    H5 3507   3.722   4.412   9.239 -0.4074 -2.0268  0.5067
  227MPD1    N1 3508   3.800   0.171   9.158  0.4699 -0.1025 -0.8093
  227MPD1    H6 3509   3.833   0.257   9.201  0.0162 -1.0742  1.4879
  227MPD1    H7 3510   3.698   0.170   9.158  0.4502  0.9874  2.2609
  228MPD1     C 3511   4.402   1.648  13.396  0.4519  0.3016  0.0963
  228MPD1    C1 3512   4.342   1.602  13.276 -0.1977 -0.1474  0.1615
  228MPD1    C2 3513   4.304   1.469  13.267 -0.2318 -0.4512 -0.2026
  228MPD1    C3 3514   4.335   1.381  13.372 -0.7145 -0.1420  0.3530
  228MPD1    C4 3515   4.397   1.424  13.490  0.0441 -0.3008 -0.5493
  228MPD1    C5 3516   4.423   1.563  13.499 -0.1020 -0.2321 -0.5049
  228MPD1     H 3517   4.249   1.429  13.182 -1.0130  1.1051 -0.4195
  228MPD1    H1 3518   4.418   1.368  13.581  1.0966  0.2292 -0.4664
  228MPD1    H2 3519   4.438   1.749  13.416  0.9198 -0.0449  0.9996
  228MPD1    H3 3520   4.458   1.603  13.594 -0.1775 -1.1800 -0.0673
  228MPD1     N 3521   4.272   1.251  13.354  0.0790  0.2939 -0.1037
  228MPD1    H5 3522   4.214   1.236  13.272  0.0506  1.9442 -0.3796
  228MPD1    N1 3523   4.290   1.699  13.183  0.0978  0.0022 -0.2489
  228MPD1    H6 3524   4.353   1.776  13.163 -0.0812  0.2646  0.1984
  228MPD1    H7 3525   4.271   1.652  13.094 -0.0242 -2.0299  0.8499
  229MPD1     C 3526   4.047   4.674  14.332  0.0996  0.2053 -0.4755
  229MPD1    C1 3527   4.039   0.020  14.438 -0.8223 -0.2653 -0.2194
  229MPD1    C2 3528   4.138   0.011  14.536 -0.0170  0.0757 -0.1377
  229MPD1    C3 3529   4.236   4.647  14.533 -0.4586 -0.1113 -0.0610
  229MPD1    C4 3530   4.236   4.552  14.429  0.1938 -0.0400  0.3745
  229MPD1    C5 3531   4.134   4.568  14.335  0.1516 -0.0553 -0.1368
  229MPD1     H 3532   4.131   0.082  14.617  1.7748 -0.2631  0.3091
  229MPD1    H1 3533   4.300   4.465  14.438  1.2725  0.7961  0.7912
  229MPD1    H2 3534   3.981   4.683  14.246  0.5821  1.1852 -0.7464
  229MPD1    H3 3535   4.118   4.489  14.263 -0.7402  1.4932 -1.6464
  229MPD1     N 3536   4.333   4.627  14.631  0.5951 -0.3871 -0.4203
  229MPD1    H5 3537   4.394   4.546  14.620  1.7196  0.4119 -0.1196
  229MPD1    N1 3538   3.972   0.140  14.422  0.5388  0.3059 -0.5550
  229MPD1    H6 3539   3.950   0.194  14.506 -0.3813 -0.1237 -0.5186
  229MPD1    H7 3540   3.886   0.116  14.372 -0.0829  1.6472 -0.1405
  230MPD1     C 3541   0.115   0.042  15.591 -0.2987  0.5525  0.7420
  230MPD1    C1 3542   0.147   4.655  15.537  0.1257  0.1309  0.0903
  230MPD1    C2 3543   0.091   4.612  15.417 -0.4792  0.6574 -0.7749
  230MPD1    C3 3544   0.018   4.690  15.336  0.1304  0.9874 -0.0079
  230MPD1    C4 3545   4.728   0.081  15.380 -0.4917 -0.0703  0.0497
  230MPD1    C5 3546   0.033   0.119  15.507  0.0813 -0.4746 -0.0951
  230MPD1     H 3547   0.106   4.511  15.381  5.9032  1.9145 -1.6835
  230MPD1    H1 3548   4.680   0.157  15.320  2.2510  1.8764  0.3499
  230MPD1    H2 3549   0.151   0.074  15.688 -0.1920 -0.4102  1.0164
  230MPD1    H3 3550   4.723   0.208  15.547  2.6290  0.0219  1.7922
  230MPD1     N 3551   4.714   4.640  15.213 -0.1698 -0.0021  0.5915
  230MPD1    H5 3552   4.718   4.540  15.196  1.1730 -0.0176  1.0346
  230MPD1    N1 3553   0.201   4.565  15.632  0.2175  0.1168 -0.0590
  230MPD1    H6 3554   0.270   4.614  15.689 -0.2964 -0.4274  1.0378
  230MPD1    H7 3555   0.247   4.484  15.591 -1.2546 -1.2199  0.9004
  231MPD1     C 3556   3.128   1.607  16.082  0.0001  0.6312 -0.6939
  231MPD1    C1 3557   3.166   1.740  16.075  0.6260  1.3344 -0.1537
  231MPD1    C2 3558   3.148   1.795  15.948  0.2937  0.5466  0.1816
  231MPD1    C3 3559   3.102   1.729  15.838  0.0508  0.0141 -0.0081
  231MPD1    C4 3560   3.073   1.599  15.852  0.8207  0.1247 -0.2920
  231MPD1    C5 3561   3.082   1.538  15.972  0.6998  0.6906  0.6281
  231MPD1     H 3562   3.179   1.897  15.931  0.4446  0.7193  1.4875
  231MPD1    H1 3563   3.034   1.549  15.765 -0.1815 -0.5952  0.5821
  231MPD1    H2 3564   3.138   1.545  16.170 -2.4337  0.7180 -0.3353
  231MPD1    H3 3565   3.066   1.431  15.983 -0.2790  0.6299 -1.4418
  231MPD1     N 3566   3.092   1.803  15.714  0.0155  0.6027 -0.0675
  231MPD1    H5 3567   3.127   1.898  15.713  3.4685 -0.6542 -0.6006
  231MPD1    N1 3568   3.198   1.818  16.190  0.2422  0.3943 -0.1616
  231MPD1    H6 3569   3.261   1.775  16.258 -1.6540 -0.2435  1.2230
  231MPD1    H7 3570   3.245   1.903  16.163  1.8381 -0.8253 -1.2084
  232MPD1     C 3571   0.004   4.514   0.984  0.6624 -0.5487 -0.0829
  232MPD1    C1 3572   4.716   4.586   0.869 -0.0476  0.0611 -0.2417
  232MPD1    C2 3573   4.629   4.526   0.778 -0.0828 -0.3734 -0.2012
  232MPD1    C3 3574   4.605   4.384   0.792  0.6129  0.0092 -0.3962
  232MPD1    C4 3575   4.643   4.316   0.905  0.3672  0.3342 -0.1794
  232MPD1    C5 3576   4.714   4.382   0.997  0.0423 -0.2593  0.4009
  232MPD1     H 3577   4.590   4.582   0.694 -1.4061 -1.2619 -0.1791
  232MPD1    H1 3578   4.622   4.211   0.923  0.2236  1.1678  4.5163
  232MPD1    H2 3579   0.067   4.562   1.058  0.0484  1.0543 -0.5817
  232MPD1    H3 3580   0.008   4.330   1.087  0.5203 -0.9293 -0.1578
  232MPD1     N 3581   4.547   4.320   0.679 -0.1353 -0.0331 -0.2669
  232MPD1    H5 3582   4.511   4.384   0.610  0.9883  1.2344  0.3097
  232MPD1    N1 3583   4.732   4.722   0.867 -0.3187 -0.2090  0.0962
  232MPD1    H6 3584   0.000   0.012   0.770 -0.1622 -0.0362  0.1541
  232MPD1    H7 3585   0.078   0.007   0.921  0.4324  1.8341 -1.9668
  233MPD1     C 3586   0.286   1.658   0.810  0.3283  0.3616 -1.0646
  233MPD1    C1 3587   0.369   1.770   0.804  0.3444  0.4396 -0.7245
  233MPD1    C2 3588   0.495   1.749   0.864 -0.2210 -0.7810 -0.8867
  233MPD1    C3 3589   0.526   1.633   0.937 -0.1503  0.0467 -0.7187
  233MPD1    C4 3590   0.432   1.533   0.942  0.3238 -0.3552  0.4796
  233MPD1    C5 3591   0.314   1.543   0.877  0.1851 -0.3621  0.5628
  233MPD1     H 3592   0.567   1.830   0.862 -0.8399 -0.1657  2.0255
  233MPD1    H1 3593   0.451   1.441   0.997  1.3194 -0.2668  0.2827
  233MPD1    H2 3594   0.196   1.663   0.749 -0.8194 -0.0881  0.5984
  233MPD1    H3 3595   0.244   1.461   0.880 -1.6031  1.0676 -1.9564
  233MPD1     N 3596   0.647   1.626   1.011  0.0784 -1.6024 -0.2672
  233MPD1    H5 3597   0.653   1.541   1.066 -1.1118 -1.9238 -0.6441
  233MPD1    N1 3598   0.345   1.878   0.717  0.3973  0.0787  0.0545
  233MPD1    H6 3599   0.402   1.959   0.741 -0.3957 -0.0358  2.3167
  233MPD1    H7 3600   0.246   1.897   0.718  0.6257  1.3572 -1.9813
  234MPD1     C 3601   2.761   1.493  11.118  0.1348  0.6587  0.0255
  234MPD1    C1 3602   2.754   1.617  11.050  0.3069 -0.1216 -0.2178
  234MPD1    C2 3603   2.771   1.620  10.917 -0.3684 -0.3616  0.9847
  234MPD1    C3 3604   2.812   1.510  10.843 -0.1928  0.0424 -0.0801
  234MPD1    C4 3605   2.814   1.391  10.906 -0.2780  0.1691 -0.7032
  234MPD1    C5 3606   2.803   1.387  11.040 -0.3321 -0.5609  0.8332
  234MPD1     H 3607   2.751   1.709  10.858  2.2302  0.5112  1.4155
  234MPD1    H1 3608   2.832   1.297  10.855 -0.4499 -1.4475  2.2572
  234MPD1    H2 3609   2.741   1.492  11.224  1.3541  0.1779  0.2566
  234MPD1    H3 3610   2.814   1.291  11.089 -1.1183 -1.7545 -1.2862
  234MPD1     N 3611   2.842   1.528  10.704  0.2130  0.5923  0.1938
  234MPD1    H5 3612   2.829   1.618  10.660 -1.6148  0.6143  0.7456
  234MPD1    N1 3613   2.701   1.736  11.109  0.0142 -0.1035 -0.2753
  234MPD1    H6 3614   2.733   1.750  11.204  3.0474  0.8130 -1.4202
  234MPD1    H7 3615   2.742   1.814  11.058 -0.6072  0.3981 -0.0067
  235MPD1     C 3616   3.257   0.480   9.330  0.2948  0.0837 -0.3261
  235MPD1    C1 3617   3.360   0.575   9.338 -0.1885  0.1635 -0.9473
  235MPD1    C2 3618   3.480   0.531   9.386  0.8975  0.0832 -0.6802
  235MPD1    C3 3619   3.499   0.406   9.437  0.4126 -0.5468  0.3381
  235MPD1    C4 3620   3.401   0.316   9.419 -0.0979 -0.1579  1.1618
  235MPD1    C5 3621   3.285   0.348   9.365  0.4287 -0.0705  0.2465
  235MPD1     H 3622   3.555   0.608   9.405 -0.3494  1.3775 -0.9581
  235MPD1    H1 3623   3.408   0.216   9.460  2.0189 -0.6953 -0.4932
  235MPD1    H2 3624   3.159   0.508   9.292 -0.8982 -1.1030  1.9284
  235MPD1    H3 3625   3.206   0.274   9.354 -1.0484  0.9598  3.9209
  235MPD1     N 3626   3.620   0.371   9.500  0.1413 -0.6808  0.1503
  235MPD1    H5 3627   3.691   0.444   9.493  0.2361 -0.6739  1.3189
  235MPD1    N1 3628   3.344   0.712   9.337  0.4401 -0.4409 -0.9111
  235MPD1    H6 3629   3.285   0.733   9.257 -0.4363 -0.9163 -0.3837
  235MPD1    H7 3630   3.437   0.741   9.307  1.3274 -1.7110  0.6163
  236MPD1     C 3631   2.354   3.965  10.364 -0.5392 -0.2448  0.3055
  236MPD1    C1 3632   2.400   4.094  10.349 -0.4239 -0.5781  0.1349
  236MPD1    C2 3633   2.538   4.115  10.372 -0.1582  0.0688  0.2835
  236MPD1    C3 3634   2.627   4.010  10.407 -0.7064  0.7809  0.1804
  236MPD1    C4 3635   2.573   3.887  10.438 -0.5128  0.2568  0.4428
  236MPD1    C5 3636   2.441   3.870  10.417  0.1197  0.4885 -0.2934
  236MPD1     H 3637   2.585   4.210  10.348 -0.9042  0.3276 -0.1476
  236MPD1    H1 3638   2.632   3.808  10.483 -0.4780 -0.1323 -0.2877
  236MPD1    H2 3639   2.253   3.935  10.339  0.2353 -0.8590 -2.1218
  236MPD1    H3 3640   2.405   3.770  10.436  0.7539 -0.2868 -3.2223
  236MPD1     N 3641   2.770   4.036  10.423  0.0260  0.1593  0.0086
  236MPD1    H5 3642   2.830   3.964  10.462 -0.7162 -0.5100 -0.1026
  236MPD1    N1 3643   2.320   4.191  10.287 -0.1567  0.6623 -0.0329
  236MPD1    H6 3644   2.364   4.283  10.288 -0.8002  0.9575  1.1990
  236MPD1    H7 3645   2.230   4.189  10.334  0.4623 -0.2019  1.0987
  237MPD1     C 3646   3.348   3.064  15.223 -0.3292 -0.1036 -0.8613
  237MPD1    C1 3647   3.344   3.017  15.347  0.0413 -0.2927 -0.1511
  237MPD1    C2 3648   3.251   2.925  15.384  0.6538 -0.1873  0.1013
  237MPD1    C3 3649   3.150   2.895  15.299 -0.3091  0.8232  0.1582
  237MPD1    C4 3650   3.150   2.952  15.174  0.3088 -0.7303 -0.6742
  237MPD1    C5 3651   3.239   3.047  15.141 -0.4145 -0.5405  0.0997
  237MPD1     H 3652   3.261   2.882  15.483 -0.4108 -0.1991  0.2020
  237MPD1    H1 3653   3.067   2.926  15.108 -1.3513  0.0569  1.1111
  237MPD1    H2 3654   3.432   3.126  15.195 -0.8787 -0.2386 -2.7858
  237MPD1    H3 3655   3.222   3.095  15.046 -0.9112  0.7791  0.8590
  237MPD1     N 3656   3.032   2.824  15.338 -0.1776 -0.3453 -0.2210
  237MPD1    H5 3657   2.966   2.802  15.265 -1.2822 -2.2413  1.3401
  237MPD1    N1 3658   3.447   3.039  15.436 -0.2536  0.2933 -0.1416
  237MPD1    H6 3659   3.512   3.114  15.414  1.0702 -0.1948  2.1171
  237MPD1    H7 3660   3.422   3.046  15.535 -2.7750 -0.2504 -0.7302
  238MPD1     C 3661   4.589   1.743  16.107 -0.4931 -0.5057  0.0694
  238MPD1    C1 3662   4.674   1.726  16.006 -0.0716 -0.3712  0.3634
  238MPD1    C2 3663   4.618   1.675  15.892 -0.6897  0.4157 -0.5389
  238MPD1    C3 3664   4.489   1.621  15.882  0.6234  0.3252 -0.4207
  238MPD1    C4 3665   4.412   1.627  15.992 -0.4129  0.1248  0.6808
  238MPD1    C5 3666   4.457   1.698  16.106 -0.2427 -0.2500 -0.0172
  238MPD1     H 3667   4.678   1.660  15.802  0.9689 -0.2243  0.6755
  238MPD1    H1 3668   4.309   1.594  15.987 -0.6612  1.1427 -1.1984
  238MPD1    H2 3669   4.625   1.789  16.199 -1.6638 -1.1166  0.8309
  238MPD1    H3 3670   4.396   1.717  16.193  2.9473  2.6969  1.5683
  238MPD1     N 3671   4.427   1.574  15.767 -0.4500  0.0951  0.0655
  238MPD1    H5 3672   4.331   1.548  15.785  0.5774 -2.9899  1.1546
  238MPD1    N1 3673   0.060   1.782  15.999  0.5594 -0.0235 -0.3992
  238MPD1    H6 3674   0.109   1.777  16.088  1.4052  3.6853 -0.6262
  238MPD1    H7 3675   0.113   1.729  15.930  0.1181 -1.0956  0.0911
  239MPD1     C 3676   0.066   1.947  15.274 -0.1968 -0.1354  0.7569
  239MPD1    C1 3677   0.172   1.963  15.183 -0.3533 -0.1861  0.2812
  239MPD1    C2 3678   0.145   2.056  15.083  0.4421  0.5738  0.8316
  239MPD1    C3 3679   0.023   2.123  15.073  0.0058 -0.2819 -0.2215
  239MPD1    C4 3680   4.671   2.115  15.179  0.8800  0.7230  0.2193
  239MPD1    C5 3681   4.688   2.020  15.278 -0.1292  0.0852  0.3889
  239MPD1     H 3682   0.228   2.078  15.017 -1.0474  2.6849 -0.3560
  239MPD1    H1 3683   4.580   2.173  15.175 -0.2205 -0.9370  1.1372
  239MPD1    H2 3684   0.074   1.867  15.346  0.6088  0.1839  1.0289
  239MPD1    H3 3685   4.612   2.006  15.354 -0.8329  0.8578 -0.1676
  239MPD1     N 3686   4.723   2.219  14.972 -0.1842 -0.1476  0.0127
  239MPD1    H5 3687   4.642   2.279  14.983 -0.9580 -1.0802 -0.6688
  239MPD1    N1 3688   0.283   1.879  15.178  0.0276 -0.4193 -0.2933
  239MPD1    H6 3689   0.304   1.839  15.269  0.7532  1.4905  0.3540
  239MPD1    H7 3690   0.364   1.916  15.130 -0.8652  1.0971 -0.6086
  240MPD1     C 3691   4.360   2.323  14.306  0.8851 -0.0805  0.3407
  240MPD1    C1 3692   4.291   2.200  14.310 -0.5194 -0.1912  0.2273
  240MPD1    C2 3693   4.258   2.148  14.433  0.0421  0.3057  0.1367
  240MPD1    C3 3694   4.292   2.213  14.549  0.2959 -0.2982 -0.6942
  240MPD1    C4 3695   4.364   2.330  14.540  0.0592 -0.3512  0.5070
  240MPD1    C5 3696   4.410   2.372  14.418 -0.1542 -0.2637  0.1289
  240MPD1     H 3697   4.196   2.059  14.442  0.1416  0.2827  0.5915
  240MPD1    H1 3698   4.403   2.389  14.623 -1.4182 -0.4399  1.2507
  240MPD1    H2 3699   4.372   2.368  14.208  1.1240 -0.9348 -0.0271
  240MPD1    H3 3700   4.469   2.463  14.413 -1.2751  0.3885 -1.2345
  240MPD1     N 3701   4.255   2.156  14.675 -0.1321 -0.0521 -0.3626
  240MPD1    H5 3702   4.185   2.083  14.677  0.4243 -0.6143 -1.5017
  240MPD1    N1 3703   4.233   2.147  14.193  0.5484  0.1786 -0.5910
  240MPD1    H6 3704   4.195   2.052  14.195  0.9376 -0.0033 -2.2604
  240MPD1    H7 3705   4.297   2.154  14.115 -1.8449  1.7282 -2.3974
  241MPD1     C 3706   4.353   1.922  15.739 -0.4013 -0.5307  0.2127
  241MPD1    C1 3707   4.425   2.015  15.667  0.2993  0.8292  0.6327
  241MPD1    C2 3708   4.383   2.033  15.537  0.1260 -0.3245  0.0681
  241MPD1    C3 3709   4.282   1.951  15.478  0.2128  0.0305  0.2845
  241MPD1    C4 3710   4.214   1.857  15.555 -0.5947 -0.6042  0.1986
  241MPD1    C5 3711   4.252   1.848  15.686 -0.9687  0.0711  0.9032
  241MPD1     H 3712   4.432   2.105  15.473 -1.3766 -0.8921 -1.7270
  241MPD1    H1 3713   4.130   1.797  15.522  0.1538 -0.7127 -1.5117
  241MPD1    H2 3714   4.385   1.892  15.838 -0.2888 -0.7160  0.1191
  241MPD1    H3 3715   4.193   1.775  15.740  0.4979 -1.1149  0.9279
  241MPD1     N 3716   4.249   1.958  15.341  0.5141  0.3695  0.4899
  241MPD1    H5 3717   4.172   1.895  15.321 -0.0806  0.8610  1.2316
  241MPD1    N1 3718   4.499   2.112  15.726  0.7331  0.7746 -0.5980
  241MPD1    H6 3719   4.556   2.078  15.803  0.1658  1.7181  0.2370
  241MPD1    H7 3720   4.551   2.172  15.662  1.6280 -1.7866 -2.2518
  242MPD1     C 3721   3.976   4.450  16.055 -0.3091 -0.6320  0.3175
  242MPD1    C1 3722   4.039   4.562  16.098 -0.1159 -0.1019 -0.4047
  242MPD1    C2 3723   4.060   4.666  16.010  0.2656  0.3347 -0.7097
  242MPD1    C3 3724   4.036   4.643  15.878  0.2152  0.0632 -0.2053
  242MPD1    C4 3725   3.991   4.520  15.837  0.3574  0.2505  0.9522
  242MPD1    C5 3726   3.954   4.426  15.924 -0.3597 -0.3360  0.0135
  242MPD1     H 3727   4.094   0.019  16.059 -0.1270  0.1164 -0.0364
  242MPD1    H1 3728   3.963   4.496  15.735  1.0216 -0.9095  1.0483
  242MPD1    H2 3729   3.958   4.373  16.130 -0.4450 -1.7543 -0.8759
  242MPD1    H3 3730   3.905   4.335  15.892 -0.8112  0.6332 -2.0251
  242MPD1     N 3731   4.041   0.006  15.778  0.3697 -0.3518 -0.2773
  242MPD1    H5 3732   4.014   4.713  15.685 -1.5013 -0.9001  0.4345
  242MPD1    N1 3733   4.078   4.577  16.235  0.0912 -0.1141  0.6004
  242MPD1    H6 3734   4.116   4.490  16.272  0.8652 -0.0759 -0.0914
  242MPD1    H7 3735   4.155   4.644  16.237  0.1983 -0.2231  0.1419
  243MPD1     C 3736   4.674   3.563   0.276  0.2224 -0.0024  0.0486
  243MPD1    C1 3737   0.002   3.456   0.330  0.1594 -0.0703  0.7081
  243MPD1    C2 3738   0.130   3.429   0.285  0.6566  0.0274 -0.0822
  243MPD1    C3 3739   0.186   3.495   0.174 -0.5768 -0.1255  0.4488
  243MPD1    C4 3740   0.111   3.596   0.117  0.1473  0.5492 -0.2481
  243MPD1    C5 3741   4.735   3.633   0.172 -0.7431  0.3008 -0.1213
  243MPD1     H 3742   0.189   3.356   0.340  0.2892  1.4281  2.1402
  243MPD1    H1 3743   0.148   3.647   0.029 -0.5110 -0.3167 -1.0330
  243MPD1    H2 3744   4.575   3.595   0.306  0.2753 -0.7062  0.9921
  243MPD1    H3 3745   4.686   3.719   0.127 -0.8503  0.3420  0.0713
  243MPD1     N 3746   0.314   3.457   0.129 -0.2378 -0.1298 -0.2629
  243MPD1    H5 3747   0.361   3.380   0.176  1.9958  1.2494 -0.2063
  243MPD1    N1 3748   4.691   3.397   0.453 -0.2187  0.2473 -0.2165
  243MPD1    H6 3749   4.727   3.306   0.481  1.5257  1.0896  0.2450
  243MPD1    H7 3750   4.591   3.409   0.470  0.0149  1.9464 -0.0268
  244MPD1     C 3751   0.819   2.676   0.148  0.1855  0.2823 -0.1717
  244MPD1    C1 3752   0.754   2.754   0.245 -0.0588  1.3820 -0.5981
  244MPD1    C2 3753   0.744   2.889   0.214  0.2260 -0.2777 -0.3441
  244MPD1    C3 3754   0.803   2.945   0.100 -0.1867 -0.5497 -0.0309
  244MPD1    C4 3755   0.880   2.862   0.021 -0.2615  0.6745 -0.8214
  244MPD1    C5 3756   0.884   2.725   0.042  0.2336  0.4177  1.0682
  244MPD1     H 3757   0.681   2.951   0.278 -0.9545 -2.7030  0.8297
  244MPD1    H1 3758   0.936   2.894  17.682 -1.0860 -0.2654 -1.6854
  244MPD1    H2 3759   0.829   2.569   0.148  3.6617  0.6193  1.3663
  244MPD1    H3 3760   0.940   2.658  17.727 -2.0621 -1.2171  0.7470
  244MPD1     N 3761   0.774   3.078   0.060 -0.1812 -0.3931  0.1832
  244MPD1    H5 3762   0.804   3.098  17.714  4.0434 -0.4299  1.4742
  244MPD1    N1 3763   0.669   2.687   0.341  0.4785  0.6025  0.3037
  244MPD1    H6 3764   0.666   2.739   0.429  0.2535 -0.7324  1.0847
  244MPD1    H7 3765   0.704   2.592   0.353 -0.5902  0.0619 -0.8245
  245MPD1     C 3766   2.296   3.708  13.409 -0.8702  0.3159  0.6954
  245MPD1    C1 3767   2.255   3.777  13.522 -0.0309  0.2210 -0.7638
  245MPD1    C2 3768   2.338   3.879  13.564 -0.1096 -0.4484  0.9893
  245MPD1    C3 3769   2.443   3.925  13.488 -0.7230 -0.1411  0.6552
  245MPD1    C4 3770   2.475   3.857  13.375  0.1466  0.0054  0.0185
  245MPD1    C5 3771   2.405   3.743  13.339  0.4174  0.7689  0.3512
  245MPD1     H 3772   2.310   3.925  13.658 -1.8517 -2.5886  1.5183
  245MPD1    H1 3773   2.556   3.882  13.307  0.1833  0.6520  0.2921
  245MPD1    H2 3774   2.243   3.621  13.371  0.5117 -1.2580  2.3734
  245MPD1    H3 3775   2.434   3.683  13.254  0.0956 -0.1869  0.9163
  245MPD1     N 3776   2.528   4.029  13.530  0.6744 -0.3230  0.5666
  245MPD1    H5 3777   2.600   4.066  13.468 -0.1787  0.1148 -0.1698
  245MPD1    N1 3778   2.147   3.727  13.601  0.0848  0.0520 -0.2049
  245MPD1    H6 3779   2.071   3.694  13.542 -0.0792  0.9613 -0.5049
  245MPD1    H7 3780   2.116   3.805  13.658  0.3954 -0.7783  1.1013
  246MPD1     C 3781   3.685   3.788   9.881  0.5455 -0.3144 -0.8534
  246MPD1    C1 3782   3.573   3.716   9.841  0.1722 -0.0035  0.6202
  246MPD1    C2 3783   3.472   3.776   9.774  0.3339  0.1751  0.3816
  246MPD1    C3 3784   3.489   3.911   9.737 -0.1267  0.2226 -0.1121
  246MPD1    C4 3785   3.606   3.977   9.775  0.0138 -0.7647  0.5690
  246MPD1    C5 3786   3.713   3.908   9.824  0.4572  0.1558 -0.7844
  246MPD1     H 3787   3.382   3.718   9.757  0.7190  0.5461 -2.9780
  246MPD1    H1 3788   3.626   4.081   9.752 -0.6128 -0.5783  0.8757
  246MPD1    H2 3789   3.763   3.740   9.938  0.4918  1.1434  0.4528
  246MPD1    H3 3790   3.797   3.967   9.861  1.1527 -0.4830 -1.3478
  246MPD1     N 3791   3.379   3.970   9.678  0.3736  0.2680  0.3079
  246MPD1    H5 3792   3.302   3.904   9.679  0.7333 -0.1551  0.7301
  246MPD1    N1 3793   3.549   3.585   9.891 -0.2911 -0.2599  0.0706
  246MPD1    H6 3794   3.529   3.518   9.817  0.7933 -0.6529  0.1343
  246MPD1    H7 3795   3.635   3.548   9.929 -0.2171 -0.0388  0.1196
  247MPD1     C 3796   2.783   0.129  16.870 -0.4189  0.4185  0.5489
  247MPD1    C1 3797   2.649   0.150  16.897  0.0453 -0.4792 -0.0456
  247MPD1    C2 3798   2.564   0.047  16.850  0.2368 -0.5354 -0.6169
  247MPD1    C3 3799   2.603   4.680  16.768  0.2593  0.0639  0.5102
  247MPD1    C4 3800   2.738   4.662  16.747  0.0717  0.2967  0.3605
  247MPD1    C5 3801   2.822   0.017  16.798 -0.2179  0.0342 -0.7073
  247MPD1     H 3802   2.458   0.058  16.870  1.0292  0.5745  2.9723
  247MPD1    H1 3803   2.776   4.587  16.678  2.3006  0.2831  1.6213
  247MPD1    H2 3804   2.854   0.203  16.904 -0.3844 -0.5940  2.6494
  247MPD1    H3 3805   2.921   4.733  16.761  0.4912  0.5756  0.8844
  247MPD1     N 3806   2.515   4.598  16.692  0.1930 -0.3499  0.0402
  247MPD1    H5 3807   2.564   4.522  16.645 -2.3811 -1.4104 -0.9563
  247MPD1    N1 3808   2.605   0.251  16.984  1.0880  0.2132 -0.1472
  247MPD1    H6 3809   2.650   0.341  17.000  2.3566 -0.1048 -1.9663
  247MPD1    H7 3810   2.510   0.278  16.962  1.2052  1.3286  0.6993
  248MPD1     C 3811   3.097   3.363   0.725 -0.1911 -0.5528 -0.3712
  248MPD1    C1 3812   2.981   3.413   0.779 -0.4164 -0.4197 -0.4263
  248MPD1    C2 3813   2.862   3.378   0.722 -0.4620 -0.0683 -0.3768
  248MPD1    C3 3814   2.853   3.308   0.605 -0.8762 -0.5537 -0.8862
  248MPD1    C4 3815   2.968   3.268   0.552 -0.4942  0.6087 -0.2678
  248MPD1    C5 3816   3.092   3.295   0.608  0.0971  0.0768  0.0843
  248MPD1     H 3817   2.775   3.424   0.767  0.1278 -1.1841  1.9137
  248MPD1    H1 3818   2.964   3.219   0.456  0.9185 -0.5036  0.2396
  248MPD1    H2 3819   3.187   3.376   0.784  0.5567  2.1205 -2.1010
  248MPD1    H3 3820   3.178   3.245   0.566  0.5739  0.8016  0.1949
  248MPD1     N 3821   2.729   3.286   0.553  0.0517  0.0748 -0.3870
  248MPD1    H5 3822   2.648   3.322   0.603  1.0697  0.6865  0.8295
  248MPD1    N1 3823   2.994   3.496   0.890  0.0454 -0.3630 -0.5101
  248MPD1    H6 3824   2.919   3.564   0.893  0.3462 -0.0645  0.5553
  248MPD1    H7 3825   3.080   3.551   0.891  0.4234 -0.9459 -0.9216
  249MPD1     C 3826   0.261   1.615  10.666  0.0930 -0.0357  0.0001
  249MPD1    C1 3827   0.238   1.651  10.537 -0.0093 -0.2628  0.0058
  249MPD1    C2 3828   0.227   1.786  10.513  0.3393  0.3911  0.1083
  249MPD1    C3 3829   0.208   1.874  10.615 -0.1252  0.6030  0.4627
  249MPD1    C4 3830   0.207   1.828  10.746  0.3095  0.0972 -0.3346
  249MPD1    C5 3831   0.245   1.705  10.772 -0.9592  0.3709 -0.5889
  249MPD1     H 3832   0.222   1.814  10.408  1.5907  1.1488  0.2473
  249MPD1    H1 3833   0.197   1.889  10.834  0.9358  0.4426 -0.5053
  249MPD1    H2 3834   0.297   1.515  10.687 -1.8707 -0.2975  2.1237
  249MPD1    H3 3835   0.253   1.673  10.875 -1.3231  2.1586 -0.0046
  249MPD1     N 3836   0.210   2.015  10.589 -0.4082  0.1501  0.3314
  249MPD1    H5 3837   0.251   2.051  10.504 -0.1512  1.7055  1.1063
  249MPD1    N1 3838   0.261   1.549  10.439 -0.3589  0.0484  0.1609
  249MPD1    H6 3839   0.203   1.573  10.359 -2.8133 -4.2297  0.6133
  249MPD1    H7 3840   0.229   1.458  10.473 -1.9035  0.0879 -1.1720
  250MPD2     C 3841   1.632   2.563  13.433 -0.5614  0.1481 -0.1494
  250MPD2    C1 3842   1.545   2.659  13.390  1.1394 -1.1675  0.0448
  250MPD2    C2 3843   1.424   2.619  13.337  0.1497  1.0035  0.0275
  250MPD2    C3 3844   1.391   2.489  13.314  0.2044 -0.5086 -1.2877
  250MPD2    C4 3845   1.492   2.394  13.344 -0.5301  0.1736  0.1355
  250MPD2    C5 3846   1.607   2.432  13.396 -0.5235 -0.8419 -0.2774
  250MPD2     H 3847   1.356   2.703  13.324 -2.1150 -1.0883 -1.5559
  250MPD2    H1 3848   1.464   2.291  13.323  0.8835 -0.1274 -0.2956
  250MPD2    H2 3849   1.725   2.591  13.483 -0.5991  0.5500 -0.3080
  250MPD2    H3 3850   1.678   2.353  13.419  0.7528 -0.1380 -1.8677
  250MPD2     N 3851   1.260   2.444  13.274  0.2098  0.1060 -0.3751
  250MPD2    H5 3852   1.249   2.343  13.278 -0.7232  0.2359  0.5143
  250MPD2    N1 3853   1.570   2.801  13.417  0.1814 -0.6463 -0.2467
  250MPD2    H7 3854   1.665   2.835  13.426 -0.4127  1.1545 -0.6415
  251TMC3    C1 3855   1.544   3.039  13.412 -0.0367  0.2084 -0.9821
  251TMC3    C2 3856   1.463   3.150  13.455 -0.3094 -0.2885 -0.3704
  251TMC3    C3 3857   1.521   3.267  13.459  0.1741 -0.2191  1.0288
  251TMC3    C4 3858   1.674   3.052  13.372  0.2806  0.2875 -0.1218
  251TMC3    C5 3859   1.723   3.178  13.383  0.3553 -0.2883 -0.6305
  251TMC3    C6 3860   1.653   3.288  13.430 -0.5149 -0.4342  0.0907
  251TMC3     C 3861   1.480   2.907  13.419  0.0346 -0.4715 -0.1965
  251TMC3     O 3862   1.359   2.898  13.421 -0.0564 -0.2440 -0.4879
  251TMC3     H 3863   1.362   3.122  13.482 -0.8895 -0.2257 -2.4422
  251TMC3    H1 3864   1.733   2.973  13.327  0.0294  0.2447 -0.3713
  251TMC3    H2 3865   1.698   3.386  13.448  0.3503 -0.7344 -0.4541
  251TMC3    C7 3866   1.869   3.187  13.360  0.0375  0.0507 -0.4392
  251TMC3    C8 3867   1.441   3.376  13.519 -0.0454  0.5159  0.6769
  251TMC3    O1 3868   1.939   3.088  13.386  0.2890  0.1189  0.6336
  251TMC3    O2 3869   1.343   3.340  13.580 -0.0217  0.5062 -0.1660
  252TMC3    C1 3870   1.916   0.146   9.924 -0.4035 -0.3281  0.0666
  252TMC3    C2 3871   1.988   0.117  10.042  0.4912 -0.9842  0.4438
  252TMC3    C3 3872   1.966   4.733  10.104 -0.6403 -0.0928 -0.5749
  252TMC3    C4 3873   1.825   0.056   9.874  1.3185  0.0661 -0.1223
  252TMC3    C5 3874   1.800   4.678   9.940  0.2450 -0.0140  0.2566
  252TMC3    C6 3875   1.869   4.654  10.055 -0.3121  0.0918  0.5900
  252TMC3     C 3876   1.960   0.261   9.849  0.5508  0.3216 -0.1103
  252TMC3     O 3877   2.041   0.335   9.899 -0.4556  0.6188  0.4010
  252TMC3     H 3878   2.072   0.177  10.077  0.1105 -0.4063  0.3570
  252TMC3    H1 3879   1.765   0.073   9.785  0.5542 -0.5076  0.2819
  252TMC3    H2 3880   1.826   4.575  10.116  0.8330 -0.2998  0.8801
  252TMC3    C7 3881   1.684   4.600   9.899  0.5286 -0.5993 -0.2347
  252TMC3    C8 3882   2.039   4.706  10.228  0.1173  0.3839  0.4557
  252TMC3    O1 3883   1.617   4.632   9.806 -0.2263 -0.0848  0.4313
  252TMC3    O2 3884   2.104   0.064  10.271 -0.6609  0.3603  0.2336
  253MPD2     C 3885   2.698   3.013  15.626  0.2620 -0.1815  0.1764
  253MPD2    C1 3886   2.557   2.994  15.620 -0.4155  0.2763 -0.1033
  253MPD2    C2 3887   2.497   2.947  15.733  0.3311  0.4115  0.5608
  253MPD2    C3 3888   2.564   2.894  15.845  0.3917 -0.2507 -1.1822
  253MPD2    C4 3889   2.706   2.900  15.837  0.4816  0.0447  0.1034
  253MPD2    C5 3890   2.767   2.970  15.733  0.0799  0.8769 -0.1130
  253MPD2     H 3891   2.390   2.965  15.739  0.0523 -1.2366  0.5246
  253MPD2    H1 3892   2.771   2.880  15.921 -0.0274 -0.1633  0.4490
  253MPD2    H2 3893   2.757   3.051  15.542  1.4850  1.1009  1.6228
  253MPD2    H3 3894   2.874   2.989  15.736  0.7940 -3.0759  0.9088
  253MPD2     N 3895   2.495   2.848  15.956  1.2553  0.1112  0.2031
  253MPD2    H5 3896   2.555   2.822  16.033  2.2127  0.6419 -0.3630
  253MPD2    N1 3897   2.476   3.045  15.520 -0.7104 -0.1767  0.0604
  253MPD2    H7 3898   2.380   3.019  15.544 -0.5670 -0.2917  0.5048
  254TMC3    C1 3899   2.311   2.776  16.088  0.2312 -0.2702 -0.3269
  254TMC3    C2 3900   2.179   2.810  16.103 -0.5849  0.6684  0.1147
  254TMC3    C3 3901   2.110   2.752  16.211  0.4529  0.1088 -0.1698
  254TMC3    C4 3902   2.378   2.703  16.177 -0.1772 -0.0926  0.6082
  254TMC3    C5 3903   2.308   2.662  16.286  0.7911  0.4991 -0.9311
  254TMC3    C6 3904   2.174   2.674  16.304  0.3589  0.0404 -0.0304
  254TMC3     C 3905   2.365   2.804  15.956 -0.7711 -0.6397  0.2425
  254TMC3     O 3906   2.284   2.808  15.864 -0.1361  0.1443 -0.0738
  254TMC3     H 3907   2.123   2.856  16.022 -0.1849 -0.6154 -0.8827
  254TMC3    H1 3908   2.479   2.670  16.158  0.5364  1.5136  1.5631
  254TMC3    H2 3909   2.141   2.650  16.405  1.8139 -1.7098  0.0216
  254TMC3    C7 3910   2.386   2.606  16.392 -0.0509 -1.1154 -0.0664
  254TMC3    C8 3911   1.981   2.799  16.256  0.7742  0.3380  0.3294
  254TMC3    O1 3912   2.324   2.557  16.485  0.6135 -0.4964 -0.2239
  254TMC3    O2 3913   1.935   2.748  16.359  0.0144  0.3078 -0.3095
  255MPD2     C 3914   0.632   0.812  10.247 -0.7337  0.0576  0.0153
  255MPD2    C1 3915   0.727   0.916  10.239  0.0619  0.0922  0.2716
  255MPD2    C2 3916   0.721   0.998  10.127 -0.0856 -0.2147 -0.1328
  255MPD2    C3 3917   0.628   0.974  10.029  0.4261  0.4775 -0.0229
  255MPD2    C4 3918   0.531   0.871  10.044  0.2463  0.2974 -0.1316
  255MPD2    C5 3919   0.534   0.798  10.161  0.5105  0.0322 -0.1415
  255MPD2     H 3920   0.783   1.086  10.120  1.6524 -1.4917 -0.8783
  255MPD2    H1 3921   0.449   0.849   9.978  2.1209 -0.9715 -2.0241
  255MPD2    H2 3922   0.623   0.753  10.337 -0.5882 -0.0496 -0.0400
  255MPD2    H3 3923   0.454   0.727  10.175  0.5898 -0.0900 -0.3083
  255MPD2     N 3924   0.630   1.057   9.912  0.3668  0.0726  0.6862
  255MPD2    H5 3925   0.704   1.126   9.915  0.5179 -0.0798  0.4883
  255MPD2    N1 3926   0.820   0.939  10.339 -0.1997  0.1934  0.0613
  255MPD2    H7 3927   0.798   0.909  10.433 -1.5921  0.3495 -0.2169
  256TMC3    C1 3928   0.929   1.124  10.432 -0.1604 -0.0682  0.0904
  256TMC3    C2 3929   1.015   1.227  10.421 -0.5508  0.0663  0.4723
  256TMC3    C3 3930   0.962   1.347  10.465  0.7301  0.7746  0.0071
  256TMC3    C4 3931   0.819   1.131  10.511 -0.2737  0.5472  0.4221
  256TMC3    C5 3932   0.787   1.252  10.563  0.5060 -1.1591  0.0587
  256TMC3    C6 3933   0.855   1.369  10.547  0.1790 -0.9660  1.1181
  256TMC3     C 3934   0.932   1.018  10.337  0.2003  0.0367  0.0311
  256TMC3     O 3935   1.000   1.049  10.240 -0.1176 -0.5516  0.3147
  256TMC3     H 3936   1.111   1.228  10.370 -0.7914 -1.4531 -0.0181
  256TMC3    H1 3937   0.760   1.048  10.546  0.3444 -0.6071 -1.2833
  256TMC3    H2 3938   0.807   1.464  10.568  2.6392  0.3103  0.9222
  256TMC3    C7 3939   0.669   1.268  10.646  0.0939 -0.1717 -0.7391
  256TMC3    C8 3940   1.010   1.466  10.386  0.3663 -0.0258  0.3815
  256TMC3    O1 3941   0.568   1.203  10.627  0.9165  0.1043  0.3728
  256TMC3    O2 3942   1.079   1.437  10.289 -0.5960  0.0983 -0.4563
  257MPD2     C 3943   4.291   2.954  13.404  0.3954  0.5680 -0.0947
  257MPD2    C1 3944   4.320   2.855  13.316 -0.2974  0.2339 -0.1590
  257MPD2    C2 3945   4.346   2.727  13.359  0.1786 -0.3649  0.1173
  257MPD2    C3 3946   4.348   2.699  13.497 -0.3558  0.0603 -0.3266
  257MPD2    C4 3947   4.314   2.802  13.592  0.5335 -1.0619 -0.0577
  257MPD2    C5 3948   4.287   2.929  13.540 -0.2854  1.2297  0.6245
  257MPD2     H 3949   4.360   2.644  13.289 -1.2057  0.8719 -1.6309
  257MPD2    H1 3950   4.302   2.784  13.698 -1.5806 -3.0007 -0.6143
  257MPD2    H2 3951   4.270   3.048  13.354  1.3413  0.6991 -0.2436
  257MPD2    H3 3952   4.270   3.013  13.606 -1.9045  0.7372  0.8152
  257MPD2     N 3953   4.393   2.564  13.533  0.0215  0.1431  0.3675
  257MPD2    H5 3954   4.418   2.502  13.457 -1.2742 -1.0401  0.9106
  257MPD2    N1 3955   4.343   2.897  13.184  0.2311  0.3705  0.1168
  257MPD2    H7 3956   4.347   2.995  13.160 -0.2929  0.5272  0.6605
  258TMC3    C1 3957   4.473   2.393  13.670  0.0311  0.8166 -0.2259
  258TMC3    C2 3958   4.573   2.370  13.586  0.0111 -0.2976  0.0545
  258TMC3    C3 3959   4.646   2.253  13.594 -0.2798  0.9687  0.4561
  258TMC3    C4 3960   4.447   2.304  13.780 -0.3264  0.5561  0.5751
  258TMC3    C5 3961   4.521   2.186  13.783  0.4192  0.3965  0.3799
  258TMC3    C6 3962   4.616   2.152  13.690  0.6797  0.3259  0.2746
  258TMC3     C 3963   4.405   2.524  13.663 -0.2993  0.3289 -0.8766
  258TMC3     O 3964   4.361   2.566  13.770 -0.2502 -0.1738  0.0558
  258TMC3     H 3965   4.597   2.443  13.510 -1.2463 -2.2159 -2.2060
  258TMC3    H1 3966   4.376   2.324  13.859 -2.5177  0.7666 -1.4279
  258TMC3    H2 3967   4.655   2.051  13.687 -0.8797 -0.2899  0.6698
  258TMC3    C7 3968   4.515   2.116  13.915 -0.3039 -0.1260 -0.4048
  258TMC3    C8 3969   4.706   2.225  13.467  0.4195  0.5778  0.0521
  258TMC3    O1 3970   4.409   2.131  13.974  0.2808 -0.1731 -0.8937
  258TMC3    O2 3971   0.042   2.307  13.414 -0.6900  0.8338  0.2765
  259MPD2     C 3972   3.902   4.147   1.038  0.3087  0.1497 -0.0148
  259MPD2    C1 3973   3.793   4.064   1.014 -0.3582  0.8721  0.8117
  259MPD2    C2 3974   3.721   4.089   0.896  0.0752  0.2552 -0.2467
  259MPD2    C3 3975   3.757   4.195   0.811 -0.6100  0.0757  0.2808
  259MPD2    C4 3976   3.867   4.266   0.839  0.2287  0.2410  0.1445
  259MPD2    C5 3977   3.933   4.241   0.952 -1.3052  0.0834  0.7970
  259MPD2     H 3978   3.642   4.017   0.875 -0.1359  0.4190 -0.0196
  259MPD2    H1 3979   3.901   4.350   0.780 -2.9579  2.7449  1.8605
  259MPD2    H2 3980   3.962   4.121   1.124  1.5455 -1.8708 -1.5035
  259MPD2    H3 3981   4.017   4.306   0.976  0.7421 -1.4507 -2.1861
  259MPD2     N 3982   3.673   4.219   0.699  0.5345  1.1019  0.3332
  259MPD2    H5 3983   3.592   4.158   0.698  1.2382  0.1727  0.0551
  259MPD2    N1 3984   3.766   3.960   1.112 -0.0521  0.2616  0.2130
  259MPD2    H7 3985   3.828   3.967   1.192 -1.7096 -1.1995  1.6192
  260TMC3    C1 3986   3.597   4.337   0.500  0.4567 -0.5422  0.5222
  260TMC3    C2 3987   3.607   4.460   0.444  0.3930 -0.6014 -0.0185
  260TMC3    C3 3988   3.594   4.474   0.310  0.1699 -0.1592  0.0620
  260TMC3    C4 3989   3.589   4.223   0.421 -0.0685  0.3249 -0.3630
  260TMC3    C5 3990   3.575   4.245   0.282  0.0648 -0.9564 -0.1535
  260TMC3    C6 3991   3.584   4.364   0.225 -0.3684  0.2111  0.0035
  260TMC3     C 3992   3.678   4.333   0.621  0.1924 -0.6084 -0.1724
  260TMC3     O 3993   3.754   4.430   0.627 -1.3450  0.0755  0.5662
  260TMC3     H 3994   3.621   4.547   0.508  1.0291 -0.3905 -0.4391
  260TMC3    H1 3995   3.608   4.130   0.474  1.6401  0.1623 -1.2563
  260TMC3    H2 3996   3.603   4.378   0.119  1.6126  1.7172  0.5473
  260TMC3    C7 3997   3.573   4.132   0.190  0.3257  0.4149  0.2458
  260TMC3    C8 3998   3.687   4.581   0.270  0.0464  0.7489 -0.6076
  260TMC3    O1 3999   3.632   4.152   0.087  0.4540  0.7575 -0.2328
  260TMC3    O2 4000   3.679   4.694   0.320  0.0304  0.1540 -0.0901
  261MPD2     C 4001   0.519   2.802  13.211  0.5840  0.6275  0.3901
  261MPD2    C1 4002   0.631   2.773  13.135 -0.6788 -0.7814  0.0849
  261MPD2    C2 4003   0.678   2.871  13.049  0.7549  0.3881 -0.4505
  261MPD2    C3 4004   0.616   2.993  13.046  0.4398  0.0375 -0.8638
  261MPD2    C4 4005   0.515   3.023  13.128  0.0515 -0.3607  0.0450
  261MPD2    C5 4006   0.460   2.925  13.209 -0.7592 -0.3281  0.1660
  261MPD2     H 4007   0.765   2.842  12.991  1.9158 -0.4000  1.6822
  261MPD2    H1 4008   0.463   3.118  13.123  1.2432  0.3225  0.8103
  261MPD2    H2 4009   0.467   2.726  13.268  1.1817  0.3251  0.5336
  261MPD2    H3 4010   0.370   2.957  13.260 -1.0097  0.3648 -0.6981
  261MPD2     N 4011   0.636   3.078  12.940 -1.0500 -0.5983  0.0409
  261MPD2    H5 4012   0.699   3.040  12.870 -2.1751 -2.1404 -0.1335
  261MPD2    N1 4013   0.710   2.666  13.162  0.1339  0.3165  0.1259
  261MPD2    H7 4014   0.796   2.659  13.108 -0.0032 -0.0747 -0.0399
  262TMC3    C1 4015   0.624   3.241  12.776  0.1161  0.1514  0.4122
  262TMC3    C2 4016   0.521   3.325  12.727 -0.0427 -0.6055 -0.1770
  262TMC3    C3 4017   0.518   3.336  12.590 -0.1255  0.1800  0.1438
  262TMC3    C4 4018   0.707   3.167  12.697  0.1789  0.0703 -0.3730
  262TMC3    C5 4019   0.690   3.186  12.563 -0.0236 -0.5155 -0.2654
  262TMC3    C6 4020   0.597   3.266  12.503 -0.8452 -0.5334 -0.5070
  262TMC3     C 4021   0.591   3.203  12.912 -0.5612  0.3629 -0.7813
  262TMC3     O 4022   0.511   3.269  12.978 -0.0629  0.3178  0.2516
  262TMC3     H 4023   0.477   3.397  12.795 -0.7692 -0.7563 -0.4926
  262TMC3    H1 4024   0.781   3.094  12.729 -2.1622 -1.6833  1.0310
  262TMC3    H2 4025   0.579   3.268  12.396  1.3294 -2.9892 -0.9258
  262TMC3    C7 4026   0.801   3.142  12.477 -0.3539 -0.6532  0.3305
  262TMC3    C8 4027   0.444   3.454  12.544 -0.3798 -0.8532 -0.3405
  262TMC3    O1 4028   0.869   3.048  12.507 -0.0212 -0.0631 -0.0439
  262TMC3    O2 4029   0.385   3.512  12.636  0.6274  0.0026  0.0669
  263MPD2     C 4030   1.987   1.407  11.377  0.1727 -0.6265 -0.2500
  263MPD2    C1 4031   2.031   1.507  11.453 -0.3528 -0.5357  0.0129
  263MPD2    C2 4032   2.010   1.638  11.423 -0.4573  0.3434 -0.4195
  263MPD2    C3 4033   1.951   1.669  11.306  0.0799  0.2555  0.0330
  263MPD2    C4 4034   1.906   1.565  11.223  0.3002  0.4741 -0.1762
  263MPD2    C5 4035   1.919   1.436  11.262  0.0633 -0.4123 -0.6644
  263MPD2     H 4036   2.055   1.716  11.484  2.8899 -2.4340  0.6491
  263MPD2    H1 4037   1.850   1.574  11.130  0.2701  1.3007 -0.0734
  263MPD2    H2 4038   2.012   1.303  11.395 -0.6608 -0.7016  0.4947
  263MPD2    H3 4039   1.867   1.355  11.212  0.4409  1.3378 -3.8720
  263MPD2     N 4040   1.942   1.804  11.277 -0.5453 -0.4194  0.2008
  263MPD2    H5 4041   1.995   1.866  11.336 -0.9828  1.0424 -0.9395
  263MPD2    N1 4042   2.108   1.458  11.560  0.2537  0.2817  0.1072
  263MPD2    H7 4043   2.115   1.357  11.562 -1.5056  0.1707  0.2706
  264TMC3    C1 4044   1.907   2.003  11.165  0.6290  0.1806  0.2053
  264TMC3    C2 4045   1.948   2.078  11.273 -0.3080 -0.4355  0.0001
  264TMC3    C3 4046   2.011   2.199  11.247 -0.2082  0.3147  0.0573
  264TMC3    C4 4047   1.935   2.051  11.034 -0.4380 -0.2932  0.3515
  264TMC3    C5 4048   1.990   2.174  11.011 -0.4979  0.0368  1.0601
  264TMC3    C6 4049   2.031   2.250  11.119  0.1184 -0.6693 -0.0696
  264TMC3     C 4050   1.892   1.858  11.164  0.9283  0.7195  0.5163
  264TMC3     O 4051   1.861   1.809  11.056 -0.4131 -0.3029 -0.9179
  264TMC3     H 4052   1.937   2.040  11.373 -0.8768  1.4422  0.6464
  264TMC3    H1 4053   1.907   1.998  10.944 -1.5836 -0.9456  1.0857
  264TMC3    H2 4054   2.104   2.329  11.105 -1.8345  0.5414 -3.3789
  264TMC3    C7 4055   2.062   2.185  10.880 -0.3140 -0.7108 -0.0687
  264TMC3    C8 4056   2.067   2.277  11.357  0.1925  0.6556 -0.0346
  264TMC3    O1 4057   2.087   2.092  10.804  0.4865  0.1883 -0.1935
  264TMC3    O2 4058   2.147   2.368  11.326 -0.1346 -1.0755 -0.5826
  265MPD2     C 4059   3.554   2.500  15.990 -0.3093 -0.4332 -0.4286
  265MPD2    C1 4060   3.546   2.589  15.883 -0.5958  0.0231  0.4521
  265MPD2    C2 4061   3.593   2.542  15.753  0.3029  0.2543  0.4715
  265MPD2    C3 4062   3.657   2.421  15.741  0.2322  0.5116 -0.8420
  265MPD2    C4 4063   3.656   2.335  15.848  0.5069 -0.5987 -0.2948
  265MPD2    C5 4064   3.606   2.374  15.968  0.1573  0.4883 -0.5874
  265MPD2     H 4065   3.595   2.610  15.669 -1.7223  1.6752  1.5396
  265MPD2    H1 4066   3.717   2.245  15.853  0.7887 -0.4658 -1.4907
  265MPD2    H2 4067   3.528   2.534  16.089 -0.9968  0.1219 -0.8034
  265MPD2    H3 4068   3.608   2.306  16.052  0.4758 -0.2316 -1.1727
  265MPD2     N 4069   3.716   2.375  15.620  0.5444 -0.1552 -0.8250
  265MPD2    H5 4070   3.756   2.281  15.622  1.3120  0.2011  0.6300
  265MPD2    N1 4071   3.501   2.719  15.905  0.3367 -1.1799  0.0578
  265MPD2    H7 4072   3.477   2.743  16.000 -0.2719  0.5787 -0.5388
  266TMC3    C1 4073   3.430   2.938  15.859  0.0390 -0.3052 -0.2267
  266TMC3    C2 4074   3.485   2.987  15.970  0.0980  0.3991  0.4871
  266TMC3    C3 4075   3.466   3.121  15.987  0.3426  0.7874 -0.5150
  266TMC3    C4 4076   3.357   3.015  15.768 -0.3427  0.1625 -0.0214
  266TMC3    C5 4077   3.349   3.151  15.788  0.2850 -0.0513  0.3522
  266TMC3    C6 4078   3.397   3.202  15.897  0.3847  0.5779  0.3752
  266TMC3     C 4079   3.489   2.814  15.805  0.3326  0.3850  0.3895
  266TMC3     O 4080   3.509   2.819  15.683 -0.1986 -0.5139 -0.8809
  266TMC3     H 4081   3.537   2.927  16.043 -0.0864 -0.5331 -0.1428
  266TMC3    H1 4082   3.301   2.964  15.691 -0.2168  0.9538 -0.6306
  266TMC3    H2 4083   3.394   3.309  15.913  1.4887  0.7557 -0.6317
  266TMC3    C7 4084   3.249   3.222  15.719 -0.2350  0.8573 -0.0728
  266TMC3    C8 4085   3.557   3.174  16.084 -0.6540  0.9668 -0.8414
  266TMC3    O1 4086   3.142   3.167  15.718  0.0944  0.3832  0.2144
  266TMC3    O2 4087   3.640   3.092  16.121 -0.0502 -0.3247 -0.1000
  267MPD2     C 4088   1.433   4.546   0.461 -0.3908  0.3316  0.3742
  267MPD2    C1 4089   1.438   4.473   0.346 -0.5196 -1.3252  0.0412
  267MPD2    C2 4090   1.366   4.518   0.233 -0.2556  0.3509 -0.5080
  267MPD2    C3 4091   1.275   4.625   0.247 -0.0110  0.0159 -0.2676
  267MPD2    C4 4092   1.272   4.700   0.361 -0.5110  0.0165  0.1606
  267MPD2    C5 4093   1.350   4.658   0.464 -0.3026  0.1640 -0.9357
  267MPD2     H 4094   1.369   4.467   0.138 -1.1126 -0.6197 -0.0148
  267MPD2    H1 4095   1.217   0.055   0.373  0.8757  0.8136  0.3547
  267MPD2    H2 4096   1.480   4.522   0.556  1.0160 -4.9557 -1.6947
  267MPD2    H3 4097   1.341   4.708   0.560  2.9147 -0.6499 -0.1908
  267MPD2     N 4098   1.191   4.660   0.142  0.3063 -0.1523  0.7430
  267MPD2    H5 4099   1.182   4.589   0.070  1.9027  1.5684 -1.1256
  267MPD2    N1 4100   1.530   4.361   0.346 -0.3526 -0.4273 -0.0392
  267MPD2    H7 4101   1.574   4.342   0.436 -1.3946  0.1724  0.5899
  268TMC3    C1 4102   1.597   4.154   0.241 -0.4425  0.0255  0.3106
  268TMC3    C2 4103   1.608   4.086   0.127  1.1121  0.1213  0.5940
  268TMC3    C3 4104   1.581   3.955   0.124  0.9535 -0.0517 -0.0704
  268TMC3    C4 4105   1.557   4.088   0.359  0.6063  0.8777 -0.2093
  268TMC3    C5 4106   1.540   3.949   0.355 -0.1439  0.0582 -0.4121
  268TMC3    C6 4107   1.554   3.882   0.236 -0.6201 -0.6462  0.3607
  268TMC3     C 4108   1.562   4.293   0.227  0.4901 -0.6123 -0.9955
  268TMC3     O 4109   1.559   4.328   0.109 -0.3895 -0.2813  0.6095
  268TMC3     H 4110   1.637   4.142   0.038  1.2175 -0.2597  0.3885
  268TMC3    H1 4111   1.534   4.153   0.443 -0.7031  0.8330 -0.5318
  268TMC3    H2 4112   1.547   3.774   0.239 -0.1213 -0.6871 -0.1174
  268TMC3    C7 4113   1.523   3.876   0.479  0.0073 -0.3852  0.1191
  268TMC3    C8 4114   1.547   3.898  17.747  0.6039 -0.0497 -0.6606
  268TMC3    O1 4115   1.565   3.763   0.492 -0.0667 -0.0799  0.6267
  268TMC3    O2 4116   1.546   3.777  17.743  0.3355  0.0320 -0.1314
  269MPD2     C 4117   1.648   3.245  15.771 -0.3303 -0.1668  0.1689
  269MPD2    C1 4118   1.520   3.261  15.822  0.1470  0.3185 -0.2133
  269MPD2    C2 4119   1.463   3.388  15.830  0.2091 -0.4141  0.3208
  269MPD2    C3 4120   1.532   3.498  15.797  0.4335 -0.2053  0.4288
  269MPD2    C4 4121   1.658   3.478  15.745 -0.3621 -0.4756 -0.6167
  269MPD2    C5 4122   1.715   3.352  15.726  0.3371  0.4734  0.5269
  269MPD2     H 4123   1.361   3.398  15.865 -0.7266  0.2190 -2.6264
  269MPD2    H1 4124   1.717   3.561  15.707  1.0115 -1.2245 -0.1305
  269MPD2    H2 4125   1.691   3.147  15.754  0.7430  0.2841  0.2411
  269MPD2    H3 4126   1.811   3.350  15.675  0.0178  0.5812 -0.0741
  269MPD2     N 4127   1.472   3.623  15.811  0.0750  0.1111 -0.0744
  269MPD2    H5 4128   1.374   3.629  15.835  0.1961 -0.6846  0.6329
  269MPD2    N1 4129   1.458   3.144  15.871  0.4828  0.0487  0.0305
  269MPD2    H7 4130   1.517   3.062  15.874  2.1512  1.1323 -3.0181
  270TMC3    C1 4131   1.278   3.005  15.932  0.2041 -1.0572  0.2975
  270TMC3    C2 4132   1.151   2.968  15.898  0.1749  0.2554  0.9447
  270TMC3    C3 4133   1.113   2.836  15.922  0.3218 -0.2053 -0.5636
  270TMC3    C4 4134   1.360   2.923  16.008 -0.4356 -0.5106 -0.5495
  270TMC3    C5 4135   1.321   2.792  16.022 -0.5467  0.3185 -0.0344
  270TMC3    C6 4136   1.197   2.747  15.986  0.2547 -0.1368  1.5090
  270TMC3     C 4137   1.320   3.132  15.890 -0.5955 -0.3712  0.4186
  270TMC3     O 4138   1.228   3.208  15.882 -0.6630 -0.5457  0.4296
  270TMC3     H 4139   1.086   3.023  15.831 -0.0382  2.2404  2.8131
  270TMC3    H1 4140   1.462   2.953  16.029  0.4952 -3.3478 -1.0330
  270TMC3    H2 4141   1.166   2.643  15.990  0.4945 -0.2484  0.2447
  270TMC3    C7 4142   1.423   2.694  15.986  0.3068  0.3356 -0.5490
  270TMC3    C8 4143   1.065   2.768  15.802  0.7533 -0.6809 -0.3601
  270TMC3    O1 4144   1.527   2.701  16.045 -0.6533  0.3679  0.0957
  270TMC3    O2 4145   1.108   2.657  15.771 -0.4836  0.1822  0.4000
  271MPD2     C 4146   0.334   2.593  14.361 -0.6308  0.6163  0.2753
  271MPD2    C1 4147   0.329   2.671  14.474  0.4599  0.7090 -0.2879
  271MPD2    C2 4148   0.304   2.807  14.451  0.8250 -0.7135  0.6753
  271MPD2    C3 4149   0.290   2.864  14.324  0.4566 -0.0740  0.2212
  271MPD2    C4 4150   0.292   2.784  14.214 -0.2407  0.0252 -0.0415
  271MPD2    C5 4151   0.318   2.651  14.234 -0.0720  0.0415  0.0327
  271MPD2     H 4152   0.323   2.872  14.536 -0.0298 -0.6798  0.8366
  271MPD2    H1 4153   0.285   2.826  14.115 -0.1368 -0.4925 -0.2655
  271MPD2    H2 4154   0.344   2.486  14.371  1.2292  0.6021 -1.7328
  271MPD2    H3 4155   0.326   2.585  14.149  0.9509 -0.5662  0.6026
  271MPD2     N 4156   0.254   3.003  14.301 -0.3992  0.3717 -0.0081
  271MPD2    H5 4157   0.268   3.046  14.210  0.6986 -0.2365 -0.1225
  271MPD2    N1 4158   0.353   2.621  14.604 -0.2880 -0.4815  0.3052
  271MPD2    H7 4159   0.341   2.689  14.678  0.2862 -1.0345  0.9062
  272TMC3    C1 4160   0.410   2.480  14.778 -0.7540 -0.0018 -0.1829
  272TMC3    C2 4161   0.502   2.391  14.816 -0.7290  0.2574 -0.0311
  272TMC3    C3 4162   0.594   2.415  14.913 -0.8843 -0.5359  0.2502
  272TMC3    C4 4163   0.402   2.601  14.853  0.8883  0.0011 -0.0723
  272TMC3    C5 4164   0.487   2.623  14.952 -0.7179  0.6043  0.1472
  272TMC3    C6 4165   0.592   2.535  14.986  0.1751 -0.8799  0.4595
  272TMC3     C 4166   0.383   2.492  14.637  0.2777 -0.4129  0.2776
  272TMC3     O 4167   0.419   2.403  14.563 -0.1513 -0.3493  0.1651
  272TMC3     H 4168   0.501   2.302  14.754  0.4753  0.1888  0.0491
  272TMC3    H1 4169   0.312   2.661  14.845  0.7859 -0.4312 -2.0582
  272TMC3    H2 4170   0.675   2.560  15.052  0.0821 -0.8384  0.5601
  272TMC3    C7 4171   0.459   2.738  15.040 -0.0640  0.7877  0.4282
  272TMC3    C8 4172   0.723   2.351  14.895  0.1070 -0.0641 -0.1531
  272TMC3    O1 4173   0.342   2.758  15.070 -0.0146 -0.9011 -0.6021
  272TMC3    O2 4174   0.743   2.315  14.782 -0.0712  0.2968  0.1309
  273MPD2     C 4175   2.574   0.164  11.989  0.9441  0.1602  0.1053
  273MPD2    C1 4176   2.693   0.180  11.921 -0.2898 -0.1278 -0.4184
  273MPD2    C2 4177   2.688   0.239  11.793 -0.4867  0.2537 -0.1494
  273MPD2    C3 4178   2.574   0.288  11.739 -0.0158  0.5090 -0.7480
  273MPD2    C4 4179   2.450   0.274  11.807 -0.3856 -0.4618  0.3540
  273MPD2    C5 4180   2.459   0.217  11.933  0.0650 -0.9179 -0.2739
  273MPD2     H 4181   2.778   0.252  11.734  1.6263  0.5921  3.1166
  273MPD2    H1 4182   2.353   0.302  11.766  0.2769 -0.2460 -1.0482
  273MPD2    H2 4183   2.568   0.133  12.093  0.5231  1.3876  0.4381
  273MPD2    H3 4184   2.366   0.201  11.987  0.6934  0.6230  1.3095
  273MPD2     N 4185   2.581   0.368  11.618  0.7088  0.3325 -0.2561
  273MPD2    H5 4186   2.493   0.397  11.574 -0.5900 -1.4195  1.2099
  273MPD2    N1 4187   2.810   0.128  11.984  0.5117 -0.1418 -0.0536
  273MPD2    H7 4188   2.793   0.088  12.076  0.9140 -0.2963 -0.0439
  274TMC3    C1 4189   2.672   0.504  11.444  0.3786 -0.3268 -0.2673
  274TMC3    C2 4190   2.554   0.499  11.373  0.5677  0.1438  0.0482
  274TMC3    C3 4191   2.534   0.600  11.283 -0.3081 -0.3087 -0.0683
  274TMC3    C4 4192   2.761   0.608  11.428  0.1201  0.0800 -0.2907
  274TMC3    C5 4193   2.726   0.718  11.351  0.2718  0.1699  0.5646
  274TMC3    C6 4194   2.616   0.707  11.269 -0.3541 -0.4519  0.2959
  274TMC3     C 4195   2.697   0.429  11.573  0.2797 -0.0745  0.2627
  274TMC3     O 4196   2.802   0.453  11.625  0.7224  0.5932 -0.3403
  274TMC3     H 4197   2.479   0.423  11.388 -0.8366  1.4083 -0.5682
  274TMC3    H1 4198   2.856   0.613  11.480  0.1913 -0.7130 -0.3390
  274TMC3    H2 4199   2.583   0.795  11.215 -1.4005 -0.1852  1.3765
  274TMC3    C7 4200   2.734   0.851  11.402  0.1140 -0.5159  0.0674
  274TMC3    C8 4201   2.398   0.620  11.246  0.1831 -0.1385 -0.5106
  274TMC3    O1 4202   2.640   0.927  11.377 -0.3812 -0.2967 -0.2265
  274TMC3    O2 4203   2.312   0.572  11.312  0.4971  0.8567  0.0716
  275MPD2     C 4204   2.261   3.505  14.684 -0.2200 -0.4249  0.5997
  275MPD2    C1 4205   2.156   3.598  14.663  0.5407 -0.3228 -0.0015
  275MPD2    C2 4206   2.034   3.558  14.636  0.6412  1.0943 -0.9362
  275MPD2    C3 4207   2.006   3.424  14.609  1.0354  0.0224  0.0529
  275MPD2    C4 4208   2.104   3.333  14.642 -0.0580  0.0298  0.7776
  275MPD2    C5 4209   2.234   3.375  14.680 -0.8385  0.0678  0.7898
  275MPD2     H 4210   1.952   3.628  14.640 -1.3182 -1.0840 -3.1041
  275MPD2    H1 4211   2.080   3.228  14.645 -0.9487  0.3018  2.9020
  275MPD2    H2 4212   2.363   3.528  14.715  0.9589 -1.6631 -2.3656
  275MPD2    H3 4213   2.311   3.309  14.720  0.4917  1.5121  0.6262
  275MPD2     N 4214   1.874   3.375  14.587  0.2946  0.1474 -0.1062
  275MPD2    H5 4215   1.865   3.275  14.603  2.7261  0.0721  0.8233
  275MPD2    N1 4216   2.181   3.738  14.679 -0.5858  0.0113  0.1221
  275MPD2    H7 4217   2.095   3.791  14.670  1.8361  3.7447 -1.0713
  276TMC3    C1 4218   2.283   3.929  14.771  0.2174 -0.2908  0.3095
  276TMC3    C2 4219   2.154   3.967  14.797  0.3627 -0.1265 -0.0481
  276TMC3    C3 4220   2.126   4.037  14.917  0.2509  0.1437 -0.4372
  276TMC3    C4 4221   2.381   3.953  14.860 -0.8436  0.8240 -0.5146
  276TMC3    C5 4222   2.348   4.008  14.982  0.1956  0.9561 -0.3268
  276TMC3    C6 4223   2.227   4.059  15.005 -0.9534  0.2125 -0.1268
  276TMC3     C 4224   2.298   3.789  14.724  1.1058  0.0021  0.5388
  276TMC3     O 4225   2.400   3.740  14.758  0.1848  0.1411 -0.5212
  276TMC3     H 4226   2.066   3.940  14.741  0.1528  0.8662 -0.1975
  276TMC3    H1 4227   2.484   3.944  14.831 -0.5622 -0.7414  0.9602
  276TMC3    H2 4228   2.200   4.095  15.104  3.5589  1.6253  0.6303
  276TMC3    C7 4229   2.449   4.060  15.066 -0.1367 -0.2613 -0.2920
  276TMC3    C8 4230   2.017   3.976  14.982 -0.1356 -0.5395  0.3365
  276TMC3    O1 4231   2.429   4.161  15.134  0.2109 -0.1765 -0.0938
  276TMC3    O2 4232   1.928   4.044  15.027  0.4750 -0.7382  0.0927
  277MPD2     C 4233   4.006   2.614  13.540 -0.3491 -0.1142 -0.2832
  277MPD2    C1 4234   3.907   2.676  13.607 -0.3987  0.2141  0.2938
  277MPD2    C2 4235   3.840   2.611  13.711 -0.1126  0.0740 -1.2044
  277MPD2    C3 4236   3.866   2.479  13.734  0.1979  0.0747 -0.0647
  277MPD2    C4 4237   3.965   2.417  13.660  0.0497 -0.2205  0.4397
  277MPD2    C5 4238   4.030   2.484  13.570 -0.0773 -0.2900  0.0095
  277MPD2     H 4239   3.755   2.648  13.767 -0.0526 -1.1192 -0.3256
  277MPD2    H1 4240   3.990   2.312  13.653 -3.6000 -1.2287  2.4416
  277MPD2    H2 4241   4.061   2.654  13.456 -0.7219 -0.6174 -0.7634
  277MPD2    H3 4242   4.098   2.427  13.507 -0.2888 -0.8955  0.3311
  277MPD2     N 4243   3.769   2.414  13.818 -0.0069  0.0054 -0.2027
  277MPD2    H5 4244   3.689   2.469  13.849 -0.9750 -2.4780  1.7938
  277MPD2    N1 4245   3.867   2.810  13.571 -0.0505 -0.3494 -0.6259
  277MPD2    H7 4246   3.896   2.857  13.485 -1.0097  2.5892  0.6376
  278TMC3    C1 4247   3.695   2.253  13.966 -0.7428  0.2530 -0.0643
  278TMC3    C2 4248   3.661   2.117  13.943 -0.1998 -0.1931 -0.3091
  278TMC3    C3 4249   3.531   2.075  13.960 -0.3715 -0.3717  0.8135
  278TMC3    C4 4250   3.604   2.337  14.010  0.1382  0.7066  0.0402
  278TMC3    C5 4251   3.477   2.297  14.025  0.0169  0.4357  0.5277
  278TMC3    C6 4252   3.441   2.163  14.007 -0.0917 -0.3665  0.5064
  278TMC3     C 4253   3.800   2.294  13.878 -0.2718 -0.6100 -0.3466
  278TMC3     O 4254   3.897   2.220  13.858 -0.7312  0.1349 -0.2083
  278TMC3     H 4255   3.736   2.052  13.899 -0.2837 -0.8840  0.5721
  278TMC3    H1 4256   3.634   2.438  14.035 -0.3889  0.9022 -0.1173
  278TMC3    H2 4257   3.338   2.131  14.014  0.2273 -1.2113  1.4578
  278TMC3    C7 4258   3.381   2.400  14.033  0.1485 -1.0742  0.3353
  278TMC3    C8 4259   3.489   1.931  13.946  0.2017  0.3534 -0.4363
  278TMC3    O1 4260   3.418   2.505  13.985 -0.3291 -0.1720  0.2780
  278TMC3    O2 4261   3.583   1.854  13.960  0.2974 -0.2221  0.2642
  279MPD2     C 4262   3.130   3.323   0.167 -0.6886 -0.3244  0.6450
  279MPD2    C1 4263   3.057   3.222   0.115 -0.5370  0.2777  0.0702
  279MPD2    C2 4264   3.121   3.109   0.073 -0.6352 -0.1984 -0.3725
  279MPD2    C3 4265   3.256   3.092   0.082  0.7533  0.4449  0.5607
  279MPD2    C4 4266   3.331   3.197   0.135  0.1867  0.3361  0.4132
  279MPD2    C5 4267   3.265   3.313   0.175 -0.1981  0.5492 -0.7462
  279MPD2     H 4268   3.066   3.025   0.032  1.0183 -1.0537 -0.8540
  279MPD2    H1 4269   3.439   3.193   0.140  0.1244 -0.9559  1.0293
  279MPD2    H2 4270   3.084   3.419   0.189 -0.2364  0.5060 -2.0336
  279MPD2    H3 4271   3.323   3.399   0.205  5.2923 -3.4228  0.1441
  279MPD2     N 4272   3.329   2.984   0.023  0.4155  0.0759  0.2476
  279MPD2    H5 4273   3.429   2.995   0.017  0.3020 -0.1005 -1.8698
  279MPD2    N1 4274   2.915   3.248   0.086 -0.5604 -0.2518 -0.1045
  279MPD2    H7 4275   2.893   3.346   0.104 -3.3570 -0.7375 -0.9015
  280TMC3    C1 4276   2.707   3.218  17.734  0.0586  0.2028 -0.0163
  280TMC3    C2 4277   2.652   3.155  17.622  0.1964  0.2944 -0.5810
  280TMC3    C3 4278   2.571   3.237  17.553  0.2218 -0.0607  0.1872
  280TMC3    C4 4279   2.666   3.339   0.040  0.2363 -0.1371 -0.5113
  280TMC3    C5 4280   2.576   3.410  17.711  0.0007  0.5698  0.7908
  280TMC3    C6 4281   2.527   3.355  17.596  0.0205  0.0129 -1.0003
  280TMC3     C 4282   2.824   3.160   0.032 -0.7796 -0.2316 -0.5838
  280TMC3     O 4283   2.823   3.037   0.029 -0.8239  0.3204  0.0185
  280TMC3     H 4284   2.697   3.067  17.577  2.1025  0.5239  0.8740
  280TMC3    H1 4285   2.714   3.370   0.131 -0.8381  1.5941 -0.5437
  280TMC3    H2 4286   2.455   3.413  17.539  0.0951 -0.6638 -1.7753
  280TMC3    C7 4287   2.501   3.516   0.037  0.3175  0.9197  0.4194
  280TMC3    C8 4288   2.492   3.179  17.445 -0.5720  0.2571 -0.7304
  280TMC3    O1 4289   2.544   3.550   0.146 -0.4285 -0.0784 -0.0141
  280TMC3    O2 4290   2.439   3.266  17.377 -0.3551 -0.4661 -0.5114
  281TMC3    C1 4291   2.235   3.060  13.622 -0.4185 -1.1003 -0.1231
  281TMC3    C2 4292   2.285   3.127  13.514  0.2609  0.4938  0.2243
  281TMC3    C3 4293   2.323   3.046  13.408 -0.2727  0.6270  0.2832
  281TMC3    C4 4294   2.254   2.928  13.632  0.1194 -0.3127 -0.3915
  281TMC3    C5 4295   2.296   2.849  13.534 -0.1757 -0.0858 -0.5574
  281TMC3    C6 4296   2.339   2.915  13.421 -0.0798 -0.3745  0.1237
  281TMC3     C 4297   2.110   3.100  13.670  0.4598 -0.2115 -0.3423
  281TMC3     O 4298   2.039   3.002  13.694 -0.1861  0.1483 -0.2225
  281TMC3     H 4299   2.271   3.234  13.504  0.0577  0.5039  0.6455
  281TMC3    H1 4300   2.228   2.892  13.731 -0.6291  1.8436  0.1854
  281TMC3    H2 4301   2.352   2.860  13.328 -0.5086  2.6642 -1.7452
  281TMC3    C7 4302   2.236   2.717  13.524  0.1734 -0.3046  0.3877
  281TMC3    C8 4303   2.403   3.097  13.297  0.3000 -0.1330  0.3751
  281TMC3    O1 4304   2.255   2.670  13.412  0.4059 -0.0385  0.5671
  281TMC3    O2 4305   2.500   3.028  13.263 -0.2589  0.2446  0.1376
  282MPD2     C 4306   3.752   4.298  15.304  0.4150 -0.8675 -0.1587
  282MPD2    C1 4307   3.643   4.375  15.338 -0.0223 -0.0699 -0.7176
  282MPD2    C2 4308   3.549   4.407  15.242  0.1130 -0.1031 -0.0521
  282MPD2    C3 4309   3.564   4.373  15.115 -0.7307 -0.4867 -0.1477
  282MPD2    C4 4310   3.673   4.290  15.076  0.4267  0.2802 -0.5182
  282MPD2    C5 4311   3.766   4.259  15.172 -0.5466 -0.3925  0.6079
  282MPD2     H 4312   3.461   4.463  15.270 -1.0463  0.1399 -4.2122
  282MPD2    H1 4313   3.689   4.247  14.978  0.0820  1.9952 -1.3269
  282MPD2    H2 4314   3.832   4.286  15.375 -1.4548 -3.3790  1.5417
  282MPD2    H3 4315   3.850   4.202  15.134 -1.7007 -1.6927 -0.0275
  282MPD2     N 4316   3.469   4.399  15.020  0.6947 -0.1474 -0.3342
  282MPD2    H5 4317   3.390   4.455  15.051  2.9428  1.5447  2.2861
  282MPD2    N1 4318   3.610   4.410  15.475 -0.6474  0.2012 -0.1862
  282MPD2    H7 4319   3.519   4.453  15.492 -0.7851  0.0987 -0.6540
  283TMC3    C1 4320   3.635   4.426  15.710  0.3305  0.1841  0.0305
  283TMC3    C2 4321   3.628   4.560  15.728 -0.1569 -0.0147 -0.1849
  283TMC3    C3 4322   3.597   4.604  15.858  0.0163 -0.0798 -0.2871
  283TMC3    C4 4323   3.605   4.331  15.811  0.3811 -0.6075 -0.0211
  283TMC3    C5 4324   3.575   4.377  15.935  0.9674 -0.3727 -0.0336
  283TMC3    C6 4325   3.590   4.512  15.960  0.0606  0.4836 -0.1503
  283TMC3     C 4326   3.692   4.376  15.590 -0.0341 -0.9030  0.0701
  283TMC3     O 4327   3.788   4.301  15.597  0.8102 -0.0979 -0.6119
  283TMC3     H 4328   3.656   4.620  15.642 -6.3875  0.9556 -1.5500
  283TMC3    H1 4329   3.635   4.227  15.803  1.6734 -0.4304  2.3494
  283TMC3    H2 4330   3.562   4.552  16.057  1.5086  0.4427  0.2737
  283TMC3    C7 4331   3.449   4.332  15.987  0.9052 -0.5401  0.2280
  283TMC3    C8 4332   3.654   4.732  15.884 -0.1434  0.4961  0.1624
  283TMC3    O1 4333   3.420   4.367  16.099 -0.0399 -0.1203  0.0394
  283TMC3    O2 4334   3.707   0.002  15.993  0.2730  0.4543 -0.1751
  284MPD2     C 4335   2.082   3.222  12.488 -0.3084  0.6541 -0.2306
  284MPD2    C1 4336   1.984   3.303  12.437  0.3834  0.3902 -0.2759
  284MPD2    C2 4337   1.853   3.280  12.471  0.3574 -0.4368 -0.3124
  284MPD2    C3 4338   1.825   3.171  12.555 -0.4232  0.7503  0.3093
  284MPD2    C4 4339   1.928   3.090  12.605  0.1726  0.1913 -0.3895
  284MPD2    C5 4340   2.056   3.117  12.567 -0.1899 -0.2129  0.4061
  284MPD2     H 4341   1.774   3.333  12.419  1.4314  1.8141  0.3622
  284MPD2    H1 4342   1.899   3.008  12.670  0.5871  1.2592  1.1334
  284MPD2    H2 4343   2.187   3.236  12.467 -0.3998 -0.4975 -1.4256
  284MPD2    H3 4344   2.133   3.053  12.608  0.5286 -1.0350 -2.2093
  284MPD2     N 4345   1.689   3.126  12.580 -0.0173 -0.1336 -0.5194
  284MPD2    H5 4346   1.680   3.035  12.625 -1.3263  0.9085  1.3180
  284MPD2    N1 4347   2.027   3.417  12.355  0.1441 -0.4570  0.0248
  284MPD2    H7 4348   2.127   3.431  12.343  0.2568 -1.9683 -0.7595
  285TMC3    C1 4349   2.028   3.595  12.200  0.0371  0.5420 -0.1142
  285TMC3    C2 4350   2.158   3.556  12.166  0.2515  0.2864  0.3872
  285TMC3    C3 4351   2.234   3.658  12.116 -0.3607 -0.5578  0.4457
  285TMC3    C4 4352   1.979   3.721  12.171  0.0401 -0.5517 -1.1666
  285TMC3    C5 4353   2.063   3.819  12.130  0.3228 -0.8669  0.8017
  285TMC3    C6 4354   2.189   3.786  12.098 -0.1628 -0.0463  0.0469
  285TMC3     C 4355   1.942   3.505  12.286 -0.0206  0.8870 -0.0494
  285TMC3     O 4356   1.823   3.522  12.298  0.5131 -0.3121  0.2034
  285TMC3     H 4357   2.205   3.461  12.187 -0.2510  0.1288  0.7985
  285TMC3    H1 4358   1.881   3.737  12.214  1.6091  0.5406  2.0616
  285TMC3    H2 4359   2.255   3.863  12.060 -0.7101  0.1441 -0.5081
  285TMC3    C7 4360   2.018   3.926  12.044 -0.1579  0.4656  0.6692
  285TMC3    C8 4361   2.352   3.619  12.028  0.6440 -0.1003  0.6811
  285TMC3    O1 4362   2.092   4.018  12.036 -0.0716  0.3016  0.1706
  285TMC3    O2 4363   2.433   3.713  12.011 -0.0296  0.3590  0.1720
  286MPD2     C 4364   2.233   2.314   1.509  0.2412 -0.1911  0.1243
  286MPD2    C1 4365   2.179   2.206   1.445 -0.0204  0.0926 -0.2104
  286MPD2    C2 4366   2.233   2.078   1.469  0.2402 -0.0992  0.1219
  286MPD2    C3 4367   2.348   2.057   1.544 -0.0181  0.3128 -0.1064
  286MPD2    C4 4368   2.396   2.165   1.611  0.7128 -0.7729 -0.1007
  286MPD2    C5 4369   2.341   2.289   1.596 -0.0919  0.3273 -1.0512
  286MPD2     H 4370   2.192   1.993   1.416  2.8000 -0.8145 -0.7382
  286MPD2    H1 4371   2.479   2.160   1.679 -0.6464 -0.9415  1.5529
  286MPD2    H2 4372   2.214   2.419   1.490  0.2793 -0.7790 -3.1715
  286MPD2    H3 4373   2.384   2.371   1.652  0.8613 -0.7893 -0.1385
  286MPD2     N 4374   2.418   1.935   1.561 -0.2100  0.1492 -0.1640
  286MPD2    H5 4375   2.498   1.938   1.623  1.0529 -0.2767 -1.7917
  286MPD2    N1 4376   2.071   2.230   1.365 -0.0676 -0.5220  0.0394
  286MPD2    H7 4377   2.052   2.330   1.367 -0.6533 -0.6366  0.2083
  287TMC3    C1 4378   2.468   1.701   1.537 -0.1787 -0.4880 -0.0669
  287TMC3    C2 4379   2.478   1.601   1.450  0.3010  0.0531 -0.8384
  287TMC3    C3 4380   2.565   1.495   1.477 -0.0518  0.4624 -0.0420
  287TMC3    C4 4381   2.550   1.712   1.644  0.4029 -0.0973  0.1973
  287TMC3    C5 4382   2.637   1.609   1.673 -0.5445  0.1672 -0.3004
  287TMC3    C6 4383   2.642   1.496   1.598  0.4546  0.3077  0.1125
  287TMC3     C 4384   2.388   1.817   1.497 -0.3040 -0.6492  0.2986
  287TMC3     O 4385   2.312   1.797   1.409  0.0410  0.1281 -0.6123
  287TMC3     H 4386   2.422   1.599   1.357  1.2042 -2.3452 -1.3373
  287TMC3    H1 4387   2.546   1.796   1.712  1.5117 -0.3540  0.5804
  287TMC3    H2 4388   2.719   1.421   1.611  0.6394  0.5002  0.1293
  287TMC3    C7 4389   2.748   1.638   1.773  0.2789  0.4128 -0.1828
  287TMC3    C8 4390   2.522   1.374   1.414  0.2322 -0.1613 -0.0264
  287TMC3    O1 4391   2.750   1.749   1.822 -0.6466 -0.0325  0.2921
  287TMC3    O2 4392   2.404   1.364   1.381  0.6434  0.5976  0.1048
  288TMC3    C1 4393   3.859   2.261  14.615  0.2466 -0.4540 -0.1325
  288TMC3    C2 4394   3.782   2.276  14.723 -0.2718 -0.0429  1.1511
  288TMC3    C3 4395   3.800   2.390  14.803 -0.7736 -0.4068 -0.5999
  288TMC3    C4 4396   3.941   2.367  14.569 -0.3383  0.3784  0.4333
  288TMC3    C5 4397   3.960   2.477  14.649  0.2355 -0.0937  0.4330
  288TMC3    C6 4398   3.888   2.485  14.768  0.0555  0.1594  0.2978
  288TMC3     C 4399   3.832   2.146  14.527  0.2808  0.5752  1.0381
  288TMC3     O 4400   3.786   2.046  14.580  0.1389  0.6065 -0.4125
  288TMC3     H 4401   3.696   2.211  14.738 -0.5915 -0.0665 -0.7557
  288TMC3    H1 4402   4.002   2.353  14.481  0.4133  0.9490  0.8635
  288TMC3    H2 4403   3.896   2.577  14.825 -1.3912  0.2893  0.3002
  288TMC3    C7 4404   4.061   2.579  14.623  0.2607 -0.6382  0.6435
  288TMC3    C8 4405   3.720   2.424  14.916  0.1558  0.1994 -0.5888
  288TMC3    O1 4406   4.085   2.661  14.714 -0.9279  0.3884 -0.7903
  288TMC3    O2 4407   3.733   2.540  14.963  0.7793  0.5899  0.0242
  289MPD2     C 4408   3.917   1.516  15.030  0.2307 -0.2751  0.4629
  289MPD2    C1 4409   3.907   1.630  14.950 -0.0529 -0.1330  0.0441
  289MPD2    C2 4410   3.819   1.630  14.840  0.1876 -0.2277  0.0269
  289MPD2    C3 4411   3.736   1.523  14.815  0.3183 -0.0032 -0.8273
  289MPD2    C4 4412   3.746   1.412  14.895  0.1767 -0.2110 -0.1048
  289MPD2    C5 4413   3.837   1.411  14.998  0.3685 -0.1979  0.5234
  289MPD2     H 4414   3.817   1.720  14.779  2.3123 -0.2131 -0.0169
  289MPD2    H1 4415   3.685   1.324  14.888  0.4595 -0.3766 -0.5214
  289MPD2    H2 4416   3.983   1.507  15.115  1.8324  0.4871 -0.6746
  289MPD2    H3 4417   3.842   1.329  15.069  3.1877 -1.7146 -1.3754
  289MPD2     N 4418   3.659   1.536  14.700 -0.6341 -0.4581 -0.2803
  289MPD2    H5 4419   3.659   1.633  14.668 -2.2712 -0.1121  0.7503
  289MPD2    N1 4420   3.987   1.741  14.979 -0.2594  0.0785 -0.2168
  289MPD2    H7 4421   4.065   1.701  15.030 -0.7288  0.5703  0.8871
  290TMC3    C1 4422   3.514   1.479  14.529  0.2427 -0.2547  0.7775
  290TMC3    C2 4423   3.473   1.607  14.520 -0.3664  0.4085  1.0458
  290TMC3    C3 4424   3.389   1.645  14.412  0.5929  0.1142 -0.4361
  290TMC3    C4 4425   3.473   1.378  14.443 -0.6327 -1.0012 -0.7997
  290TMC3    C5 4426   3.384   1.417  14.345  0.6161  0.6511  0.0985
  290TMC3    C6 4427   3.351   1.550  14.325 -0.1396 -0.5019  0.5562
  290TMC3     C 4428   3.589   1.434  14.639 -0.6328 -0.2947  0.2333
  290TMC3     O 4429   3.596   1.314  14.666  0.0312 -0.1232 -0.9297
  290TMC3     H 4430   3.496   1.674  14.602 -2.0616 -1.1370  2.7847
  290TMC3    H1 4431   3.515   1.279  14.452  1.4292  0.0790  1.3396
  290TMC3    H2 4432   3.292   1.588  14.243  0.9701  0.4090  0.1792
  290TMC3    C7 4433   3.321   1.325  14.261  0.7730 -0.2726 -0.7838
  290TMC3    C8 4434   3.392   1.783  14.369 -0.3937  0.0637  0.2958
  290TMC3    O1 4435   3.265   1.377  14.167  0.4227 -0.2018  0.8628
  290TMC3    O2 4436   3.388   1.812  14.252 -0.5868 -0.3955  0.2116
  291MPD2     C 4437   3.192   1.234   1.082 -0.2586 -0.2523  0.5777
  291MPD2    C1 4438   3.252   1.145   0.996  0.2388  0.4124 -0.1472
  291MPD2    C2 4439   3.366   1.187   0.926  0.2243 -0.2918 -0.0970
  291MPD2    C3 4440   3.420   1.314   0.946 -0.5917 -0.4617 -0.2138
  291MPD2    C4 4441   3.359   1.392   1.047  0.7258  0.1968  0.0613
  291MPD2    C5 4442   3.237   1.358   1.104  0.1589  0.2948 -0.2481
  291MPD2     H 4443   3.428   1.118   0.869  0.4599  0.8736 -1.2591
  291MPD2    H1 4444   3.401   1.491   1.063  2.7551 -0.5609 -0.5103
  291MPD2    H2 4445   3.099   1.206   1.131 -1.1593  0.5393 -0.6572
  291MPD2    H3 4446   3.193   1.427   1.174 -0.5523 -0.6119  0.1955
  291MPD2     N 4447   3.541   1.359   0.901 -0.5885 -0.5218  0.0427
  291MPD2    H5 4448   3.576   1.445   0.940 -1.0926 -0.9015  1.3455
  291MPD2    N1 4449   3.188   1.017   0.974  0.0388  0.1762  0.5441
  291MPD2    H7 4450   3.114   0.988   1.038  1.2868 -1.0219  1.4390
  292TMC3    C1 4451   3.136   0.804   0.890  0.2167  1.0372 -0.5299
  292TMC3    C2 4452   3.096   0.772   1.014 -0.2463 -0.0554 -0.2341
  292TMC3    C3 4453   3.019   0.655   1.019  0.3937 -1.1288 -0.4504
  292TMC3    C4 4454   3.108   0.724   0.777  0.2860 -0.6501  0.2101
  292TMC3    C5 4455   3.027   0.621   0.797  0.7910  0.9372 -0.0893
  292TMC3    C6 4456   2.989   0.578   0.919 -0.2796  0.1527  0.6865
  292TMC3     C 4457   3.223   0.926   0.880  0.1304 -0.1890  0.2016
  292TMC3     O 4458   3.315   0.920   0.803  0.4828 -0.9098  0.3537
  292TMC3     H 4459   3.136   0.815   1.105 -1.5232  1.0381 -0.1781
  292TMC3    H1 4460   3.140   0.755   0.678  0.1914  0.7858  0.6291
  292TMC3    H2 4461   2.931   0.487   0.924 -1.9382  1.1846  0.2678
  292TMC3    C7 4462   2.981   0.540   0.686 -0.6130 -0.1693  0.1290
  292TMC3    C8 4463   2.986   0.614   1.159  0.3525 -0.2013 -0.3002
  292TMC3    O1 4464   3.069   0.519   0.606  0.0865 -0.3922  0.3999
  292TMC3    O2 4465   3.014   0.683   1.255  0.3859  0.6703  0.0125
  293MPD2     C 4466   4.680   2.689  13.002  0.1897 -0.5833 -0.7070
  293MPD2    C1 4467   4.641   2.614  13.114 -0.2494 -0.3785 -0.0428
  293MPD2    C2 4468   4.650   2.668  13.239  0.2935  0.2176  0.8052
  293MPD2    C3 4469   4.689   2.805  13.260 -0.3992  0.2792  0.1314
  293MPD2    C4 4470   4.725   2.881  13.149  0.2702  0.8970 -0.0767
  293MPD2    C5 4471   4.733   2.810  13.032  0.6997  0.7166 -0.7032
  293MPD2     H 4472   4.614   2.607  13.321 -0.3533 -1.0236 -0.3860
  293MPD2    H1 4473   0.033   2.979  13.150 -1.1951  1.5842  0.0879
  293MPD2    H2 4474   4.685   2.659  12.898 -1.5241  3.7480 -2.0255
  293MPD2    H3 4475   0.047   2.851  12.946  1.8564 -1.5485 -1.0939
  293MPD2     N 4476   4.689   2.861  13.389  0.5705  0.5342  0.2126
  293MPD2    H5 4477   4.659   2.806  13.469  0.3537  1.1774  0.5761
  293MPD2    N1 4478   4.611   2.476  13.102 -0.5065  0.2109  0.1720
  293MPD2    H7 4479   4.610   2.434  13.009  0.1226  0.6736 -0.0486
  294TMC3    C1 4480   4.570   2.259  13.131 -0.2225 -1.1897  0.1738
  294TMC3    C2 4481   4.456   2.190  13.151 -0.1454  0.4732  0.2582
  294TMC3    C3 4482   4.425   2.093  13.064  0.4286 -0.1825 -0.1436
  294TMC3    C4 4483   4.653   2.231  13.026  0.1331 -1.1122 -0.4134
  294TMC3    C5 4484   4.618   2.126  12.943 -0.6602 -0.2692  0.4390
  294TMC3    C6 4485   4.501   2.057  12.954 -0.2687  0.7094 -0.2470
  294TMC3     C 4486   4.563   2.391  13.193 -0.7838  0.1469  0.7334
  294TMC3     O 4487   4.503   2.404  13.297  0.5285 -0.1915 -0.5435
  294TMC3     H 4488   4.381   2.222  13.222  2.4836  0.0130  3.2467
  294TMC3    H1 4489   0.018   2.265  13.019 -0.7781  1.5293 -0.7391
  294TMC3    H2 4490   4.475   1.981  12.881  0.1365 -0.6607  1.0356
  294TMC3    C7 4491   4.718   2.071  12.854  0.2195 -0.6878  0.2434
  294TMC3    C8 4492   4.290   2.045  13.071 -0.3846  0.1342 -0.2334
  294TMC3    O1 4493   0.075   2.141  12.838 -0.1080  0.5716  0.1144
  294TMC3    O2 4494   4.234   2.059  13.180 -0.3884 -0.7543 -0.7710
  295MPD2     C 4495   1.182   1.376   0.998  0.3217 -0.4507  0.0849
  295MPD2    C1 4496   1.061   1.395   0.930 -0.0420 -0.7916  0.2184
  295MPD2    C2 4497   0.952   1.347   0.998  0.5557 -0.3637  0.0703
  295MPD2    C3 4498   0.952   1.293   1.127  0.3156  0.5794 -0.0858
  295MPD2    C4 4499   1.074   1.285   1.195  0.6909 -0.4600  0.1310
  295MPD2    C5 4500   1.184   1.325   1.122 -0.7208 -0.0959  0.5852
  295MPD2     H 4501   0.859   1.352   0.943  1.0992 -1.9522 -0.9810
  295MPD2    H1 4502   1.088   1.244   1.294  0.4183  0.3883  0.5209
  295MPD2    H2 4503   1.277   1.394   0.949 -1.2128 -1.7514 -3.3861
  295MPD2    H3 4504   1.274   1.308   1.180 -0.2023  1.3377  0.2060
  295MPD2     N 4505   0.844   1.258   1.207 -0.3170 -0.6143  0.0123
  295MPD2    H5 4506   0.871   1.217   1.297  0.2270 -1.1925 -0.4108
  295MPD2    N1 4507   1.051   1.450   0.799  0.1400 -0.1421  0.6815
  295MPD2    H7 4508   0.962   1.455   0.750  0.5103  0.2431  0.0553
  296TMC3    C1 4509   0.619   1.230   1.290  0.3485  0.3885  0.2520
  296TMC3    C2 4510   0.495   1.287   1.303 -0.7479  0.0005 -0.1592
  296TMC3    C3 4511   0.401   1.220   1.379 -0.0696  0.4406  0.4608
  296TMC3    C4 4512   0.637   1.102   1.332  0.1306  0.2940  0.5143
  296TMC3    C5 4513   0.533   1.034   1.404  0.5764  0.1297 -0.1406
  296TMC3    C6 4514   0.417   1.093   1.424 -0.6439 -0.3624 -0.2269
  296TMC3     C 4515   0.709   1.291   1.189  0.1326 -0.0862  0.1371
  296TMC3     O 4516   0.658   1.369   1.106 -0.2453  0.6745  0.4991
  296TMC3     H 4517   0.480   1.383   1.256 -1.7105 -0.7296 -1.3461
  296TMC3    H1 4518   0.729   1.046   1.320  0.2376  0.5450  0.1412
  296TMC3    H2 4519   0.335   1.035   1.465 -1.0075  0.1627 -0.2131
  296TMC3    C7 4520   0.567   0.896   1.449 -0.6437  0.2766  0.0148
  296TMC3    C8 4521   0.269   1.257   1.347  0.4025 -0.2307  0.7180
  296TMC3    O1 4522   0.658   0.848   1.386 -0.0040 -0.1804  0.1719
  296TMC3    O2 4523   0.186   1.173   1.312 -0.0154  0.1286  1.1068
  297MPD2     C 4524   2.412   3.097  16.244 -0.3175 -0.3461  0.9860
  297MPD2    C1 4525   2.439   3.182  16.138  0.3408 -0.2956 -0.1999
  297MPD2    C2 4526   2.563   3.243  16.130  0.0998  0.1859 -0.2252
  297MPD2    C3 4527   2.665   3.212  16.224  0.0221  0.5397 -0.9735
  297MPD2    C4 4528   2.629   3.124  16.326  0.4719 -0.6309  0.1838
  297MPD2    C5 4529   2.502   3.078  16.343  0.1394  0.3234 -0.2376
  297MPD2     H 4530   2.583   3.320  16.056  1.3285 -0.1968 -0.2888
  297MPD2    H1 4531   2.705   3.095  16.398  1.1972  1.2919  0.2026
  297MPD2    H2 4532   2.316   3.046  16.251 -0.5202 -0.3246 -1.4943
  297MPD2    H3 4533   2.469   3.012  16.424 -2.6474  2.9530  0.7952
  297MPD2     N 4534   2.784   3.283  16.219 -0.0990 -0.7109  0.1305
  297MPD2    H5 4535   2.791   3.344  16.139 -1.4670 -1.4921 -0.5808
  297MPD2    N1 4536   2.345   3.213  16.034 -0.1526 -0.0737  0.1392
  297MPD2    H7 4537   2.373   3.283  15.967 -1.4592 -1.3197 -1.7178
  298TMC3    C1 4538   2.142   3.230  15.928 -0.6482 -0.2107  0.1084
  298TMC3    C2 4539   2.210   3.256  15.819 -0.4906 -0.3846 -0.5963
  298TMC3    C3 4540   2.182   3.366  15.745  0.4527 -0.4995 -0.4395
  298TMC3    C4 4541   2.042   3.312  15.967 -1.0494  0.4223  0.8190
  298TMC3    C5 4542   2.014   3.422  15.906 -0.0652 -0.0504 -0.5143
  298TMC3    C6 4543   2.080   3.454  15.791 -0.0593  0.4507 -0.3888
  298TMC3     C 4544   2.213   3.163  16.036  0.1676 -0.6990 -0.6005
  298TMC3     O 4545   2.147   3.120  16.129 -0.0812 -0.1360  0.1838
  298TMC3     H 4546   2.283   3.185  15.782  0.1626 -1.0088  1.8623
  298TMC3    H1 4547   2.003   3.297  16.067 -2.4609 -1.9899 -0.0970
  298TMC3    H2 4548   2.053   3.542  15.734 -1.9768 -0.8155 -1.4250
  298TMC3    C7 4549   1.933   3.521  15.980 -0.8585  0.2022 -0.2770
  298TMC3    C8 4550   2.285   3.402  15.656  0.0838  0.0298 -0.1531
  298TMC3    O1 4551   1.873   3.481  16.082 -0.2747 -0.4464  0.0899
  298TMC3    O2 4552   2.382   3.328  15.654 -0.7324 -0.0597  0.1438
  299MPD2     C 4553   3.361   2.378  10.995 -0.2523  0.3702  0.0351
  299MPD2    C1 4554   3.353   2.504  10.962 -0.0307  0.0402 -0.3468
  299MPD2    C2 4555   3.278   2.540  10.848 -0.5441  0.0264  0.0075
  299MPD2    C3 4556   3.205   2.449  10.780 -0.5807 -0.4026 -0.5124
  299MPD2    C4 4557   3.215   2.319  10.816  0.2207 -0.1725 -0.6922
  299MPD2    C5 4558   3.295   2.283  10.922  1.3699  0.1256  0.1149
  299MPD2     H 4559   3.265   2.647  10.833  0.4017 -0.1870 -2.2186
  299MPD2    H1 4560   3.182   2.235  10.757  0.9780 -0.7141 -0.3470
  299MPD2    H2 4561   3.402   2.348  11.091  1.0075  1.8231 -0.0481
  299MPD2    H3 4562   3.289   2.180  10.954 -0.0981  0.2150  0.1199
  299MPD2     N 4563   3.119   2.481  10.669  0.4110 -0.0581  0.0785
  299MPD2    H5 4564   3.058   2.407  10.636 -2.6826  1.9490  1.2430
  299MPD2    N1 4565   3.404   2.603  11.054  0.3244  0.1944 -0.4314
  299MPD2    H7 4566   3.428   2.570  11.147  1.4484  0.4451 -0.6310
  300TMC3    C1 4567   2.950   2.613  10.575 -0.6412  0.2128 -0.2686
  300TMC3    C2 4568   2.904   2.732  10.522  0.1004 -0.0622  0.0461
  300TMC3    C3 4569   2.776   2.767  10.530 -0.2308  0.1095 -0.7161
  300TMC3    C4 4570   2.857   2.519  10.618 -0.0288  0.2886  0.1751
  300TMC3    C5 4571   2.726   2.556  10.623  0.9169  0.3795  0.0826
  300TMC3    C6 4572   2.682   2.680  10.581  0.3464 -0.6775  0.0907
  300TMC3     C 4573   3.089   2.604  10.622  0.2691 -0.1017  0.0423
  300TMC3     O 4574   3.161   2.702  10.611  0.0099  0.1996 -0.1956
  300TMC3     H 4575   2.980   2.805  10.493  0.1135  0.0664  0.3946
  300TMC3    H1 4576   2.885   2.424  10.662  2.3078  1.6296  1.6249
  300TMC3    H2 4577   2.579   2.706  10.604  1.4131  1.7769  2.0839
  300TMC3    C7 4578   2.655   2.496  10.739  0.0935 -0.3544  0.2258
  300TMC3    C8 4579   2.737   2.902  10.521 -0.4576  0.4903  0.5482
  300TMC3    O1 4580   2.635   2.379  10.722  0.3983  0.0145 -0.2036
  300TMC3    O2 4581   2.824   2.987  10.495  0.3839 -0.1579 -0.1902
  301MPD2     C 4582   0.456   3.806   1.942 -0.0938 -0.7871 -0.2412
  301MPD2    C1 4583   0.389   3.803   1.823  0.6417 -0.2028  0.3598
  301MPD2    C2 4584   0.381   3.683   1.746 -0.1679 -0.1933 -0.6457
  301MPD2    C3 4585   0.431   3.565   1.797  0.4069  0.2934  0.1463
  301MPD2    C4 4586   0.494   3.567   1.919  0.1853  0.2581 -0.1366
  301MPD2    C5 4587   0.505   3.687   1.986  0.3136  0.0726  0.5201
  301MPD2     H 4588   0.334   3.685   1.648 -0.4198 -0.0733 -0.5227
  301MPD2    H1 4589   0.541   3.482   1.967 -0.6741  1.1410  2.2529
  301MPD2    H2 4590   0.462   3.899   1.997  1.6417 -1.5054  0.7659
  301MPD2    H3 4591   0.560   3.691   2.079  3.0358 -0.5219 -1.0935
  301MPD2     N 4592   0.413   3.444   1.727 -0.5161 -0.1487  0.2357
  301MPD2    H5 4593   0.473   3.367   1.756  0.7736  0.3733 -1.0054
  301MPD2    N1 4594   0.310   3.908   1.772 -0.0114 -0.1950  0.0179
  301MPD2    H7 4595   0.252   3.883   1.693  1.8618 -0.3221 -1.3193
  302TMC3    C1 4596   0.347   3.315   1.546 -0.0309 -0.2141 -0.2032
  302TMC3    C2 4597   0.454   3.234   1.568 -0.0613 -0.1362  0.4529
  302TMC3    C3 4598   0.486   3.142   1.468  0.2483 -0.2981 -0.3092
  302TMC3    C4 4599   0.270   3.306   1.433 -0.1983 -0.2432  0.4112
  302TMC3    C5 4600   0.305   3.209   1.343 -0.2109 -0.8763 -0.3667
  302TMC3    C6 4601   0.420   3.139   1.351  0.1367  0.4434 -0.1546
  302TMC3     C 4602   0.322   3.426   1.630 -0.4491  0.5627 -0.1025
  302TMC3     O 4603   0.229   3.500   1.594 -0.1445  0.2969  0.3994
  302TMC3     H 4604   0.516   3.249   1.655  1.7048 -0.6229 -0.7113
  302TMC3    H1 4605   0.188   3.376   1.419 -0.8968 -1.2039 -0.3414
  302TMC3    H2 4606   0.456   3.077   1.270  0.7973  0.8104 -0.1436
  302TMC3    C7 4607   0.256   3.225   1.207 -0.0986 -0.3426  0.2557
  302TMC3    C8 4608   0.601   3.060   1.485  0.0965  0.2011 -0.1010
  302TMC3    O1 4609   0.317   3.165   1.117 -0.3029  0.4499 -0.4783
  302TMC3    O2 4610   0.655   3.018   1.381  0.4300 -0.2940  0.1577
  303MPD2     C 4611   1.101   2.928  11.135  0.3635  0.4536 -0.5054
  303MPD2    C1 4612   1.110   2.813  11.068  0.1786 -0.1133 -0.0953
  303MPD2    C2 4613   1.072   2.816  10.935 -0.0965 -0.7157  0.3011
  303MPD2    C3 4614   1.030   2.933  10.874 -0.6904 -0.1195 -0.2239
  303MPD2    C4 4615   1.049   3.054  10.942  0.1260 -0.1380 -0.4419
  303MPD2    C5 4616   1.072   3.045  11.075 -1.0726 -0.6472 -0.1140
  303MPD2     H 4617   1.071   2.729  10.871  0.3111 -0.3542 -0.1944
  303MPD2    H1 4618   1.023   3.148  10.895 -0.3762  0.4184  0.9517
  303MPD2    H2 4619   1.134   2.930  11.239 -1.3880 -0.1852  0.0733
  303MPD2    H3 4620   1.074   3.138  11.130 -2.6676 -0.6188 -0.1226
  303MPD2     N 4621   0.967   2.933  10.747 -0.8645  0.1516 -0.3706
  303MPD2    H5 4622   0.909   3.013  10.724  1.5757  1.9417 -0.3230
  303MPD2    N1 4623   1.132   2.694  11.136 -0.2874  0.4088 -0.7360
  303MPD2    H7 4624   1.140   2.704  11.236 -1.5377 -2.4118 -0.3324
  304TMC3    C1 4625   1.163   2.471  11.193 -0.5068 -0.4634 -0.1690
  304TMC3    C2 4626   1.085   2.493  11.303 -0.2231  0.5928 -0.1424
  304TMC3    C3 4627   1.062   2.388  11.387  0.4874  0.0298  0.2051
  304TMC3    C4 4628   1.211   2.345  11.157 -0.6711  0.9970  0.4474
  304TMC3    C5 4629   1.175   2.242  11.241 -0.0613  1.4149  0.6817
  304TMC3    C6 4630   1.114   2.264  11.365  0.3515 -0.6078  0.2451
  304TMC3     C 4631   1.153   2.568  11.084 -0.5113  0.4945  0.3422
  304TMC3     O 4632   1.153   2.530  10.966 -0.5910  0.1330 -0.1436
  304TMC3     H 4633   1.027   2.583  11.325  0.4376  0.8283  0.6424
  304TMC3    H1 4634   1.243   2.328  11.055  0.8590  0.2281  1.0464
  304TMC3    H2 4635   1.098   2.179  11.430 -1.6545  0.7293  1.4728
  304TMC3    C7 4636   1.120   2.133  11.169 -0.1142  0.6296 -0.3422
  304TMC3    C8 4637   0.926   2.379  11.440  0.0565 -0.1086 -0.2388
  304TMC3    O1 4638   1.033   2.061  11.225 -0.0459  0.3322 -0.5291
  304TMC3    O2 4639   0.883   2.478  11.494 -0.0882  0.1116 -0.1622
  305MPD2     C 4640   3.246   4.476  14.329  0.2027 -0.6695 -0.3793
  305MPD2    C1 4641   3.377   4.507  14.297  0.6098  0.6073  0.2924
  305MPD2    C2 4642   3.419   4.508  14.163 -1.1289  0.0934  0.2211
  305MPD2    C3 4643   3.337   4.467  14.061  0.5010 -0.7820 -0.0945
  305MPD2    C4 4644   3.205   4.437  14.098 -0.1438  1.0692 -0.9029
  305MPD2    C5 4645   3.161   4.448  14.225  0.0801  1.2647  0.2114
  305MPD2     H 4646   3.518   4.544  14.138 -2.6594  3.5948 -0.8725
  305MPD2    H1 4647   3.135   4.412  14.018 -2.3223  2.4386  0.5666
  305MPD2    H2 4648   3.201   4.496  14.425  1.7879  2.5107 -0.2826
  305MPD2    H3 4649   3.055   4.437  14.247 -0.2341 -0.0261 -1.9605
  305MPD2     N 4650   3.373   4.459  13.925 -0.4170  0.3071 -0.3368
  305MPD2    H5 4651   3.306   4.399  13.878 -1.3830  1.1965 -0.0754
  305MPD2    N1 4652   3.458   4.559  14.401 -0.0463 -0.4305 -0.9510
  305MPD2    H7 4653   3.419   4.566  14.494  1.4212 -0.1050 -0.3451
  306TMC3    C1 4654   3.659   4.592  14.512  0.7546 -0.3324 -0.2258
  306TMC3    C2 4655   3.788   4.536  14.524  0.0727  0.4774  0.1086
  306TMC3    C3 4656   3.857   4.553  14.638  0.0740 -0.4057  0.0213
  306TMC3    C4 4657   3.595   4.658  14.614  0.6744 -0.2274  0.0406
  306TMC3    C5 4658   3.670   4.667  14.731 -0.0957 -0.3988  0.4719
  306TMC3    C6 4659   3.797   4.612  14.751 -0.0470  0.3469 -0.4566
  306TMC3     C 4660   3.595   4.576  14.385 -0.0990 -0.7167  0.2201
  306TMC3     O 4661   3.674   4.566  14.291  0.2642 -0.5056 -0.3203
  306TMC3     H 4662   3.833   4.487  14.438  0.8493  1.1276  0.1423
  306TMC3    H1 4663   3.508   4.721  14.600 -0.5677 -1.8595  0.3390
  306TMC3    H2 4664   3.845   4.604  14.848 -1.5697 -0.7305  0.1928
  306TMC3    C7 4665   3.597   4.704  14.850  0.2999  0.7187  0.0903
  306TMC3    C8 4666   3.966   4.459  14.653  0.2777 -0.4336 -0.1712
  306TMC3    O1 4667   3.474   4.689  14.849  0.3483 -0.4500  0.3802
  306TMC3    O2 4668   3.970   4.369  14.568  0.0532  0.5205  0.4828
  307MPD2     C 4669   1.381   2.461   0.510  0.4025  0.5826  0.3217
  307MPD2    C1 4670   1.384   2.593   0.496  0.1284  0.2339  0.4544
  307MPD2    C2 4671   1.336   2.667   0.607  0.2803  0.3780 -0.0487
  307MPD2    C3 4672   1.267   2.609   0.714 -0.4737  0.1816  0.7433
  307MPD2    C4 4673   1.265   2.473   0.716  0.2845 -0.7849  0.4394
  307MPD2    C5 4674   1.313   2.406   0.615  0.2650 -0.5662 -0.5230
  307MPD2     H 4675   1.337   2.775   0.607 -1.3227  0.3814  0.2166
  307MPD2    H1 4676   1.220   2.413   0.795 -0.3038 -1.3542 -0.3229
  307MPD2    H2 4677   1.408   2.392   0.431  0.4340 -0.2933  1.0980
  307MPD2    H3 4678   1.289   2.301   0.604 -1.6281 -0.3181  1.1981
  307MPD2     N 4679   1.193   2.682   0.805  0.3021 -0.2070 -0.3115
  307MPD2    H5 4680   1.203   2.782   0.792  0.6539 -0.2172 -0.1169
  307MPD2    N1 4681   1.429   2.660   0.382  0.4664 -0.1938  0.0970
  307MPD2    H7 4682   1.413   2.760   0.386  1.6899 -0.0224  0.6461
  308TMC3    C1 4683   0.900   2.773   1.141  0.1033  0.1896  0.4905
  308TMC3    C2 4684   0.992   2.835   1.223 -0.2666  0.0470 -0.0166
  308TMC3    C3 4685   1.120   2.848   1.174 -0.4653  0.3346  0.0181
  308TMC3    C4 4686   0.933   2.714   1.028 -0.9776  0.7216 -0.1254
  308TMC3    C5 4687   1.057   2.730   0.976  0.8604 -0.1113  0.5337
  308TMC3    C6 4688   1.147   2.795   1.057  0.8870 -0.1072  0.5285
  308TMC3     C 4689   0.782   2.728   1.204  0.0568  0.0688 -0.0187
  308TMC3     O 4690   0.792   2.677   1.318  0.1558 -0.0795 -0.3892
  308TMC3     H 4691   0.960   2.879   1.317  0.9059  2.6512 -0.8423
  308TMC3    H1 4692   0.856   2.653   0.982  0.4846 -0.2495 -1.2984
  308TMC3    H2 4693   1.245   2.806   1.012 -0.4598 -0.6128 -2.4936
  308TMC3    C7 4694   1.110   2.629   0.903 -0.4812 -1.0303 -0.2426
  308TMC3    C8 4695   1.194   2.968   1.216  0.2818 -0.3960 -0.3964
  308TMC3    O1 4696   1.091   2.519   0.945 -0.0952  0.7441  0.4793
  308TMC3    O2 4697   1.165   3.001   1.332 -0.4721 -0.5074  0.2252
  309MPD2     C 4698   0.528   3.175  17.327 -0.1033  0.5632  0.2141
  309MPD2    C1 4699   0.438   3.230  17.233  0.7240 -0.4667 -0.1130
  309MPD2    C2 4700   0.322   3.291  17.275 -1.5221  0.0042 -0.1415
  309MPD2    C3 4701   0.275   3.273  17.410  0.2991 -0.4828  0.1859
  309MPD2    C4 4702   0.365   3.219  17.495 -0.8099 -0.3895 -0.0668
  309MPD2    C5 4703   0.481   3.166  17.454  0.8823 -0.4036  0.1121
  309MPD2     H 4704   0.267   3.345  17.199 -0.6975 -0.7157 -1.2502
  309MPD2    H1 4705   0.346   3.202  17.601 -0.1744 -0.9546 -0.0466
  309MPD2    H2 4706   0.623   3.128  17.302  0.0519  0.5040  0.9108
  309MPD2    H3 4707   0.554   3.127  17.524  0.0639 -0.7611  0.7711
  309MPD2     N 4708   0.147   3.324  17.448  0.6210 -0.1638  0.2137
  309MPD2    H5 4709   0.088   3.370  17.379  0.6295  0.8698  0.8863
  309MPD2    N1 4710   0.472   3.246  17.096  0.5302  0.2257 -0.0106
  309MPD2    H7 4711   0.399   3.287  17.038  0.5862 -0.8928 -0.8642
  310TMC3    C1 4712   0.621   3.246  16.908 -0.4581  0.9788  0.0953
  310TMC3    C2 4713   0.524   3.271  16.816  0.8653  0.1689  0.1577
  310TMC3    C3 4714   0.548   3.257  16.684 -0.5592 -0.0087 -0.0168
  310TMC3    C4 4715   0.744   3.200  16.870 -0.2312 -0.0073 -0.7852
  310TMC3    C5 4716   0.766   3.192  16.734 -0.7295  0.2098  0.1155
  310TMC3    C6 4717   0.669   3.211  16.644 -0.5957 -0.2917 -0.3480
  310TMC3     C 4718   0.592   3.210  17.041  0.0379  0.3860  0.6844
  310TMC3     O 4719   0.688   3.150  17.094  0.5375 -0.0458 -0.0315
  310TMC3     H 4720   0.421   3.289  16.847  1.8760  0.8371  3.1671
  310TMC3    H1 4721   0.828   3.185  16.937 -0.2135  2.2365 -0.2763
  310TMC3    H2 4722   0.694   3.193  16.540  1.4369 -2.0046  0.4448
  310TMC3    C7 4723   0.874   3.099  16.698 -0.6997 -0.1365 -0.4576
  310TMC3    C8 4724   0.458   3.301  16.583  0.3427 -0.1581 -0.3948
  310TMC3    O1 4725   0.920   3.028  16.788  0.0625  0.2957 -0.4284
  310TMC3    O2 4726   0.511   3.311  16.468  0.8850 -0.6710  0.2487
  311MPD2     C 4727   2.874   4.055  12.691  0.3119  0.0642 -0.3504
  311MPD2    C1 4728   2.918   4.072  12.820 -0.7867 -0.0076  0.3463
  311MPD2    C2 4729   2.833   4.060  12.931  0.2762 -0.0435 -0.3251
  311MPD2    C3 4730   2.700   4.021  12.911  0.1557 -0.9790  0.5965
  311MPD2    C4 4731   2.659   3.995  12.777 -0.4020  0.2668 -0.5801
  311MPD2    C5 4732   2.751   4.003  12.673 -0.3245  0.1728  0.4381
  311MPD2     H 4733   2.865   4.092  13.030 -0.5535  0.5035 -0.2307
  311MPD2    H1 4734   2.560   3.964  12.747 -0.8644 -0.0618  1.2977
  311MPD2    H2 4735   2.940   4.075  12.608  0.8637 -0.3253 -0.0094
  311MPD2    H3 4736   2.727   3.976  12.571  1.3454 -0.0060  0.0812
  311MPD2     N 4737   2.612   4.014  13.020  1.1651 -0.3842  0.4200
  311MPD2    H5 4738   2.634   4.052  13.112  2.9355  1.9064 -0.9729
  311MPD2    N1 4739   3.034   4.136  12.848  0.0824  0.2849  0.7096
  311MPD2    H7 4740   3.050   4.151  12.947 -0.4795  1.0701  0.6816
  312TMC3    C1 4741   2.402   3.996  13.108 -0.0845  1.0247 -0.9463
  312TMC3    C2 4742   2.275   3.957  13.095  1.0054  0.1584  0.1365
  312TMC3    C3 4743   2.181   4.028  13.153  0.2027  0.3498  0.0145
  312TMC3    C4 4744   2.431   4.107  13.180  0.3063 -0.5618  0.1422
  312TMC3    C5 4745   2.331   4.178  13.239 -0.3452 -0.5251 -0.1483
  312TMC3    C6 4746   2.202   4.142  13.221  0.3622 -0.1192  0.1027
  312TMC3     C 4747   2.498   3.945  13.012  0.4375 -0.2647  0.0926
  312TMC3     O 4748   2.460   3.860  12.933  0.6259 -0.4936 -0.6017
  312TMC3     H 4749   2.253   3.867  13.040 -2.1256  0.3491  1.0663
  312TMC3    H1 4750   2.532   4.146  13.185  1.7013 -3.9056 -1.7520
  312TMC3    H2 4751   2.121   4.189  13.275 -0.1223 -1.9857  0.9973
  312TMC3    C7 4752   2.370   4.277  13.336  0.3643 -0.4826 -0.1199
  312TMC3    C8 4753   2.048   3.990  13.124 -0.6106 -0.2165 -0.1469
  312TMC3    O1 4754   2.483   4.327  13.327 -0.1252  0.3245  0.7365
  312TMC3    O2 4755   2.020   3.873  13.108  0.3503  0.2810 -0.3933
  313MPD2     C 4756   1.959   3.262  11.718 -0.0704 -0.7618  0.0643
  313MPD2    C1 4757   2.037   3.328  11.619  0.3471 -0.0095 -0.3559
  313MPD2    C2 4758   2.106   3.252  11.527 -0.0111  0.2938  0.1151
  313MPD2    C3 4759   2.090   3.114  11.516 -0.3607  0.4062 -0.3231
  313MPD2    C4 4760   2.026   3.049  11.627 -0.2782  0.6858 -0.7570
  313MPD2    C5 4761   1.964   3.125  11.721  0.1677 -0.4671  0.3275
  313MPD2     H 4762   2.159   3.311  11.453 -0.3906 -0.4502 -0.7415
  313MPD2    H1 4763   2.006   2.943  11.631  0.0566  0.6685  0.5859
  313MPD2    H2 4764   1.899   3.316  11.790  0.1788  0.3278 -0.5457
  313MPD2    H3 4765   1.922   3.064  11.800  1.5760 -0.6015  0.9659
  313MPD2     N 4766   2.146   3.052  11.408 -0.0149  0.3049 -0.3810
  313MPD2    H5 4767   2.172   3.109  11.328 -2.0989  2.2253  0.2800
  313MPD2    N1 4768   2.038   3.470  11.608  0.0890 -0.2795  0.1571
  313MPD2    H7 4769   2.115   3.509  11.555 -0.6431 -2.3210 -2.4015
  314TMC3    C1 4770   1.968   3.694  11.609  0.2709 -0.2339  0.4377
  314TMC3    C2 4771   2.099   3.726  11.572 -0.8694 -0.5240  0.2369
  314TMC3    C3 4772   2.119   3.798  11.458  0.4932  0.7000  0.7381
  314TMC3    C4 4773   1.864   3.729  11.527  0.5030  0.1364 -0.4335
  314TMC3    C5 4774   1.889   3.788  11.413  0.2763  0.4465 -0.1084
  314TMC3    C6 4775   2.012   3.831  11.376  0.6013  0.1422 -0.2532
  314TMC3     C 4776   1.953   3.562  11.669 -0.1725 -0.1446  0.0446
  314TMC3     O 4777   1.856   3.537  11.740 -0.2078 -0.3438 -0.6259
  314TMC3     H 4778   2.179   3.687  11.634 -2.4631  0.8380  3.1580
  314TMC3    H1 4779   1.767   3.685  11.546  0.5945  0.6280  1.1316
  314TMC3    H2 4780   2.032   3.878  11.281 -0.3390  3.2349  1.0878
  314TMC3    C7 4781   1.779   3.813  11.319  0.7779  0.3833  0.6452
  314TMC3    C8 4782   2.249   3.849  11.421 -0.3262 -0.5378 -1.1085
  314TMC3    O1 4783   1.682   3.745  11.341 -0.1169 -0.2156 -0.6203
  314TMC3    O2 4784   2.258   3.895  11.305  0.1127  0.1374  0.6361
  315MPD2     C 4785   1.809   3.033  17.428  0.2796  0.0563  0.3495
  315MPD2    C1 4786   1.829   3.090  17.550  0.0772 -0.1926 -0.8447
  315MPD2    C2 4787   1.783   3.223  17.575 -0.1974 -0.5585  0.2322
  315MPD2    C3 4788   1.724   3.297  17.472  0.0634  0.1418 -0.1037
  315MPD2    C4 4789   1.712   3.233  17.352  0.2335 -0.4333 -0.3256
  315MPD2    C5 4790   1.743   3.104  17.328 -0.2086  0.5241  0.1508
  315MPD2     H 4791   1.790   3.264  17.675 -1.1062 -0.8067  0.3950
  315MPD2    H1 4792   1.660   3.282  17.271 -1.5476 -0.7332  0.6400
  315MPD2    H2 4793   1.831   2.929  17.410  1.1927  0.3559 -0.2787
  315MPD2    H3 4794   1.716   3.058  17.234 -2.4084 -1.5314  1.7952
  315MPD2     N 4795   1.697   3.433  17.490 -0.1879  0.6423 -1.1344
  315MPD2    H5 4796   1.729   3.468  17.580  0.2177  1.5413 -1.6275
  315MPD2    N1 4797   1.877   3.005  17.655 -0.4402  0.2215  0.3979
  315MPD2    H7 4798   1.896   2.907  17.636  0.1461  0.5217 -0.5613
  316TMC3    C1 4799   1.665   3.661  17.420  0.3756 -0.3206 -0.3485
  316TMC3    C2 4800   1.763   3.695  17.512 -0.2775 -0.1571  0.5702
  316TMC3    C3 4801   1.794   3.827  17.515  0.3311 -0.3333 -0.1359
  316TMC3    C4 4802   1.626   3.747  17.319  0.0737 -0.1733  0.2590
  316TMC3    C5 4803   1.668   3.879  17.326 -0.6137 -0.2377 -0.4838
  316TMC3    C6 4804   1.754   3.920  17.423  0.4089 -0.1745 -0.3745
  316TMC3     C 4805   1.656   3.521  17.388 -0.3375 -0.5831  0.5640
  316TMC3     O 4806   1.598   3.499  17.282  0.0402  0.0535 -0.1370
  316TMC3     H 4807   1.822   3.625  17.569  0.4473 -2.4447 -3.0052
  316TMC3    H1 4808   1.543   3.726  17.252  0.7489 -1.4948 -0.1722
  316TMC3    H2 4809   1.789   4.021  17.441  3.2697 -1.4101  1.0907
  316TMC3    C7 4810   1.602   3.978  17.249  0.2779  0.3349 -0.7496
  316TMC3    C8 4811   1.883   3.870  17.617  0.4800 -0.5960 -0.2262
  316TMC3    O1 4812   1.595   4.094  17.293  0.0921  0.6170 -0.2492
  316TMC3    O2 4813   1.874   3.983  17.666 -0.1210 -0.1383  0.2731
  317MPD2     C 4814   3.373   1.578  13.322 -0.3770 -0.1825  0.0557
  317MPD2    C1 4815   3.419   1.447  13.307  0.5692 -0.4112  0.5910
  317MPD2    C2 4816   3.500   1.395  13.407  0.2704 -0.7589  0.0102
  317MPD2    C3 4817   3.543   1.467  13.515  0.4949  0.3241 -0.4415
  317MPD2    C4 4818   3.502   1.600  13.514  0.7566 -0.4451 -0.5299
  317MPD2    C5 4819   3.413   1.651  13.426 -0.6561  0.1913 -0.1550
  317MPD2     H 4820   3.540   1.295  13.396  0.0148 -1.0091  1.3186
  317MPD2    H1 4821   3.546   1.666  13.587 -0.1237  0.7936 -1.1201
  317MPD2    H2 4822   3.340   1.642  13.240 -2.4834 -2.1944 -0.6834
  317MPD2    H3 4823   3.377   1.753  13.439  0.1561  0.5161 -0.4561
  317MPD2     N 4824   3.631   1.401  13.605  0.2229  0.1510 -0.4808
  317MPD2    H5 4825   3.656   1.308  13.572  2.4431  0.5912 -0.0044
  317MPD2    N1 4826   3.398   1.375  13.182 -0.1369  0.3046  0.7030
  317MPD2    H7 4827   3.461   1.297  13.166  0.8314  1.2234  0.0129
  318TMC3    C1 4828   3.758   1.367  13.782 -0.3742  0.0581 -0.0081
  318TMC3    C2 4829   3.725   1.231  13.768 -0.4293 -0.0259  0.3868
  318TMC3    C3 4830   3.813   1.139  13.817 -0.0990  0.8592 -0.2030
  318TMC3    C4 4831   3.866   1.409  13.855  0.3576  0.0494 -0.1091
  318TMC3    C5 4832   3.948   1.315  13.902 -0.3495 -0.0978 -0.4773
  318TMC3    C6 4833   3.921   1.185  13.882 -0.9763  0.1156 -0.2602
  318TMC3     C 4834   3.693   1.461  13.709  0.3384  0.2758  0.3869
  318TMC3     O 4835   3.703   1.577  13.745 -0.1085 -0.1870  0.4947
  318TMC3     H 4836   3.628   1.203  13.729  0.2784 -1.4628 -0.3413
  318TMC3    H1 4837   3.888   1.515  13.861 -1.7688  0.5086 -0.4123
  318TMC3    H2 4838   3.992   1.113  13.920 -0.8000  1.4432  1.9272
  318TMC3    C7 4839   4.073   1.347  13.960  0.1867  0.1432 -0.6334
  318TMC3    C8 4840   3.812   0.999  13.779 -0.0884 -0.1274  0.0914
  318TMC3    O1 4841   4.072   1.450  14.024  0.0219  0.0617  0.1639
  318TMC3    O2 4842   3.901   0.931  13.828  0.3033 -0.0231 -0.7752
  319MPD2     C 4843   4.696   2.845  16.854  0.0389  1.1152 -0.2876
  319MPD2    C1 4844   4.591   2.834  16.944  0.9997 -0.5595  0.0788
  319MPD2    C2 4845   4.461   2.800  16.903 -0.3027 -0.1280 -0.4323
  319MPD2    C3 4846   4.429   2.803  16.769 -0.0453  0.0763  0.3288
  319MPD2    C4 4847   4.529   2.834  16.677  0.1654 -0.3544  0.2396
  319MPD2    C5 4848   4.659   2.853  16.721  0.6293  1.3895 -0.4677
  319MPD2     H 4849   4.387   2.782  16.980 -1.9064 -1.2474 -2.2101
  319MPD2    H1 4850   4.509   2.844  16.571 -0.0419 -1.9513  0.1423
  319MPD2    H2 4851   0.062   2.857  16.883  0.4156 -2.6263 -0.0465
  319MPD2    H3 4852   4.734   2.870  16.644  1.0845 -1.5386 -0.6826
  319MPD2     N 4853   4.297   2.793  16.717  0.0231 -0.1121 -0.3020
  319MPD2    H5 4854   4.289   2.782  16.616 -2.0533  1.7633 -0.3376
  319MPD2    N1 4855   4.608   2.846  17.081 -0.1722  0.3779  0.8242
  319MPD2    H7 4856   4.532   2.811  17.138 -0.1795  1.4402  1.4756
  320TMC3    C1 4857   4.065   2.748  16.722 -0.2912  0.0703 -0.5720
  320TMC3    C2 4858   4.067   2.792  16.598  0.5876 -0.0709 -0.0044
  320TMC3    C3 4859   3.963   2.752  16.520  0.0705 -0.1131  0.2919
  320TMC3    C4 4860   3.960   2.670  16.771  0.0707  0.2260 -0.1821
  320TMC3    C5 4861   3.870   2.619  16.682 -0.1245  0.8854 -0.2325
  320TMC3    C6 4862   3.865   2.665  16.555 -0.1132  0.2709 -0.6133
  320TMC3     C 4863   4.187   2.760  16.793  0.2953  1.2035 -0.1006
  320TMC3     O 4864   4.178   2.735  16.916  0.6051 -0.0271  0.4581
  320TMC3     H 4865   4.132   2.873  16.566  1.8316 -0.0194  2.6188
  320TMC3    H1 4866   3.969   2.628  16.870  0.3727  1.5944  0.3643
  320TMC3    H2 4867   3.783   2.634  16.490 -0.5550 -0.9457  0.5319
  320TMC3    C7 4868   3.856   2.474  16.677 -0.4550  0.8017 -0.3827
  320TMC3    C8 4869   3.962   2.819  16.388 -0.5258 -0.4928 -0.4141
  320TMC3    O1 4870   3.850   2.419  16.569 -0.4151 -0.8381  0.4065
  320TMC3    O2 4871   4.012   2.929  16.378 -0.1328 -0.2143  0.3941
  321TMC3    C1 4872   4.708   2.873  17.291 -0.3686 -0.1548 -0.0651
  321TMC3    C2 4873   4.656   2.761  17.348  0.0820 -0.0644 -0.1846
  321TMC3    C3 4874   4.666   2.745  17.485  0.7563  0.0804  0.1005
  321TMC3    C4 4875   0.049   2.959  17.364  0.6294  0.5693  0.2830
  321TMC3    C5 4876   0.068   2.932  17.495  0.7119 -0.1261 -0.8738
  321TMC3    C6 4877   4.733   2.839  17.563 -0.4342  0.8233  0.2449
  321TMC3     C 4878   4.722   2.884  17.151  0.5940  0.4350  0.4398
  321TMC3     O 4879   0.090   2.938  17.116  0.3403 -0.4977  0.0390
  321TMC3     H 4880   4.622   2.679  17.286  1.6933  0.1890 -1.3872
  321TMC3    H1 4881   0.084   3.049  17.316  0.4733  0.1634 -0.5907
  321TMC3    H2 4882   0.033   2.804  17.659 -1.5841  1.6647  0.9969
  321TMC3    C7 4883   0.209   2.898  17.512 -1.1226 -1.3326 -0.6086
  321TMC3    C8 4884   4.725   2.612  17.505 -0.0236 -0.3405 -0.6331
  321TMC3    O1 4885   0.250   2.882  17.625 -0.3030  0.1101  0.8341
  321TMC3    O2 4886   0.018   2.547  17.402 -0.0747  0.2640  0.4050
  322MPD2     C 4887   3.463   3.929  13.833 -0.5761 -0.0817  0.2310
  322MPD2    C1 4888   3.520   3.888  13.952 -0.6646  0.6334  0.3702
  322MPD2    C2 4889   3.602   3.778  13.942  0.4785  0.0118 -0.0847
  322MPD2    C3 4890   3.607   3.695  13.831  0.3729  0.1601  0.5165
  322MPD2    C4 4891   3.535   3.734  13.718  0.6874  0.0145 -0.5719
  322MPD2    C5 4892   3.479   3.857  13.721 -0.5274  0.0707 -0.3627
  322MPD2     H 4893   3.649   3.747  14.034 -0.7092  0.2830  0.6094
  322MPD2    H1 4894   3.522   3.685  13.622 -0.0572 -0.6153 -0.1515
  322MPD2    H2 4895   3.404   4.018  13.818 -2.8145 -1.3818  1.2338
  322MPD2    H3 4896   3.438   3.886  13.625  0.9571  0.8923 -0.7509
  322MPD2     N 4897   3.669   3.566  13.846  0.0954 -0.3939 -0.1348
  322MPD2    H5 4898   3.718   3.537  13.930  1.1853  1.4980 -0.1321
  322MPD2    N1 4899   3.509   3.958  14.074 -0.6006 -0.0865  0.1010
  322MPD2    H7 4900   3.574   3.918  14.141 -0.6061  0.7211  0.5800
  323TMC3    C1 4901   3.527   4.152  14.201  0.3519  1.0056  0.6510
  323TMC3    C2 4902   3.629   4.228  14.155  0.1250  0.4481  0.1672
  323TMC3    C3 4903   3.733   4.266  14.235 -0.0475  1.0148  0.0839
  323TMC3    C4 4904   3.531   4.101  14.326 -0.2958  0.1397 -0.2415
  323TMC3    C5 4905   3.632   4.145  14.407 -0.9100  0.6376  0.2288
  323TMC3    C6 4906   3.727   4.234  14.367  0.7641 -0.9408  0.1936
  323TMC3     C 4907   3.469   4.090  14.081  0.0277  0.0618 -0.1779
  323TMC3     O 4908   3.398   4.161  14.008  0.3988  0.1404 -0.2054
  323TMC3     H 4909   3.628   4.255  14.051  1.1011 -1.2148 -0.2754
  323TMC3    H1 4910   3.447   4.052  14.375  0.2177  0.9451  1.4414
  323TMC3    H2 4911   3.818   4.257  14.422 -0.0217  3.4492 -0.4056
  323TMC3    C7 4912   3.638   4.081  14.539  0.9735  0.4696  0.2751
  323TMC3    C8 4913   3.865   4.295  14.172 -0.9118 -0.1508  0.6511
  323TMC3    O1 4914   3.573   3.979  14.553 -0.4140 -0.4721  0.1927
  323TMC3    O2 4915   3.962   4.252  14.231 -0.5713  0.2408  0.4476
  324MPD2     C 4916   0.692   0.659  14.526 -0.7908  0.8395  0.1396
  324MPD2    C1 4917   0.583   0.685  14.611  0.2608  0.0532  0.4120
  324MPD2    C2 4918   0.452   0.658  14.563 -0.2347 -0.6539  0.2487
  324MPD2    C3 4919   0.427   0.614  14.434  0.5201 -0.5722 -0.2367
  324MPD2    C4 4920   0.535   0.589  14.354  0.2798  0.2127  0.4846
  324MPD2    C5 4921   0.665   0.606  14.401 -0.2151 -0.0950 -0.7503
  324MPD2     H 4922   0.371   0.676  14.634  0.3326  1.2869  0.4093
  324MPD2    H1 4923   0.514   0.535  14.262  2.5333 -1.2089  0.8120
  324MPD2    H2 4924   0.795   0.665  14.557 -1.0897  0.7945  1.1398
  324MPD2    H3 4925   0.743   0.569  14.335 -1.6999 -1.9353 -1.4707
  324MPD2     N 4926   0.299   0.592  14.379 -0.3193  0.1121  0.1388
  324MPD2    H5 4927   0.290   0.553  14.286 -0.5512 -1.0149  0.6288
  324MPD2    N1 4928   0.612   0.715  14.749 -0.1339 -0.3183 -0.6621
  324MPD2    H7 4929   0.526   0.717  14.804 -0.5680  0.4835 -1.3799
  325TMC3    C1 4930   0.063   0.604  14.334 -0.9382 -0.6971  0.1217
  325TMC3    C2 4931   0.056   0.507  14.241 -0.6859  0.2154 -0.0838
  325TMC3    C3 4932   4.708   0.519  14.140 -0.5082 -0.2288 -0.1642
  325TMC3    C4 4933   4.716   0.713  14.335  0.5578  0.6066 -0.2183
  325TMC3    C5 4934   4.623   0.722  14.231  0.2291 -0.4981 -0.6002
  325TMC3    C6 4935   4.620   0.622  14.126  0.3772  0.1717  0.7741
  325TMC3     C 4936   0.173   0.623  14.429 -0.4625  0.4220 -0.0097
  325TMC3     O 4937   0.144   0.675  14.535 -0.1868 -0.3445 -0.2337
  325TMC3     H 4938   0.134   0.431  14.236  1.0083  1.8127  2.2348
  325TMC3    H1 4939   4.723   0.790  14.411 -0.7867  1.0980 -0.5826
  325TMC3    H2 4940   4.551   0.627  14.043  2.2999 -0.9107 -0.8699
  325TMC3    C7 4941   4.538   0.846  14.216 -0.3226  0.3208  1.2590
  325TMC3    C8 4942   4.685   0.393  14.062 -0.3574 -0.7519 -0.7940
  325TMC3    O1 4943   4.473   0.856  14.112  0.4604 -0.3330 -0.6201
  325TMC3    O2 4944   0.043   0.312  14.054 -0.2773  0.0697 -0.3936
  326MPD2     C 4945   2.041   0.835  11.620  0.2601  0.2476 -0.1573
  326MPD2    C1 4946   2.010   0.849  11.488 -0.1849 -0.1325 -0.7667
  326MPD2    C2 4947   2.096   0.898  11.406  0.9456  0.3669  0.0206
  326MPD2    C3 4948   2.221   0.938  11.445  0.0249 -0.5099  0.0058
  326MPD2    C4 4949   2.256   0.925  11.579 -0.2324  1.0194  0.1235
  326MPD2    C5 4950   2.163   0.881  11.668  1.1524  0.5827 -0.7246
  326MPD2     H 4951   2.064   0.913  11.303 -0.5949 -1.7772  0.1640
  326MPD2    H1 4952   2.353   0.960  11.613  1.7422 -0.6628 -3.8221
  326MPD2    H2 4953   1.973   0.780  11.684  2.4262 -2.6898 -0.3509
  326MPD2    H3 4954   2.191   0.865  11.771  2.7818  1.7994 -0.9838
  326MPD2     N 4955   2.312   1.013  11.366  0.1790 -0.5218  0.0038
  326MPD2    H5 4956   2.399   1.041  11.410  0.6274  0.1516 -1.3109
  326MPD2    N1 4957   1.891   0.797  11.431  0.2545  0.0372  0.5034
  326MPD2    H7 4958   1.903   0.764  11.335  0.9559  1.8692 -0.0261
  327TMC3    C1 4959   1.669   0.743  11.403  0.1891  0.1653  0.0416
  327TMC3    C2 4960   1.584   0.843  11.404  0.2769  0.5952 -0.0608
  327TMC3    C3 4961   1.584   0.933  11.295  0.8546 -0.1275 -0.5380
  327TMC3    C4 4962   1.717   0.708  11.278 -0.0301 -0.2679  0.3672
  327TMC3    C5 4963   1.693   0.785  11.164 -0.3186  0.6741 -0.1552
  327TMC3    C6 4964   1.643   0.911  11.176 -0.4405 -0.2286  0.4014
  327TMC3     C 4965   1.771   0.778  11.496 -0.7457  0.2539 -0.3079
  327TMC3     O 4966   1.733   0.846  11.592  0.1401 -0.0264 -0.2972
  327TMC3     H 4967   1.523   0.847  11.493  1.5022 -1.4071  0.8537
  327TMC3    H1 4968   1.762   0.609  11.275  1.1882  0.2949 -0.1689
  327TMC3    H2 4969   1.637   0.981  11.094  0.7771 -0.4075  0.1538
  327TMC3    C7 4970   1.782   0.779  11.046 -0.5505  1.1605 -0.5695
  327TMC3    C8 4971   1.585   1.076  11.335 -0.3126 -0.0867 -0.8618
  327TMC3    O1 4972   1.752   0.848  10.947 -0.3482  0.3646 -0.5561
  327TMC3    O2 4973   1.578   1.155  11.241  0.3716  0.4258 -0.1785
  328MPD2     C 4974   4.223   1.259  17.668  0.5495  0.1350 -0.5630
  328MPD2    C1 4975   4.171   1.153  17.603  0.7739  0.0397 -0.3672
  328MPD2    C2 4976   4.064   1.166  17.520  0.7095  0.3109 -0.0404
  328MPD2    C3 4977   3.997   1.289  17.521 -0.5604 -0.2154 -0.6537
  328MPD2    C4 4978   4.048   1.391  17.586 -0.0903 -0.4921 -0.4253
  328MPD2    C5 4979   4.169   1.384  17.653  0.4263  0.0051  0.0171
  328MPD2     H 4980   4.022   1.087  17.459 -1.5400  0.9601  0.6382
  328MPD2    H1 4981   3.991   1.483  17.599 -1.4773 -1.1869 -1.6076
  328MPD2    H2 4982   4.296   1.237  17.746  0.4156  0.8232 -0.2368
  328MPD2    H3 4983   4.213   1.463  17.713 -0.8027 -1.7748  3.2428
  328MPD2     N 4984   3.864   1.306  17.464 -0.5229  0.4990 -0.1740
  328MPD2    H5 4985   3.820   1.397  17.469 -2.6340 -0.5339 -0.1652
  328MPD2    N1 4986   4.220   1.027  17.641  0.1695 -0.6464 -0.1641
  328MPD2    H7 4987   4.298   1.029  17.706 -0.3723  0.2346  0.4635
  329TMC3    C1 4988   4.223   0.790  17.659  0.7886 -0.3099  0.2203
  329TMC3    C2 4989   4.235   0.801   0.048  0.0067  0.0130  0.2916
  329TMC3    C3 4990   4.256   0.677   0.113 -1.1293  0.5078  0.6147
  329TMC3    C4 4991   4.232   0.671  17.586  0.1189 -0.0276  1.1225
  329TMC3    C5 4992   4.253   0.554  17.659 -0.3228  0.1326  0.9670
  329TMC3    C6 4993   4.268   0.555   0.051 -0.4216 -0.1606  0.3979
  329TMC3     C 4994   4.175   0.907  17.586  0.4554 -0.1450  0.4413
  329TMC3     O 4995   4.117   0.886  17.484  0.1891  0.0561 -0.0399
  329TMC3     H 4996   4.232   0.897   0.097  0.1234  0.2192 -0.1091
  329TMC3    H1 4997   4.232   0.674  17.478 -0.6748  1.4084  1.1574
  329TMC3    H2 4998   4.278   0.460   0.103 -2.6692 -1.3601 -1.3465
  329TMC3    C7 4999   4.253   0.420  17.593 -0.7221  0.5644  0.1740
  329TMC3    C8 5000   4.251   0.672   0.259 -0.3945 -0.5860  0.8117
  329TMC3    O1 5001   4.316   0.327  17.647 -0.4124 -0.5343 -1.2284
  329TMC3    O2 5002   4.309   0.576   0.302 -0.0553 -0.0936  0.1530
  330TMC3    C1 5003   1.915   0.652  10.040  0.2540 -0.0491 -0.2119
  330TMC3    C2 5004   1.795   0.584  10.040 -0.4815  0.1654  0.4492
  330TMC3    C3 5005   1.794   0.461  10.103  0.4840  0.3188  0.6561
  330TMC3    C4 5006   2.022   0.598  10.101  0.3465  0.1243  0.3866
  330TMC3    C5 5007   2.014   0.476  10.161  0.4373 -0.5245  0.1670
  330TMC3    C6 5008   1.899   0.408  10.172  0.1119  0.3306 -0.3589
  330TMC3     C 5009   1.943   0.782   9.967  0.0334 -1.0762 -0.8618
  330TMC3     O 5010   2.052   0.833   9.981 -0.2622 -0.1622 -0.3421
  330TMC3     H 5011   1.701   0.623  10.004 -2.0555 -1.2011  3.1047
  330TMC3    H1 5012   2.118   0.646  10.087  0.0712 -0.0426 -2.2159
  330TMC3    H2 5013   1.912   0.311  10.218  0.0400  0.5449  0.1220
  330TMC3    C7 5014   2.109   0.453  10.270  0.1012  0.4346 -0.4598
  330TMC3    C8 5015   1.693   0.376  10.058  0.8599 -1.0003 -0.7137
  330TMC3    O1 5016   2.063   0.398  10.369  0.2068  0.3044 -0.2650
  330TMC3    O2 5017   1.625   0.420   9.967  0.2207  0.4792 -0.3772
  331MPD2     C 5018   1.389   0.184  12.366 -0.1785 -0.4403  0.3019
  331MPD2    C1 5019   1.259   0.220  12.338  0.3910 -0.1682  0.0414
  331MPD2    C2 5020   1.166   0.117  12.319 -0.6871 -0.6235  0.5887
  331MPD2    C3 5021   1.202   4.726  12.330  0.1519  0.1252 -0.3034
  331MPD2    C4 5022   1.333   4.699  12.364 -0.1527 -0.1484  1.0818
  331MPD2    C5 5023   1.426   0.060  12.393 -0.7030  0.0245 -0.1277
  331MPD2     H 5024   1.067   0.148  12.288  0.6251  1.0089 -1.9528
  331MPD2    H1 5025   1.371   4.598  12.373  1.4794  0.3598 -0.2047
  331MPD2    H2 5026   1.469   0.257  12.377  1.7837 -2.6177  0.5301
  331MPD2    H3 5027   1.528   0.034  12.419  0.4962  4.4726 -0.2474
  331MPD2     N 5028   1.101   4.626  12.311 -0.3132 -0.0862  0.3116
  331MPD2    H5 5029   1.011   4.653  12.273  0.2858 -1.8714 -2.3699
  331MPD2    N1 5030   1.227   0.354  12.312 -0.1333  0.3471  0.0876
  331MPD2    H7 5031   1.293   0.424  12.344 -0.2169 -0.3118  1.7022
  332TMC3    C1 5032   1.004   4.409  12.306  0.0275 -0.6329 -0.1714
  332TMC3    C2 5033   0.908   4.455  12.212 -0.3123  0.2589 -0.0956
  332TMC3    C3 5034   0.786   4.393  12.204  0.1094 -0.5750 -0.3596
  332TMC3    C4 5035   0.965   4.313  12.389 -0.1243  0.0591  0.2645
  332TMC3    C5 5036   0.837   4.265  12.384 -0.2174  0.1075 -0.0589
  332TMC3    C6 5037   0.752   4.292  12.287 -0.3338  0.2428 -0.6532
  332TMC3     C 5038   1.117   4.491  12.346  0.0657  0.4213 -0.1896
  332TMC3     O 5039   1.202   4.434  12.411 -0.2260 -0.2498  0.0125
  332TMC3     H 5040   0.943   4.533  12.146  0.7127 -1.7634 -1.9562
  332TMC3    H1 5041   1.040   4.288  12.463 -0.1459 -1.7365 -0.3058
  332TMC3    H2 5042   0.654   4.245  12.287  0.8630 -2.2165  3.8552
  332TMC3    C7 5043   0.779   4.183  12.501 -0.2026  0.4616  0.5407
  332TMC3    C8 5044   0.711   4.434  12.088  0.2489 -0.3809 -0.0445
  332TMC3    O1 5045   0.657   4.204  12.520  0.0006  0.4514 -0.6709
  332TMC3    O2 5046   0.757   4.527  12.023  0.3469  0.0039  0.8706
  333MPD2     C 5047   0.317   3.920  10.927  0.0692  0.4140 -0.2902
  333MPD2    C1 5048   0.388   3.877  11.036 -0.0927 -0.1864  0.6019
  333MPD2    C2 5049   0.312   3.814  11.136 -0.6858  0.0318  0.0281
  333MPD2    C3 5050   0.174   3.802  11.120  0.0831 -0.0551 -0.3722
  333MPD2    C4 5051   0.112   3.836  11.002  0.1916 -0.0828  0.7056
  333MPD2    C5 5052   0.183   3.893  10.904  0.7081 -0.2880  0.2809
  333MPD2     H 5053   0.351   3.777  11.230 -0.4720 -1.6644 -0.7364
  333MPD2    H1 5054   0.005   3.821  10.986  0.1268  1.2697 -0.1367
  333MPD2    H2 5055   0.365   3.971  10.844  2.5432  0.3646  1.1093
  333MPD2    H3 5056   0.138   3.922  10.809 -0.6715 -1.6200  0.5236
  333MPD2     N 5057   0.109   3.750  11.230 -0.4217  0.1004  0.4352
  333MPD2    H5 5058   0.154   3.759  11.320 -1.8293 -0.8057  1.2326
  333MPD2    N1 5059   0.523   3.914  11.048 -0.3801  0.6620 -0.6039
  333MPD2    H7 5060   0.559   3.963  10.967  2.4491 -2.4149 -1.1687
  334TMC3    C1 5061   0.727   3.960  11.149 -0.2126 -0.1088  0.1002
  334TMC3    C2 5062   0.836   3.906  11.205 -0.0410  0.6420  0.8718
  334TMC3    C3 5063   0.965   3.944  11.165 -0.7779  0.0623  0.1531
  334TMC3    C4 5064   0.741   4.060  11.054 -0.0484 -0.0277  0.5405
  334TMC3    C5 5065   0.872   4.095  11.017  0.2001  0.0334  0.1726
  334TMC3    C6 5066   0.982   4.041  11.065 -0.0219  0.0608  0.1065
  334TMC3     C 5067   0.595   3.907  11.167  0.0116 -0.7499 -0.0944
  334TMC3     O 5068   0.562   3.865  11.277 -0.5262 -0.4970 -0.4231
  334TMC3     H 5069   0.809   3.833  11.280 -0.3270  1.1555  1.2687
  334TMC3    H1 5070   0.652   4.090  11.001 -1.0079 -1.7965  1.1442
  334TMC3    H2 5071   1.073   4.078  11.020 -1.4560  1.3240 -1.7461
  334TMC3    C7 5072   0.881   4.231  10.998 -1.0438 -0.1871 -0.6422
  334TMC3    C8 5073   1.065   3.939  11.265 -0.4899  0.3129  0.4074
  334TMC3    O1 5074   0.956   4.283  11.077 -0.2785  0.1759  0.4967
  334TMC3    O2 5075   1.040   3.897  11.377 -0.0585 -0.1629 -0.5056
  335TMC3    C1 5076   0.075   1.660   0.079 -0.8904 -0.5420 -0.1961
  335TMC3    C2 5077   4.715   1.572   0.035  0.6139 -0.0097  0.5603
  335TMC3    C3 5078   0.019   1.459  17.714  0.0121 -0.0934  0.3377
  335TMC3    C4 5079   0.207   1.644   0.051  0.2266  0.2961 -0.2945
  335TMC3    C5 5080   0.239   1.537  17.717 -0.0506 -0.3818 -0.1101
  335TMC3    C6 5081   0.147   1.452  17.665  0.1539  0.0593 -0.0916
  335TMC3     C 5082   0.033   1.770   0.165 -0.0137 -0.0532 -0.2174
  335TMC3     O 5083   4.653   1.779   0.186  0.1666 -0.1181 -0.2336
  335TMC3     H 5084   4.612   1.588   0.063  0.8947 -0.2550  1.7268
  335TMC3    H1 5085   0.282   1.716   0.081 -1.2439  0.2015  3.6022
  335TMC3    H2 5086   0.168   1.373  17.593 -0.6100  2.5555 -3.0598
  335TMC3    C7 5087   0.380   1.504  17.688 -0.1309 -0.4287  0.2250
  335TMC3    C8 5088   4.660   1.364  17.674 -0.7185  0.0102 -0.2692
  335TMC3    O1 5089   0.403   1.468  17.575 -0.1558  0.2099  0.2660
  335TMC3    O2 5090   4.544   1.394  17.678 -0.2715 -0.0162 -0.1059
  336MPD2     C 5091   4.438   4.060  16.161  0.1714  0.2249 -0.2549
  336MPD2    C1 5092   4.412   3.979  16.050 -0.7354  0.0625  0.0716
  336MPD2    C2 5093   4.459   3.848  16.050 -0.1087 -0.1328 -0.0408
  336MPD2    C3 5094   4.492   3.787  16.173  0.2484 -0.1438 -1.3038
  336MPD2    C4 5095   4.514   3.862  16.283  0.6976  0.0252  0.5479
  336MPD2    C5 5096   4.488   3.999  16.274  0.6125  0.3262 -0.4377
  336MPD2     H 5097   4.442   3.780  15.967  2.8336 -0.8515 -0.0593
  336MPD2    H1 5098   4.540   3.821  16.379 -0.5934 -4.4887 -1.0436
  336MPD2    H2 5099   4.414   4.165  16.174  0.0099  0.3482 -1.5724
  336MPD2    H3 5100   4.496   4.059  16.364  1.8742  0.0824 -0.3834
  336MPD2     N 5101   4.501   3.645  16.183  0.1743 -0.6225 -0.2579
  336MPD2    H5 5102   4.491   3.600  16.274  0.9927  0.7724  0.5335
  336MPD2    N1 5103   4.339   4.033  15.945  0.3779 -0.3064  0.2445
  336MPD2    H7 5104   4.317   3.955  15.884  2.1594 -0.1616 -0.6065
  337TMC3    C1 5105   4.201   4.157  15.802 -0.4438  0.8169 -0.6894
  337TMC3    C2 5106   4.115   4.052  15.781  0.4176  0.0027  0.2535
  337TMC3    C3 5107   4.027   4.073  15.684 -0.4540  0.6656 -0.6452
  337TMC3    C4 5108   4.218   4.268  15.719 -0.2147  0.0474  0.2528
  337TMC3    C5 5109   4.136   4.273  15.608 -0.3660 -0.1149  0.3854
  337TMC3    C6 5110   4.045   4.171  15.589 -0.2578  0.3109 -0.4187
  337TMC3     C 5111   4.294   4.160  15.913  0.4769  0.0930  0.1828
  337TMC3     O 5112   4.315   4.266  15.972 -0.4402 -0.7475 -0.2211
  337TMC3     H 5113   4.116   3.969  15.851 -1.3727 -0.6898 -0.5266
  337TMC3    H1 5114   4.292   4.342  15.749 -0.6794  1.0301 -1.0492
  337TMC3    H2 5115   3.993   4.172  15.493  0.4114  0.6034 -0.7817
  337TMC3    C7 5116   4.140   4.390  15.516 -0.0022  0.5433 -0.5056
  337TMC3    C8 5117   3.922   3.970  15.657  0.3587  0.5115  0.0159
  337TMC3    O1 5118   4.038   4.391  15.438 -0.3184 -0.6412  0.4075
  337TMC3    O2 5119   3.916   3.863  15.722 -0.3740  0.3692 -0.9475
  338MPD2     C 5120   4.315   3.138   1.271  0.0509 -0.2963  0.1833
  338MPD2    C1 5121   4.323   3.170   1.135  0.1970 -0.0161 -0.4550
  338MPD2    C2 5122   4.228   3.259   1.082 -1.0204  0.5897 -0.3624
  338MPD2    C3 5123   4.122   3.310   1.163 -0.5680  0.2241  0.3506
  338MPD2    C4 5124   4.115   3.263   1.294  0.2015 -0.3824  0.4547
  338MPD2    C5 5125   4.208   3.175   1.350  0.4632 -0.2698  0.8280
  338MPD2     H 5126   4.236   3.303   0.983  0.1634  1.1370 -0.0273
  338MPD2    H1 5127   4.027   3.278   1.356  1.7148  2.7396  1.8929
  338MPD2    H2 5128   4.394   3.076   1.312 -0.1822  0.1867  1.3320
  338MPD2    H3 5129   4.196   3.138   1.451  1.2390  1.1726  1.4457
  338MPD2     N 5130   4.027   3.388   1.106  0.1858  0.2980 -0.9333
  338MPD2    H5 5131   4.037   3.403   1.006 -3.9232  3.5661 -0.8768
  338MPD2    N1 5132   4.429   3.120   1.049 -0.2902  0.1041 -0.6502
  338MPD2    H7 5133   4.429   3.169   0.961  3.3301  1.2693 -0.0362
  339TMC3    C1 5134   3.836   3.521   1.060  0.1708 -0.1975 -0.3055
  339TMC3    C2 5135   3.722   3.450   1.027 -0.1211  0.0650 -0.0566
  339TMC3    C3 5136   3.676   3.469   0.893 -0.0515 -0.2609  0.3934
  339TMC3    C4 5137   3.901   3.599   0.968 -0.3611  0.3945 -0.4980
  339TMC3    C5 5138   3.838   3.635   0.849  0.0419  0.2088  0.3134
  339TMC3    C6 5139   3.721   3.568   0.817 -0.6648  0.1519  0.1253
  339TMC3     C 5140   3.924   3.460   1.158  0.7589  0.0640  1.0600
  339TMC3     O 5141   3.894   3.467   1.274 -0.0416  0.1573  0.2145
  339TMC3     H 5142   3.681   3.376   1.094  1.0141 -2.3128 -1.9639
  339TMC3    H1 5143   3.998   3.642   0.991  0.2540 -2.2656  1.8016
  339TMC3    H2 5144   3.670   3.591   0.723 -3.4803 -2.5005  0.9941
  339TMC3    C7 5145   3.930   3.679   0.747  0.2596  0.4832  0.4294
  339TMC3    C8 5146   3.588   3.383   0.831  0.5687  0.3782  0.8032
  339TMC3    O1 5147   3.996   3.778   0.770  0.2115 -0.1540  0.4044
  339TMC3    O2 5148   3.505   3.445   0.758  0.5088  0.0208 -0.6571
  340MPD2     C 5149   0.439   1.450  11.076 -0.1711  0.5793 -0.1006
  340MPD2    C1 5150   0.378   1.391  10.966  0.5100  0.2438 -1.0360
  340MPD2    C2 5151   0.464   1.358  10.863  0.0800 -0.1527  0.4768
  340MPD2    C3 5152   0.605   1.368  10.871 -1.0277  1.1022 -0.3946
  340MPD2    C4 5153   0.656   1.425  10.986 -0.0819 -0.2006 -0.2572
  340MPD2    C5 5154   0.574   1.464  11.089  0.3914 -0.3466  0.2315
  340MPD2     H 5155   0.417   1.306  10.779  0.4075 -0.9553  0.7914
  340MPD2    H1 5156   0.762   1.420  11.004 -0.0064  1.8010 -0.1699
  340MPD2    H2 5157   0.375   1.484  11.156 -0.4755  0.3361 -0.2417
  340MPD2    H3 5158   0.621   1.494  11.182 -1.4667  1.3308  0.6287
  340MPD2     N 5159   0.702   1.337  10.765  0.1842 -0.8132 -0.4697
  340MPD2    H5 5160   0.796   1.357  10.796  0.2100  0.1036 -1.1616
  340MPD2    N1 5161   0.237   1.374  10.963  0.0563 -0.7890  0.0033
  340MPD2    H7 5162   0.193   1.428  11.037 -0.3437 -0.3482 -0.5493
  341TMC3    C1 5163   0.030   1.315  10.892 -0.5764  0.0140 -0.1836
  341TMC3    C2 5164   4.708   1.187  10.906  0.0043  0.7364 -0.7173
  341TMC3    C3 5165   4.601   1.151  10.825 -0.4097 -0.4273  0.1638
  341TMC3    C4 5166   4.714   1.403  10.801 -0.2357  0.8246  0.7072
  341TMC3    C5 5167   4.599   1.369  10.736 -0.7477 -0.0684 -0.4390
  341TMC3    C6 5168   4.544   1.238  10.742 -0.3647 -0.4100  0.2695
  341TMC3     C 5169   0.170   1.293  10.870  0.1106 -0.2319 -0.4170
  341TMC3     O 5170   0.209   1.228  10.776  0.1436 -0.3163 -0.3925
  341TMC3     H 5171   0.028   1.114  10.962 -1.4195  1.1428  1.2984
  341TMC3    H1 5172   0.027   1.497  10.785  1.7808 -0.4904 -0.6617
  341TMC3    H2 5173   4.470   1.202  10.670 -1.3160  2.4391 -0.1605
  341TMC3    C7 5174   4.535   1.466  10.643  0.2969  0.8164  0.1293
  341TMC3    C8 5175   4.608   1.012  10.771  0.0547 -0.3474  0.5791
  341TMC3    O1 5176   4.439   1.426  10.578 -0.6057  0.5468 -0.5316
  341TMC3    O2 5177   4.602   0.995  10.646  0.4686  0.2848 -0.5615
  342MPD2     C 5178   2.569   3.997  17.721 -0.5600  0.5971 -0.5738
  342MPD2    C1 5179   2.696   4.025  17.679  0.6024 -0.8816 -0.3221
  342MPD2    C2 5180   2.739   4.153  17.700  0.1796  0.5761 -0.0058
  342MPD2    C3 5181   2.666   4.248   0.016  0.1744  0.2847  0.8406
  342MPD2    C4 5182   2.549   4.213   0.069 -0.5396  0.0534 -0.1787
  342MPD2    C5 5183   2.493   4.090   0.042  1.2775  0.1756 -0.1707
  342MPD2     H 5184   2.833   4.178  17.652  0.1117 -0.5657 -0.7519
  342MPD2    H1 5185   2.492   4.290   0.120 -1.2342 -2.0719  2.1978
  342MPD2    H2 5186   2.521   3.900  17.712 -0.1568  0.4450 -1.0567
  342MPD2    H3 5187   2.395   4.068   0.084 -0.1100  2.6525 -2.1460
  342MPD2     N 5188   2.716   4.384   0.028 -0.0980 -0.2716  0.5374
  342MPD2    H5 5189   2.655   4.455   0.066 -1.6016 -0.3600 -1.7016
  342MPD2    N1 5190   2.768   3.932  17.598  0.9527 -0.1025  0.0699
  342MPD2    H7 5191   2.850   3.973  17.555  0.6857  0.5682  0.2029
  343TMC3    C1 5192   2.813   3.745  17.463 -0.3230  0.4706 -0.0257
  343TMC3    C2 5193   2.884   3.823  17.372 -0.4273 -0.0392 -0.9931
  343TMC3    C3 5194   2.941   3.764  17.256 -0.6149  0.0422 -0.3205
  343TMC3    C4 5195   2.786   3.617  17.425  0.3485  0.1856  0.5569
  343TMC3    C5 5196   2.811   3.571  17.295 -0.5322 -0.7859 -0.4141
  343TMC3    C6 5197   2.887   3.648  17.208 -0.1708  0.3625  0.2359
  343TMC3     C 5198   2.731   3.793  17.574 -0.4783 -0.7002  0.7980
  343TMC3     O 5199   2.635   3.726  17.615 -0.6173 -0.3956  0.3909
  343TMC3     H 5200   2.916   3.922  17.400 -1.4659  0.8761 -3.0247
  343TMC3    H1 5201   2.730   3.548  17.487 -0.6869  0.1053 -0.4629
  343TMC3    H2 5202   2.908   3.610  17.109  2.5186  0.0879  0.9361
  343TMC3    C7 5203   2.802   3.435  17.262 -0.8740  0.8053 -0.3721
  343TMC3    C8 5204   3.033   3.843  17.169 -0.0044 -0.4873 -0.1497
  343TMC3    O1 5205   2.752   3.411  17.150  0.3012 -0.2149  0.1522
  343TMC3    O2 5206   3.056   3.957  17.204  0.3063  0.5352 -0.1485
  344MPD2     C 5207   4.018   3.129  11.063 -0.3171 -0.0306 -0.1641
  344MPD2    C1 5208   3.894   3.138  11.001 -0.3890 -0.2674  0.0211
  344MPD2    C2 5209   3.890   3.226  10.890  0.9042  0.3474 -0.2314
  344MPD2    C3 5210   3.997   3.311  10.866  0.6184  0.3175  0.0045
  344MPD2    C4 5211   4.113   3.296  10.937  0.6344 -0.0666  0.7418
  344MPD2    C5 5212   4.132   3.193  11.023  0.0988  0.1757 -0.3301
  344MPD2     H 5213   3.802   3.235  10.827  2.2933 -0.9269 -2.3502
  344MPD2    H1 5214   4.198   3.361  10.926  0.4661  0.1305  0.5992
  344MPD2    H2 5215   4.035   3.047  11.132  0.1820 -1.7029 -2.2949
  344MPD2    H3 5216   4.230   3.173  11.065  0.0206  1.7815  0.6294
  344MPD2     N 5217   3.991   3.417  10.767 -0.2128  0.0752  0.1834
  344MPD2    H5 5218   4.069   3.482  10.770 -0.5111  0.3234  2.6264
  344MPD2    N1 5219   3.778   3.069  11.047  0.8789 -0.1093 -0.4965
  344MPD2    H7 5220   3.700   3.068  10.982 -1.7322 -2.4406  2.6770
  345TMC3    C1 5221   3.885   3.570  10.620  0.3134 -0.0155  0.2067
  345TMC3    C2 5222   3.983   3.657  10.642 -0.3072 -0.5031 -0.3897
  345TMC3    C3 5223   3.965   3.788  10.604 -0.8640 -0.3643  0.0210
  345TMC3    C4 5224   3.764   3.610  10.569  0.0726  0.1536 -0.3370
  345TMC3    C5 5225   3.745   3.745  10.541 -0.2178 -0.2027 -0.3468
  345TMC3    C6 5226   3.844   3.840  10.564 -0.5351 -0.6432 -0.3127
  345TMC3     C 5227   3.893   3.440  10.674 -0.1848  0.1030  0.7012
  345TMC3     O 5228   3.802   3.365  10.631 -0.1790  0.1588  0.6321
  345TMC3     H 5229   4.086   3.624  10.653  0.2177  0.3475 -2.8236
  345TMC3    H1 5230   3.688   3.535  10.552  0.2450 -0.1450  0.2020
  345TMC3    H2 5231   3.829   3.945  10.542  0.4142  0.2006  3.0442
  345TMC3    C7 5232   3.653   3.786  10.442 -0.1354  0.3100 -0.9425
  345TMC3    C8 5233   4.085   3.871  10.604 -0.4137 -0.1208 -0.6830
  345TMC3    O1 5234   3.685   3.893  10.386 -0.1624 -0.4058 -0.3071
  345TMC3    O2 5235   4.178   3.832  10.671  0.3556  0.6349 -0.0684
  346MPD2     C 5236   3.742   0.659  14.768  0.9246  0.2506  0.9267
  346MPD2    C1 5237   3.807   0.734  14.666 -0.2868 -0.0284 -0.0969
  346MPD2    C2 5238   3.882   0.849  14.697  0.3688  0.1690  0.2143
  346MPD2    C3 5239   3.888   0.894  14.828 -0.8219  0.5266  0.0792
  346MPD2    C4 5240   3.815   0.833  14.930 -0.0191  0.0747 -1.0974
  346MPD2    C5 5241   3.751   0.715  14.897 -0.0314  0.0393  0.6133
  346MPD2     H 5242   3.927   0.912  14.620 -0.8370 -0.1649 -0.7664
  346MPD2    H1 5243   3.827   0.853  15.036 -1.0819 -1.1157 -0.7550
  346MPD2    H2 5244   3.683   0.570  14.749 -0.5690  1.3410  0.4361
  346MPD2    H3 5245   3.712   0.657  14.980  0.4841 -1.7275 -0.3838
  346MPD2     N 5246   3.967   1.009  14.846 -0.4741  0.1988  0.2944
  346MPD2    H5 5247   4.010   1.050  14.764  0.8556 -0.1123  0.8473
  346MPD2    N1 5248   3.781   0.714  14.528  0.3228 -0.0291 -0.4773
  346MPD2    H7 5249   3.807   0.789  14.466  0.2896  0.3612 -0.0134
  347TMC3    C1 5250   4.069   1.183  14.953  1.0008  1.0660 -0.4033
  347TMC3    C2 5251   4.073   1.247  14.833 -0.6863  0.8468  0.1824
  347TMC3    C3 5252   4.193   1.293  14.789 -0.1609  0.1500  0.0993
  347TMC3    C4 5253   4.171   1.201  15.039 -0.0727 -0.4408  0.0942
  347TMC3    C5 5254   4.283   1.273  15.007 -0.3744  0.7683 -0.1284
  347TMC3    C6 5255   4.301   1.321  14.877  0.6316 -0.3011  0.1419
  347TMC3     C 5256   3.986   1.069  14.968 -0.1261 -0.3193 -0.0400
  347TMC3     O 5257   3.955   1.033  15.080 -0.9671 -0.0013  0.5396
  347TMC3     H 5258   3.990   1.236  14.764 -1.8217  0.3601  1.6525
  347TMC3    H1 5259   4.164   1.157  15.138  2.1516  1.3641  1.0635
  347TMC3    H2 5260   4.381   1.383  14.839 -2.0997  2.2003 -1.5767
  347TMC3    C7 5261   4.384   1.300  15.110  0.0470 -0.0724 -0.3581
  347TMC3    C8 5262   4.231   1.228  14.664 -0.2318  0.3032 -0.0336
  347TMC3    O1 5263   4.368   1.252  15.220 -0.1873  0.4343  0.2029
  347TMC3    O2 5264   4.146   1.144  14.625 -0.1989 -0.0038 -0.0603
  348MPD2     C 5265   2.600   4.499  12.098  0.1584 -0.0710 -0.2186
  348MPD2    C1 5266   2.715   4.515  12.021  0.3634  0.4717 -0.5665
  348MPD2    C2 5267   2.702   4.559  11.895 -0.3149 -0.0935 -0.3952
  348MPD2    C3 5268   2.576   4.583  11.849 -0.6617 -0.1854  0.3301
  348MPD2    C4 5269   2.459   4.564  11.927 -0.1552  0.1728  0.5953
  348MPD2    C5 5270   2.472   4.519  12.055  0.3879 -0.1937 -0.0896
  348MPD2     H 5271   2.791   4.575  11.835  0.1983 -2.3091 -0.2047
  348MPD2    H1 5272   2.359   4.576  11.888  0.1083  0.2353 -0.0630
  348MPD2    H2 5273   2.609   4.460  12.199  0.3496  1.1198  0.2277
  348MPD2    H3 5274   2.387   4.509  12.122 -0.3122 -2.3020 -1.2692
  348MPD2     N 5275   2.565   4.632  11.715 -0.1377  0.0615 -1.2340
  348MPD2    H5 5276   2.658   4.639  11.675  0.8521 -3.2899  0.4849
  348MPD2    N1 5277   2.844   4.491  12.060 -0.3492 -0.1862  0.1204
  348MPD2    H7 5278   2.913   4.506  11.987  0.3214 -0.8900  0.6029
  349TMC3    C1 5279   2.957   4.314  12.148 -0.0446  0.2886 -0.5490
  349TMC3    C2 5280   2.934   4.214  12.233 -0.0053 -0.5855  0.1683
  349TMC3    C3 5281   2.893   4.095  12.183 -0.0414  0.5259 -0.3226
  349TMC3    C4 5282   2.968   4.285  12.019 -0.3638 -0.1024 -0.0354
  349TMC3    C5 5283   2.915   4.172  11.975  0.5293 -0.0962 -0.1252
  349TMC3    C6 5284   2.864   4.077  12.055 -0.5310 -1.5110  0.5622
  349TMC3     C 5285   2.888   4.428  12.172 -0.0707 -0.4081 -0.0458
  349TMC3     O 5286   2.829   4.428  12.279  0.8254 -0.2519  0.1979
  349TMC3     H 5287   2.947   4.226  12.339  2.2719  3.2589 -0.5321
  349TMC3    H1 5288   3.033   4.349  11.961 -0.9327 -0.0182 -0.5761
  349TMC3    H2 5289   2.836   3.981  12.014  2.0760 -1.5212 -1.1374
  349TMC3    C7 5290   2.838   4.199  11.851 -0.2880 -0.3549 -0.0483
  349TMC3    C8 5291   2.907   3.979  12.264  0.5057 -0.1317 -0.6743
  349TMC3    O1 5292   2.723   4.153  11.848  0.2004 -0.6236 -0.1393
  349TMC3    O2 5293   2.992   3.982  12.355  0.6102 -0.3751  0.4063
  350MPD2     C 5294   1.714   3.220  10.617  0.0276 -0.1989 -0.1263
  350MPD2    C1 5295   1.727   3.090  10.604 -0.0089  0.4955  0.0225
  350MPD2    C2 5296   1.808   3.020  10.689  0.6283  0.1703  0.4971
  350MPD2    C3 5297   1.879   3.084  10.788  0.3281 -0.3426  0.0833
  350MPD2    C4 5298   1.868   3.218  10.803  0.5631 -0.2845 -0.5345
  350MPD2    C5 5299   1.795   3.279  10.707  0.5318  0.5126  0.1299
  350MPD2     H 5300   1.808   2.912  10.680 -0.4564  0.2278 -0.2523
  350MPD2    H1 5301   1.912   3.282  10.878  1.8218  0.4346 -1.8933
  350MPD2    H2 5302   1.656   3.277  10.545  1.3513  0.6275 -0.5424
  350MPD2    H3 5303   1.803   3.387  10.704  0.4441  0.4464 -3.3970
  350MPD2     N 5304   1.966   3.006  10.868 -0.3699 -0.1349 -0.2144
  350MPD2    H5 5305   1.977   2.909  10.838 -2.4199 -0.3252 -0.3714
  350MPD2    N1 5306   1.665   3.021  10.500  0.6047  0.2080  0.4644
  350MPD2    H7 5307   1.689   2.922  10.499 -0.5518 -0.0810  0.4592
  351TMC3    C1 5308   1.582   2.981  10.285  0.1655  1.3850 -0.4985
  351TMC3    C2 5309   1.681   2.888  10.267 -0.6726  1.0323 -0.5918
  351TMC3    C3 5310   1.665   2.806  10.163  0.1906 -0.6360 -0.5342
  351TMC3    C4 5311   1.470   2.991  10.197 -0.1799  0.5054 -0.1158
  351TMC3    C5 5312   1.466   2.898  10.097  0.8673  0.0385 -1.1082
  351TMC3    C6 5313   1.559   2.805  10.076  0.2996  0.2310  0.3144
  351TMC3     C 5314   1.591   3.073  10.396  0.0405 -0.1347 -0.7293
  351TMC3     O 5315   1.526   3.174  10.377 -0.0147  0.0240  0.2170
  351TMC3     H 5316   1.772   2.898  10.326  0.7213 -0.6029 -2.4545
  351TMC3    H1 5317   1.402   3.075  10.203  0.5954  1.2085 -1.0911
  351TMC3    H2 5318   1.555   2.744   9.986 -0.6970 -0.1452  0.6088
  351TMC3    C7 5319   1.431   2.959   9.967  0.5393 -0.2491 -0.1586
  351TMC3    C8 5320   1.770   2.711  10.140  1.0893  0.4925  0.2087
  351TMC3    O1 5321   1.442   3.078   9.967  0.1279  0.0404  0.5447
  351TMC3    O2 5322   1.778   2.676  10.021 -0.1166  0.1448  0.7447
  352MPD2     C 5323   0.307   0.192   1.632 -0.3091 -0.1540  0.7826
  352MPD2    C1 5324   0.184   0.158   1.694  0.5229 -0.3157 -0.1079
  352MPD2    C2 5325   0.158   0.022   1.724 -0.6707  0.8118 -0.4386
  352MPD2    C3 5326   0.260   4.665   1.715 -0.0225  0.1077 -0.5259
  352MPD2    C4 5327   0.380   4.703   1.652 -0.0253  0.1197 -0.9991
  352MPD2    C5 5328   0.403   0.093   1.612 -0.0765 -0.4447  0.3214
  352MPD2     H 5329   0.058   4.737   1.761 -1.2036  1.3032 -1.5747
  352MPD2    H1 5330   0.455   4.630   1.628 -0.1665 -1.0734  2.1978
  352MPD2    H2 5331   0.325   0.295   1.604 -1.1063 -0.1421  0.3019
  352MPD2    H3 5332   0.496   0.113   1.561 -0.6076  2.0412  0.3109
  352MPD2     N 5333   0.232   4.530   1.730 -0.2479  0.2046  0.3336
  352MPD2    H5 5334   0.316   4.475   1.715 -0.4245  0.7504 -2.5943
  352MPD2    N1 5335   0.083   0.254   1.694 -0.5564 -0.2996 -0.1647
  352MPD2    H7 5336   0.102   0.346   1.655  0.9964 -0.8567 -0.7047
  353TMC3    C1 5337   0.104   4.323   1.739  0.4832 -0.2745  0.1436
  353TMC3    C2 5338   0.214   4.248   1.779 -0.6242 -0.0153 -0.2875
  353TMC3    C3 5339   0.205   4.115   1.762  0.7491 -0.9673  0.1075
  353TMC3    C4 5340   4.730   4.271   1.674  0.1660 -0.7534 -0.0805
  353TMC3    C5 5341   4.737   4.137   1.658  0.0057  0.4962  0.8222
  353TMC3    C6 5342   0.102   4.058   1.691  0.5901 -0.0091 -0.1433
  353TMC3     C 5343   0.107   4.470   1.748 -0.8257  0.3181 -0.0744
  353TMC3     O 5344   4.737   4.524   1.756  0.1615 -0.2097 -0.3187
  353TMC3     H 5345   0.309   4.282   1.820 -0.9797  0.8308 -0.1703
  353TMC3    H1 5346   4.649   4.331   1.634  0.1726 -1.9773 -1.9599
  353TMC3    H2 5347   0.088   3.951   1.686 -2.4016  0.2993  1.8226
  353TMC3    C7 5348   4.635   4.061   1.591  0.0521  0.1123 -0.0333
  353TMC3    C8 5349   0.293   4.031   1.832 -0.2851 -1.1916 -0.4883
  353TMC3    O1 5350   4.667   3.957   1.533  0.0227  0.4973 -0.7751
  353TMC3    O2 5351   0.356   4.087   1.922  1.0848 -0.1381 -0.3592
  354TMC3    C1 5352   1.308   1.087  13.488 -0.4472  0.0334  0.3374
  354TMC3    C2 5353   1.349   1.219  13.503 -0.1891 -0.7032  0.1000
  354TMC3    C3 5354   1.409   1.279  13.397 -0.3746  0.4826 -0.4567
  354TMC3    C4 5355   1.325   1.026  13.361 -0.4952 -1.1351  0.1298
  354TMC3    C5 5356   1.379   1.100  13.261 -0.0606  0.6632 -0.1760
  354TMC3    C6 5357   1.426   1.225  13.275  0.6044  0.2583  0.4428
  354TMC3     C 5358   1.274   1.009  13.599 -0.4258  0.1460 -0.7530
  354TMC3     O 5359   1.192   0.919  13.580  0.1534  0.0078 -0.1315
  354TMC3     H 5360   1.343   1.267  13.600 -3.8403  0.5213 -0.7453
  354TMC3    H1 5361   1.309   0.919  13.348 -2.0649 -0.9763  0.8236
  354TMC3    H2 5362   1.464   1.282  13.191  1.4770 -0.3555  0.4234
  354TMC3    C7 5363   1.463   1.030  13.168  0.3603  0.4731 -0.1388
  354TMC3    C8 5364   1.502   1.381  13.442  0.0896 -0.0613  0.1585
  354TMC3    O1 5365   1.417   1.003  13.057 -0.6794 -0.5620  0.1628
  354TMC3    O2 5366   1.499   1.402  13.561 -0.1536 -0.6250  0.0611
  355MPD2     C 5367   1.819   1.628  12.157  0.1826  0.0243 -0.0300
  355MPD2    C1 5368   1.886   1.688  12.051  0.1434 -0.6830  0.4204
  355MPD2    C2 5369   2.016   1.730  12.080  0.1717 -1.0479 -0.1953
  355MPD2    C3 5370   2.077   1.719  12.207 -0.2300  0.4837 -0.2639
  355MPD2    C4 5371   1.995   1.665  12.304 -0.5363 -0.4268  0.0109
  355MPD2    C5 5372   1.871   1.618  12.278  0.1786 -0.1354 -0.2894
  355MPD2     H 5373   2.072   1.769  11.996 -0.1141  1.4841  0.7871
  355MPD2    H1 5374   2.017   1.663  12.410 -1.7003 -1.7755  0.2256
  355MPD2    H2 5375   1.715   1.598  12.143 -0.1856  1.5776 -0.6429
  355MPD2    H3 5376   1.808   1.572  12.353 -1.1624  0.1508 -1.2404
  355MPD2     N 5377   2.202   1.777  12.234 -0.4687  0.1328  0.2212
  355MPD2    H5 5378   2.214   1.807  12.331 -2.3764  0.6159  0.3110
  355MPD2    N1 5379   1.822   1.706  11.925  0.7136 -0.0172  0.0642
  355MPD2    H7 5380   1.742   1.646  11.909  0.2697 -0.0541  2.4458
  356TMC3    C1 5381   2.395   1.920  12.191  0.3297 -0.1163 -0.8253
  356TMC3    C2 5382   2.452   1.999  12.105  0.1537 -0.2383  0.2663
  356TMC3    C3 5383   2.522   2.106  12.149 -0.1254  0.5207 -0.5853
  356TMC3    C4 5384   2.405   1.935  12.325  0.0387 -0.1211 -0.8012
  356TMC3    C5 5385   2.457   2.050  12.372 -1.0115 -0.2428 -0.1153
  356TMC3    C6 5386   2.524   2.134  12.283  0.4068  0.0622 -0.2145
  356TMC3     C 5387   2.291   1.828  12.140  0.0265  1.0054  0.2009
  356TMC3     O 5388   2.303   1.795  12.024  0.1802  0.5211  0.3042
  356TMC3     H 5389   2.441   1.966  12.002  0.7577 -0.7249  0.3625
  356TMC3    H1 5390   2.381   1.854  12.393  0.8804  0.3752  0.0986
  356TMC3    H2 5391   2.598   2.209  12.307 -0.0900  0.8065 -1.0130
  356TMC3    C7 5392   2.458   2.069  12.512 -0.5811 -0.2026 -1.1412
  356TMC3    C8 5393   2.568   2.197  12.039 -0.3706  0.7358  0.1496
  356TMC3    O1 5394   2.424   1.974  12.581  0.0998 -0.1487 -0.5153
  356TMC3    O2 5395   2.583   2.137  11.933  0.4215 -0.4812 -0.0647
  357MPD2     C 5396   1.628   1.844   0.937  0.1004 -0.8168 -0.1102
  357MPD2    C1 5397   1.619   1.793   1.063  0.3282 -0.1733 -0.3157
  357MPD2    C2 5398   1.488   1.777   1.116 -0.2790  0.5618 -0.0580
  357MPD2    C3 5399   1.377   1.799   1.034  0.4212  0.0746  0.4871
  357MPD2    C4 5400   1.395   1.848   0.909  0.1883  0.1294 -0.3340
  357MPD2    C5 5401   1.523   1.877   0.867 -0.2736  0.4744  0.6865
  357MPD2     H 5402   1.479   1.741   1.218 -1.1061 -0.3481 -0.4594
  357MPD2    H1 5403   1.315   1.874   0.841 -0.0285 -0.6944 -0.3926
  357MPD2    H2 5404   1.729   1.851   0.897  0.0294 -0.4095 -0.2218
  357MPD2    H3 5405   1.541   1.910   0.766 -0.7428  0.4611  0.6012
  357MPD2     N 5406   1.244   1.751   1.060  0.3121  0.2111 -0.2493
  357MPD2    H5 5407   1.174   1.781   0.994 -0.2122 -0.4353  0.0094
  357MPD2    N1 5408   1.737   1.770   1.131 -0.0195 -0.0485 -0.0899
  357MPD2    H7 5409   1.824   1.799   1.087  0.4237 -0.4196  0.5398
  358TMC3    C1 5410   1.886   1.660   1.277 -0.3354  0.2666  0.6493
  358TMC3    C2 5411   1.965   1.611   1.174 -0.4741  0.5425 -0.4472
  358TMC3    C3 5412   2.077   1.551   1.208  0.6374  0.3075  0.5164
  358TMC3    C4 5413   1.918   1.651   1.409 -0.3368  0.0419 -0.1882
  358TMC3    C5 5414   2.035   1.587   1.435  0.5297 -0.7105  1.2143
  358TMC3    C6 5415   2.119   1.541   1.339  0.5540 -0.0076 -0.5850
  358TMC3     C 5416   1.752   1.707   1.251  0.4282 -0.1510 -0.4107
  358TMC3     O 5417   1.670   1.663   1.330 -0.2145 -0.2472  0.2580
  358TMC3     H 5418   1.933   1.629   1.072 -0.2232  0.8688 -0.4672
  358TMC3    H1 5419   1.858   1.701   1.484 -3.0438 -0.6096 -1.9125
  358TMC3    H2 5420   2.207   1.481   1.361  2.8734  3.2012 -1.1344
  358TMC3    C7 5421   2.072   1.578   1.573 -0.2413  0.4562 -0.5672
  358TMC3    C8 5422   2.166   1.528   1.090  0.3597 -0.2519  0.1711
  358TMC3    O1 5423   2.014   1.648   1.657  0.6921  0.2837 -0.5898
  358TMC3    O2 5424   2.113   1.553   0.982  0.0550  0.4721 -0.2316
  359MPD2     C 5425   3.007   0.279  12.683 -0.5710 -0.6747  0.3538
  359MPD2    C1 5426   2.930   0.241  12.573  0.2221 -0.4346  0.0351
  359MPD2    C2 5427   2.796   0.212  12.600 -0.3514  0.6642  0.2597
  359MPD2    C3 5428   2.732   0.253  12.716 -0.0199 -0.4973  0.1953
  359MPD2    C4 5429   2.810   0.293  12.827  0.0700 -0.5542 -0.4488
  359MPD2    C5 5430   2.949   0.295  12.807  0.0856 -0.1926  0.3302
  359MPD2     H 5431   2.744   0.183  12.509  0.7010 -0.1694 -0.0812
  359MPD2    H1 5432   2.779   0.328  12.924  3.8355 -1.5449  1.0924
  359MPD2    H2 5433   3.112   0.304  12.677 -0.6889 -0.4997 -1.1688
  359MPD2    H3 5434   3.021   0.310  12.887  1.7528  1.4405 -1.4703
  359MPD2     N 5435   2.593   0.278  12.720 -0.0357  0.1713  0.4434
  359MPD2    H5 5436   2.555   0.339  12.792  0.0029  0.6548  0.0552
  359MPD2    N1 5437   2.973   0.222  12.441 -0.2788  0.4374 -0.0744
  359MPD2    H7 5438   2.900   0.209  12.371  1.3272 -1.4554 -1.3971
  360TMC3    C1 5439   3.133   0.191  12.254 -0.7201  0.0470 -0.1354
  360TMC3    C2 5440   3.254   0.229  12.201  0.1535  0.3105 -0.9691
  360TMC3    C3 5441   3.267   0.253  12.068 -0.7307  0.4220  0.2028
  360TMC3    C4 5442   3.026   0.157  12.170 -0.7344  0.4454  0.6493
  360TMC3    C5 5443   3.053   0.149  12.034 -0.0497 -0.4042 -0.3136
  360TMC3    C6 5444   3.175   0.193  11.982  0.5579 -0.4608  0.8287
  360TMC3     C 5445   3.105   0.226  12.396  0.2030 -0.0521  0.7021
  360TMC3     O 5446   3.198   0.245  12.473  0.4936 -0.5266 -0.7430
  360TMC3     H 5447   3.327   0.291  12.252  0.2155 -0.5818  0.0276
  360TMC3    H1 5448   2.932   0.120  12.207 -1.5716  2.1887  0.2476
  360TMC3    H2 5449   3.186   0.202  11.875  0.4864 -1.8129  0.6997
  360TMC3    C7 5450   2.938   0.152  11.936  0.5567 -0.1947  0.6645
  360TMC3    C8 5451   3.325   0.379  12.032 -0.6871  0.5381  0.0522
  360TMC3    O1 5452   2.967   0.205  11.829  0.1480 -0.3717  0.2070
  360TMC3    O2 5453   3.317   0.465  12.118 -0.0648  0.0223 -0.1930
  361MPD2     C 5454   3.788   0.335  17.731  1.1254  0.3515  0.0988
  361MPD2    C1 5455   3.770   0.235  17.631  0.5769  0.4925 -0.6600
  361MPD2    C2 5456   3.865   0.142  17.603  0.0659 -0.1010 -0.2371
  361MPD2    C3 5457   3.978   0.130  17.680  0.5872 -0.1360 -1.0492
  361MPD2    C4 5458   4.004   0.232   0.025 -0.2704 -0.2335  0.2691
  361MPD2    C5 5459   3.907   0.325   0.051  0.1480  0.4073 -0.5258
  361MPD2     H 5460   3.846   0.066  17.528  1.8481  0.0156 -0.8141
  361MPD2    H1 5461   4.104   0.234   0.068  0.2695  1.1316 -1.0178
  361MPD2    H2 5462   3.717   0.411   0.011 -0.4876 -0.8396 -0.7478
  361MPD2    H3 5463   3.920   0.401   0.127  1.0036  2.2132 -2.4731
  361MPD2     N 5464   4.085   0.039  17.657  0.5253  0.0287 -0.1317
  361MPD2    H5 5465   4.170   0.052  17.710  0.0519 -1.7102  1.0497
  361MPD2    N1 5466   3.648   0.228  17.551  0.3529 -0.0054  0.1609
  361MPD2    H7 5467   3.653   0.150  17.486  0.7429 -0.9843  1.3508
  362TMC3    C1 5468   3.433   0.257  17.469  0.1951 -0.4373  0.0799
  362TMC3    C2 5469   3.314   0.222  17.531 -0.1128  0.5298  0.4533
  362TMC3    C3 5470   3.234   0.140  17.461  0.0970 -0.1496 -0.2716
  362TMC3    C4 5471   3.471   0.205  17.353  0.2386  0.5894 -0.0571
  362TMC3    C5 5472   3.386   0.124  17.278 -0.8909 -0.2819  0.2298
  362TMC3    C6 5473   3.269   0.082  17.334 -0.2131  0.3339 -0.0413
  362TMC3     C 5474   3.532   0.303  17.561 -0.3779  0.8273  1.1824
  362TMC3     O 5475   3.491   0.375  17.652  0.0409 -0.3724 -0.3533
  362TMC3     H 5476   3.284   0.272  17.622  0.6793  1.5835  0.1288
  362TMC3    H1 5477   3.569   0.226  17.312  1.4825 -1.7998  1.7670
  362TMC3    H2 5478   3.202   0.021  17.274  0.8979 -1.1649  0.2363
  362TMC3    C7 5479   3.411   0.106  17.133 -0.1401 -0.0223 -0.4101
  362TMC3    C8 5480   3.093   0.113  17.497 -0.9721  0.2799 -0.6396
  362TMC3    O1 5481   3.499   0.179  17.087  0.2945 -0.3184 -0.0294
  362TMC3    O2 5482   3.031   0.025  17.437  0.7403  0.2218 -0.0496
  363TMC3    C1 5483   3.334   3.039   9.573 -0.3216  0.4543  0.3811
  363TMC3    C2 5484   3.399   2.921   9.609  0.2840  0.0752  0.0661
  363TMC3    C3 5485   3.521   2.934   9.664 -0.3662  0.0318  0.1556
  363TMC3    C4 5486   3.387   3.162   9.598  0.3126  0.2763  0.4403
  363TMC3    C5 5487   3.517   3.162   9.652 -0.6998 -0.2464 -0.6398
  363TMC3    C6 5488   3.587   3.052   9.678  0.2882  1.0413  0.2280
  363TMC3     C 5489   3.215   3.018   9.496  0.8716 -0.1529 -0.0569
  363TMC3     O 5490   3.196   2.906   9.450  0.3460  0.2617  0.4340
  363TMC3     H 5491   3.345   2.828   9.594  0.0248  0.1030  0.8136
  363TMC3    H1 5492   3.340   3.258   9.578 -1.4299 -0.7624 -0.4130
  363TMC3    H2 5493   3.684   3.064   9.724  1.6034  0.6156 -2.4792
  363TMC3    C7 5494   3.576   3.293   9.666  0.1661  0.5327  0.0383
  363TMC3    C8 5495   3.578   2.820   9.738  0.0764 -0.7971  0.3801
  363TMC3    O1 5496   3.499   3.390   9.682 -0.0047  0.1565 -0.3333
  363TMC3    O2 5497   3.702   2.829   9.748 -0.1012  0.0258  0.2725
  364MPD2     C 5498   1.740   1.437  11.675 -0.2172  0.0903 -0.1330
  364MPD2    C1 5499   1.689   1.457  11.549 -0.5270  0.3740 -0.4234
  364MPD2    C2 5500   1.659   1.346  11.478 -0.5313  0.2545  0.1750
  364MPD2    C3 5501   1.688   1.217  11.519 -0.4967 -0.0525  0.7013
  364MPD2    C4 5502   1.747   1.205  11.642  0.4040  0.1390  0.1821
  364MPD2    C5 5503   1.772   1.319  11.719  0.2412 -0.5412 -0.8483
  364MPD2     H 5504   1.600   1.351  11.387 -0.5563 -0.0113  0.1766
  364MPD2    H1 5505   1.781   1.108  11.676  1.0163  0.3974  0.3308
  364MPD2    H2 5506   1.773   1.518  11.739  0.2877 -0.2186 -0.0026
  364MPD2    H3 5507   1.810   1.301  11.819  1.6475 -1.8280 -1.6164
  364MPD2     N 5508   1.647   1.092  11.461  0.2486  0.5414 -0.1991
  364MPD2    H5 5509   1.666   1.007  11.513  0.7892  1.5910  1.3142
  364MPD2    N1 5510   1.663   1.591  11.508 -0.2047  0.5042 -0.0823
  364MPD2    H7 5511   1.690   1.658  11.579 -3.0237  1.4203  0.1486
  365TMC3    C1 5512   1.601   1.771  11.353  0.0399 -0.4222  0.6539
  365TMC3    C2 5513   1.551   1.804  11.225 -0.1321 -0.0685 -0.4157
  365TMC3    C3 5514   1.546   1.933  11.183 -0.0446  0.6727 -0.0435
  365TMC3    C4 5515   1.651   1.864  11.434  0.1356  0.1362 -0.3872
  365TMC3    C5 5516   1.633   1.990  11.383  0.0687 -0.7311  0.4917
  365TMC3    C6 5517   1.583   2.032  11.270 -0.6357 -0.3846 -0.0106
  365TMC3     C 5518   1.611   1.629  11.382 -0.2762  0.3771  0.5319
  365TMC3     O 5519   1.550   1.548  11.309 -0.1201 -0.1492 -0.2359
  365TMC3     H 5520   1.527   1.721  11.160  0.0005  1.6180 -2.5864
  365TMC3    H1 5521   1.697   1.845  11.530  2.1689  1.5609 -1.0772
  365TMC3    H2 5522   1.579   2.136  11.241 -1.2819 -0.5590 -0.5619
  365TMC3    C7 5523   1.648   2.104  11.470  0.1862 -0.0259  0.2796
  365TMC3    C8 5524   1.561   1.967  11.041  0.0490 -0.1082 -0.0232
  365TMC3    O1 5525   1.762   2.129  11.506 -0.0910 -0.0424  0.2448
  365TMC3    O2 5526   1.616   2.075  11.027  0.4386 -0.0367  0.2993
  366MPD2     C 5527   4.130   2.901  15.644 -0.0108 -0.2015 -0.0756
  366MPD2    C1 5528   4.162   2.968  15.530 -0.1085 -0.3202 -0.1515
  366MPD2    C2 5529   4.269   2.914  15.456 -0.5500  0.2674  0.3845
  366MPD2    C3 5530   4.355   2.819  15.504 -0.2630  0.7539 -0.3918
  366MPD2    C4 5531   4.327   2.755  15.622  0.0934  0.0552 -0.4955
  366MPD2    C5 5532   4.212   2.798  15.691 -0.8080 -0.5477  0.1952
  366MPD2     H 5533   4.294   2.974  15.369 -3.8715  2.1949  0.7280
  366MPD2    H1 5534   4.394   2.681  15.663 -0.3773  0.8009  1.6174
  366MPD2    H2 5535   4.038   2.924  15.695 -0.1078  0.3793 -0.5006
  366MPD2    H3 5536   4.189   2.747  15.785  1.6920  0.0840  1.1645
  366MPD2     N 5537   4.465   2.784  15.430  0.2585  0.0694  0.7381
  366MPD2    H5 5538   4.459   2.826  15.337 -0.9028 -0.4291  0.5910
  366MPD2    N1 5539   4.106   3.093  15.486 -0.5246 -0.3756 -0.7508
  366MPD2    H7 5540   4.139   3.134  15.399  4.8086 -0.5584  1.1673
  367TMC3    C1 5541   4.036   3.303  15.514 -0.8602 -0.9177 -0.0674
  367TMC3    C2 5542   4.149   3.377  15.541  0.5009 -0.3090 -0.3431
  367TMC3    C3 5543   4.149   3.512  15.528 -0.6346  0.0005  0.4886
  367TMC3    C4 5544   3.921   3.367  15.485 -0.6246  0.4534 -0.1778
  367TMC3    C5 5545   3.922   3.506  15.481 -0.6831 -0.4024  0.0342
  367TMC3    C6 5546   4.035   3.579  15.499 -0.5973 -0.5110  0.0064
  367TMC3     C 5547   4.025   3.167  15.565 -0.4998 -0.1834 -0.2461
  367TMC3     O 5548   3.945   3.128  15.654 -0.0062  0.6193  0.5562
  367TMC3     H 5549   4.231   3.319  15.581  0.5597  1.0412  1.5030
  367TMC3    H1 5550   3.834   3.302  15.482  0.4021 -1.0673  3.4686
  367TMC3    H2 5551   4.039   3.687  15.508 -0.8193 -0.3623 -1.6399
  367TMC3    C7 5552   3.831   3.569  15.395 -0.3548  0.4975 -0.0865
  367TMC3    C8 5553   4.274   3.580  15.566 -0.0104  0.0341 -0.7972
  367TMC3    O1 5554   3.856   3.685  15.378  1.2126  0.7653 -0.5089
  367TMC3    O2 5555   4.349   3.500  15.615  0.0510 -0.1474  0.2767
  368MPD2     C 5556   1.313   4.726  13.761 -0.6663 -0.0447  0.7535
  368MPD2    C1 5557   1.352   0.085  13.680 -0.6214 -0.4564 -0.0179
  368MPD2    C2 5558   1.485   0.126  13.685 -0.1136 -0.7972  0.3258
  368MPD2    C3 5559   1.568   0.060  13.772  0.4672 -0.7021  0.5615
  368MPD2    C4 5560   1.528   4.703  13.863 -0.5847 -0.1393 -0.3955
  368MPD2    C5 5561   1.396   4.677  13.863 -0.1679  0.4009  0.0286
  368MPD2     H 5562   1.523   0.189  13.605  0.3125 -1.5773 -0.0815
  368MPD2    H1 5563   1.600   4.665  13.934 -1.4660  1.6644  1.4713
  368MPD2    H2 5564   1.224   4.669  13.737  0.3516 -1.3189  0.0052
  368MPD2    H3 5565   1.358   4.598  13.925  2.5290 -0.9804 -0.0544
  368MPD2     N 5566   1.709   0.073  13.777  0.5265  0.1006  0.4176
  368MPD2    H5 5567   1.764   4.733  13.811 -0.7573 -1.0656 -0.1884
  368MPD2    N1 5568   1.252   0.130  13.597  0.1277  0.1856  0.5093
  368MPD2    H7 5569   1.159   0.093  13.611  0.2831 -0.1137  0.7639
  369TMC3    C1 5570   1.152   0.241  13.416 -0.2759 -0.0398 -0.0735
  369TMC3    C2 5571   1.170   0.318  13.306  0.1754 -0.7369  0.2492
  369TMC3    C3 5572   1.059   0.343  13.229 -0.8954 -0.9031 -0.3748
  369TMC3    C4 5573   1.029   0.187  13.439 -0.7338 -0.1785  0.1072
  369TMC3    C5 5574   0.930   0.208  13.348 -0.0855 -0.4332 -0.4370
  369TMC3    C6 5575   0.938   0.285  13.241 -0.0646 -0.1212 -0.2957
  369TMC3     C 5576   1.274   0.207  13.484 -0.5690  0.0275 -0.3667
  369TMC3     O 5577   1.383   0.250  13.443 -0.8191 -0.1352 -0.1458
  369TMC3     H 5578   1.262   0.370  13.283  0.1333 -2.1678 -3.2606
  369TMC3    H1 5579   1.016   0.115  13.519 -0.5291 -0.7260 -0.3547
  369TMC3    H2 5580   0.861   0.269  13.166  0.2904 -4.1347  0.1749
  369TMC3    C7 5581   0.808   0.127  13.374 -0.1173 -0.3989 -0.3137
  369TMC3    C8 5582   1.087   0.408  13.100  0.4966 -0.3914  0.1969
  369TMC3    O1 5583   0.711   0.193  13.339  0.1362  0.1115  0.3477
  369TMC3    O2 5584   1.005   0.487  13.053  0.0792  0.0673 -0.1691
  370TMC3    C1 5585   0.293   0.961  16.668 -0.1703 -0.0525 -0.6022
  370TMC3    C2 5586   0.238   0.882  16.770  0.6556 -0.1167 -0.2221
  370TMC3    C3 5587   0.198   0.755  16.749  0.1693  0.5009  0.5078
  370TMC3    C4 5588   0.320   0.897  16.545  0.2209 -0.0726  0.2146
  370TMC3    C5 5589   0.275   0.771  16.526 -0.3784 -0.3841  0.1737
  370TMC3    C6 5590   0.203   0.701  16.626  0.8181  0.3835 -0.1047
  370TMC3     C 5591   0.397   1.048  16.718  0.2852 -0.7052 -0.6144
  370TMC3     O 5592   0.432   1.036  16.835  0.0629  0.0988 -0.2019
  370TMC3     H 5593   0.251   0.924  16.869 -1.0835 -1.6945  0.6766
  370TMC3    H1 5594   0.377   0.944  16.466 -2.2834  0.5344 -1.2523
  370TMC3    H2 5595   0.147   0.614  16.594  1.2019 -0.2173  0.8563
  370TMC3    C7 5596   0.296   0.708  16.393  0.4580  0.2116 -0.7120
  370TMC3    C8 5597   0.160   0.660  16.858 -0.1125  0.6126  0.0012
  370TMC3    O1 5598   0.336   0.773  16.300  0.2125  0.2730  0.3343
  370TMC3    O2 5599   0.166   0.541  16.831 -0.2588 -0.6145 -0.4732
  371TMC3    C1 5600   1.451   3.855  15.827  0.1064 -0.2294  0.4257
  371TMC3    C2 5601   1.338   3.839  15.906  0.0166  0.0983  0.4997
  371TMC3    C3 5602   1.261   3.945  15.932  0.5338 -0.3199  0.0715
  371TMC3    C4 5603   1.492   3.976  15.782 -0.2919 -0.0459 -0.6504
  371TMC3    C5 5604   1.408   4.079  15.807  0.4630 -0.1790 -0.1698
  371TMC3    C6 5605   1.296   4.065  15.884  0.3311  0.5904 -0.5606
  371TMC3     C 5606   1.531   3.741  15.772 -0.9368  0.4224  0.1700
  371TMC3     O 5607   1.633   3.770  15.708  0.5997 -0.6359  0.4935
  371TMC3     H 5608   1.311   3.743  15.949 -2.5584  0.2592 -0.7312
  371TMC3    H1 5609   1.579   3.991  15.719  0.5147 -1.1405  0.1901
  371TMC3    H2 5610   1.246   4.157  15.913  0.2442 -0.1179  1.5189
  371TMC3    C7 5611   1.477   4.201  15.796  0.9125  0.3284  0.2563
  371TMC3    C8 5612   1.161   3.927  16.036  0.4329 -0.1763  0.0597
  371TMC3    O1 5613   1.533   4.229  15.694 -0.0705 -0.4399 -0.5194
  371TMC3    O2 5614   1.154   3.814  16.085 -0.7327  0.0797  0.4220
  372MPD2     C 5615   0.931   0.341  13.734 -0.0902  0.0804  0.1268
  372MPD2    C1 5616   1.037   0.287  13.796  0.1378  0.1367 -0.7869
  372MPD2    C2 5617   1.018   0.158  13.835  0.2296  0.5590  0.0153
  372MPD2    C3 5618   0.896   0.090  13.830 -0.1772 -0.7611  0.0645
  372MPD2    C4 5619   0.794   0.152  13.767 -0.0377  0.5455  0.1494
  372MPD2    C5 5620   0.815   0.270  13.704 -0.5777  0.5719  0.1799
  372MPD2     H 5621   1.102   0.099  13.869  0.7283  1.9409  1.1887
  372MPD2    H1 5622   0.700   0.101  13.749  1.7880 -2.4373 -0.9281
  372MPD2    H2 5623   0.945   0.438  13.688 -1.1435  0.4746  0.6371
  372MPD2    H3 5624   0.742   0.317  13.639  0.3560  1.9742  0.1415
  372MPD2     N 5625   0.884   4.697  13.881  0.8438  0.1937 -0.4247
  372MPD2    H5 5626   0.972   4.662  13.918  0.2070 -1.2444 -0.2783
  372MPD2    N1 5627   1.165   0.348  13.807  0.4381  0.3154  0.0132
  372MPD2    H7 5628   1.235   0.296  13.859 -1.8611 -1.8478  0.9644
  373TMC3    C1 5629   0.789   4.495  13.933 -0.2585  0.3929  0.1492
  373TMC3    C2 5630   0.706   4.436  14.022 -0.5910 -0.4893 -0.3430
  373TMC3    C3 5631   0.711   4.298  14.041 -0.1403 -0.1732  0.0301
  373TMC3    C4 5632   0.886   4.419  13.861  0.1092  0.4369 -0.2457
  373TMC3    C5 5633   0.894   4.287  13.894 -0.8524  0.2069  0.0657
  373TMC3    C6 5634   0.807   4.218  13.978  0.5964  0.0247  0.2369
  373TMC3     C 5635   0.767   4.635  13.907  0.8244  0.0294  0.5535
  373TMC3     O 5636   0.656   4.677  13.913 -0.4142  0.2704 -0.1303
  373TMC3     H 5637   0.638   4.505  14.070 -1.3106  0.3603 -2.5975
  373TMC3    H1 5638   0.963   4.473  13.808  0.2924  0.3933 -0.0222
  373TMC3    H2 5639   0.801   4.110  13.989  1.3098 -0.0303  0.0770
  373TMC3    C7 5640   1.025   4.220  13.867 -0.0737  0.2353  0.1948
  373TMC3    C8 5641   0.590   4.244  14.089  0.1965 -0.4017  0.9423
  373TMC3    O1 5642   1.104   4.259  13.781  0.4857  0.1631  0.6287
  373TMC3    O2 5643   0.488   4.309  14.061  0.0898 -0.2801  0.1701
  374TMC3    C1 5644   1.119   0.919   9.804 -0.2644  0.4031  0.2746
  374TMC3    C2 5645   1.253   0.941   9.814 -0.4641  0.0394 -0.0721
  374TMC3    C3 5646   1.315   0.892   9.929  0.9478  0.0320 -0.4106
  374TMC3    C4 5647   1.041   0.854   9.902 -0.9846  0.9730  0.5157
  374TMC3    C5 5648   1.110   0.809  10.013 -0.7431 -0.0141 -0.5303
  374TMC3    C6 5649   1.244   0.830  10.032 -0.1960  0.2632  0.0291
  374TMC3     C 5650   1.052   0.980   9.684 -0.5711  0.6023 -0.6364
  374TMC3     O 5651   1.111   1.077   9.635  0.4694  0.2638 -0.3994
  374TMC3     H 5652   1.311   1.000   9.744 -0.0274 -0.3257 -0.0173
  374TMC3    H1 5653   0.933   0.851   9.891 -0.9998  0.8321  0.7054
  374TMC3    H2 5654   1.285   0.804  10.129 -0.9726 -1.7483 -0.1964
  374TMC3    C7 5655   1.040   0.729  10.111 -0.8176 -0.0662 -0.1173
  374TMC3    C8 5656   1.440   0.956   9.967  0.1965 -0.7182  0.3010
  374TMC3    O1 5657   0.952   0.654  10.068 -0.4540 -0.0219  0.1940
  374TMC3    O2 5658   1.470   1.056   9.901  0.5452  0.3435 -0.2226
  375MPD2     C 5659   1.771   1.234  17.547  0.1740 -0.2255  0.3029
  375MPD2    C1 5660   1.684   1.202  17.445 -0.1872  0.6224  0.5969
  375MPD2    C2 5661   1.722   1.105  17.350 -0.1149 -1.1240 -0.4002
  375MPD2    C3 5662   1.851   1.041  17.362  0.3411 -0.7871  0.5806
  375MPD2    C4 5663   1.922   1.064  17.472 -0.2053  0.1507 -0.1421
  375MPD2    C5 5664   1.886   1.156  17.567  0.8733 -0.1207 -0.3983
  375MPD2     H 5665   1.651   1.081  17.272 -0.1253  0.0630 -0.7524
  375MPD2    H1 5666   2.009   1.002  17.491 -0.9797 -0.8344  0.1889
  375MPD2    H2 5667   1.754   1.317  17.615  1.0984 -1.9627  2.6430
  375MPD2    H3 5668   1.962   1.175  17.642  0.6237 -1.1759  0.1193
  375MPD2     N 5669   1.901   0.951  17.255 -0.4711 -0.1644 -0.3888
  375MPD2    H5 5670   1.991   0.907  17.267 -0.1546  0.4305 -0.5978
  375MPD2    N1 5671   1.569   1.279  17.421  0.4565  0.1112  0.0545
  375MPD2    H7 5672   1.515   1.250  17.340 -0.6149  1.7866  0.1638
  376TMC3    C1 5673   1.912   0.814  17.055 -0.1833  0.3409 -0.0346
  376TMC3    C2 5674   2.038   0.780  17.085  0.7066  0.3332  0.2950
  376TMC3    C3 5675   2.095   0.695  17.001 -0.8663 -0.7188 -0.7261
  376TMC3    C4 5676   1.841   0.768  16.948  0.0314 -0.0823  1.0241
  376TMC3    C5 5677   1.902   0.682  16.863  0.3869 -0.7240  0.0261
  376TMC3    C6 5678   2.034   0.648  16.889  0.3891  0.0826 -0.7641
  376TMC3     C 5679   1.835   0.919  17.137  1.3686  0.4739 -0.3460
  376TMC3     O 5680   1.743   0.977  17.087 -0.3627 -0.2082  0.0916
  376TMC3     H 5681   2.089   0.822  17.171  0.1177  1.8418 -0.0870
  376TMC3    H1 5682   1.733   0.765  16.938  0.1018 -2.3392  1.0197
  376TMC3    H2 5683   2.098   0.590  16.824 -0.5211 -2.1580  0.3190
  376TMC3    C7 5684   1.848   0.682  16.733 -0.5722  0.1053 -0.4216
  376TMC3    C8 5685   2.231   0.720  16.974 -0.3184  0.0188  0.2534
  376TMC3    O1 5686   1.744   0.743  16.715  0.5895 -0.4994  0.1170
  376TMC3    O2 5687   2.250   0.785  16.871 -0.2407  0.6707 -0.2321
  377MPD2     C 5688   4.410   4.609  12.486  0.0788 -0.5304 -0.7900
  377MPD2    C1 5689   4.459   4.731  12.524  0.1307 -0.0368 -0.3124
  377MPD2    C2 5690   4.407   0.051  12.636  0.7876 -0.1688  0.0146
  377MPD2    C3 5691   4.329   4.716  12.725 -0.2195  0.6016  0.5768
  377MPD2    C4 5692   4.278   4.597  12.674  0.8175 -0.1726  0.3577
  377MPD2    C5 5693   4.314   4.543  12.554 -0.0323  0.1885 -0.0104
  377MPD2     H 5694   4.440   0.151  12.663  0.7298 -0.0271 -0.4416
  377MPD2    H1 5695   4.202   4.541  12.728 -0.3936 -0.7992 -1.9921
  377MPD2    H2 5696   4.434   4.560  12.392 -0.6845  0.7253 -1.6400
  377MPD2    H3 5697   4.268   4.452  12.518 -0.6692  1.0309 -1.3190
  377MPD2     N 5698   4.277   0.030  12.842  0.2230  0.9358  0.1676
  377MPD2    H5 5699   4.209   4.713  12.894 -0.7470  2.0873  0.1056
  377MPD2    N1 5700   4.550   0.058  12.433  0.7973  0.8440 -0.4343
  377MPD2    H7 5701   4.557   0.008  12.345  1.4167  0.9109 -0.4238
  378TMC3    C1 5702   4.738   0.235  12.114  0.1661 -0.5114 -0.8754
  378TMC3    C2 5703   4.651   0.205  12.213 -0.3437  0.2960  0.3476
  378TMC3    C3 5704   4.699   0.217  12.345 -0.7670  0.1981 -0.2973
  378TMC3    C4 5705   0.130   0.280  12.136 -0.5209  0.7335  0.8288
  378TMC3    C5 5706   0.170   0.291  12.264 -0.1849  0.7683  0.1437
  378TMC3    C6 5707   0.088   0.262  12.365  0.2256 -0.0960 -0.5622
  378TMC3     C 5708   4.693   0.234  11.975  0.3996  0.2787  0.3240
  378TMC3     O 5709   0.046   0.241  11.896  0.0409 -0.1247 -0.1083
  378TMC3     H 5710   4.552   0.162  12.199 -1.2814  2.5098  0.1410
  378TMC3    H1 5711   0.195   0.311  12.055 -0.8896 -2.9928 -0.8987
  378TMC3    H2 5712   0.132   0.272  12.463 -0.6421  1.4114 -0.3241
  378TMC3    C7 5713   0.261   0.400  12.305 -0.4800  0.3796  0.9403
  378TMC3    C8 5714   4.618   0.173  12.461  0.0188  0.2858 -0.4693
  378TMC3    O1 5715   0.241   0.441  12.419 -0.4564  0.0387  0.4671
  378TMC3    O2 5716   4.639   0.225  12.566 -0.0901  0.3355 -0.3394
  379MPD2     C 5717   0.037   3.554  16.420 -0.8996 -0.0419 -0.3498
  379MPD2    C1 5718   0.162   3.531  16.356 -0.2640 -0.2377  0.0562
  379MPD2    C2 5719   0.260   3.454  16.419  0.3969  1.0522  0.9422
  379MPD2    C3 5720   0.243   3.407  16.546  0.2225 -0.2175  0.5301
  379MPD2    C4 5721   0.117   3.427  16.603  0.0988 -0.1958 -0.5858
  379MPD2    C5 5722   0.017   3.499  16.546  0.3502 -0.2491 -0.0477
  379MPD2     H 5723   0.358   3.450  16.372 -1.1000 -4.6338 -1.6470
  379MPD2    H1 5724   0.092   3.385  16.700 -0.0861 -0.8753 -0.9256
  379MPD2    H2 5725   4.700   3.624  16.385  0.3886  0.9967 -1.0275
  379MPD2    H3 5726   4.659   3.519  16.592  1.1730  1.2156  1.0072
  379MPD2     N 5727   0.335   3.343  16.626 -0.0449  0.6801  0.2397
  379MPD2    H5 5728   0.312   3.334  16.725  0.9142 -0.6636  0.3403
  379MPD2    N1 5729   0.174   3.577  16.218  0.4174 -0.5036 -0.5632
  379MPD2    H7 5730   0.113   3.654  16.195  1.2683  0.0971 -0.8246
  380TMC3    C1 5731   0.255   3.586  15.991 -0.3898 -0.0041 -0.7509
  380TMC3    C2 5732   0.357   3.532  15.906 -0.5113  0.6924  0.1716
  380TMC3    C3 5733   0.391   3.603  15.793 -0.4615 -0.9549  0.2602
  380TMC3    C4 5734   0.173   3.690  15.953  0.2338 -0.5906  1.0891
  380TMC3    C5 5735   0.195   3.737  15.826  0.7119  0.0435  0.4783
  380TMC3    C6 5736   0.310   3.710  15.755  0.3124  0.4638 -0.0201
  380TMC3     C 5737   0.269   3.533  16.132  0.0643  0.4150 -0.2376
  380TMC3     O 5738   0.365   3.460  16.153 -0.4137  0.3376 -0.0264
  380TMC3     H 5739   0.430   3.460  15.944 -0.4490  1.7085  1.9759
  380TMC3    H1 5740   0.098   3.729  16.020 -0.8837 -0.7363 -0.0887
  380TMC3    H2 5741   0.333   3.753  15.658  0.0707 -0.1464 -0.3478
  380TMC3    C7 5742   0.096   3.829  15.775 -0.1391  0.3667 -0.3030
  380TMC3    C8 5743   0.533   3.601  15.744  0.4543 -0.1197  0.8110
  380TMC3    O1 5744   0.148   3.918  15.702 -0.3070  0.0340 -0.1728
  380TMC3    O2 5745   0.599   3.510  15.781 -0.3616 -0.4081  0.0823
  381TMC3    C1 5746   0.048   0.079  16.621 -0.7245 -0.2733  0.0715
  381TMC3    C2 5747   0.173   0.133  16.629 -0.3886  0.5551 -0.8290
  381TMC3    C3 5748   0.205   0.216  16.732  0.4735 -0.3435 -0.3940
  381TMC3    C4 5749   4.701   0.098  16.729 -0.0429  0.5429 -0.7840
  381TMC3    C5 5750   0.003   0.178  16.833 -0.3031  0.0228 -0.1229
  381TMC3    C6 5751   0.125   0.244  16.836  0.6277 -0.8167  0.3095
  381TMC3     C 5752   0.027   4.695  16.552  0.0646 -0.0217 -0.4174
  381TMC3     O 5753   4.711   4.609  16.616 -0.1459  0.1145  0.5559
  381TMC3     H 5754   0.249   0.096  16.562  0.0691 -0.3948  0.2265
  381TMC3    H1 5755   4.608   0.043  16.729 -0.5901  1.4781 -0.1665
  381TMC3    H2 5756   0.158   0.308  16.918 -0.8288 -0.8712  0.9443
  381TMC3    C7 5757   4.668   0.191  16.958  0.6296  0.0007  0.0455
  381TMC3    C8 5758   0.346   0.257  16.727  0.4647  0.2313 -0.0066
  381TMC3    O1 5759   4.698   0.289  17.025 -0.6383 -0.2033 -0.8033
  381TMC3    O2 5760   0.424   0.189  16.661 -0.5853 -0.9367  0.2339
  382MPD2     C 5761   4.446   2.300  17.732 -0.3003  0.0351 -0.7661
  382MPD2    C1 5762   4.308   2.305  17.724 -0.2766  0.1870  0.3737
  382MPD2    C2 5763   4.229   2.205   0.028 -0.0152  0.4543 -0.3045
  382MPD2    C3 5764   4.290   2.095   0.090  0.1018  0.6204  0.8423
  382MPD2    C4 5765   4.429   2.091   0.101 -0.7311 -0.0467 -0.4242
  382MPD2    C5 5766   4.504   2.187   0.046  0.0395  1.1177  0.2012
  382MPD2     H 5767   4.121   2.212   0.023 -0.0915 -0.7670 -0.3659
  382MPD2    H1 5768   4.478   2.003   0.140 -0.8198 -0.9205 -2.2751
  382MPD2    H2 5769   4.507   2.374  17.680  0.1432  0.1193 -0.1188
  382MPD2    H3 5770   4.609   2.169   0.061 -0.2873  1.1899  2.5096
  382MPD2     N 5771   4.227   1.981   0.141 -0.6630 -0.2702 -0.4212
  382MPD2    H5 5772   4.277   1.896   0.164  2.3405  2.2442  2.3548
  382MPD2    N1 5773   4.244   2.419  17.664  0.0623 -0.0440 -0.7942
  382MPD2    H7 5774   4.144   2.402  17.655  0.4230 -2.0786 -1.0718
  383TMC3    C1 5775   4.059   1.823   0.165  0.1486 -0.7884 -0.0588
  383TMC3    C2 5776   3.963   1.762   0.089 -0.3066  0.3967  0.0907
  383TMC3    C3 5777   3.939   1.625   0.128  0.1516  0.0553  0.5985
  383TMC3    C4 5778   4.130   1.766   0.267  0.1892 -0.3105 -0.5647
  383TMC3    C5 5779   4.096   1.629   0.302 -0.7163 -0.4853 -0.8214
  383TMC3    C6 5780   4.006   1.558   0.231 -0.2476 -0.0297  0.0614
  383TMC3     C 5781   4.094   1.957   0.119  0.1182  0.2205 -0.8496
  383TMC3     O 5782   4.001   2.021   0.070  0.5651  0.1697 -0.8488
  383TMC3     H 5783   3.910   1.811   0.007 -0.4632 -1.4275 -0.8900
  383TMC3    H1 5784   4.197   1.817   0.334  2.7101 -2.4716 -1.4479
  383TMC3    H2 5785   3.971   1.459   0.259  0.0237 -0.6667 -1.8323
  383TMC3    C7 5786   4.175   1.546   0.392  0.1303  0.1357 -0.0029
  383TMC3    C8 5787   3.832   1.559   0.053  0.2359  0.6278  0.1350
  383TMC3    O1 5788   4.130   1.429   0.402  0.0203 -0.3948 -0.2798
  383TMC3    O2 5789   3.770   1.619  17.714  0.1811 -0.0736  0.1726
  384MPD2     C 5790   0.762   3.614  12.589  0.4287  0.4421 -0.2744
  384MPD2    C1 5791   0.756   3.581  12.723  0.3784  0.0599 -0.6072
  384MPD2    C2 5792   0.854   3.493  12.767 -0.0147 -0.5133  0.4642
  384MPD2    C3 5793   0.961   3.455  12.687  0.1263  0.2747  0.7958
  384MPD2    C4 5794   0.974   3.509  12.561 -0.3106 -0.3209  0.5315
  384MPD2    C5 5795   0.874   3.586  12.506 -0.0439  0.4671 -1.0324
  384MPD2     H 5796   0.850   3.458  12.869 -1.5681 -1.5277  0.0409
  384MPD2    H1 5797   1.064   3.490  12.503 -1.1492  0.5466 -1.0665
  384MPD2    H2 5798   0.677   3.661  12.541 -0.2361 -0.5321 -0.0262
  384MPD2    H3 5799   0.882   3.625  12.405  0.3997 -0.4372 -1.3420
  384MPD2     N 5800   1.057   3.376  12.739 -0.8959  0.8273 -0.2141
  384MPD2    H5 5801   1.048   3.360  12.839  0.0478 -1.0444 -0.4312
  384MPD2    N1 5802   0.647   3.617  12.804  0.5791 -0.4420  0.1263
  384MPD2    H7 5803   0.581   3.681  12.760  0.3828  0.2925  1.4639
  385TMC3    C1 5804   1.204   3.212  12.761  0.2600 -0.2352  0.3103
  385TMC3    C2 5805   1.162   3.089  12.712 -0.2781  0.7449 -0.9192
  385TMC3    C3 5806   1.101   2.994  12.805 -0.2019 -0.6565 -0.1206
  385TMC3    C4 5807   1.182   3.235  12.895  0.0131 -0.8360  0.0215
  385TMC3    C5 5808   1.119   3.152  12.978  1.3785  0.3781  0.3542
  385TMC3    C6 5809   1.084   3.025  12.939  0.0003  0.3425  0.7856
  385TMC3     C 5810   1.161   3.320  12.670  0.1244 -0.3732 -0.1259
  385TMC3     O 5811   1.186   3.309  12.553  0.2288  0.0090  0.3767
  385TMC3     H 5812   1.176   3.066  12.607  0.6735  0.1406 -0.6656
  385TMC3    H1 5813   1.209   3.329  12.942 -0.1343 -0.8808  0.1949
  385TMC3    H2 5814   1.030   2.958  13.005  0.8641 -0.7559  0.3650
  385TMC3    C7 5815   1.032   3.227  13.056  0.4594 -0.2677 -0.8421
  385TMC3    C8 5816   1.099   2.850  12.770  0.4460 -0.1176 -1.1319
  385TMC3    O1 5817   0.986   3.329  13.004  0.2687  0.3280 -0.7243
  385TMC3    O2 5818   1.117   2.772  12.863 -0.2018  0.1460  0.4370
  386TMC3    C1 5819   1.921   0.567  11.926  0.0350  0.2024  0.4269
  386TMC3    C2 5820   1.869   0.483  11.837 -0.1134  0.3740 -0.4217
  386TMC3    C3 5821   1.752   0.527  11.781 -0.0850  0.1709  0.5848
  386TMC3    C4 5822   1.887   0.700  11.947  0.7767  0.1726 -0.0751
  386TMC3    C5 5823   1.775   0.738  11.884  0.7965  0.0216  0.5925
  386TMC3    C6 5824   1.693   0.648  11.812  0.3940  0.2099  0.2698
  386TMC3     C 5825   2.049   0.535  12.000 -0.4155  0.5930 -0.3630
  386TMC3     O 5826   2.111   0.637  12.027  0.0304 -0.4255  0.1130
  386TMC3     H 5827   1.921   0.390  11.817  1.6932  1.1270  0.8182
  386TMC3    H1 5828   1.932   0.769  12.018  0.8799  2.3551 -2.2397
  386TMC3    H2 5829   1.598   0.680  11.771  0.9605  1.2589 -0.2121
  386TMC3    C7 5830   1.708   0.858  11.930 -0.4564  0.1877 -0.1960
  386TMC3    C8 5831   1.674   0.456  11.686  0.0591  0.5731  0.5638
  386TMC3    O1 5832   1.735   0.895  12.044  0.4242  0.1507  0.3288
  386TMC3    O2 5833   1.572   0.501  11.638 -0.0986  0.2923 -0.1941
  387MPD2     C 5834   3.047   0.273  10.091 -0.4449 -0.2684 -0.4845
  387MPD2    C1 5835   3.165   0.240  10.021  0.4275 -0.1827  1.0452
  387MPD2    C2 5836   3.182   0.110   9.972  0.3771  0.3779 -0.5578
  387MPD2    C3 5837   3.081   0.013   9.992 -0.0633  0.6712  0.5688
  387MPD2    C4 5838   2.969   0.049  10.060  0.0752 -0.5846  0.4866
  387MPD2    C5 5839   2.952   0.175  10.108 -0.6490 -0.7481  0.3321
  387MPD2     H 5840   3.271   0.079   9.918  0.2666 -0.8620 -0.0239
  387MPD2    H1 5841   2.886   4.719  10.077 -0.8702  0.4498 -0.0232
  387MPD2    H2 5842   3.036   0.369  10.140  1.7558  0.0109 -0.5274
  387MPD2    H3 5843   2.861   0.200  10.163 -0.7473 -1.3185  0.4262
  387MPD2     N 5844   3.111   4.621   9.946  0.0479  0.1977  0.3860
  387MPD2    H5 5845   3.202   4.616   9.900  0.6806 -0.6316  1.7214
  387MPD2    N1 5846   3.280   0.318  10.020 -0.0185 -0.5932 -0.3836
  387MPD2    H7 5847   3.355   0.286   9.959 -0.6933  1.4980 -2.2962
  388TMC3    C1 5848   3.440   0.483  10.067 -0.3479  0.3430  0.2601
  388TMC3    C2 5849   3.469   0.611  10.081  0.0028 -0.5976  0.7534
  388TMC3    C3 5850   3.598   0.643  10.103  0.2052  0.1120 -0.4442
  388TMC3    C4 5851   3.532   0.384  10.078 -0.2571 -0.5203 -0.0101
  388TMC3    C5 5852   3.660   0.419  10.088 -0.6589  0.5658  0.2249
  388TMC3    C6 5853   3.695   0.547  10.109 -0.0210  0.2864  0.3610
  388TMC3     C 5854   3.298   0.442  10.073 -0.6475  0.0799 -0.1343
  388TMC3     O 5855   3.223   0.524  10.119 -0.0840 -0.1135 -0.1729
  388TMC3     H 5856   3.403   0.696  10.069  0.0595 -0.5968  0.4385
  388TMC3    H1 5857   3.499   0.281  10.086 -0.2835 -0.3130  2.5275
  388TMC3    H2 5858   3.802   0.566  10.110 -0.2412  1.5473  0.9244
  388TMC3    C7 5859   3.753   0.315  10.048 -0.0263  0.0693  0.5788
  388TMC3    C8 5860   3.654   0.778  10.126  0.8529 -0.1723  0.1740
  388TMC3    O1 5861   3.868   0.330  10.076  0.1500  0.0395 -0.1944
  388TMC3    O2 5862   3.771   0.804  10.106  0.6525 -0.7130  0.5843
  389MPD2     C 5863   2.979   3.412  11.766  0.5720  0.8798  0.5925
  389MPD2    C1 5864   2.918   3.301  11.715  0.0507  0.0925 -0.8466
  389MPD2    C2 5865   2.819   3.230  11.780  0.6289 -0.6959  0.1148
  389MPD2    C3 5866   2.782   3.265  11.911  0.1475  0.1686  0.0528
  389MPD2    C4 5867   2.836   3.381  11.959 -0.7983 -0.3045 -0.4652
  389MPD2    C5 5868   2.941   3.447  11.896 -0.5510 -0.0330 -0.3036
  389MPD2     H 5869   2.760   3.149  11.738 -0.6929 -0.4107  1.4210
  389MPD2    H1 5870   2.810   3.432  12.052  3.2544  2.0017 -0.5991
  389MPD2    H2 5871   3.053   3.468  11.710  0.2394 -0.9695 -1.6872
  389MPD2    H3 5872   2.996   3.531  11.936  1.0466 -1.1074 -0.2469
  389MPD2     N 5873   2.697   3.195  11.994  0.4060 -0.3857  0.7938
  389MPD2    H5 5874   2.661   3.235  12.080 -3.5778 -0.3410 -0.8574
  389MPD2    N1 5875   2.941   3.292  11.581 -0.2946  0.5088 -0.3291
  389MPD2    H7 5876   3.011   3.353  11.539  0.4237  1.2130  1.9025
  390TMC3    C1 5877   2.535   3.028  12.041  0.4699 -0.0375  0.2193
  390TMC3    C2 5878   2.520   2.894  12.049  0.0102 -0.0337 -0.0873
  390TMC3    C3 5879   2.416   2.850  12.129  0.4802 -0.1324 -0.1191
  390TMC3    C4 5880   2.456   3.115  12.105 -0.3539 -0.1524 -0.6910
  390TMC3    C5 5881   2.345   3.061  12.170 -0.2333 -0.0622  0.4096
  390TMC3    C6 5882   2.324   2.927  12.190  0.0634 -0.3390 -0.4748
  390TMC3     C 5883   2.646   3.071  11.958 -0.5015 -0.0461 -0.4430
  390TMC3     O 5884   2.688   2.990  11.879  0.7738  0.3804  0.5222
  390TMC3     H 5885   2.586   2.819  12.009  0.0930  0.4550 -0.8598
  390TMC3    H1 5886   2.454   3.222  12.091 -1.2745 -0.1854 -0.8100
  390TMC3    H2 5887   2.240   2.873  12.231  0.8412 -1.3378 -0.1698
  390TMC3    C7 5888   2.219   3.134  12.147  0.2767  0.2055 -0.1278
  390TMC3    C8 5889   2.383   2.713  12.113  0.3416 -0.2003  0.8458
  390TMC3    O1 5890   2.229   3.231  12.071  0.7857  0.0663  0.3936
  390TMC3    O2 5891   2.371   2.668  11.999  0.0072 -0.0158 -0.1497
  391MPD2     C 5892   1.901   0.143  11.259 -0.3165 -0.4021 -0.4906
  391MPD2    C1 5893   2.031   0.167  11.214  0.0014  0.5370 -0.3355
  391MPD2    C2 5894   2.045   0.237  11.098  0.0642  0.3728  0.2550
  391MPD2    C3 5895   1.939   0.306  11.040  0.0633 -0.8058 -0.2624
  391MPD2    C4 5896   1.814   0.285  11.083  0.0910  0.3279  0.9870
  391MPD2    C5 5897   1.794   0.193  11.191 -0.0238  0.4553 -0.0747
  391MPD2     H 5898   2.146   0.259  11.064  0.3125 -2.2493 -0.7244
  391MPD2    H1 5899   1.727   0.333  11.041 -0.7517 -1.5899  0.5045
  391MPD2    H2 5900   1.879   0.080  11.345  2.7112  0.3550  0.8431
  391MPD2    H3 5901   1.693   0.170  11.220  0.1600 -0.9501 -0.5867
  391MPD2     N 5902   1.971   0.391  10.931  0.6190 -0.2365  0.1250
  391MPD2    H5 5903   2.070   0.410  10.917  0.0592  1.6166 -1.2354
  391MPD2    N1 5904   2.143   0.126  11.290  0.6597  0.5246  0.1419
  391MPD2    H7 5905   2.125   0.068  11.371 -0.2024  0.4762 -0.0875
  392TMC3    C1 5906   1.946   0.531  10.744 -0.3956  0.2674 -0.0074
  392TMC3    C2 5907   1.865   0.576  10.643 -0.5209  0.1987 -0.3339
  392TMC3    C3 5908   1.921   0.651  10.544 -0.6914 -0.4626  0.0038
  392TMC3    C4 5909   2.082   0.553  10.744 -0.0735  0.6589  0.0295
  392TMC3    C5 5910   2.131   0.618  10.634  0.3978 -0.7497 -0.4128
  392TMC3    C6 5911   2.053   0.665  10.531  0.3048  0.7431  0.2937
  392TMC3     C 5912   1.884   0.460  10.857  0.0955 -0.5264  0.7024
  392TMC3     O 5913   1.767   0.450  10.839  0.0422 -0.1089 -0.2501
  392TMC3     H 5914   1.760   0.596  10.665 -0.8054 -2.4518  0.6978
  392TMC3    H1 5915   2.136   0.533  10.836  1.9269  0.8501 -1.1010
  392TMC3    H2 5916   2.090   0.713  10.441  1.7823  0.0453  0.5276
  392TMC3    C7 5917   2.267   0.668  10.651  0.3748 -0.2436 -0.1548
  392TMC3    C8 5918   1.836   0.697  10.441 -0.0789 -0.4924 -0.1545
  392TMC3    O1 5919   2.342   0.603  10.719  0.3390  0.0768  0.1004
  392TMC3    O2 5920   1.745   0.618  10.415 -0.0954 -0.3035  0.5345
  393TMC3    C1 5921   1.315   3.049  11.570 -0.0592 -0.9058 -0.2838
  393TMC3    C2 5922   1.178   3.052  11.563 -0.4915 -0.3772  0.1973
  393TMC3    C3 5923   1.107   2.937  11.548 -0.2018  0.0492 -0.6464
  393TMC3    C4 5924   1.384   2.931  11.560  0.0710  0.3160 -1.5269
  393TMC3    C5 5925   1.314   2.813  11.551 -0.0108 -0.0931 -0.1599
  393TMC3    C6 5926   1.174   2.818  11.541 -0.4117  0.6109  0.7154
  393TMC3     C 5927   1.373   3.153  11.483  0.6164  0.2876  0.0667
  393TMC3     O 5928   1.306   3.211  11.398  0.0009  0.7133 -0.0434
  393TMC3     H 5929   1.129   3.149  11.555 -0.8652 -0.4303  1.7738
  393TMC3    H1 5930   1.492   2.928  11.552  0.0921 -2.9419  0.0169
  393TMC3    H2 5931   1.124   2.722  11.553  0.3508  0.2464  0.9971
  393TMC3    C7 5932   1.370   2.726  11.451  0.2437  0.2762 -0.0726
  393TMC3    C8 5933   0.973   2.948  11.500  0.2255 -0.6323 -0.1367
  393TMC3    O1 5934   1.285   2.682  11.378  0.2521  0.4471  0.8687
  393TMC3    O2 5935   0.939   2.852  11.430  0.0950 -0.6920  0.8992
  394TMC3    C1 5936   2.899   3.253  11.349 -1.1219 -0.0865  0.4129
  394TMC3    C2 5937   2.800   3.226  11.268  0.3362  0.0020  0.1232
  394TMC3    C3 5938   2.814   3.249  11.133  0.5406  0.1316 -0.0539
  394TMC3    C4 5939   3.001   3.328  11.307 -0.2664 -0.0788 -0.0083
  394TMC3    C5 5940   3.003   3.367  11.178 -0.3798  0.5282 -0.3048
  394TMC3    C6 5941   2.918   3.319  11.080 -0.1575 -0.2289  0.3027
  394TMC3     C 5942   2.872   3.213  11.493 -0.0387 -0.4640 -0.1753
  394TMC3     O 5943   2.778   3.141  11.518  0.7974 -0.8619 -1.1602
  394TMC3     H 5944   2.716   3.165  11.299 -0.6412  0.4065 -1.7662
  394TMC3    H1 5945   3.083   3.354  11.372  0.3518 -1.7898 -0.1012
  394TMC3    H2 5946   2.941   3.329  10.974  0.4565 -0.0383  0.4537
  394TMC3    C7 5947   3.097   3.479  11.152 -0.1928 -0.0499  0.1375
  394TMC3    C8 5948   2.696   3.217  11.056  0.8809 -0.0889  0.6337
  394TMC3    O1 5949   3.189   3.487  11.232  0.4471  0.2076  0.2385
  394TMC3    O2 5950   2.588   3.217  11.114  0.5003 -0.2334 -0.3636
  395TMC3    C1 5951   2.192   1.185  15.290 -0.6922 -0.7740 -0.2743
  395TMC3    C2 5952   2.101   1.167  15.190 -0.2720 -0.6860 -0.0342
  395TMC3    C3 5953   2.106   1.259  15.091 -0.4697  0.4507 -0.1015
  395TMC3    C4 5954   2.288   1.288  15.292 -0.2387  0.2449 -0.6451
  395TMC3    C5 5955   2.293   1.361  15.179 -0.7889  0.3594  0.2001
  395TMC3    C6 5956   2.199   1.350  15.085  0.3894 -0.2795 -0.5101
  395TMC3     C 5957   2.142   1.125  15.411 -0.1050 -0.1702  0.3439
  395TMC3     O 5958   2.156   1.184  15.516  0.0909  0.1232  0.1508
  395TMC3     H 5959   2.009   1.116  15.214 -0.9503  0.8557  0.6436
  395TMC3    H1 5960   2.348   1.305  15.381  0.7532  2.6672 -1.7941
  395TMC3    H2 5961   2.198   1.413  14.997 -2.7310 -1.3737 -1.2515
  395TMC3    C7 5962   2.382   1.471  15.190 -0.1592 -0.6596 -0.7362
  395TMC3    C8 5963   1.999   1.259  14.994 -0.5159 -0.0990 -0.0683
  395TMC3    O1 5964   2.444   1.489  15.297  0.1357  0.8080 -0.3755
  395TMC3    O2 5965   1.991   1.362  14.927 -0.7046  0.0200 -0.0380
  396MPD2     C 5966   2.040   1.789  17.471 -0.7492 -0.3744 -0.5301
  396MPD2    C1 5967   2.165   1.807  17.527  0.2655 -0.4696 -0.2461
  396MPD2    C2 5968   2.241   1.917  17.485 -0.3188  0.3568  0.2854
  396MPD2    C3 5969   2.199   1.989  17.375 -0.0735 -0.1064  0.2769
  396MPD2    C4 5970   2.083   1.967  17.311 -0.4609  0.4913 -0.1369
  396MPD2    C5 5971   1.995   1.872  17.368 -0.2570  0.6321  0.3089
  396MPD2     H 5972   2.329   1.942  17.544  0.4294 -0.1266 -0.6260
  396MPD2    H1 5973   2.046   2.029  17.230 -0.8058 -2.0555 -1.9170
  396MPD2    H2 5974   1.974   1.709  17.504  0.5468 -0.6539  1.3330
  396MPD2    H3 5975   1.895   1.862  17.327  0.5134  0.1775 -1.4642
  396MPD2     N 5976   2.290   2.085  17.332 -0.5164 -0.2442 -0.0930
  396MPD2    H5 5977   2.375   2.091  17.387 -0.2304 -3.8177 -0.1390
  396MPD2    N1 5978   2.203   1.715  17.629 -0.0236 -0.1339  0.2840
  396MPD2    H7 5979   2.139   1.637  17.641 -0.3902 -0.0925 -1.4013
  397TMC3    C1 5980   2.329   1.615   0.061 -0.1696 -0.0042  0.0125
  397TMC3    C2 5981   2.463   1.591   0.094  0.8702 -0.6527  0.5886
  397TMC3    C3 5982   2.508   1.460   0.098 -0.3150  0.3682  0.3304
  397TMC3    C4 5983   2.236   1.512   0.069 -0.2100 -0.4778 -0.3615
  397TMC3    C5 5984   2.283   1.391   0.109 -1.0595 -0.2957  0.1691
  397TMC3    C6 5985   2.419   1.358   0.120 -0.0115 -0.5325 -0.8811
  397TMC3     C 5986   2.308   1.725  17.715 -0.4824 -0.7243  0.9500
  397TMC3     O 5987   2.387   1.818  17.732  0.0246  0.1749  0.3065
  397TMC3     H 5988   2.527   1.677   0.077 -0.2287  0.3008  1.2620
  397TMC3    H1 5989   2.133   1.542   0.079  0.6408  2.3315 -0.1414
  397TMC3    H2 5990   2.451   1.256   0.140 -0.1616 -0.5872 -0.9118
  397TMC3    C7 5991   2.184   1.283   0.124 -0.3985  0.3557  0.1300
  397TMC3    C8 5992   2.647   1.428   0.123  0.4877  0.4214  0.8908
  397TMC3    O1 5993   2.069   1.311   0.086 -0.6332 -0.6226 -0.6798
  397TMC3    O2 5994   2.664   1.335   0.196 -0.2306  0.0255 -0.0362
  398MPD2     C 5995   0.478   3.527   0.551  0.3875 -0.4261 -0.1628
  398MPD2    C1 5996   0.578   3.428   0.541  0.2352  0.8653  0.7715
  398MPD2    C2 5997   0.708   3.457   0.568  0.1995  0.3048  0.3949
  398MPD2    C3 5998   0.748   3.588   0.591  0.8414  0.2068  0.4261
  398MPD2    C4 5999   0.651   3.690   0.599  0.7332 -0.1421  0.2812
  398MPD2    C5 6000   0.522   3.655   0.580 -1.0654 -0.8164 -0.5971
  398MPD2     H 6001   0.786   3.382   0.555 -0.8021 -0.7306  0.4212
  398MPD2    H1 6002   0.677   3.795   0.597 -0.7481  0.2149 -0.6347
  398MPD2    H2 6003   0.371   3.509   0.553  0.4683 -0.8486  0.2806
  398MPD2    H3 6004   0.447   3.734   0.588 -2.2299 -2.1584  1.6475
  398MPD2     N 6005   0.885   3.613   0.587  0.3140 -0.2105  0.2011
  398MPD2    H5 6006   0.952   3.544   0.555  1.7108  1.0410  0.4479
  398MPD2    N1 6007   0.540   3.293   0.528  0.1396 -0.6171  0.2495
  398MPD2    H7 6008   0.613   3.225   0.509 -0.5145 -1.0095 -0.8785
  399TMC3    C1 6009   0.401   3.104   0.478  0.4314  0.2869 -0.2132
  399TMC3    C2 6010   0.494   3.030   0.535  0.2319  0.5166 -0.3237
  399TMC3    C3 6011   0.461   2.897   0.569  0.1117 -0.2526  0.1825
  399TMC3    C4 6012   0.275   3.062   0.443  0.3495 -0.1555  0.6185
  399TMC3    C5 6013   0.254   2.931   0.461 -0.6524 -0.9982 -0.1688
  399TMC3    C6 6014   0.344   2.844   0.521 -0.8937 -0.3985  0.8355
  399TMC3     C 6015   0.410   3.244   0.520 -0.6873 -0.9377 -0.5916
  399TMC3     O 6016   0.303   3.296   0.550  0.0813  0.0329 -0.6211
  399TMC3     H 6017   0.593   3.058   0.569  0.6527 -0.1995 -0.9555
  399TMC3    H1 6018   0.199   3.131   0.409  2.1629  0.9946 -1.0905
  399TMC3    H2 6019   0.322   2.738   0.528  1.2822 -0.7750  2.3582
  399TMC3    C7 6020   0.128   2.876   0.413 -0.0246 -0.2554 -0.4157
  399TMC3    C8 6021   0.561   2.805   0.621 -0.3974 -0.7927 -0.4044
  399TMC3    O1 6022   0.077   2.781   0.469 -0.0712  0.3350 -0.4457
  399TMC3    O2 6023   0.673   2.819   0.575 -0.0065 -0.0706 -0.3947
  400TMC3    C1 6024   3.644   1.242  17.400 -0.2664 -0.5730 -0.5295
  400TMC3    C2 6025   3.545   1.146  17.401 -0.3004  0.4504  0.3329
  400TMC3    C3 6026   3.430   1.149  17.328  0.4986 -0.5648 -0.1572
  400TMC3    C4 6027   3.630   1.341  17.305  0.4378 -0.2533  0.2399
  400TMC3    C5 6028   3.520   1.335  17.226  0.3003 -0.2742  0.0878
  400TMC3    C6 6029   3.427   1.236  17.228  0.0115 -0.0804  0.1810
  400TMC3     C 6030   3.783   1.203  17.429 -0.2102  0.9620  0.2683
  400TMC3     O 6031   3.801   1.080  17.439  0.1365 -0.5995  0.6642
  400TMC3     H 6032   3.565   1.059  17.463  1.2318 -0.8841 -2.0240
  400TMC3    H1 6033   3.713   1.406  17.278 -0.6186  1.0158  0.0713
  400TMC3    H2 6034   3.338   1.238  17.167  0.3281 -0.0339 -0.2808
  400TMC3    C7 6035   3.469   1.448  17.153  0.7136 -0.0303  0.1381
  400TMC3    C8 6036   3.384   1.014  17.302 -0.2011 -0.8086  0.1933
  400TMC3    O1 6037   3.393   1.431  17.060 -0.9196 -0.2298  0.5362
  400TMC3    O2 6038   3.334   0.956  17.399  0.2191  0.5666  0.3510
  401MPD2     C 6039   1.840   4.624   1.184  0.4985 -0.1217  0.1243
  401MPD2    C1 6040   1.929   4.529   1.217  0.4145  1.1935 -0.6837
  401MPD2    C2 6041   1.915   4.401   1.170  0.3982 -0.0603  0.5370
  401MPD2    C3 6042   1.815   4.378   1.087 -0.0416 -0.1198 -0.0323
  401MPD2    C4 6043   1.723   4.475   1.043 -0.0653 -0.0022 -0.0580
  401MPD2    C5 6044   1.733   4.602   1.095  0.4996 -0.7972  0.2931
  401MPD2     H 6045   1.983   4.327   1.212  0.6621  0.0461  0.2908
  401MPD2    H1 6046   1.645   4.455   0.970  0.9674 -2.5143 -0.4660
  401MPD2    H2 6047   1.845   4.723   1.229  1.5218 -0.2974  0.3953
  401MPD2    H3 6048   1.661   4.678   1.065  1.1007 -0.2145  0.3185
  401MPD2     N 6049   1.796   4.239   1.046  0.3756  0.5603 -0.0546
  401MPD2    H5 6050   1.860   4.179   1.097 -0.7727  0.2474  1.0098
  401MPD2    N1 6051   2.049   4.556   1.295  0.1899  0.4459 -0.1554
  401MPD2    H7 6052   2.116   4.480   1.297  0.5267  0.7134 -1.0569
  402TMC3    C1 6053   1.727   4.055   0.920  0.8557 -0.6793  0.8512
  402TMC3    C2 6054   1.744   3.975   1.028  0.5084  0.0984  0.8707
  402TMC3    C3 6055   1.783   3.841   1.002  0.4527  0.2079  0.2572
  402TMC3    C4 6056   1.764   4.017   0.789  0.5864  0.2808  0.7224
  402TMC3    C5 6057   1.804   3.889   0.768  0.3320 -0.4060  0.5127
  402TMC3    C6 6058   1.816   3.805   0.878 -0.2645  0.3399  0.9779
  402TMC3     C 6059   1.703   4.188   0.949 -0.6709 -0.0494 -0.3921
  402TMC3     O 6060   1.639   4.251   0.867  0.2890  0.2763 -0.5932
  402TMC3     H 6061   1.708   4.004   1.127 -0.6054  1.8829 -0.0540
  402TMC3    H1 6062   1.758   4.088   0.708 -1.0750 -0.6050  0.0629
  402TMC3    H2 6063   1.848   3.702   0.871 -0.8492  0.1899  0.5271
  402TMC3    C7 6064   1.837   3.855   0.636 -0.3925  0.1515  0.0975
  402TMC3    C8 6065   1.872   3.781   1.105 -0.0585 -0.4129 -0.4888
  402TMC3    O1 6066   1.840   3.943   0.553  0.6227  0.0552 -0.2724
  402TMC3    O2 6067   1.967   3.715   1.069  0.3566 -0.0966 -0.6264
  403MPD2     C 6068   0.576   2.955  13.569  0.0212 -0.6963 -0.1529
  403MPD2    C1 6069   0.498   2.954  13.679  0.5223 -0.0689 -0.2088
  403MPD2    C2 6070   0.556   2.883  13.788  0.3439 -0.3224  0.5026
  403MPD2    C3 6071   0.674   2.813  13.775  0.8623 -0.4750  0.0901
  403MPD2    C4 6072   0.745   2.810  13.658  0.6971  0.9553 -0.6641
  403MPD2    C5 6073   0.692   2.888  13.553  0.4807 -0.1025 -0.1051
  403MPD2     H 6074   0.510   2.864  13.884 -1.0646 -1.2461 -0.3438
  403MPD2    H1 6075   0.839   2.758  13.642  0.0021 -0.9053  1.3228
  403MPD2    H2 6076   0.545   3.001  13.475 -1.2649 -0.6147  0.3116
  403MPD2    H3 6077   0.727   2.879  13.452 -0.2223 -1.7717 -0.1982
  403MPD2     N 6078   0.723   2.750  13.897  0.5638 -0.2335  0.3145
  403MPD2    H5 6079   0.664   2.768  13.978  3.0198  1.2020  1.7885
  403MPD2    N1 6080   0.371   3.015  13.677 -0.0324  0.2473  0.6143
  403MPD2    H7 6081   0.343   3.066  13.594  2.1344  1.8507  0.8687
  404TMC3    C1 6082   0.152   3.024  13.745  0.4671  0.0737 -0.5736
  404TMC3    C2 6083   0.061   2.956  13.829  0.3043  0.3778 -0.0204
  404TMC3    C3 6084   4.681   2.908  13.777 -0.0014  0.1563 -0.3541
  404TMC3    C4 6085   0.120   3.060  13.616  0.5751  0.0458 -0.0708
  404TMC3    C5 6086   0.002   3.008  13.567  0.2284  0.0799  0.1885
  404TMC3    C6 6087   4.651   2.934  13.644  0.2745 -0.3552 -0.2079
  404TMC3     C 6088   0.294   3.016  13.793  0.3388 -0.9929  0.3345
  404TMC3     O 6089   0.315   2.972  13.903  0.7311 -0.6429 -0.1854
  404TMC3     H 6090   0.085   2.941  13.934 -0.0579  0.1700  0.0354
  404TMC3    H1 6091   0.186   3.107  13.545 -1.5232  0.6569 -1.6321
  404TMC3    H2 6092   4.571   2.882  13.593 -0.7544  0.8639  0.1548
  404TMC3    C7 6093   4.733   2.992  13.427  0.7886 -0.0942  1.1019
  404TMC3    C8 6094   4.687   2.769  13.793  0.0465  0.4873 -0.1983
  404TMC3    O1 6095   0.042   3.080  13.356 -0.0327 -0.0832 -0.5763
  404TMC3    O2 6096   4.686   2.696  13.691 -0.4963  0.0980 -0.2804
  405MPD2     C 6097   0.844   0.058  15.374  0.2324  0.2224  0.1923
  405MPD2    C1 6098   0.906   4.713  15.284 -0.4647  0.2360 -0.4576
  405MPD2    C2 6099   0.860   4.716  15.156  0.6131  0.0304 -0.1018
  405MPD2    C3 6100   0.762   0.063  15.108  0.0126  1.1390  0.3974
  405MPD2    C4 6101   0.700   0.146  15.203 -0.9348  0.2605 -0.0195
  405MPD2    C5 6102   0.746   0.145  15.331 -0.0802 -0.0459  0.4747
  405MPD2     H 6103   0.901   4.637  15.093 -1.3797 -0.3819 -0.9074
  405MPD2    H1 6104   0.608   0.200  15.184 -1.3532 -0.9264 -1.4241
  405MPD2    H2 6105   0.877   0.065  15.477  0.5826  0.9199  0.0287
  405MPD2    H3 6106   0.702   0.215  15.401 -0.5107  1.3535 -1.2077
  405MPD2     N 6107   0.709   0.059  14.977 -0.1174  0.0572  0.4174
  405MPD2    H5 6108   0.615   0.093  14.960 -0.0046 -0.1186 -0.5728
  405MPD2    N1 6109   1.010   4.626  15.331 -0.0900  0.6688  0.1490
  405MPD2    H7 6110   1.016   4.621  15.432  2.6910 -1.2575 -0.0957
  406TMC3    C1 6111   0.509   4.636  14.643  0.1368 -0.2289  0.1424
  406TMC3    C2 6112   0.597   4.578  14.550 -0.5343  0.7105 -0.1534
  406TMC3    C3 6113   0.736   4.605  14.562 -0.1345 -0.5088 -0.3340
  406TMC3    C4 6114   0.557   4.703  14.754 -0.7522  0.8268 -0.2546
  406TMC3    C5 6115   0.689   4.728  14.748  0.2159 -0.3837 -0.0632
  406TMC3    C6 6116   0.781   4.689  14.653 -0.5243 -0.2790  0.2428
  406TMC3     C 6117   0.367   4.644  14.630 -0.7619  0.5462 -0.0900
  406TMC3     O 6118   0.312   4.738  14.687  0.5683 -0.0648 -0.2932
  406TMC3     H 6119   0.571   4.525  14.460  1.5752 -0.5990  0.0209
  406TMC3    H1 6120   0.500   0.010  14.834 -1.5229 -0.5425 -0.0486
  406TMC3    H2 6121   0.879   4.735  14.647 -0.2602 -0.9173 -0.3242
  406TMC3    C7 6122   0.763   4.735  14.875  0.3310 -0.6511 -0.1404
  406TMC3    C8 6123   0.812   4.479  14.551 -0.4951  0.8739  0.0827
  406TMC3    O1 6124   0.868   4.676  14.866 -0.5733  0.4155  0.0384
  406TMC3    O2 6125   0.781   4.396  14.468  0.1776 -0.2094  0.1178
  407MPD2     C 6126   2.767   0.702  10.242 -0.2416 -0.0944  0.3327
  407MPD2    C1 6127   2.890   0.704  10.194  0.3872 -0.1375 -0.5097
  407MPD2    C2 6128   2.990   0.759  10.276  0.1470  0.1091 -0.6016
  407MPD2    C3 6129   2.962   0.811  10.398 -0.0819 -0.0550  0.9347
  407MPD2    C4 6130   2.834   0.801  10.445  0.0684  0.1876 -0.2869
  407MPD2    C5 6131   2.734   0.747  10.370 -0.9436  0.0595  0.3570
  407MPD2     H 6132   3.089   0.773  10.234 -0.1402  0.4407 -1.1799
  407MPD2    H1 6133   2.805   0.828  10.546 -0.7665  1.5687 -0.8829
  407MPD2    H2 6134   2.683   0.666  10.184 -0.1750  0.5039 -0.1374
  407MPD2    H3 6135   2.632   0.756  10.408 -1.0460 -0.2632  0.1618
  407MPD2     N 6136   3.072   0.866  10.472  0.5423 -0.2320 -0.0084
  407MPD2    H5 6137   3.161   0.873  10.425  0.9743  0.2970  0.8918
  407MPD2    N1 6138   2.922   0.658  10.067 -0.0796 -0.1097  0.4485
  407MPD2    H7 6139   3.023   0.659  10.053  0.0679  0.1137  1.5636
  408TMC3    C1 6140   2.927   0.539   9.873 -0.2832  0.0833  0.1485
  408TMC3    C2 6141   3.043   0.593   9.830 -0.7091 -0.0041 -0.3632
  408TMC3    C3 6142   3.115   0.518   9.737  0.5953 -0.2644  0.4257
  408TMC3    C4 6143   2.877   0.424   9.831 -0.5028 -0.4666  0.0496
  408TMC3    C5 6144   2.962   0.343   9.758  0.0626 -0.4122  0.1825
  408TMC3    C6 6145   3.077   0.396   9.711 -0.7598  0.3807  0.3908
  408TMC3     C 6146   2.849   0.590   9.976  0.2027  0.3931  0.1532
  408TMC3     O 6147   2.733   0.572   9.974  0.2800  0.3021  0.0903
  408TMC3     H 6148   3.066   0.696   9.855  0.6689 -0.5235  0.4972
  408TMC3    H1 6149   2.800   0.368   9.883  1.3685 -3.1806 -0.0616
  408TMC3    H2 6150   3.152   0.336   9.660 -0.5506 -0.9495  2.2530
  408TMC3    C7 6151   2.931   0.203   9.720  0.2826  0.1212 -0.3250
  408TMC3    C8 6152   3.255   0.545   9.735  0.1976 -0.4589 -0.5492
  408TMC3    O1 6153   2.993   0.157   9.627  0.2058  0.3412 -0.5864
  408TMC3    O2 6154   3.329   0.451   9.713  0.4855  0.0219  0.1390
  409MPD2     C 6155   2.471   1.081  17.692 -0.0337  0.5211 -0.0099
  409MPD2    C1 6156   2.592   1.073   0.012 -0.2116  0.4463  0.2903
  409MPD2    C2 6157   2.691   1.147  17.707 -0.3054 -0.2500 -0.0851
  409MPD2    C3 6158   2.688   1.226  17.592 -0.5905 -0.2990 -0.3504
  409MPD2    C4 6159   2.569   1.224  17.520 -0.0346  0.1673  0.1982
  409MPD2    C5 6160   2.463   1.155  17.572 -0.5779 -0.2754  0.6522
  409MPD2     H 6161   2.780   1.146   0.019 -0.4570 -2.1535  0.1253
  409MPD2    H1 6162   2.554   1.276  17.426 -2.4570 -1.6851 -0.4304
  409MPD2    H2 6163   2.386   1.021  17.722 -0.4449  0.8372 -0.5441
  409MPD2    H3 6164   2.364   1.159  17.527  0.0481 -1.4542 -0.8266
  409MPD2     N 6165   2.799   1.287  17.538  0.4655 -0.0142 -0.1793
  409MPD2    H5 6166   2.790   1.331  17.446 -0.4248  0.0419 -0.0708
  409MPD2    N1 6167   2.616   0.985   0.119  0.1282 -0.8880 -0.3532
  409MPD2    H7 6168   2.693   1.008   0.181  0.4844 -1.3549 -0.6293
  410TMC3    C1 6169   2.995   1.405  17.520  0.9555 -0.2537  0.0657
  410TMC3    C2 6170   3.125   1.422  17.567 -0.0149 -0.1569  0.3128
  410TMC3    C3 6171   3.219   1.458  17.473 -0.0754  0.4871  1.0657
  410TMC3    C4 6172   2.968   1.420  17.387 -0.0856 -0.4571 -0.2018
  410TMC3    C5 6173   3.055   1.475  17.302 -0.4948 -0.5815 -0.7829
  410TMC3    C6 6174   3.181   1.500  17.343  0.4513 -0.8258  0.1033
  410TMC3     C 6175   2.915   1.315  17.599  0.3332  0.0153 -0.0451
  410TMC3     O 6176   2.964   1.270  17.703 -0.3284  0.6796 -0.5050
  410TMC3     H 6177   3.150   1.412  17.672 -0.0404 -0.6602  0.2695
  410TMC3    H1 6178   2.869   1.403  17.347 -1.0788  0.8528  1.6932
  410TMC3    H2 6179   3.255   1.542  17.276 -1.8825  0.6554 -1.5419
  410TMC3    C7 6180   3.039   1.465  17.156  0.0509 -0.0536  0.1727
  410TMC3    C8 6181   3.350   1.453  17.514  0.3296  0.9317  0.6025
  410TMC3    O1 6182   2.992   1.360  17.117  0.4652  0.3093  0.3961
  410TMC3    O2 6183   3.428   1.541  17.478  0.1440 -0.3362  0.4177
  411MPD2     C 6184   2.919   2.575  14.652 -0.2827  0.3885 -0.1643
  411MPD2    C1 6185   2.887   2.481  14.747  0.4028 -0.4921  0.6891
  411MPD2    C2 6186   2.914   2.346  14.716  0.6334 -0.5960 -0.0150
  411MPD2    C3 6187   2.970   2.306  14.596  0.6521  0.3975  0.6503
  411MPD2    C4 6188   3.009   2.403  14.504  0.1917 -0.0826 -0.9220
  411MPD2    C5 6189   2.981   2.533  14.533  0.4063  0.3547  0.1984
  411MPD2     H 6190   2.892   2.267  14.785 -1.8987  1.2657  1.3155
  411MPD2    H1 6191   3.040   2.384  14.401 -0.9178  0.7614 -1.4121
  411MPD2    H2 6192   2.891   2.678  14.670 -0.2238  0.7916 -2.3677
  411MPD2    H3 6193   2.992   2.606  14.453  0.6917  0.4385  0.3138
  411MPD2     N 6194   2.981   2.170  14.556 -0.1846  0.3746  0.1084
  411MPD2    H5 6195   3.013   2.157  14.460  1.4693 -0.7429  0.8086
  411MPD2    N1 6196   2.821   2.524  14.862  0.0860 -0.2898 -0.9023
  411MPD2    H7 6197   2.771   2.611  14.849  0.6176  0.0779 -0.4569
  412TMC3    C1 6198   2.972   1.932  14.567 -0.3661  0.2792 -0.0680
  412TMC3    C2 6199   2.960   1.819  14.644  0.1477  0.5139 -0.3368
  412TMC3    C3 6200   3.010   1.708  14.592 -0.0089  0.1339  0.0144
  412TMC3    C4 6201   3.019   1.929  14.438 -0.2698 -0.2427 -0.0986
  412TMC3    C5 6202   3.070   1.813  14.390  0.0790  0.0479  0.4113
  412TMC3    C6 6203   3.073   1.701  14.468  0.3448 -0.2994 -0.1406
  412TMC3     C 6204   2.947   2.060  14.630 -0.0491  0.1428 -0.3084
  412TMC3     O 6205   2.895   2.053  14.741 -0.5742 -0.2713 -0.2745
  412TMC3     H 6206   2.919   1.822  14.745  0.8026 -1.4827 -0.0060
  412TMC3    H1 6207   2.995   2.015  14.377 -1.6195 -1.6677 -1.5813
  412TMC3    H2 6208   3.118   1.605  14.445  0.0575 -0.4447 -0.0930
  412TMC3    C7 6209   3.034   1.788  14.251 -0.3050  0.1523 -0.1868
  412TMC3    C8 6210   2.911   1.608  14.598 -1.2061 -0.3836 -0.2686
  412TMC3    O1 6211   3.037   1.870  14.161  0.2166  0.3091  0.5450
  412TMC3    O2 6212   2.864   1.573  14.493  0.1509 -0.3414 -0.4089
  413MPD2     C 6213   4.620   0.542  15.701 -0.7290 -0.2019 -0.2124
  413MPD2    C1 6214   4.557   0.500  15.584 -0.1944 -0.1148 -0.4383
  413MPD2    C2 6215   4.625   0.488  15.465 -0.0391 -0.2813 -0.9719
  413MPD2    C3 6216   0.023   0.495  15.472  0.6516  0.9871  0.2032
  413MPD2    C4 6217   0.091   0.544  15.579  0.4501  0.9075 -0.3536
  413MPD2    C5 6218   0.015   0.568  15.694  0.1575 -0.7159 -0.2098
  413MPD2     H 6219   4.573   0.448  15.378 -0.6809 -1.3731 -0.0975
  413MPD2    H1 6220   0.197   0.567  15.578  1.1759 -2.4720 -1.2473
  413MPD2    H2 6221   4.561   0.546  15.792  0.9163 -0.9877  0.9029
  413MPD2    H3 6222   0.054   0.613  15.785 -0.3096  2.6462 -1.6687
  413MPD2     N 6223   0.078   0.466  15.352  0.2581  0.6636  0.0979
  413MPD2    H5 6224   0.019   0.436  15.276 -0.3094  1.6624  0.1363
  413MPD2    N1 6225   4.422   0.466  15.597 -0.8342  0.1640 -0.3383
  413MPD2    H7 6226   4.387   0.451  15.691 -1.2666  0.6612 -0.4273
  414TMC3    C1 6227   0.247   0.425  15.193 -0.1427  0.6512 -0.3350
  414TMC3    C2 6228   0.211   0.294  15.188  0.2337 -0.2708  0.0635
  414TMC3    C3 6229   0.255   0.218  15.083 -0.4202  0.3447 -0.7408
  414TMC3    C4 6230   0.339   0.492  15.121  0.6064 -0.3217 -0.1217
  414TMC3    C5 6231   0.393   0.408  15.019 -0.0508 -0.6195 -0.1168
  414TMC3    C6 6232   0.336   0.285  14.994  0.1107 -0.1787 -0.1923
  414TMC3     C 6233   0.215   0.479  15.327 -0.3644 -0.2195 -0.4932
  414TMC3     O 6234   0.300   0.550  15.380 -0.3193 -0.1256  0.0391
  414TMC3     H 6235   0.138   0.255  15.257 -0.0235 -0.4783 -0.3281
  414TMC3    H1 6236   0.385   0.586  15.147 -0.3785 -0.1919  1.1127
  414TMC3    H2 6237   0.382   0.225  14.917 -0.3203 -0.0831 -0.5274
  414TMC3    C7 6238   0.529   0.432  14.973 -0.1976 -0.1193  0.5739
  414TMC3    C8 6239   0.319   0.091  15.116  0.0556 -0.4827 -0.2069
  414TMC3    O1 6240   0.596   0.483  15.060 -0.3679 -0.1069  0.0875
  414TMC3    O2 6241   0.386   0.034  15.032  0.1377 -0.3937 -0.7612
  415TMC3    C1 6242   0.865   2.843  10.551  0.1222  0.0466 -0.6669
  415TMC3    C2 6243   0.839   2.972  10.508 -0.1517  0.4896 -0.2144
  415TMC3    C3 6244   0.752   2.983  10.397 -0.3483  0.2512 -0.2532
  415TMC3    C4 6245   0.805   2.730  10.498 -0.8323 -0.1807 -0.4386
  415TMC3    C5 6246   0.717   2.747  10.396  0.4937 -0.0812 -0.0987
  415TMC3    C6 6247   0.691   2.872  10.339 -0.1901  0.9451 -0.1462
  415TMC3     C 6248   0.940   2.823  10.673 -0.3656  0.7662 -0.1829
  415TMC3     O 6249   0.952   2.705  10.704  0.2672 -0.3453 -0.7503
  415TMC3     H 6250   0.880   3.062  10.552  0.6774  0.0820 -0.1715
  415TMC3    H1 6251   0.820   2.632  10.542 -0.2094 -0.9935 -2.4651
  415TMC3    H2 6252   0.614   2.883  10.264 -0.5090  0.3549  0.0939
  415TMC3    C7 6253   0.643   2.635  10.335 -0.5126 -0.3175 -0.2022
  415TMC3    C8 6254   0.748   3.110  10.323 -0.2239  0.0364 -1.0397
  415TMC3    O1 6255   0.599   2.641  10.224  0.6347  0.2488 -0.1596
  415TMC3    O2 6256   0.645   3.133  10.259 -0.3619  0.4877 -0.8642
  416MPD2     C 6257   2.881   1.167  11.784  0.6761  0.3650 -0.4444
  416MPD2    C1 6258   2.760   1.146  11.717  1.1895 -0.4928  0.5110
  416MPD2    C2 6259   2.755   1.055  11.612  0.0919 -0.0063  0.5959
  416MPD2    C3 6260   2.859   0.983  11.566  0.2836 -0.2242 -0.2241
  416MPD2    C4 6261   2.982   1.021  11.618 -0.1368 -0.3040 -0.1549
  416MPD2    C5 6262   2.989   1.092  11.736  0.5209  0.5259  0.4006
  416MPD2     H 6263   2.654   1.044  11.572  0.0925  2.9393 -0.2155
  416MPD2    H1 6264   3.073   0.977  11.579 -0.7660 -3.3362  1.7963
  416MPD2    H2 6265   2.885   1.227  11.874 -1.0372  1.5667 -1.1682
  416MPD2    H3 6266   3.085   1.103  11.786  0.2405  1.2209  0.7901
  416MPD2     N 6267   2.849   0.878  11.478 -0.2342  0.8296 -0.8947
  416MPD2    H5 6268   2.923   0.808  11.474  0.3606  1.4885 -1.2791
  416MPD2    N1 6269   2.643   1.222  11.756 -0.0466 -0.2759  0.2103
  416MPD2    H7 6270   2.642   1.277  11.841  2.7401  1.5725 -0.9461
  417TMC3    C1 6271   2.413   1.280  11.764  0.1440 -0.0768 -0.1008
  417TMC3    C2 6272   2.439   1.316  11.897 -0.3498 -0.3548 -0.5611
  417TMC3    C3 6273   2.360   1.413  11.952  0.2529 -0.0430  0.4015
  417TMC3    C4 6274   2.328   1.352  11.691  0.3586 -0.3625  0.0782
  417TMC3    C5 6275   2.263   1.454  11.746 -0.9080 -0.0071 -0.7522
  417TMC3    C6 6276   2.277   1.487  11.871 -0.0259  0.0719  0.4395
  417TMC3     C 6277   2.518   1.216  11.693 -1.0663  0.5761 -0.3503
  417TMC3     O 6278   2.490   1.193  11.576 -0.4296  0.1417 -0.3973
  417TMC3     H 6279   2.506   1.261  11.962 -0.0496  2.1751  1.2595
  417TMC3    H1 6280   2.315   1.342  11.584  0.2711 -0.5127  0.1015
  417TMC3    H2 6281   2.233   1.580  11.905  1.6219  0.8463  0.4557
  417TMC3    C7 6282   2.172   1.532  11.653  1.1045  0.0831 -0.4647
  417TMC3    C8 6283   2.353   1.439  12.095  0.8889 -0.1402  0.4503
  417TMC3    O1 6284   2.174   1.653  11.667  0.1977 -0.4171  0.3471
  417TMC3    O2 6285   2.239   1.450  12.137 -0.3703 -0.1849  0.0341
  418TMC3    C1 6286   1.248   3.640   0.466  0.4882 -0.2949 -0.1295
  418TMC3    C2 6287   1.139   3.722   0.494  0.5869 -0.6720  0.0785
  418TMC3    C3 6288   1.087   3.733   0.619  0.9829  0.1355 -0.3323
  418TMC3    C4 6289   1.301   3.564   0.565  0.2300  0.2947  0.2989
  418TMC3    C5 6290   1.251   3.581   0.695  0.8437  0.2817 -0.8430
  418TMC3    C6 6291   1.146   3.672   0.726 -0.0645 -0.6954  0.0782
  418TMC3     C 6292   1.278   3.613   0.323 -0.5883 -0.1076  0.6162
  418TMC3     O 6293   1.234   3.692   0.244 -0.1099 -0.0642  0.5837
  418TMC3     H 6294   1.098   3.786   0.416 -0.7034 -1.4957  0.0834
  418TMC3    H1 6295   1.375   3.490   0.536 -2.6434 -1.8740 -1.5499
  418TMC3    H2 6296   1.088   3.669   0.818  0.1362 -0.4376  0.2157
  418TMC3    C7 6297   1.263   3.458   0.774 -0.5091  0.2927 -0.3570
  418TMC3    C8 6298   0.945   3.729   0.634  0.3975 -0.2782  0.4614
  418TMC3    O1 6299   1.293   3.354   0.716 -0.0362  0.1772  0.2856
  418TMC3    O2 6300   0.897   3.826   0.690  0.5723 -0.1976 -0.3416
  419MPD2     C 6301   3.747   1.218  12.701  0.0937  0.7169  0.2843
  419MPD2    C1 6302   3.720   1.354  12.703 -0.2530 -1.0730  0.0857
  419MPD2    C2 6303   3.704   1.419  12.827  0.2787  0.6551  0.7034
  419MPD2    C3 6304   3.729   1.361  12.945  0.4080 -0.8667  0.3261
  419MPD2    C4 6305   3.765   1.229  12.942  0.0220  0.1650  0.6928
  419MPD2    C5 6306   3.772   1.158  12.823  0.3779 -0.2314 -0.4309
  419MPD2     H 6307   3.672   1.523  12.828  0.4388  0.7095 -0.0873
  419MPD2    H1 6308   3.790   1.181  13.036  0.2695 -0.0603  0.5139
  419MPD2    H2 6309   3.752   1.173  12.602  1.8182 -0.7918  1.0426
  419MPD2    H3 6310   3.799   1.054  12.816  2.3673  0.2031  0.7670
  419MPD2     N 6311   3.729   1.442  13.062  0.4074  0.4181  0.6179
  419MPD2    H5 6312   3.696   1.537  13.050 -1.1104 -0.2419 -0.4277
  419MPD2    N1 6313   3.711   1.433  12.578 -0.1352  0.7911  0.6931
  419MPD2    H7 6314   3.699   1.533  12.591 -1.6086  0.6627  0.3940
  420TMC3    C1 6315   3.797   1.533  13.264  0.1640  0.0792 -0.9534
  420TMC3    C2 6316   3.758   1.661  13.229 -0.0606  0.3121  0.1178
  420TMC3    C3 6317   3.760   1.747  13.331 -0.6596 -0.1987  0.2266
  420TMC3    C4 6318   3.871   1.511  13.375  0.2713 -0.2094 -0.2045
  420TMC3    C5 6319   3.889   1.603  13.466  0.4849 -0.8785 -0.7481
  420TMC3    C6 6320   3.826   1.722  13.447  0.5208 -0.1974 -0.5114
  420TMC3     C 6321   3.790   1.416  13.179  0.6137 -0.0834  0.0190
  420TMC3     O 6322   3.847   1.312  13.208  0.2711  0.1838 -0.2014
  420TMC3     H 6323   3.710   1.682  13.134  0.4572 -2.0937 -0.6793
  420TMC3    H1 6324   3.911   1.416  13.407  1.4525  0.3874  0.1253
  420TMC3    H2 6325   3.845   1.800  13.520  0.7473  0.7749 -1.6064
  420TMC3    C7 6326   3.994   1.593  13.565  0.1547  0.0690  0.1031
  420TMC3    C8 6327   3.676   1.864  13.322 -0.2877  0.1467  0.1855
  420TMC3    O1 6328   4.029   1.479  13.592  0.3899  0.1919  0.4765
  420TMC3    O2 6329   3.643   1.893  13.209  0.0438  0.4898  0.3847
  421TMC3    C1 6330   0.852   2.618  14.031 -0.5670  0.6363  0.4062
  421TMC3    C2 6331   0.734   2.612  14.105 -0.4738  0.0271  0.1298
  421TMC3    C3 6332   0.754   2.603  14.244  0.1564  0.9709  0.0443
  421TMC3    C4 6333   0.969   2.587  14.088 -0.2118  0.5012  0.4469
  421TMC3    C5 6334   0.969   2.545  14.219 -0.3816  0.1817 -0.5382
  421TMC3    C6 6335   0.863   2.552  14.305 -0.8374  0.9696  0.1170
  421TMC3     C 6336   0.839   2.686  13.906 -0.1074  1.2320  0.0359
  421TMC3     O 6337   0.932   2.673  13.829  0.0871  0.2453 -0.2471
  421TMC3     H 6338   0.633   2.617  14.066 -0.6232 -0.6484  0.4201
  421TMC3    H1 6339   1.063   2.595  14.035  0.7837 -1.9807  1.8470
  421TMC3    H2 6340   0.874   2.538  14.412 -0.5779 -1.0400 -0.1774
  421TMC3    C7 6341   1.100   2.516  14.277  0.3067  0.2061  0.3528
  421TMC3    C8 6342   0.720   2.723  14.304  1.1045 -0.6623 -0.0061
  421TMC3    O1 6343   1.199   2.559  14.221 -0.6736  0.0800  0.1622
  421TMC3    O2 6344   0.671   2.801  14.225  0.1742  0.0193 -0.4394
  422TMC3    C1 6345   3.429   4.337  12.745  0.7988  0.0714 -0.1445
  422TMC3    C2 6346   3.396   4.451  12.804 -0.5914  0.0349 -0.1795
  422TMC3    C3 6347   3.280   4.458  12.876  0.2586  0.7720  0.1822
  422TMC3    C4 6348   3.354   4.223  12.741 -0.8114  0.3721 -0.6113
  422TMC3    C5 6349   3.234   4.239  12.807 -0.1003  0.2141  0.1845
  422TMC3    C6 6350   3.199   4.349  12.880 -0.1369 -0.2933  0.1543
  422TMC3     C 6351   3.523   4.350  12.634 -0.3459  0.4287 -0.0676
  422TMC3     O 6352   3.575   4.461  12.626  0.6018 -0.1448 -0.8061
  422TMC3     H 6353   3.459   4.539  12.795 -1.2620  0.5532  0.1680
  422TMC3    H1 6354   3.390   4.124  12.716  0.2529  0.0701  2.1210
  422TMC3    H2 6355   3.112   4.353  12.944 -0.0232  2.2301  0.1462
  422TMC3    C7 6356   3.139   4.142  12.764  0.1727  0.4313  0.0510
  422TMC3    C8 6357   3.249   4.585  12.946  0.8390  0.0983  0.2088
  422TMC3    O1 6358   3.165   4.082  12.659  0.0059  0.1191 -0.5277
  422TMC3    O2 6359   3.331   4.675  12.944 -0.2545  0.0958  0.1989
  423MPD2     C 6360   4.603   0.776   1.267  0.3853  0.0398 -0.0706
  423MPD2    C1 6361   4.612   0.634   1.274  0.4300  0.6263  0.1900
  423MPD2    C2 6362   4.669   0.563   1.172 -0.1091 -0.6238 -0.8143
  423MPD2    C3 6363   4.700   0.639   1.059  0.8142  0.0149 -0.4832
  423MPD2    C4 6364   4.672   0.768   1.040  0.0737  0.3241 -0.3332
  423MPD2    C5 6365   4.627   0.844   1.149  0.0797  0.5895 -0.7863
  423MPD2     H 6366   4.696   0.461   1.195  2.6890  0.7171  1.8236
  423MPD2    H1 6367   4.704   0.824   0.953  1.5464  2.4217  1.5749
  423MPD2    H2 6368   4.570   0.840   1.348 -2.6174 -3.4005  1.4175
  423MPD2    H3 6369   4.620   0.952   1.150  0.7592  0.6377 -1.1899
  423MPD2     N 6370   0.029   0.576   0.952  0.2847  0.0604 -0.3658
  423MPD2    H5 6371   0.056   0.635   0.874  0.2392  0.0605 -0.3813
  423MPD2    N1 6372   4.577   0.560   1.392 -0.0652 -0.3129 -0.1965
  423MPD2    H7 6373   4.606   0.464   1.404 -0.0009 -0.1766  0.7632
  424TMC3    C1 6374   4.497   0.525   1.599  0.1384 -0.0792  0.3215
  424TMC3    C2 6375   4.603   0.438   1.613 -0.0299  0.2794 -0.0833
  424TMC3    C3 6376   4.593   0.341   1.712  0.1641 -0.1295  0.1076
  424TMC3    C4 6377   4.388   0.535   1.682 -0.6852 -0.3911 -0.5642
  424TMC3    C5 6378   4.375   0.431   1.773 -0.7684  0.8678 -0.1901
  424TMC3    C6 6379   4.471   0.341   1.784 -0.2281 -0.6174 -0.4195
  424TMC3     C 6380   4.505   0.618   1.489  0.0006  0.1920 -0.3027
  424TMC3     O 6381   4.456   0.727   1.511 -0.5817  0.0303 -0.1043
  424TMC3     H 6382   4.689   0.435   1.546 -0.2633  2.7640 -0.5184
  424TMC3    H1 6383   4.308   0.605   1.659  0.3647  0.7225 -0.8346
  424TMC3    H2 6384   4.465   0.277   1.872  0.7906  0.9425  0.7830
  424TMC3    C7 6385   4.269   0.423   1.872 -0.3026 -0.0420 -0.3278
  424TMC3    C8 6386   4.696   0.239   1.745 -0.5252  0.2120  0.3830
  424TMC3    O1 6387   4.238   0.312   1.914  0.1664  0.2382 -0.3656
  424TMC3    O2 6388   4.649   0.162   1.830 -0.2236 -0.0355 -0.1815
  425MPD2     C 6389   3.635   4.581  17.654 -0.0535 -0.2356 -0.1364
  425MPD2    C1 6390   3.543   4.482  17.626  0.2272 -0.3022 -0.0616
  425MPD2    C2 6391   3.416   4.500  17.681  0.1878  0.4888 -0.0258
  425MPD2    C3 6392   3.379   4.622  17.735 -0.0230  0.1476  0.4480
  425MPD2    C4 6393   3.470   4.718   0.015 -0.2052  0.0647  0.7303
  425MPD2    C5 6394   3.597   4.694  17.725 -0.0965 -0.4600  0.3666
  425MPD2     H 6395   3.344   4.420  17.668 -1.0144  1.2327  2.1964
  425MPD2    H1 6396   3.443   0.067   0.074  2.0759  0.6292  0.9418
  425MPD2    H2 6397   3.735   4.558  17.618  0.5666  2.5369 -0.2176
  425MPD2    H3 6398   3.676   0.024   0.009  0.4744 -0.0458 -1.8519
  425MPD2     N 6399   3.252   4.622   0.044  0.1297 -0.4659 -0.5946
  425MPD2    H5 6400   3.190   4.542   0.047  0.1517 -0.4318  0.7391
  425MPD2    N1 6401   3.596   4.369  17.561  0.5576 -0.1130 -0.5406
  425MPD2    H7 6402   3.693   4.378  17.535  0.7749 -0.4245  0.1474
  426TMC3    C1 6403   3.596   4.168  17.438  0.1771  0.2236 -0.2292
  426TMC3    C2 6404   3.636   4.213  17.317  0.1211  0.1285 -0.1400
  426TMC3    C3 6405   3.616   4.129  17.208 -0.2351  0.4820  0.1949
  426TMC3    C4 6406   3.555   4.040  17.460 -0.0188  0.1422  0.2534
  426TMC3    C5 6407   3.525   3.962  17.353  0.1034 -1.0824  0.9702
  426TMC3    C6 6408   3.551   4.002  17.225 -0.0764 -0.4294  0.7877
  426TMC3     C 6409   3.521   4.264  17.520 -0.3189  0.3084  0.4325
  426TMC3     O 6410   3.402   4.255  17.514  0.6340  0.0903 -0.6345
  426TMC3     H 6411   3.668   4.315  17.304  3.1967 -0.7809  0.2411
  426TMC3    H1 6412   3.521   4.019  17.561  0.1447  1.7170  0.6305
  426TMC3    H2 6413   3.502   3.967  17.135  0.0497 -0.3331  0.6820
  426TMC3    C7 6414   3.432   3.848  17.360 -0.5234  0.4366  0.6133
  426TMC3    C8 6415   3.642   4.173  17.072  0.0641  0.0929 -0.6932
  426TMC3    O1 6416   3.444   3.755  17.277 -0.4806 -0.3510  0.2256
  426TMC3    O2 6417   3.654   4.084  16.987  0.5634 -0.0191  0.2272
  427MPD2     C 6418   1.954   1.860  15.207  0.2694 -0.9251 -0.0708
  427MPD2    C1 6419   1.945   1.862  15.343 -0.1994 -0.3043  0.6582
  427MPD2    C2 6420   1.827   1.893  15.410 -0.1063  0.5724 -0.2146
  427MPD2    C3 6421   1.716   1.940  15.340  0.2908 -0.3391 -0.2973
  427MPD2    C4 6422   1.730   1.952  15.208  0.3127 -0.1974 -0.1343
  427MPD2    C5 6423   1.844   1.912  15.141  0.1868 -0.8079 -0.2952
  427MPD2     H 6424   1.826   1.898  15.518 -0.5720  1.3819 -0.2627
  427MPD2    H1 6425   1.664   2.004  15.139 -0.8633  1.0777  1.9816
  427MPD2    H2 6426   2.042   1.815  15.161  3.1230  1.5965  2.9707
  427MPD2    H3 6427   1.852   1.931  15.034  2.4030  2.1453  0.3949
  427MPD2     N 6428   1.603   2.008  15.399  0.2341  0.0506 -0.3131
  427MPD2    H5 6429   1.531   2.040  15.334 -0.0599 -0.3879 -0.2071
  427MPD2    N1 6430   2.065   1.826  15.425 -0.5145  0.5313 -0.2007
  427MPD2    H7 6431   2.062   1.818  15.526 -0.2074 -0.5960 -0.2786
  428TMC3    C1 6432   2.273   1.773  15.491  0.1226  0.1966 -0.5068
  428TMC3    C2 6433   2.224   1.700  15.589  0.3728  0.7343  1.1255
  428TMC3    C3 6434   2.293   1.690  15.706  0.1173  0.2752 -0.0774
  428TMC3    C4 6435   2.390   1.835  15.497 -0.6754 -0.5568  0.4375
  428TMC3    C5 6436   2.465   1.826  15.613 -0.2984  0.7308  0.0563
  428TMC3    C6 6437   2.417   1.755  15.722 -0.6603  0.6160  0.3869
  428TMC3     C 6438   2.190   1.803  15.379  0.0311 -0.5473  0.1124
  428TMC3     O 6439   2.245   1.821  15.272  0.2779  0.6215 -0.0580
  428TMC3     H 6440   2.125   1.655  15.591  2.1060 -3.1044  0.2324
  428TMC3    H1 6441   2.436   1.884  15.412 -0.0425  1.1695  1.7821
  428TMC3    H2 6442   2.465   1.742  15.819  0.5356 -1.2446 -0.4533
  428TMC3    C7 6443   2.599   1.879  15.633 -0.3909  0.8700 -0.0888
  428TMC3    C8 6444   2.236   1.623  15.823 -0.8096  0.7255 -0.1427
  428TMC3    O1 6445   2.648   1.850  15.743  0.1220 -0.3514  0.1547
  428TMC3    O2 6446   2.144   1.543  15.802  0.1762 -0.3458 -0.4404
  429MPD2     C 6447   3.175   2.052   0.425  0.3919  0.6694  0.3133
  429MPD2    C1 6448   3.291   1.979   0.398 -0.2226 -0.3731  0.1273
  429MPD2    C2 6449   3.377   2.029   0.307 -0.2226 -0.8820  0.0905
  429MPD2    C3 6450   3.348   2.142   0.230  0.3123  0.8798  0.1221
  429MPD2    C4 6451   3.235   2.208   0.253  0.1074 -0.3443 -0.9885
  429MPD2    C5 6452   3.145   2.163   0.351 -0.5062  0.1991 -0.6304
  429MPD2     H 6453   3.473   1.982   0.289  0.9169  1.7946 -0.8029
  429MPD2    H1 6454   3.209   2.305   0.215  1.3353 -0.2089 -1.4814
  429MPD2    H2 6455   3.105   2.024   0.503  0.8445 -0.4146  0.3270
  429MPD2    H3 6456   3.051   2.217   0.351 -0.8345 -0.3700  1.8160
  429MPD2     N 6457   3.436   2.180   0.128 -0.2767 -0.5101 -0.0329
  429MPD2    H5 6458   3.528   2.138   0.124 -0.4329 -0.7792 -0.7283
  429MPD2    N1 6459   3.331   1.862   0.463 -0.1417  0.1974 -0.6851
  429MPD2    H7 6460   3.428   1.834   0.445  0.7733  3.2081 -0.4009
  430TMC3    C1 6461   3.521   2.288  17.691 -0.0742 -0.1378  0.6657
  430TMC3    C2 6462   3.514   2.395  17.607 -0.1409 -0.0153  0.6807
  430TMC3    C3 6463   3.565   2.380  17.480 -0.2835  0.2823  0.2766
  430TMC3    C4 6464   3.561   2.161  17.648  0.1763  0.2100 -0.1735
  430TMC3    C5 6465   3.605   2.154  17.516 -0.0125  0.7880  0.1351
  430TMC3    C6 6466   3.606   2.258  17.431 -0.3830 -0.3967 -0.0206
  430TMC3     C 6467   3.421   2.288   0.044 -0.2374 -0.7477  0.1521
  430TMC3     O 6468   3.331   2.372   0.032  0.2833 -0.3032  0.0199
  430TMC3     H 6469   3.486   2.493  17.645 -0.0299 -0.4357  1.8649
  430TMC3    H1 6470   3.549   2.073  17.709 -1.6197 -0.7541 -1.9253
  430TMC3    H2 6471   3.651   2.250  17.332  1.6935 -1.1593  0.9900
  430TMC3    C7 6472   3.593   2.019  17.448  0.0829  0.0614  0.7038
  430TMC3    C8 6473   3.544   2.477  17.375 -0.2705 -0.4368  0.3881
  430TMC3    O1 6474   3.596   1.920  17.523 -0.1295 -0.9618 -0.0696
  430TMC3    O2 6475   3.594   2.585  17.391  0.3199 -0.4730  0.0908
  431MPD2     C 6476   3.996   1.998  13.025  0.0921 -0.4490  0.0942
  431MPD2    C1 6477   4.098   1.984  12.930 -0.7136 -0.3209 -0.4209
  431MPD2    C2 6478   4.065   1.940  12.803 -0.5930  0.1962 -0.1198
  431MPD2    C3 6479   3.932   1.889  12.775 -0.6074 -0.8229  0.4787
  431MPD2    C4 6480   3.837   1.911  12.865 -0.2123 -0.2958 -0.1292
  431MPD2    C5 6481   3.867   1.967  12.990 -0.9449  0.2054  0.0513
  431MPD2     H 6482   4.145   1.927  12.731 -1.6024  0.5416 -1.2883
  431MPD2    H1 6483   3.735   1.877  12.850 -0.0820 -0.0972 -1.4349
  431MPD2    H2 6484   4.011   2.032  13.127 -1.3404 -1.6497  0.6951
  431MPD2    H3 6485   3.782   1.987  13.054  0.1955 -0.3749  1.7587
  431MPD2     N 6486   3.899   1.830  12.649  0.2760 -0.4553  0.0100
  431MPD2    H5 6487   3.806   1.790  12.651 -0.1632  0.5757  0.5495
  431MPD2    N1 6488   4.233   2.013  12.952 -0.0801  0.0545  0.0317
  431MPD2    H7 6489   4.291   2.022  12.869 -0.7488  0.3223 -0.4073
  432TMC3    C1 6490   3.931   1.715  12.447  0.4227 -0.4259 -0.7333
  432TMC3    C2 6491   3.970   1.726  12.319  0.2249  0.3374 -0.3282
  432TMC3    C3 6492   3.944   1.618  12.239 -1.3629  0.1797  0.2314
  432TMC3    C4 6493   3.868   1.606  12.498 -0.3090  0.5664 -0.5542
  432TMC3    C5 6494   3.824   1.515  12.404  0.7806  0.4008  0.1100
  432TMC3    C6 6495   3.861   1.521  12.271 -0.8817  1.0084  0.2873
  432TMC3     C 6496   3.977   1.815  12.537  0.1248  0.4637  0.7253
  432TMC3     O 6497   4.083   1.873  12.516 -0.3898 -0.1911  0.8140
  432TMC3     H 6498   4.021   1.815  12.283  0.8122  0.6926  1.3782
  432TMC3    H1 6499   3.868   1.590  12.605 -3.9893  1.4077 -0.4137
  432TMC3    H2 6500   3.832   1.443  12.201 -0.2860 -0.2713  1.4789
  432TMC3    C7 6501   3.756   1.393  12.459  0.4892 -0.2193  0.1800
  432TMC3    C8 6502   4.031   1.598  12.121  0.4101 -0.0266 -0.7635
  432TMC3    O1 6503   3.758   1.290  12.396 -0.5247  0.2221 -0.3482
  432TMC3    O2 6504   3.975   1.532  12.033 -0.0696 -0.0413  0.0815
  433MPD2     C 6505   3.109   0.382  10.624  0.2666  0.2058 -0.1370
  433MPD2    C1 6506   3.202   0.295  10.677  0.8445  0.3577 -0.1529
  433MPD2    C2 6507   3.306   0.361  10.746 -0.0665  0.2530 -0.0854
  433MPD2    C3 6508   3.307   0.499  10.774  0.1587 -0.1583 -0.6030
  433MPD2    C4 6509   3.204   0.580  10.724 -0.6553  0.5294  0.4072
  433MPD2    C5 6510   3.110   0.516  10.656 -0.3038 -1.2763  0.5577
  433MPD2     H 6511   3.386   0.302  10.790 -1.6857 -2.1758 -0.4296
  433MPD2    H1 6512   3.194   0.683  10.758 -0.5755  0.8354 -0.4832
  433MPD2    H2 6513   3.027   0.354  10.558  1.7007 -2.3256 -0.8090
  433MPD2    H3 6514   3.011   0.553  10.630 -0.8654 -2.7285  0.6485
  433MPD2     N 6515   3.415   0.529  10.854 -0.1510  0.2781 -0.0571
  433MPD2    H5 6516   3.460   0.447  10.894  0.0151  1.5182  2.3287
  433MPD2    N1 6517   3.196   0.156  10.657  0.3992 -0.0763  0.1743
  433MPD2    H7 6518   3.114   0.127  10.604 -0.3218  0.2386  1.1238
  434TMC3    C1 6519   3.276   4.678  10.635 -0.0351  0.0126  0.0672
  434TMC3    C2 6520   3.388   4.605  10.630  0.0288  0.4478 -0.3648
  434TMC3    C3 6521   3.395   4.471  10.656 -0.1746  0.0859  0.1475
  434TMC3    C4 6522   3.164   4.605  10.667 -0.0539 -0.3455  0.0674
  434TMC3    C5 6523   3.174   4.469  10.685  0.9031  0.4477  0.5529
  434TMC3    C6 6524   3.284   4.396  10.676 -0.4220  0.6638 -0.4627
  434TMC3     C 6525   3.289   0.068  10.696 -0.1394 -0.5956 -0.3622
  434TMC3     O 6526   3.381   0.088  10.773 -0.2096  0.4816 -0.3954
  434TMC3     H 6527   3.476   4.666  10.613  0.7374 -0.2644  0.7302
  434TMC3    H1 6528   3.068   4.654  10.674  0.8436  1.5687 -0.9000
  434TMC3    H2 6529   3.283   4.288  10.680  0.4114  0.7063  1.1058
  434TMC3    C7 6530   3.043   4.401  10.688  0.1740 -0.8635 -0.4147
  434TMC3    C8 6531   3.523   4.416  10.703 -0.2593 -0.0431  0.3621
  434TMC3    O1 6532   2.953   4.461  10.634  0.2268 -0.5119  0.3848
  434TMC3    O2 6533   3.613   4.500  10.710 -0.2971  0.3882  0.0123
  435MPD2     C 6534   0.341   0.787  15.792 -1.1868 -0.3541  0.1397
  435MPD2    C1 6535   0.349   0.804  15.930 -0.6837  0.6946 -0.6649
  435MPD2    C2 6536   0.442   0.728  15.992  0.4401 -0.6116  0.2840
  435MPD2    C3 6537   0.521   0.639  15.929 -0.2913 -0.5056  0.2005
  435MPD2    C4 6538   0.511   0.627  15.793 -0.3779  0.7009 -0.0361
  435MPD2    C5 6539   0.428   0.705  15.722 -0.1289  0.4059 -0.0599
  435MPD2     H 6540   0.455   0.740  16.099  0.8926  1.7891 -0.0498
  435MPD2    H1 6541   0.575   0.558  15.739 -0.9210  0.2193 -0.0704
  435MPD2    H2 6542   0.267   0.841  15.733 -1.5323 -2.5791 -1.4527
  435MPD2    H3 6543   0.409   0.693  15.616 -0.2688  0.4536 -0.0407
  435MPD2     N 6544   0.609   0.567  16.016  0.5645 -0.0086 -0.4828
  435MPD2    H5 6545   0.615   0.573  16.118  1.2813  0.3748 -0.5444
  435MPD2    N1 6546   0.264   0.880  16.006 -0.1694 -0.5765 -0.0937
  435MPD2    H7 6547   0.267   0.876  16.107 -2.9181 -0.2454 -0.0082
  436TMC3    C1 6548   0.060   1.093  16.289 -0.0756  0.4887  0.4919
  436TMC3    C2 6549   0.136   1.032  16.193  0.7370  0.9644 -0.1679
  436TMC3    C3 6550   0.098   1.027  16.064 -0.2057  0.2729 -0.2328
  436TMC3    C4 6551   4.671   1.152  16.260 -0.2494 -0.1679 -0.5170
  436TMC3    C5 6552   4.627   1.134  16.128  0.7147 -0.0667  0.5430
  436TMC3    C6 6553   4.712   1.073  16.033  0.0108  0.3680  0.4309
  436TMC3     C 6554   0.122   1.135  16.411 -0.7450  0.1650  0.3808
  436TMC3     O 6555   0.242   1.151  16.418 -0.1745 -0.3333  0.4297
  436TMC3     H 6556   0.233   0.994  16.221 -1.0768 -3.0522  0.7340
  436TMC3    H1 6557   4.622   1.218  16.331  1.8328 -0.0804  0.8449
  436TMC3    H2 6558   4.677   1.061  15.931 -1.3848  0.3383  0.9130
  436TMC3    C7 6559   4.501   1.190  16.084 -0.3819 -0.3655  1.0516
  436TMC3    C8 6560   0.167   0.963  15.958 -0.0646  0.0763  0.3652
  436TMC3    O1 6561   4.462   1.154  15.975 -0.4447  0.3456  0.4161
  436TMC3    O2 6562   0.142   1.004  15.843 -0.4505  0.0493  0.0373
  437TMC3    C1 6563   3.610   3.071  12.979 -0.0291 -0.3857 -0.3083
  437TMC3    C2 6564   3.573   3.193  13.030  0.2405 -0.1452 -0.3176
  437TMC3    C3 6565   3.532   3.289  12.938 -0.9121 -0.2714  0.1542
  437TMC3    C4 6566   3.636   3.046  12.844 -0.2571 -0.4174  0.1447
  437TMC3    C5 6567   3.591   3.137  12.758  0.2075 -0.4290  0.3507
  437TMC3    C6 6568   3.546   3.258  12.805  0.4295 -0.7234 -0.0995
  437TMC3     C 6569   3.625   2.955  13.070  0.0143  0.4544 -0.1504
  437TMC3     O 6570   3.685   2.860  13.023 -0.5423  0.3929 -0.4356
  437TMC3     H 6571   3.556   3.206  13.136  1.0427 -0.8961 -0.0980
  437TMC3    H1 6572   3.655   2.945  12.810  1.4891 -0.0371  0.0085
  437TMC3    H2 6573   3.534   3.342  12.737  0.1945 -2.3571 -2.0800
  437TMC3    C7 6574   3.633   3.136  12.617 -0.3326 -0.3513  0.3227
  437TMC3    C8 6575   3.512   3.428  12.971 -0.0610  0.1416  0.5034
  437TMC3    O1 6576   3.591   3.224  12.547 -0.2001  0.2597 -0.5582
  437TMC3    O2 6577   3.454   3.492  12.885  0.0671  0.1193 -0.1719
  438MPD2     C 6578   1.240   3.453  17.020  0.4408 -0.8167  0.4677
  438MPD2    C1 6579   1.265   3.329  17.067  0.3531 -0.3953  0.7275
  438MPD2    C2 6580   1.243   3.294  17.203  0.2879 -0.3796  0.3447
  438MPD2    C3 6581   1.188   3.386  17.287 -0.5485 -0.6121  0.3672
  438MPD2    C4 6582   1.156   3.515  17.236  0.1848 -0.3503 -0.0117
  438MPD2    C5 6583   1.192   3.544  17.108  0.4583 -0.2671  0.7033
  438MPD2     H 6584   1.276   3.193  17.223  2.7280  0.4502  0.6236
  438MPD2    H1 6585   1.109   3.591  17.298 -3.1542 -1.9333 -0.6026
  438MPD2    H2 6586   1.266   3.485  16.919  1.9490 -2.5905  0.2928
  438MPD2    H3 6587   1.167   3.642  17.070 -1.9517 -0.7655  0.9912
  438MPD2     N 6588   1.149   3.354  17.421  0.0582  0.1208  0.0888
  438MPD2    H5 6589   1.117   3.435  17.474  0.7234 -0.4259  1.3219
  438MPD2    N1 6590   1.328   3.225  16.985  0.3205  0.4617 -0.2655
  438MPD2    H7 6591   1.343   3.133  17.025 -1.9377  1.2038  2.3394
  439TMC3    C1 6592   1.428   3.110  16.800  0.3449  0.0757 -0.1995
  439TMC3    C2 6593   1.389   3.044  16.681  0.0358  0.0548  0.2524
  439TMC3    C3 6594   1.465   2.934  16.654  0.2272 -0.7178  0.1244
  439TMC3    C4 6595   1.516   3.053  16.892  0.2433  0.0988  0.4364
  439TMC3    C5 6596   1.589   2.945  16.856 -0.5550  0.1716 -0.1208
  439TMC3    C6 6597   1.551   2.882  16.743 -0.1457  0.3997 -0.3193
  439TMC3     C 6598   1.349   3.227  16.848 -0.2710 -1.0270 -0.4861
  439TMC3     O 6599   1.326   3.305  16.762  0.2670  0.0933  0.4846
  439TMC3     H 6600   1.321   3.090  16.610  0.9414 -1.4245 -1.5923
  439TMC3    H1 6601   1.552   3.114  16.973  1.3593 -0.6794  0.5228
  439TMC3    H2 6602   1.602   2.790  16.714 -0.9906 -0.1902  0.0759
  439TMC3    C7 6603   1.732   2.962  16.867  0.0662 -0.3554 -0.2401
  439TMC3    C8 6604   1.519   2.910  16.522 -0.3791  0.5398  0.4371
  439TMC3    O1 6605   1.785   2.945  16.981 -0.2522 -0.7352 -0.4151
  439TMC3    O2 6606   1.576   2.806  16.495 -0.2086  0.5044  0.4405
  440MPD2     C 6607   0.140   4.146  14.727  0.6650 -0.3440 -0.2291
  440MPD2    C1 6608   0.177   4.258  14.800  0.2473  0.2602  0.4564
  440MPD2    C2 6609   0.319   4.275  14.826 -0.4742  0.5875  0.0971
  440MPD2    C3 6610   0.417   4.185  14.783  0.2542 -0.1137 -0.0538
  440MPD2    C4 6611   0.376   4.081  14.705 -0.3641  0.8781 -0.2827
  440MPD2    C5 6612   0.242   4.065  14.683  0.0155 -0.2120  0.9056
  440MPD2     H 6613   0.350   4.364  14.880 -2.9730  1.3011  0.3572
  440MPD2    H1 6614   0.441   4.006  14.661 -1.2096  0.6075 -1.0780
  440MPD2    H2 6615   0.039   4.127  14.690  2.0352 -2.8715 -2.6178
  440MPD2    H3 6616   0.211   3.984  14.618  1.0746 -2.3451  3.0377
  440MPD2     N 6617   0.547   4.197  14.824 -0.2517 -0.3908  0.0092
  440MPD2    H5 6618   0.613   4.124  14.800  3.1049  2.9408 -0.7931
  440MPD2    N1 6619   0.084   4.352  14.840  0.2723 -0.0107  0.1843
  440MPD2    H7 6620   0.131   4.429  14.887 -0.7637  1.5470 -1.3025
  441TMC3    C1 6621   0.709   4.242  14.988  0.1710  0.4245 -0.2120
  441TMC3    C2 6622   0.766   4.337  15.065 -0.6689  0.6894  0.2068
  441TMC3    C3 6623   0.817   4.300  15.187 -0.2981  0.1234 -0.6146
  441TMC3    C4 6624   0.709   4.115  15.030  0.6268  0.4960 -0.7735
  441TMC3    C5 6625   0.774   4.077  15.142 -0.7096  0.0022 -0.6338
  441TMC3    C6 6626   0.835   4.174  15.223  0.6735 -0.2279  0.0900
  441TMC3     C 6627   0.603   4.290  14.908  0.5561 -0.2110 -0.0892
  441TMC3     O 6628   0.564   4.401  14.949  0.4579 -0.1420  0.2266
  441TMC3     H 6629   0.769   4.440  15.032  1.1054  0.1140 -1.4106
  441TMC3    H1 6630   0.654   4.036  14.980  0.3732  0.6589 -0.7523
  441TMC3    H2 6631   0.871   4.150  15.323  0.5254 -2.3058 -0.3610
  441TMC3    C7 6632   0.718   3.974  15.222  0.3639 -0.2360  0.4448
  441TMC3    C8 6633   0.755   4.372  15.293 -1.1597  0.1459  0.7485
  441TMC3    O1 6634   0.599   3.983  15.243  0.6018  0.2686  0.4406
  441TMC3    O2 6635   0.788   4.345  15.410  0.2869 -0.4813 -0.5811
  442MPD2     C 6636   3.180   4.208  16.609 -0.0052 -0.6407 -0.7789
  442MPD2    C1 6637   3.096   4.118  16.669 -0.5404  0.4938 -0.3748
  442MPD2    C2 6638   3.079   3.993  16.610 -0.0975  0.2252 -0.0632
  442MPD2    C3 6639   3.153   3.947  16.501 -0.2098  0.3286  0.4856
  442MPD2    C4 6640   3.242   4.044  16.445  0.3873 -0.0803 -0.0531
  442MPD2    C5 6641   3.251   4.168  16.500 -0.1953  0.9988 -0.0641
  442MPD2     H 6642   3.010   3.923  16.657 -0.6454  1.5324  1.0807
  442MPD2    H1 6643   3.303   4.013  16.360 -0.0883 -0.7609 -0.1494
  442MPD2    H2 6644   3.203   4.302  16.658 -1.4687 -0.2238 -0.8892
  442MPD2    H3 6645   3.314   4.243  16.454  0.0125  1.4384  0.9385
  442MPD2     N 6646   3.146   3.816  16.442 -0.1347 -0.4897  0.3997
  442MPD2    H5 6647   3.194   3.804  16.353  1.3353  0.3112  1.0913
  442MPD2    N1 6648   3.012   4.149  16.782 -0.2518  0.4760  0.1274
  442MPD2    H7 6649   2.949   4.080  16.822 -0.5068 -0.1235 -1.3147
  443TMC3    C1 6650   2.919   4.265  16.967 -0.2910  0.0158 -0.8752
  443TMC3    C2 6651   2.847   4.379  16.991 -0.0901 -0.6325 -0.1481
  443TMC3    C3 6652   2.735   4.364  17.056 -0.0945  0.1148 -0.3215
  443TMC3    C4 6653   2.871   4.139  17.000  0.1303  0.3971  0.1439
  443TMC3    C5 6654   2.766   4.136  17.085  0.2906  0.3021  0.4725
  443TMC3    C6 6655   2.690   4.247  17.117  0.3511 -0.3073 -0.5265
  443TMC3     C 6656   3.006   4.270  16.847 -0.0237  0.5702  0.3692
  443TMC3     O 6657   3.058   4.377  16.823 -0.5693 -0.0465  0.0832
  443TMC3     H 6658   2.884   4.476  16.961  0.5601 -0.5792  0.8095
  443TMC3    H1 6659   2.916   4.043  16.976  0.4129  0.7410 -0.7034
  443TMC3    H2 6660   2.605   4.249  17.184  0.6211  0.6749 -0.2108
  443TMC3    C7 6661   2.710   4.015  17.121  0.7155  0.3729  0.0345
  443TMC3    C8 6662   2.653   4.478  17.081 -0.5603 -0.2047 -0.3179
  443TMC3    O1 6663   2.725   3.923  17.038 -0.5003  0.1254  0.2232
  443TMC3    O2 6664   2.721   4.569  17.123 -0.4374 -0.7159  0.5873
  444MPD2     C 6665   3.226   3.946  16.964  0.5809  0.4868 -0.0266
  444MPD2    C1 6666   3.179   3.819  16.972 -0.3606  0.0826 -1.1269
  444MPD2    C2 6667   3.234   3.734  16.877  0.6988 -0.2820  0.0331
  444MPD2    C3 6668   3.327   3.768  16.786  0.0876 -0.2905 -0.3783
  444MPD2    C4 6669   3.387   3.898  16.790 -0.0505 -0.4464  0.2013
  444MPD2    C5 6670   3.327   3.985  16.877  0.2362 -0.9599 -0.1944
  444MPD2     H 6671   3.193   3.634  16.866 -0.7516  0.1373  1.6200
  444MPD2    H1 6672   3.460   3.930  16.717 -0.0522 -0.8251  0.0290
  444MPD2    H2 6673   3.187   4.029  17.022  2.3384  0.4444  1.2277
  444MPD2    H3 6674   3.359   4.088  16.866  1.6844 -1.4591 -0.6921
  444MPD2     N 6675   3.361   3.661  16.702 -0.2015  0.4721  0.4665
  444MPD2    H5 6676   3.310   3.574  16.708  0.2847  0.1339 -0.2922
  444MPD2    N1 6677   3.083   3.771  17.066 -0.3015  0.1776 -0.2305
  444MPD2    H7 6678   3.074   3.670  17.064  0.4624  0.0884  1.1895
  445TMC3    C1 6679   3.497   3.525  16.575 -0.2590 -0.0579  0.0197
  445TMC3    C2 6680   3.395   3.450  16.529  1.1545 -0.3233 -0.5327
  445TMC3    C3 6681   3.416   3.312  16.525 -0.3159 -0.2531 -0.1187
  445TMC3    C4 6682   3.629   3.475  16.591 -0.1594 -0.6794  0.1521
  445TMC3    C5 6683   3.648   3.340  16.561  0.2932  0.3732  0.6227
  445TMC3    C6 6684   3.541   3.261  16.523 -0.0667  0.1407 -0.1940
  445TMC3     C 6685   3.474   3.659  16.628  0.7594  0.3648  0.3701
  445TMC3     O 6686   3.573   3.728  16.631 -0.0112 -0.4963 -0.6288
  445TMC3     H 6687   3.297   3.496  16.517  0.4017 -1.1490  2.5946
  445TMC3    H1 6688   3.699   3.522  16.659 -1.4676  1.1267  0.2727
  445TMC3    H2 6689   3.556   3.155  16.503 -0.7148  0.1948 -0.9817
  445TMC3    C7 6690   3.755   3.269  16.630  0.1839  0.4215 -0.1857
  445TMC3    C8 6691   3.296   3.236  16.494 -0.4266 -0.1131  0.3615
  445TMC3    O1 6692   3.731   3.168  16.698  0.0490 -0.3803  0.5780
  445TMC3    O2 6693   3.199   3.302  16.471 -0.4323  0.7567  0.6077
  446MPD2     C 6694   3.389   4.368  11.212  0.2549 -0.1017  0.3214
  446MPD2    C1 6695   3.322   4.436  11.117  0.3295  0.5932  0.6889
  446MPD2    C2 6696   3.385   4.533  11.036  0.4716 -0.6237 -0.2723
  446MPD2    C3 6697   3.521   4.549  11.058 -0.3088 -0.5366 -0.7173
  446MPD2    C4 6698   3.589   4.481  11.159 -0.1602 -0.1772 -0.0260
  446MPD2    C5 6699   3.524   4.382  11.231 -0.4721  0.2937 -0.4418
  446MPD2     H 6700   3.330   4.590  10.962  0.0909  0.6849  1.0022
  446MPD2    H1 6701   3.694   4.491  11.186  0.3997 -3.2061 -0.9942
  446MPD2    H2 6702   3.347   4.297  11.282  0.6785 -0.0643  0.6093
  446MPD2    H3 6703   3.574   4.323  11.307  1.9024  3.6450  0.5984
  446MPD2     N 6704   3.592   4.636  10.976  0.0540  0.2709  0.2361
  446MPD2    H5 6705   3.533   4.687  10.912 -1.7861 -1.3949  0.6077
  446MPD2    N1 6706   3.179   4.427  11.097 -0.2354 -0.1386 -0.2215
  446MPD2    H7 6707   3.130   4.495  11.038 -2.5658 -1.4786  0.1911
  447TMC3    C1 6708   3.778   4.706  10.842 -0.4849 -0.4695 -0.2777
  447TMC3    C2 6709   3.715   0.083  10.804 -0.5733  0.7919 -0.4433
  447TMC3    C3 6710   3.781   0.157  10.709  0.3256  0.3090 -0.2486
  447TMC3    C4 6711   3.899   4.667  10.791  0.0836 -0.5206  0.1429
  447TMC3    C5 6712   3.947   4.738  10.688  0.2899  0.2249  0.1549
  447TMC3    C6 6713   3.889   0.111  10.641 -0.6729 -0.3788  0.0470
  447TMC3     C 6714   3.731   4.630  10.955  0.4570 -0.1427 -0.3971
  447TMC3     O 6715   3.818   4.553  11.002  0.0068 -0.8843 -0.3169
  447TMC3     H 6716   3.623   0.114  10.854  0.8717 -0.3421  2.9183
  447TMC3    H1 6717   3.943   4.574  10.826  1.3564 -0.3476 -1.0415
  447TMC3    H2 6718   3.938   0.170  10.565  0.6045  0.0901  1.2444
  447TMC3    C7 6719   4.085   4.736  10.665 -0.4476 -0.7406  0.4493
  447TMC3    C8 6720   3.727   0.292  10.700  0.2213  0.0660  0.3264
  447TMC3    O1 6721   4.130   0.064  10.573  0.3459 -0.0274  0.0452
  447TMC3    O2 6722   3.616   0.316  10.746 -0.6031 -0.4780  0.0502
  448TMC3    C1 6723   1.075   4.510  17.187 -0.2112 -0.0682 -0.3368
  448TMC3    C2 6724   1.009   4.526  17.070  0.8439  0.5197  0.8761
  448TMC3    C3 6725   0.956   4.410  17.007 -0.1666  0.5931  0.9051
  448TMC3    C4 6726   1.093   4.388  17.240 -0.0709 -0.6396  0.2814
  448TMC3    C5 6727   1.049   4.282  17.173  0.7541 -0.2303 -0.2326
  448TMC3    C6 6728   0.983   4.293  17.057  0.4378 -0.5918 -0.1971
  448TMC3     C 6729   1.138   4.634  17.236 -0.3733 -0.0874  0.2598
  448TMC3     O 6730   1.110   0.005  17.182  0.4065  0.0488  0.4011
  448TMC3     H 6731   1.006   4.624  17.023  0.7369  0.5020  0.8450
  448TMC3    H1 6732   1.132   4.381  17.341  0.2796 -0.1437  0.1835
  448TMC3    H2 6733   0.945   4.202  17.011 -1.1438  1.3452 -2.7654
  448TMC3    C7 6734   1.096   4.150  17.220  0.1219  0.4523 -0.1684
  448TMC3    C8 6735   0.948   4.409  16.865  0.3535  0.1365 -0.0095
  448TMC3    O1 6736   1.036   4.058  17.165  0.0888  0.0195 -0.4025
  448TMC3    O2 6737   0.908   4.301  16.824 -0.4949  0.2814 -0.3572
  449MPD2     C 6738   3.018   3.097  14.395 -0.4654 -0.6002  0.1408
  449MPD2    C1 6739   2.916   3.172  14.335 -0.8223  0.0804 -0.1859
  449MPD2    C2 6740   2.794   3.115  14.301 -0.2223  0.3236 -0.0729
  449MPD2    C3 6741   2.779   2.978  14.320  0.1244 -0.1909  0.4077
  449MPD2    C4 6742   2.879   2.907  14.385 -0.3772 -0.1811 -0.0039
  449MPD2    C5 6743   3.000   2.964  14.422  0.6801  0.5602  0.2849
  449MPD2     H 6744   2.712   3.175  14.264 -0.4925  0.2034  0.3323
  449MPD2    H1 6745   2.863   2.800  14.394 -3.6454  0.3404  0.5942
  449MPD2    H2 6746   3.110   3.147  14.423 -0.1662  0.2789 -2.4064
  449MPD2    H3 6747   3.081   2.909  14.469  0.7771  1.4267  1.1302
  449MPD2     N 6748   2.654   2.920  14.282  0.0157  0.0724  0.8147
  449MPD2    H5 6749   2.592   2.986  14.237  0.1877  1.8144  3.1039
  449MPD2    N1 6750   2.925   3.309  14.289 -0.0284 -0.6514  0.3542
  449MPD2    H7 6751   2.841   3.357  14.259  0.8315  1.0341  0.6449
  450TMC3    C1 6752   2.997   3.506  14.214 -0.5646 -0.2232  1.3506
  450TMC3    C2 6753   3.050   3.538  14.089  0.9059 -0.6180 -0.1087
  450TMC3    C3 6754   2.967   3.611  14.007  0.3118  0.5831  0.2248
  450TMC3    C4 6755   2.872   3.546  14.253 -0.2810  0.9060 -0.3526
  450TMC3    C5 6756   2.786   3.601  14.158  0.3146  0.0080 -0.6254
  450TMC3    C6 6757   2.838   3.646  14.037 -0.0891  0.2371 -0.3117
  450TMC3     C 6758   3.039   3.381  14.265 -0.6132  0.3011  0.3514
  450TMC3     O 6759   3.159   3.352  14.257  0.3784  0.3190  0.3601
  450TMC3     H 6760   3.157   3.541  14.073  1.2133 -3.6495  1.4896
  450TMC3    H1 6761   2.839   3.534  14.355  3.0145 -0.1326  0.6034
  450TMC3    H2 6762   2.772   3.685  13.960  0.1934  0.7816 -0.2773
  450TMC3    C7 6763   2.659   3.530  14.153 -0.4921  0.7394 -0.0215
  450TMC3    C8 6764   3.012   3.653  13.877 -0.7213 -0.2414  0.2702
  450TMC3    O1 6765   2.665   3.420  14.213  0.5907  0.3238 -0.2610
  450TMC3    O2 6766   2.956   3.745  13.817  0.2374 -0.0301  0.2078
  451MPD2     C 6767   4.426   2.137   1.645  0.1909  1.0126 -1.3453
  451MPD2    C1 6768   4.391   2.187   1.521 -0.4912 -0.6847 -0.9172
  451MPD2    C2 6769   4.421   2.108   1.410 -0.1541  0.0047 -0.5139
  451MPD2    C3 6770   4.479   1.978   1.430  0.5993  0.3754  0.2054
  451MPD2    C4 6771   4.514   1.924   1.556  0.0287 -0.2892 -0.2078
  451MPD2    C5 6772   4.482   2.008   1.661  0.4020 -0.5790  0.4910
  451MPD2     H 6773   4.385   2.144   1.315  1.5257  2.0539 -0.3611
  451MPD2    H1 6774   4.562   1.827   1.560  1.8932  0.6817  0.7674
  451MPD2    H2 6775   4.398   2.203   1.727 -0.4819 -1.4615  0.4096
  451MPD2    H3 6776   4.507   1.970   1.759 -0.7687  0.1551  1.0713
  451MPD2     N 6777   4.504   1.898   1.319  0.2503  0.3970  0.2216
  451MPD2    H5 6778   4.527   1.802   1.341  0.3985  0.7123  1.4528
  451MPD2    N1 6779   4.300   2.295   1.513  0.2552  0.0961 -0.3691
  451MPD2    H7 6780   4.281   2.330   1.606  0.3362  1.8097 -1.0038
  452TMC3    C1 6781   4.473   1.814   1.098  0.4132  0.0797 -0.0436
  452TMC3    C2 6782   4.421   1.697   1.138  0.3432  0.5957 -0.4614
  452TMC3    C3 6783   4.374   1.612   1.043 -0.0683  0.1756 -0.4511
  452TMC3    C4 6784   4.466   1.856   0.963  0.1903 -0.2718  0.5217
  452TMC3    C5 6785   4.407   1.771   0.873  0.3016 -0.2938 -0.9862
  452TMC3    C6 6786   4.363   1.639   0.911  0.0620 -0.3617  0.0329
  452TMC3     C 6787   4.485   1.927   1.189 -0.0410  0.1134 -0.5194
  452TMC3     O 6788   4.449   2.034   1.135  0.6511  0.0880  0.0413
  452TMC3     H 6789   4.419   1.664   1.241 -1.9976  0.1241 -0.6450
  452TMC3    H1 6790   4.481   1.959   0.934 -3.0729 -0.0673 -0.3966
  452TMC3    H2 6791   4.303   1.577   0.846  0.9869 -1.1291 -0.0952
  452TMC3    C7 6792   4.358   1.833   0.755  0.7253  0.6474  0.3554
  452TMC3    C8 6793   4.313   1.489   1.090  0.0939  0.0736  0.0744
  452TMC3    O1 6794   4.419   1.925   0.702 -0.0719  0.0589  0.1874
  452TMC3    O2 6795   4.325   1.391   1.013  0.3032  0.4644 -0.1616
  453TMC3    C1 6796   0.703   4.047  11.874 -0.5011  0.1981 -0.6106
  453TMC3    C2 6797   0.624   3.947  11.935  0.2815  0.3764  0.2429
  453TMC3    C3 6798   0.524   3.899  11.854  0.6165 -0.2437 -0.0900
  453TMC3    C4 6799   0.682   4.099  11.752  0.8089 -0.5324  0.3044
  453TMC3    C5 6800   0.582   4.039  11.672  0.6223 -0.0059 -0.0737
  453TMC3    C6 6801   0.506   3.934  11.724  0.2825  0.3559 -0.5609
  453TMC3     C 6802   0.824   4.084  11.943  0.1484  0.9595 -0.5033
  453TMC3     O 6803   0.884   4.191  11.921 -0.4727 -0.5582  0.3809
  453TMC3     H 6804   0.617   3.929  12.042  1.0725 -0.4582  0.1534
  453TMC3    H1 6805   0.763   4.157  11.710  0.0904  0.8998  0.9230
  453TMC3    H2 6806   0.431   3.885  11.663 -0.7972  1.0765  0.1820
  453TMC3    C7 6807   0.543   4.091  11.542  0.1126 -0.1940 -0.5781
  453TMC3    C8 6808   0.418   3.833  11.926  0.4897  0.5480 -0.2500
  453TMC3    O1 6809   0.441   4.042  11.497 -0.3745  0.3172  0.0593
  453TMC3    O2 6810   0.301   3.867  11.903  0.4009  0.0237  0.4653
  454MPD2     C 6811   4.136   3.806  16.196  0.5108  0.6865 -0.3508
  454MPD2    C1 6812   4.051   3.822  16.092  0.3517  0.0499 -0.0522
  454MPD2    C2 6813   3.971   3.930  16.096  0.3651  0.0108 -0.5156
  454MPD2    C3 6814   3.973   4.016  16.200 -0.5649 -0.6526 -0.4597
  454MPD2    C4 6815   4.066   4.001  16.300 -0.4072 -0.5228 -0.0177
  454MPD2    C5 6816   4.146   3.894  16.305  0.8388 -0.1004 -0.3187
  454MPD2     H 6817   3.892   3.936  16.023  1.0780 -0.7230 -1.3434
  454MPD2    H1 6818   4.071   4.067  16.386  1.0693 -0.2609 -0.3020
  454MPD2    H2 6819   4.197   3.721  16.224 -1.8549 -1.0652 -0.4633
  454MPD2    H3 6820   4.208   3.875  16.392  0.7296 -0.5056 -0.3327
  454MPD2     N 6821   3.875   4.125  16.216  0.4420  0.4382 -0.8018
  454MPD2    H5 6822   3.863   4.163  16.309  1.4585 -0.2238 -0.3906
  454MPD2    N1 6823   4.033   3.723  15.987 -0.0312  0.8156  0.1412
  454MPD2    H7 6824   3.962   3.736  15.915 -0.3224 -0.5425  0.1887
  455TMC3    C1 6825   3.654   4.135  16.200 -0.6003 -0.9235 -0.6203
  455TMC3    C2 6826   3.656   4.195  16.322 -0.2978 -0.1919 -0.3126
  455TMC3    C3 6827   3.601   4.127  16.422 -0.8089 -0.4347 -0.4431
  455TMC3    C4 6828   3.601   4.011  16.180  0.0608  0.1525  0.7211
  455TMC3    C5 6829   3.552   3.942  16.287 -0.0889  0.2733 -1.5366
  455TMC3    C6 6830   3.578   3.991  16.408  0.2154 -0.4699  0.5487
  455TMC3     C 6831   3.776   4.141  16.125  0.0334 -0.4823  0.5565
  455TMC3     O 6832   3.765   4.121  16.004 -0.4193  0.0958  0.5161
  455TMC3     H 6833   3.703   4.291  16.337 -1.0148  0.1375 -0.1901
  455TMC3    H1 6834   3.618   3.966  16.083 -0.6718 -1.7864  1.4864
  455TMC3    H2 6835   3.540   3.921  16.481  0.9634 -0.9076  0.5147
  455TMC3    C7 6836   3.545   3.800  16.267  0.7040  0.3349  0.0863
  455TMC3    C8 6837   3.620   4.167  16.557 -0.4263 -0.2567 -0.2679
  455TMC3    O1 6838   3.445   3.743  16.310 -0.2269 -0.0992  0.1650
  455TMC3    O2 6839   3.656   4.084  16.644 -0.3018 -0.2298 -0.0379
  456MPD2     C 6840   1.917   3.879  15.901 -0.4108  0.1624 -1.1554
  456MPD2    C1 6841   1.871   3.760  15.958 -0.1304 -0.0658  0.2600
  456MPD2    C2 6842   1.761   3.766  16.040  0.1704  0.2826  0.2357
  456MPD2    C3 6843   1.707   3.890  16.077  0.6954 -0.0980  0.1093
  456MPD2    C4 6844   1.765   4.004  16.027  0.3273 -0.1715  0.1189
  456MPD2    C5 6845   1.865   4.000  15.932 -0.2251  0.1643 -0.6715
  456MPD2     H 6846   1.717   3.675  16.080  1.1478  0.0557  0.8113
  456MPD2    H1 6847   1.725   4.100  16.055  1.2720 -0.0092  0.9126
  456MPD2    H2 6848   1.995   3.874  15.825 -0.0343 -0.7344 -0.7149
  456MPD2    H3 6849   1.893   4.094  15.886 -2.0482 -0.1153 -2.3478
  456MPD2     N 6850   1.601   3.892  16.175  0.2076  0.3020  0.2837
  456MPD2    H5 6851   1.576   3.804  16.219 -0.3521 -1.1047 -2.8705
  456MPD2    N1 6852   1.942   3.646  15.921 -0.2050  0.0322  0.0847
  456MPD2    H7 6853   2.009   3.651  15.845 -0.0830  0.1611  0.2015
  457TMC3    C1 6854   1.443   3.986  16.316  0.3326 -0.1591 -0.2951
  457TMC3    C2 6855   1.334   4.073  16.314 -0.2166 -0.9758  0.0293
  457TMC3    C3 6856   1.230   4.035  16.400 -0.6799  0.2683  0.0477
  457TMC3    C4 6857   1.464   3.884  16.403  0.7334 -0.6384  0.8249
  457TMC3    C5 6858   1.358   3.854  16.484  0.1820 -0.6326  0.0272
  457TMC3    C6 6859   1.241   3.925  16.485 -0.0992  0.2691 -0.0261
  457TMC3     C 6860   1.525   3.999  16.193 -0.3883 -0.0680  0.1163
  457TMC3     O 6861   1.505   4.096  16.122 -0.0968  0.2391 -0.7662
  457TMC3     H 6862   1.316   4.150  16.239  0.7634 -0.2780  0.5185
  457TMC3    H1 6863   1.560   3.834  16.403  1.2508  0.3509  1.5967
  457TMC3    H2 6864   1.156   3.887  16.539 -0.4714  1.6851  0.3676
  457TMC3    C7 6865   1.400   3.863  16.626  0.0641  1.0275 -0.0893
  457TMC3    C8 6866   1.142   4.131  16.465  0.0324 -0.0544 -0.1844
  457TMC3    O1 6867   1.500   3.800  16.653  0.0102 -0.3454  0.0144
  457TMC3    O2 6868   1.118   4.100  16.580 -0.0042  0.0335 -0.5816
  458MPD2     C 6869   4.081   3.088  12.370 -0.1830 -0.1535  0.2128
  458MPD2    C1 6870   4.085   3.003  12.475  0.4197  0.9239  0.3175
  458MPD2    C2 6871   3.965   2.989  12.550  0.2070  0.5863 -0.0780
  458MPD2    C3 6872   3.855   3.061  12.520 -0.1105 -0.1124  0.4778
  458MPD2    C4 6873   3.848   3.132  12.408  0.1048  0.3151 -0.1182
  458MPD2    C5 6874   3.957   3.140  12.327 -0.6448 -0.3893 -0.3714
  458MPD2     H 6875   3.960   2.939  12.646  0.5926 -1.4718 -1.1221
  458MPD2    H1 6876   3.756   3.182  12.381  0.9692  0.8236 -2.0817
  458MPD2    H2 6877   4.162   3.088  12.299 -0.8799 -3.9581 -0.5856
  458MPD2    H3 6878   3.964   3.201  12.238 -2.0035 -0.3201 -0.4272
  458MPD2     N 6879   3.746   3.055  12.608 -0.4581 -0.4219  0.1451
  458MPD2    H5 6880   3.752   2.989  12.685  0.1054  0.3305  0.7490
  458MPD2    N1 6881   4.206   2.945  12.523  0.7323 -0.1156 -0.3554
  458MPD2    H7 6882   4.291   2.964  12.471 -0.1244  2.9142 -0.6697
  459TMC3    C1 6883   4.325   2.887  12.725  0.1921  0.6825  0.5856
  459TMC3    C2 6884   4.413   2.995  12.705 -0.5218 -0.5888 -0.3997
  459TMC3    C3 6885   4.487   3.029  12.816  0.1398 -0.3486 -0.2467
  459TMC3    C4 6886   4.310   2.834  12.845  0.3159 -0.4592 -0.1687
  459TMC3    C5 6887   4.381   2.871  12.954  0.2430  0.5382 -0.4837
  459TMC3    C6 6888   4.470   2.976  12.937  0.3214  0.1630  0.1211
  459TMC3     C 6889   4.217   2.861  12.630  0.4107  0.0313  0.0981
  459TMC3     O 6890   4.132   2.776  12.667  0.1086 -0.0777  0.1924
  459TMC3     H 6891   4.434   3.039  12.608 -1.8079  1.2145  0.1409
  459TMC3    H1 6892   4.242   2.750  12.860 -2.6096  1.3628 -3.0970
  459TMC3    H2 6893   4.506   3.029  13.024  1.0072 -1.0400  0.5693
  459TMC3    C7 6894   4.341   2.812  13.083 -0.0854 -0.0399  0.3952
  459TMC3    C8 6895   4.583   3.138  12.821  0.1458 -0.4695  0.6862
  459TMC3    O1 6896   4.290   2.699  13.069  0.0445  0.1368 -0.4112
  459TMC3    O2 6897   4.682   3.131  12.895 -0.2315 -0.0367  0.4542
  460MPD2     C 6898   3.866   0.537  10.471  0.7530 -0.4242  0.2345
  460MPD2    C1 6899   3.776   0.501  10.568 -0.5054  0.0101 -0.2619
  460MPD2    C2 6900   3.668   0.577  10.616  0.6766  0.9637  1.1457
  460MPD2    C3 6901   3.663   0.705  10.565  0.7582  0.4643 -0.1072
  460MPD2    C4 6902   3.760   0.744  10.480  0.1709 -0.1859 -0.2134
  460MPD2    C5 6903   3.853   0.658  10.429 -0.3751  0.7848  0.0288
  460MPD2     H 6904   3.592   0.537  10.682  0.4711  0.1199  0.3917
  460MPD2    H1 6905   3.765   0.840  10.430  0.6241  0.1978  0.5716
  460MPD2    H2 6906   3.942   0.473  10.429 -0.9721 -2.4275  0.1957
  460MPD2    H3 6907   3.923   0.690  10.352 -2.3626  2.8042 -0.9237
  460MPD2     N 6908   3.562   0.790  10.601  0.0800 -0.3533 -0.4540
  460MPD2    H5 6909   3.489   0.739  10.650 -0.8671  1.3143 -0.1270
  460MPD2    N1 6910   3.798   0.366  10.610 -0.1141  0.3324 -0.4090
  460MPD2    H7 6911   3.886   0.322  10.585 -1.5287 -1.4941 -2.1173
  461TMC3    C1 6912   3.427   0.988  10.587 -0.3938  0.6013 -0.1243
  461TMC3    C2 6913   3.308   0.919  10.584  0.1642 -0.0950  0.5110
  461TMC3    C3 6914   3.190   0.998  10.604 -0.1444 -0.0300 -0.3136
  461TMC3    C4 6915   3.437   1.125  10.592 -0.3769  0.0300 -0.7410
  461TMC3    C5 6916   3.321   1.194  10.612 -0.2925  0.3243 -0.1061
  461TMC3    C6 6917   3.203   1.134  10.605  0.3406 -0.5133 -0.1330
  461TMC3     C 6918   3.552   0.921  10.565  0.5186  0.0013 -0.0926
  461TMC3     O 6919   3.640   0.995  10.532 -0.1373  0.2411  0.6291
  461TMC3     H 6920   3.313   0.810  10.580  0.1045 -0.0754 -0.0718
  461TMC3    H1 6921   3.534   1.168  10.615  1.6542 -2.4286 -4.8047
  461TMC3    H2 6922   3.114   1.193  10.586  0.9532  0.7072  0.7906
  461TMC3    C7 6923   3.327   1.331  10.568 -0.2618  0.0188  0.0714
  461TMC3    C8 6924   3.054   0.943  10.582 -0.1709 -0.2278 -0.4918
  461TMC3    O1 6925   3.228   1.377  10.515 -0.4205 -0.1650 -0.1419
  461TMC3    O2 6926   2.951   0.999  10.620 -0.2773  0.1121  0.4382
  462TMC3    C1 6927   3.929   1.467   0.913 -0.4434 -0.2754 -0.6557
  462TMC3    C2 6928   4.022   1.383   0.856 -0.1293  0.6738 -0.3470
  462TMC3    C3 6929   3.975   1.278   0.777  0.4015  0.4905  0.1391
  462TMC3    C4 6930   3.794   1.437   0.899  0.3644 -0.3864  0.1244
  462TMC3    C5 6931   3.753   1.341   0.812 -0.4223 -0.3927  0.0677
  462TMC3    C6 6932   3.844   1.268   0.744  0.2367  0.4133 -0.2051
  462TMC3     C 6933   3.978   1.590   0.971 -0.5986 -0.0537  0.0052
  462TMC3     O 6934   4.071   1.644   0.908  0.3514 -0.5749  0.2558
  462TMC3     H 6935   4.126   1.398   0.883  0.0193 -1.4314  0.2388
  462TMC3    H1 6936   3.726   1.510   0.940 -0.9526 -2.5177  1.7570
  462TMC3    H2 6937   3.810   1.176   0.697 -0.9688  1.8716 -2.1829
  462TMC3    C7 6938   3.618   1.294   0.808 -0.2056 -0.9612 -0.1237
  462TMC3    C8 6939   4.077   1.184   0.738 -0.6587  0.3316  0.3182
  462TMC3    O1 6940   3.591   1.200   0.733  0.4911 -0.5339  0.7897
  462TMC3    O2 6941   4.184   1.192   0.792 -0.3500  0.3463  0.2385
  463MPD2     C 6942   0.189   4.300   2.089 -0.0808 -0.5095  0.6919
  463MPD2    C1 6943   0.071   4.368   2.086 -0.6099  0.4326  0.3122
  463MPD2    C2 6944   0.067   4.503   2.109  0.1216  0.2802  0.1338
  463MPD2    C3 6945   0.186   4.585   2.100 -0.7352 -0.5299 -0.0016
  463MPD2    C4 6946   0.304   4.520   2.090  0.1035 -0.5264 -0.2145
  463MPD2    C5 6947   0.302   4.381   2.089 -0.5115 -0.3104 -0.9636
  463MPD2     H 6948   4.707   4.550   2.101  1.0147  2.1952  0.4604
  463MPD2    H1 6949   0.399   4.565   2.064 -1.0520  1.0816 -1.7082
  463MPD2    H2 6950   0.200   4.193   2.080  0.2007 -0.2979 -1.4715
  463MPD2    H3 6951   0.394   4.325   2.078 -0.0116  0.2720  0.1815
  463MPD2     N 6952   0.185   4.726   2.118 -0.0201  0.2445 -0.3860
  463MPD2    H5 6953   0.279   0.027   2.126 -0.0901  0.3295  0.0143
  463MPD2    N1 6954   4.691   4.290   2.074  1.1868  0.0992  0.4361
  463MPD2    H7 6955   4.608   4.338   2.108  1.4482  1.5635 -0.9619
  464TMC3    C1 6956   4.537   4.123   2.019 -0.5910 -0.6677 -0.1317
  464TMC3    C2 6957   4.435   4.219   2.005  0.0085 -0.5076  0.7320
  464TMC3    C3 6958   4.314   4.181   1.953  0.7091 -0.5995  0.6152
  464TMC3    C4 6959   4.511   3.993   1.988 -0.0381 -0.2179 -0.1794
  464TMC3    C5 6960   4.391   3.962   1.925  0.1704 -0.3808  0.0172
  464TMC3    C6 6961   4.287   4.046   1.917 -0.1522  0.1628  0.3733
  464TMC3     C 6962   4.675   4.158   2.025 -0.7842 -0.0102  0.6190
  464TMC3     O 6963   0.019   4.073   2.012  0.3208 -0.1192  0.3641
  464TMC3     H 6964   4.448   4.327   2.014  2.2091 -0.8139  1.3888
  464TMC3    H1 6965   4.587   3.917   1.979 -0.6494 -0.7197 -1.0875
  464TMC3    H2 6966   4.201   4.031   1.852  0.6597 -0.1728 -0.6297
  464TMC3    C7 6967   4.390   3.839   1.845  0.1343  0.2832  0.1971
  464TMC3    C8 6968   4.212   4.283   1.932  0.6139  0.2857  0.7114
  464TMC3    O1 6969   4.494   3.785   1.816 -0.2964  0.4619 -0.5437
  464TMC3    O2 6970   4.237   4.403   1.952  0.1767  0.0145 -0.3720
  465MPD2     C 6971   0.818   3.467  17.169  0.6583 -0.0865  0.0445
  465MPD2    C1 6972   0.701   3.495  17.223  0.0782 -0.2638 -0.4405
  465MPD2    C2 6973   0.607   3.550  17.134 -0.3066  0.1051 -0.3328
  465MPD2    C3 6974   0.634   3.568  17.000  0.0757  0.1449 -0.0163
  465MPD2    C4 6975   0.770   3.553  16.960  0.1327 -0.4126  0.0635
  465MPD2    C5 6976   0.859   3.501  17.045  0.1403 -0.0048 -0.2405
  465MPD2     H 6977   0.514   3.583  17.179 -0.0269 -2.2265  1.9428
  465MPD2    H1 6978   0.804   3.579  16.861  1.3280  0.8266  0.7998
  465MPD2    H2 6979   0.894   3.420  17.230  1.6803 -0.4595 -1.5009
  465MPD2    H3 6980   0.952   3.473  16.997  1.3826 -0.7364  2.5850
  465MPD2     N 6981   0.536   3.619  16.914 -0.1042  0.0777 -0.8599
  465MPD2    H5 6982   0.440   3.618  16.948 -0.3733 -0.0806 -1.6343
  465MPD2    N1 6983   0.663   3.475  17.357 -0.3407  0.0188 -0.6977
  465MPD2    H7 6984   0.570   3.504  17.385 -1.4258 -2.5138 -1.7006
  466TMC3    C1 6985   0.212   3.737  16.727  0.8417 -0.2895 -0.4036
  466TMC3    C2 6986   0.222   3.870  16.679  0.1148 -0.2010 -0.0042
  466TMC3    C3 6987   0.347   3.920  16.646 -0.0512 -0.0627  0.4820
  466TMC3    C4 6988   0.329   3.671  16.759  0.5373 -0.0315  0.7620
  466TMC3    C5 6989   0.446   3.733  16.742  0.4700 -0.3955 -0.2834
  466TMC3    C6 6990   0.460   3.858  16.678  0.3652  0.6938  0.3067
  466TMC3     C 6991   0.115   3.715  16.828  0.3546  0.0946 -0.2318
  466TMC3     O 6992   0.126   3.612  16.895  0.1778 -0.1690  0.3495
  466TMC3     H 6993   0.132   3.923  16.648 -0.2689  0.1826  1.7546
  466TMC3    H1 6994   0.329   3.572  16.803 -1.6686 -1.5728 -2.6844
  466TMC3    H2 6995   0.556   3.902  16.652  0.4795 -0.5396 -1.3475
  466TMC3    C7 6996   0.563   3.685  16.799  0.3974 -0.2761 -0.5106
  466TMC3    C8 6997   0.348   4.064  16.620 -0.5044 -0.7871 -0.3965
  466TMC3    O1 6998   0.667   3.716  16.741 -0.3134  0.0361 -0.0844
  466TMC3    O2 6999   0.359   4.090  16.501 -0.4816 -0.0441 -0.2979
  467TMC3    C1 7000   1.649   2.358  14.277  0.6197 -0.0860  0.1493
  467TMC3    C2 7001   1.741   2.440  14.214  0.0806 -0.1589  0.1226
  467TMC3    C3 7002   1.705   2.489  14.091  0.8147  0.0677 -0.7876
  467TMC3    C4 7003   1.525   2.330  14.225  0.0438 -0.4647 -0.0238
  467TMC3    C5 7004   1.498   2.374  14.101 -0.3479  0.2011 -0.6532
  467TMC3    C6 7005   1.588   2.450  14.030  0.3660  0.3712 -0.6507
  467TMC3     C 7006   1.722   2.261  14.356  0.5549  0.0074  0.2411
  467TMC3     O 7007   1.804   2.301  14.439  0.1648  0.6743  0.2125
  467TMC3     H 7008   1.834   2.464  14.264  0.0816  0.5278 -0.2032
  467TMC3    H1 7009   1.456   2.276  14.288  0.9045 -0.3011  1.0692
  467TMC3    H2 7010   1.568   2.484  13.929  0.5463 -1.1653 -1.2086
  467TMC3    C7 7011   1.357   2.390  14.050 -0.3469  0.3397 -0.2908
  467TMC3    C8 7012   1.816   2.525  13.999 -1.1637 -0.2711  0.4297
  467TMC3    O1 7013   1.339   2.461  13.950  0.8200  0.4571 -0.0906
  467TMC3    O2 7014   1.920   2.578  14.046  0.4683 -0.0179 -0.4730
  468MPD2     C 7015   0.894   4.653  10.709 -0.2361  0.2718 -0.6485
  468MPD2    C1 7016   0.953   4.620  10.833  0.4803  0.8464  0.3940
  468MPD2    C2 7017   0.909   4.507  10.900  0.1529  0.1158 -0.6783
  468MPD2    C3 7018   0.832   4.413  10.836  0.3621  0.1972  0.1194
  468MPD2    C4 7019   0.784   4.441  10.713  0.0840 -0.5133  0.3101
  468MPD2    C5 7020   0.803   4.562  10.655 -0.1213 -0.4379  0.2961
  468MPD2     H 7021   0.955   4.481  10.995  1.5143 -0.0601 -1.3872
  468MPD2    H1 7022   0.734   4.357  10.667  0.9042 -1.0137  0.3377
  468MPD2    H2 7023   0.912   0.008  10.657  3.0548 -1.5765 -2.8100
  468MPD2    H3 7024   0.759   4.569  10.556  0.3370 -1.1454  0.0419
  468MPD2     N 7025   0.816   4.279  10.888  0.1819 -0.1788 -0.5114
  468MPD2    H5 7026   0.753   4.212  10.845 -0.9079  0.2982  0.3461
  468MPD2    N1 7027   1.050   4.698  10.893 -0.3444  0.0375 -0.4198
  468MPD2    H7 7028   1.099   4.668  10.977  0.3897 -0.8994 -1.1837
  469TMC3    C1 7029   1.194   0.136  10.935 -0.2696 -0.6161  0.2308
  469TMC3    C2 7030   1.245   0.063  11.039  0.8728 -0.2632 -0.5497
  469TMC3    C3 7031   1.326   0.136  11.128  0.8597 -0.4258  0.4809
  469TMC3    C4 7032   1.241   0.262  10.902 -0.1316  0.8597  0.1089
  469TMC3    C5 7033   1.325   0.325  10.988  0.5238 -0.2354 -0.1069
  469TMC3    C6 7034   1.376   0.266  11.099  0.3356  1.2974  0.4159
  469TMC3     C 7035   1.082   0.088  10.859 -0.3149 -0.0599  0.3534
  469TMC3     O 7036   1.037   0.164  10.780  0.3393  0.1865  0.1898
  469TMC3     H 7037   1.213   4.699  11.056  1.9805 -0.4396  0.4482
  469TMC3    H1 7038   1.190   0.311  10.819 -0.3701  0.1701 -0.1503
  469TMC3    H2 7039   1.451   0.316  11.159 -0.8101  2.5270  0.8074
  469TMC3    C7 7040   1.339   0.470  10.971  0.6276  0.0842  0.4902
  469TMC3    C8 7041   1.400   0.062  11.237 -0.0686 -0.2883  0.0076
  469TMC3    O1 7042   1.346   0.499  10.851 -0.1370  0.0100  0.4931
  469TMC3    O2 7043   1.432   4.685  11.223  0.1791  0.3066 -0.0412
  470TMC3    C1 7044   2.628   0.619   1.414  0.0648  0.9986  0.7715
  470TMC3    C2 7045   2.728   0.717   1.410  0.5858 -0.1654  0.3131
  470TMC3    C3 7046   2.772   0.774   1.523 -0.2384 -0.7789 -0.0354
  470TMC3    C4 7047   2.571   0.577   1.528 -0.4225 -0.2690 -0.0934
  470TMC3    C5 7048   2.623   0.634   1.645 -0.5902 -0.7161 -0.9379
  470TMC3    C6 7049   2.720   0.733   1.647 -0.8554  0.1098  0.6210
  470TMC3     C 7050   2.546   0.609   1.287  0.2699  0.6943 -0.1104
  470TMC3     O 7051   2.603   0.626   1.178  0.2421  0.0258  0.1300
  470TMC3     H 7052   2.744   0.752   1.309  0.3705  2.0453  1.0621
  470TMC3    H1 7053   2.493   0.502   1.535 -0.0535 -0.5820  0.6707
  470TMC3    H2 7054   2.758   0.782   1.736 -1.3479  0.5054  0.6114
  470TMC3    C7 7055   2.549   0.600   1.762 -0.5077 -0.4095 -0.1847
  470TMC3    C8 7056   2.861   0.888   1.537 -0.4207 -0.1199  0.1453
  470TMC3    O1 7057   2.489   0.492   1.766  0.1279 -0.0560  0.4414
  470TMC3    O2 7058   2.848   0.967   1.629 -0.3541  0.5884 -0.5483
  471MPD2     C 7059   3.364   2.617  16.924 -0.4678 -0.2515 -0.5777
  471MPD2    C1 7060   3.321   2.493  16.949  0.0200 -0.8288  0.8418
  471MPD2    C2 7061   3.354   2.439  17.071  0.2602 -0.3929  0.3954
  471MPD2    C3 7062   3.427   2.509  17.161 -0.0959 -0.4595  0.6730
  471MPD2    C4 7063   3.466   2.639  17.135 -0.9694  0.1101 -0.5485
  471MPD2    C5 7064   3.438   2.689  17.016 -0.0219  1.2877  0.3137
  471MPD2     H 7065   3.322   2.342  17.106  0.5029 -0.1911  1.1943
  471MPD2    H1 7066   3.514   2.700  17.211  0.7339 -1.8037 -0.0939
  471MPD2    H2 7067   3.332   2.664  16.832  0.7594  0.5789 -0.5920
  471MPD2    H3 7068   3.470   2.790  16.993 -1.4454  2.1595  2.1649
  471MPD2     N 7069   3.474   2.429  17.272 -0.4624 -0.0904 -0.0688
  471MPD2    H5 7070   3.432   2.338  17.282  0.3026 -0.3019  1.1600
  471MPD2    N1 7071   3.238   2.427  16.856 -0.0330  0.2222 -0.4490
  471MPD2    H7 7072   3.223   2.334  16.893 -0.6425 -0.1766 -1.7031
  472TMC3    C1 7073   3.128   2.343  16.674  0.4648  0.9042  0.3896
  472TMC3    C2 7074   3.028   2.356  16.584  0.2791  0.6930  0.3614
  472TMC3    C3 7075   2.962   2.236  16.551  0.5870  0.4821 -0.4577
  472TMC3    C4 7076   3.171   2.220  16.717  0.1043  1.0080 -0.0561
  472TMC3    C5 7077   3.114   2.108  16.667  1.0035 -0.3949  0.2738
  472TMC3    C6 7078   3.007   2.113  16.587  0.5107  0.2121  0.4852
  472TMC3     C 7079   3.182   2.465  16.735 -1.4946  0.4436 -0.6531
  472TMC3     O 7080   3.167   2.574  16.682 -0.3975  0.0448  0.2403
  472TMC3     H 7081   2.989   2.452  16.552 -1.4125 -0.2382 -0.3776
  472TMC3    H1 7082   3.256   2.206  16.783  0.9978  1.4647 -1.1207
  472TMC3    H2 7083   2.955   2.027  16.549  2.3516 -0.8996  0.5014
  472TMC3    C7 7084   3.130   1.989  16.749 -0.3757 -0.1630  0.5255
  472TMC3    C8 7085   2.818   2.253  16.532 -0.4594 -0.3789 -0.5932
  472TMC3    O1 7086   3.191   1.995  16.855  0.0892 -0.8388 -0.4761
  472TMC3    O2 7087   2.780   2.338  16.454  0.1058 -0.2431  0.0476
  473MPD2     C 7088   2.791   4.510  14.213  0.5809  0.4626  0.3649
  473MPD2    C1 7089   2.852   4.555  14.095 -0.0781  0.0840  0.0340
  473MPD2    C2 7090   2.929   4.667  14.102  0.1089 -0.3141  0.8401
  473MPD2    C3 7091   2.946   4.734  14.219  0.5053  0.2609 -0.0539
  473MPD2    C4 7092   2.878   4.692  14.332 -0.5308  0.3752  0.1344
  473MPD2    C5 7093   2.804   4.581  14.321  0.2445  0.3037  0.7617
  473MPD2     H 7094   2.985   4.696  14.014 -0.2375 -0.3492  0.6072
  473MPD2    H1 7095   2.878   0.014  14.422 -0.4130  0.8834 -0.2030
  473MPD2    H2 7096   2.716   4.432  14.223 -0.0428  0.8183 -1.5391
  473MPD2    H3 7097   2.764   4.544  14.415  2.5670 -2.6658  0.5972
  473MPD2     N 7098   3.030   0.104  14.226 -0.6828  0.0146  0.1516
  473MPD2    H5 7099   3.061   0.143  14.137 -0.5020 -0.1503  0.1420
  473MPD2    N1 7100   2.825   4.488  13.973 -0.3518  0.5199 -0.1290
  473MPD2    H7 7101   2.870   4.523  13.889  0.9906  1.2712  0.8954
  474TMC3    C1 7102   3.206   0.252  14.305 -0.5123 -0.2119  0.8352
  474TMC3    C2 7103   3.153   0.376  14.266 -0.0828 -0.2666 -1.4444
  474TMC3    C3 7104   3.209   0.491  14.313 -0.5722  0.2509 -0.1070
  474TMC3    C4 7105   3.303   0.251  14.398 -0.4690  0.4806 -0.0055
  474TMC3    C5 7106   3.342   0.366  14.458 -0.9130 -0.1328 -0.2131
  474TMC3    C6 7107   3.301   0.490  14.417  0.3578 -0.1670  0.4017
  474TMC3     C 7108   3.107   0.149  14.339  0.0928 -0.7293  1.2223
  474TMC3     O 7109   3.107   0.114  14.456  0.8750 -0.0408  0.3509
  474TMC3     H 7110   3.072   0.388  14.194  0.2018  1.4292 -1.4812
  474TMC3    H1 7111   3.338   0.154  14.432 -0.1834  1.1062  1.5053
  474TMC3    H2 7112   3.369   0.570  14.445  1.9755 -1.4256  0.0998
  474TMC3    C7 7113   3.423   0.348  14.583 -0.2250 -0.4254  0.2414
  474TMC3    C8 7114   3.203   0.597  14.217  0.9576  0.0715  0.3320
  474TMC3    O1 7115   3.505   0.258  14.577  0.2500 -0.2230 -0.3385
  474TMC3    O2 7116   3.155   0.568  14.108 -0.1636 -0.6801 -0.3873
  475MPD2     C 7117   1.730   2.494  11.158 -0.6177 -0.2483  0.2791
  475MPD2    C1 7118   1.789   2.597  11.236 -0.3596  0.3586  0.7535
  475MPD2    C2 7119   1.713   2.670  11.323  0.7686 -0.1849 -0.0168
  475MPD2    C3 7120   1.580   2.640  11.360  0.3470 -0.4947 -0.2551
  475MPD2    C4 7121   1.525   2.532  11.296  0.5737 -0.6020  0.1544
  475MPD2    C5 7122   1.601   2.464  11.202  0.3435 -0.9845 -0.5044
  475MPD2     H 7123   1.765   2.752  11.371 -0.7069 -0.9293  2.8981
  475MPD2    H1 7124   1.424   2.500  11.320  0.3863  0.2336  0.4840
  475MPD2    H2 7125   1.777   2.435  11.080 -0.3366  0.6320 -0.2132
  475MPD2    H3 7126   1.551   2.382  11.150 -2.4211  1.0558 -1.0745
  475MPD2     N 7127   1.509   2.724  11.443 -0.7263 -0.5418  0.4599
  475MPD2    H5 7128   1.559   2.777  11.514  0.0168 -0.1838 -0.3418
  475MPD2    N1 7129   1.921   2.645  11.222 -0.4953 -0.3582 -0.2127
  475MPD2    H7 7130   1.962   2.715  11.283 -1.6606  0.7768 -0.7191
  476TMC3    C1 7131   2.104   2.717  11.116  0.3186  0.2597  0.0492
  476TMC3    C2 7132   2.060   2.812  11.027  0.7069 -0.8766 -0.4840
  476TMC3    C3 7133   2.106   2.941  11.052  0.0682 -0.1998 -0.0913
  476TMC3    C4 7134   2.168   2.753  11.232  0.3957 -0.6756  0.2241
  476TMC3    C5 7135   2.198   2.887  11.258  0.9254 -0.2494  0.0557
  476TMC3    C6 7136   2.168   2.977  11.163  0.0828  0.4294 -0.5416
  476TMC3     C 7137   2.009   2.608  11.123  0.6225  0.5676  0.1077
  476TMC3     O 7138   1.982   2.545  11.018  0.4067 -0.1052  0.1682
  476TMC3     H 7139   2.000   2.780  10.942  0.7171  0.0051 -0.8293
  476TMC3    H1 7140   2.186   2.676  11.306  1.7137 -0.4666  0.1291
  476TMC3    H2 7141   2.203   3.079  11.174 -0.9617  0.5921  1.3690
  476TMC3    C7 7142   2.176   2.919  11.400 -0.5796 -1.1276  0.3052
  476TMC3    C8 7143   2.033   3.046  10.983  0.2525 -0.4863  0.0112
  476TMC3    O1 7144   2.156   2.824  11.474 -0.0066  0.0107 -0.3091
  476TMC3    O2 7145   2.038   3.160  11.028 -0.3816 -0.1502  0.5067
  477MPD2     C 7146   4.327   4.500  11.860 -0.0160  0.2881  0.8358
  477MPD2    C1 7147   4.248   4.408  11.803 -0.1052  0.1528 -0.2280
  477MPD2    C2 7148   4.178   4.321  11.885 -0.3912  0.7445  0.0275
  477MPD2    C3 7149   4.198   4.331  12.023 -0.1139 -0.1161  0.8249
  477MPD2    C4 7150   4.285   4.423  12.074  0.0297  0.3823 -0.2873
  477MPD2    C5 7151   4.349   4.513  11.992 -0.6107 -0.3265 -0.2958
  477MPD2     H 7152   4.107   4.245  11.854 -0.9882  0.4428  2.1039
  477MPD2    H1 7153   4.311   4.433  12.179 -0.0234 -2.0654 -0.0594
  477MPD2    H2 7154   4.384   4.560  11.789 -1.1729  1.9282  1.3009
  477MPD2    H3 7155   4.421   4.587  12.024 -0.6289 -0.4341 -0.0054
  477MPD2     N 7156   4.129   4.230  12.103  0.6421 -0.1052 -0.0983
  477MPD2    H5 7157   4.064   4.172  12.052  0.0285 -0.2932  0.8969
  477MPD2    N1 7158   4.234   4.409  11.664  0.7261 -0.1608 -0.4267
  477MPD2    H7 7159   4.272   4.491  11.618  0.0781  0.4273  0.0908
  478TMC3    C1 7160   4.152   4.334  11.449 -0.3816  0.4793  0.4105
  478TMC3    C2 7161   4.181   4.460  11.394 -0.1631 -0.1132 -0.1966
  478TMC3    C3 7162   4.141   4.502  11.273  0.4497 -0.1413 -0.1635
  478TMC3    C4 7163   4.061   4.255  11.378  0.5845  1.2770  0.1965
  478TMC3    C5 7164   4.005   4.303  11.255 -0.3415  0.9902 -0.2898
  478TMC3    C6 7165   4.046   4.428  11.206  0.2193 -0.5245  0.4155
  478TMC3     C 7166   4.177   4.303  11.590  0.4902  0.1398 -0.0713
  478TMC3     O 7167   4.149   4.193  11.627 -0.2634 -0.4518  0.2335
  478TMC3     H 7168   4.266   4.516  11.431 -2.1494  2.7509  0.0384
  478TMC3    H1 7169   4.028   4.162  11.423  1.8708  1.1846  0.9460
  478TMC3    H2 7170   4.033   4.451  11.101  2.7395 -2.7326 -0.3960
  478TMC3    C7 7171   3.921   4.215  11.176 -0.9465 -0.5458 -0.6484
  478TMC3    C8 7172   4.181   4.630  11.224  1.1607 -0.6370  0.8122
  478TMC3    O1 7173   3.925   4.101  11.213 -0.2557  0.0326  0.1132
  478TMC3    O2 7174   4.297   4.666  11.244  0.1528  0.3261  0.1641
  479MPD2     C 7175   2.783   2.158  15.481  0.0389 -0.4501  0.5105
  479MPD2    C1 7176   2.760   2.058  15.572 -0.6219 -0.3304 -0.0365
  479MPD2    C2 7177   2.809   2.067  15.704 -0.4402  0.3031 -0.1760
  479MPD2    C3 7178   2.873   2.183  15.744  0.2526 -0.1484 -0.2302
  479MPD2    C4 7179   2.890   2.287  15.651  1.0196 -0.3086  0.5106
  479MPD2    C5 7180   2.857   2.272  15.522 -0.7411  0.3690 -0.4479
  479MPD2     H 7181   2.806   1.986  15.777  0.9262 -1.9719 -2.6518
  479MPD2    H1 7182   2.944   2.379  15.673  1.4589 -0.8077  1.5365
  479MPD2    H2 7183   2.741   2.162  15.381  0.8227 -0.0704  0.2001
  479MPD2    H3 7184   2.864   2.354  15.451  1.5463 -1.3388 -2.2045
  479MPD2     N 7185   2.940   2.204  15.866  0.1752  0.0156  0.2209
  479MPD2    H5 7186   3.007   2.280  15.863  1.1076 -0.7758  0.8445
  479MPD2    N1 7187   2.656   1.970  15.542 -0.2072  0.1119 -0.3845
  479MPD2    H7 7188   2.623   1.989  15.448  1.1914  1.5338 -0.5954
  480TMC3    C1 7189   2.729   1.870  16.117  0.2086  0.1124 -0.4845
  480TMC3    C2 7190   2.598   1.903  16.075 -0.3141 -0.4251  0.4444
  480TMC3    C3 7191   2.584   2.010  15.994  0.7804  0.2269 -0.1330
  480TMC3    C4 7192   2.837   1.938  16.076 -0.1047 -0.6581  0.3738
  480TMC3    C5 7193   2.815   2.052  16.008 -0.6170  0.2358  0.1998
  480TMC3    C6 7194   2.689   2.093  15.968  0.5699 -0.0611  0.1375
  480TMC3     C 7195   2.739   1.763  16.218 -0.5406  0.1466 -0.1574
  480TMC3     O 7196   2.847   1.707  16.235 -0.1301  0.3727  0.0701
  480TMC3     H 7197   2.508   1.844  16.089 -1.5415  0.9533 -1.8392
  480TMC3    H1 7198   2.939   1.907  16.096  1.5915  2.2187 -3.7399
  480TMC3    H2 7199   2.681   2.192  15.923  3.9245  0.9537  1.7873
  480TMC3    C7 7200   2.933   2.134  15.983 -0.9667  0.0713  0.2813
  480TMC3    C8 7201   2.466   2.012  15.922  0.0577 -0.6416 -0.3631
  480TMC3    O1 7202   3.026   2.114  16.059 -0.8382 -0.7125  0.5681
  480TMC3    O2 7203   2.366   1.956  15.972  0.2267  0.7748 -0.0494
  481MPD2     C 7204   4.473   1.852  14.752 -0.4672  0.3114  0.3372
  481MPD2    C1 7205   4.372   1.762  14.770  0.5361  0.0650 -0.3549
  481MPD2    C2 7206   4.354   1.704  14.897 -0.0055 -0.0509  0.2701
  481MPD2    C3 7207   4.422   1.749  15.010  0.2803 -0.0145 -0.0311
  481MPD2    C4 7208   4.518   1.847  14.988 -0.3750 -0.4193  0.1960
  481MPD2    C5 7209   4.543   1.892  14.858  1.0985  0.6583 -0.4521
  481MPD2     H 7210   4.277   1.630  14.907  0.3681 -0.6910 -1.5211
  481MPD2    H1 7211   4.582   1.891  15.063 -0.2938 -1.3377  0.6652
  481MPD2    H2 7212   4.505   1.882  14.653 -1.7604 -3.0917 -1.0921
  481MPD2    H3 7213   4.620   1.964  14.833  1.7688 -0.0428 -0.4068
  481MPD2     N 7214   4.411   1.704  15.140 -0.6109  0.1678  0.4499
  481MPD2    H5 7215   4.492   1.707  15.201 -0.3674 -1.8313  0.2306
  481MPD2    N1 7216   4.311   1.719  14.651 -0.1726 -0.5865  0.4569
  481MPD2    H7 7217   4.340   1.774  14.571 -1.5125 -0.4604  0.0604
  482TMC3    C1 7218   4.152   1.617  14.512 -0.6806  0.4773  0.4920
  482TMC3    C2 7219   4.036   1.550  14.499  0.3177  0.1620  0.3354
  482TMC3    C3 7220   3.962   1.553  14.379  0.5522  0.3283 -0.3658
  482TMC3    C4 7221   4.195   1.694  14.401  0.1061  0.5700 -0.4446
  482TMC3    C5 7222   4.133   1.688  14.284  0.2244 -0.1030  0.0162
  482TMC3    C6 7223   4.018   1.618  14.268  0.0763 -0.1946 -0.2500
  482TMC3     C 7224   4.215   1.624  14.641  0.6127 -0.6999 -0.2965
  482TMC3     O 7225   4.146   1.561  14.725  0.1665 -0.0241 -0.3436
  482TMC3     H 7226   4.007   1.483  14.579 -0.0132  1.4015  1.2474
  482TMC3    H1 7227   4.286   1.752  14.410  1.3361 -1.4123 -0.3267
  482TMC3    H2 7228   3.971   1.602  14.171  2.7777 -0.5222 -1.4971
  482TMC3    C7 7229   4.186   1.772  14.176  0.1665  0.5396  0.2206
  482TMC3    C8 7230   3.877   1.441  14.355  0.4880  0.0245  0.4518
  482TMC3    O1 7231   4.242   1.875  14.210  0.3844  0.1557 -0.3026
  482TMC3    O2 7232   3.884   1.356  14.441  0.4736  0.0141 -0.7308
  483TMC3    C1 7233   2.218   4.688   1.374 -0.5951 -0.7313 -0.1709
  483TMC3    C2 7234   2.297   0.050   1.325 -0.6160  0.0870 -0.0101
  483TMC3    C3 7235   2.429   0.047   1.351  0.3252  0.0421  0.1629
  483TMC3    C4 7236   2.255   4.591   1.457 -0.1045 -0.0681  0.0987
  483TMC3    C5 7237   2.384   4.592   1.492  0.1016 -0.2145 -0.0017
  483TMC3    C6 7238   2.474   4.682   1.435 -0.2195  0.1295  0.4527
  483TMC3     C 7239   2.089   4.683   1.319 -0.4897  0.1265  0.1387
  483TMC3     O 7240   2.040   0.061   1.298  0.4514  0.2789  0.1005
  483TMC3     H 7241   2.264   0.134   1.264  0.2879  1.6083  1.5875
  483TMC3    H1 7242   2.189   4.511   1.491  0.4750 -0.5415  0.1068
  483TMC3    H2 7243   2.580   4.675   1.457 -0.2513  0.5603  0.7569
  483TMC3    C7 7244   2.457   4.472   1.527  0.0763 -0.1607 -0.1668
  483TMC3    C8 7245   2.520   0.150   1.302 -0.4644  0.6774  0.0834
  483TMC3    O1 7246   2.572   4.463   1.486 -0.4782 -0.1866 -0.0292
  483TMC3    O2 7247   2.486   0.209   1.202  0.3913 -0.2134  0.4776
  484MPD2     C 7248   4.612   3.416  12.583  0.1059 -0.5349 -0.4684
  484MPD2    C1 7249   4.624   3.347  12.700 -0.3917 -0.3551 -0.2363
  484MPD2    C2 7250   4.708   3.405  12.797  0.1792 -0.6206 -0.2413
  484MPD2    C3 7251   0.046   3.526  12.772 -0.0085 -0.6546 -0.1062
  484MPD2    C4 7252   0.038   3.582  12.648  0.0143  0.1715  0.0437
  484MPD2    C5 7253   4.685   3.529  12.558 -0.1757  0.4935 -0.4589
  484MPD2     H 7254   4.715   3.359  12.895 -1.3471 -1.2574 -0.4292
  484MPD2    H1 7255   0.101   3.664  12.618  1.9369 -1.2296  0.2932
  484MPD2    H2 7256   4.538   3.385  12.510 -1.2585 -0.2035  0.7991
  484MPD2    H3 7257   4.676   3.581  12.463 -0.1125  0.9805 -0.1973
  484MPD2     N 7258   0.152   3.576  12.850 -0.6032  0.0816  0.4962
  484MPD2    H5 7259   0.205   3.646  12.798 -1.3351 -0.3132 -0.7791
  484MPD2    N1 7260   4.557   3.226  12.722 -0.3410  0.4228  0.0126
  484MPD2    H7 7261   4.499   3.193  12.646 -0.6061  1.1336 -0.1001
  485TMC3    C1 7262   0.312   3.595  13.028 -0.0431  0.3379 -0.4155
  485TMC3    C2 7263   0.341   3.584  13.163  0.2546  0.1115  0.4234
  485TMC3    C3 7264   0.455   3.619  13.221 -0.4255 -0.3622 -0.1299
  485TMC3    C4 7265   0.411   3.633  12.946 -0.4504 -0.6319  0.8271
  485TMC3    C5 7266   0.529   3.671  13.006  0.2981  0.0624  0.2304
  485TMC3    C6 7267   0.545   3.676  13.140  0.4578 -0.1691 -0.7279
  485TMC3     C 7268   0.186   3.540  12.978  0.7894 -0.2767  0.0859
  485TMC3     O 7269   0.128   3.458  13.049  0.6523 -0.5091  0.5616
  485TMC3     H 7270   0.269   3.536  13.229  1.4090 -0.3035  1.3881
  485TMC3    H1 7271   0.403   3.635  12.838  2.2826 -1.0795  0.6191
  485TMC3    H2 7272   0.623   3.733  13.189  0.0172 -1.0389  0.9804
  485TMC3    C7 7273   0.656   3.622  12.945 -0.6754 -0.1021  0.6060
  485TMC3    C8 7274   0.504   3.512  13.301 -0.4382 -0.0197 -0.6876
  485TMC3    O1 7275   0.742   3.603  13.028 -0.6806 -0.1219 -0.5631
  485TMC3    O2 7276   0.437   3.466  13.391  0.2182 -0.0139 -0.1670
  486MPD2     C 7277   2.366   2.004  13.467 -0.2842 -0.1519 -0.8359
  486MPD2    C1 7278   2.274   1.932  13.392 -0.7112 -0.8504  0.1875
  486MPD2    C2 7279   2.178   1.995  13.312 -0.6609  0.9461 -0.6686
  486MPD2    C3 7280   2.178   2.134  13.312 -0.5055 -0.1555  0.0565
  486MPD2    C4 7281   2.266   2.213  13.386  0.4412  0.7810  0.0412
  486MPD2    C5 7282   2.356   2.143  13.461 -0.0503  0.1275 -0.2031
  486MPD2     H 7283   2.109   1.941  13.249  0.1431 -1.5934  0.6392
  486MPD2    H1 7284   2.276   2.320  13.368  0.3942  0.1554 -3.7062
  486MPD2    H2 7285   2.453   1.955  13.509 -1.8873 -1.2625  1.2088
  486MPD2    H3 7286   2.436   2.184  13.522 -1.1036  1.4636  0.2753
  486MPD2     N 7287   2.085   2.201  13.219 -0.2878 -0.3316  0.1541
  486MPD2    H5 7288   2.015   2.138  13.181 -0.1436 -1.6581  2.0969
  486MPD2    N1 7289   2.282   1.792  13.409 -0.5345  0.2277 -0.2999
  486MPD2    H7 7290   2.340   1.755  13.484 -0.6572 -3.0824 -1.8361
  487TMC3    C1 7291   2.260   1.568  13.346 -0.2249  0.0726 -0.1288
  487TMC3    C2 7292   2.244   1.481  13.245  0.5616  0.4571  0.3155
  487TMC3    C3 7293   2.204   1.354  13.280 -0.5312  0.9356  0.3305
  487TMC3    C4 7294   2.258   1.529  13.476  0.1322  0.4745  0.0307
  487TMC3    C5 7295   2.221   1.401  13.500 -0.0081 -0.7242  0.6506
  487TMC3    C6 7296   2.179   1.312  13.408 -0.6870 -0.5126 -0.4405
  487TMC3     C 7297   2.250   1.704  13.304  0.0372  0.2587  0.1717
  487TMC3     O 7298   2.206   1.733  13.194 -0.0759 -0.1946 -0.4698
  487TMC3     H 7299   2.241   1.516  13.143  0.8069 -1.1549 -0.2331
  487TMC3    H1 7300   2.264   1.604  13.554  3.8394 -0.4411  0.6444
  487TMC3    H2 7301   2.171   1.206  13.432 -2.6906 -0.2128  0.1882
  487TMC3    C7 7302   2.194   1.380  13.640 -0.4075  0.1989  0.3037
  487TMC3    C8 7303   2.139   1.275  13.166 -0.3047  0.1775 -0.0978
  487TMC3    O1 7304   2.280   1.417  13.717  0.0039  0.2684 -0.2905
  487TMC3    O2 7305   2.169   1.295  13.050 -0.0935  0.3001  0.0370
  488MPD2     C 7306   2.596   3.565  16.377 -0.2331  0.6616  0.5371
  488MPD2    C1 7307   2.630   3.635  16.496  0.3768 -0.2769  0.2293
  488MPD2    C2 7308   2.595   3.580  16.617 -0.2160 -0.3068  0.0999
  488MPD2    C3 7309   2.519   3.462  16.622  0.3784  0.6388  1.0943
  488MPD2    C4 7310   2.486   3.402  16.501 -0.1322 -0.4236 -0.2010
  488MPD2    C5 7311   2.522   3.448  16.383  0.6475 -0.5523  0.0868
  488MPD2     H 7312   2.624   3.627  16.710  0.4967 -1.0780  0.2738
  488MPD2    H1 7313   2.435   3.306  16.501  1.8962 -1.5027 -0.8873
  488MPD2    H2 7314   2.620   3.608  16.280  0.0893  1.3530  0.9177
  488MPD2    H3 7315   2.477   3.403  16.295  0.4250  0.2318 -0.2061
  488MPD2     N 7316   2.480   3.400  16.743  0.0174  0.2075  0.1192
  488MPD2    H5 7317   2.518   3.441  16.828 -0.4851 -0.3853  0.6249
  488MPD2    N1 7318   2.703   3.762  16.495 -0.1888  0.9460  0.2198
  488MPD2    H7 7319   2.708   3.809  16.585 -0.2658 -0.9210  1.1899
  489TMC3    C1 7320   2.360   3.283  16.909 -0.1690 -0.2673 -0.0656
  489TMC3    C2 7321   2.441   3.354  16.992 -0.0179 -0.3271  0.8413
  489TMC3    C3 7322   2.384   3.411  17.103 -0.2569  0.1835 -0.4889
  489TMC3    C4 7323   2.225   3.263  16.938 -0.4929  0.5674 -0.1279
  489TMC3    C5 7324   2.170   3.333  17.040  0.1488 -0.2068  0.6984
  489TMC3    C6 7325   2.248   3.411  17.121 -0.0414  0.0290 -0.7370
  489TMC3     C 7326   2.390   3.298  16.759 -0.1631  0.1793  0.2092
  489TMC3     O 7327   2.307   3.252  16.684 -0.1466 -0.1915  0.1918
  489TMC3     H 7328   2.548   3.364  16.975 -0.1701 -2.9914 -1.6868
  489TMC3    H1 7329   2.171   3.203  16.866 -0.8509  0.0789  0.5513
  489TMC3    H2 7330   2.197   3.490  17.175  1.8361  1.1625 -0.6352
  489TMC3    C7 7331   2.031   3.363  17.038  0.1800  0.3630  0.1209
  489TMC3    C8 7332   2.458   3.531  17.135  0.0140 -0.0952  0.4488
  489TMC3    O1 7333   1.990   3.413  17.142  0.1724 -0.6897 -0.1915
  489TMC3    O2 7334   2.532   3.583  17.051  0.6121 -0.0091 -0.3655
  490MPD2     C 7335   3.250   3.170  17.194 -0.4932  0.3402  0.0668
  490MPD2    C1 7336   3.366   3.147  17.269  0.1676  0.0581  0.4202
  490MPD2    C2 7337   3.452   3.254  17.290  0.4678  0.5920  0.2601
  490MPD2    C3 7338   3.427   3.379  17.239  0.3141  0.2752 -0.8547
  490MPD2    C4 7339   3.308   3.402  17.165  0.4153 -0.5541  0.0567
  490MPD2    C5 7340   3.218   3.294  17.151  0.4077 -0.0312 -0.3217
  490MPD2     H 7341   3.537   3.238  17.354  1.0003 -0.1561 -0.6305
  490MPD2    H1 7342   3.286   3.498  17.120 -2.0927 -0.9192  0.5091
  490MPD2    H2 7343   3.178   3.090  17.184 -0.0311  0.1998 -2.1918
  490MPD2    H3 7344   3.126   3.311  17.097  0.5631  0.0512 -0.5632
  490MPD2     N 7345   3.532   3.477  17.252 -0.3327 -0.0221  0.3669
  490MPD2    H5 7346   3.503   3.573  17.236  1.4067  0.6715  1.3806
  490MPD2    N1 7347   3.389   3.023  17.329 -0.3313  0.1174 -0.4877
  490MPD2    H7 7348   3.479   3.001  17.372 -0.6284 -1.2862 -0.5902
  491TMC3    C1 7349   3.338   2.814  17.417  0.1220 -0.2458  0.7177
  491TMC3    C2 7350   3.383   2.855  17.541 -0.1774 -0.3970 -0.2090
  491TMC3    C3 7351   3.342   2.778  17.651  0.1299  0.0720 -0.1039
  491TMC3    C4 7352   3.273   2.699  17.397 -0.0347  0.3403 -0.6677
  491TMC3    C5 7353   3.246   2.626  17.512  0.5307 -0.3023  0.2056
  491TMC3    C6 7354   3.281   2.658  17.642  0.3449  0.2676  0.4245
  491TMC3     C 7355   3.305   2.916  17.321 -0.1043 -0.5391 -0.0988
  491TMC3     O 7356   3.224   2.882  17.234  0.4971 -0.0178 -0.1096
  491TMC3     H 7357   3.430   2.951  17.554 -2.0934  0.0675  3.4476
  491TMC3    H1 7358   3.238   2.678  17.297  1.2983  4.5213 -1.9898
  491TMC3    H2 7359   3.243   2.609  17.731  0.0493 -1.7431 -0.8081
  491TMC3    C7 7360   3.152   2.521  17.484 -0.3786  0.3594 -0.0641
  491TMC3    C8 7361   3.265   2.864  17.737  0.1295  0.1560 -0.1852
  491TMC3    O1 7362   3.097   2.529  17.377 -0.0162  0.4480  0.5643
  491TMC3    O2 7363   3.149   2.832   0.008  0.4560 -0.0494 -0.0818
  492MPD2     C 7364   3.618   2.995  11.802  0.4128 -0.4702  0.7061
  492MPD2    C1 7365   3.540   2.900  11.735  0.1970 -1.1082 -0.0822
  492MPD2    C2 7366   3.446   2.829  11.806 -0.2487 -0.0128  0.4600
  492MPD2    C3 7367   3.428   2.848  11.946 -0.1124 -0.3339 -0.1456
  492MPD2    C4 7368   3.507   2.951  12.009 -0.0115 -0.0737  0.2176
  492MPD2    C5 7369   3.600   3.022  11.936 -0.0561  0.7574  0.2633
  492MPD2     H 7370   3.389   2.753  11.753  0.1246  0.4115 -0.5471
  492MPD2    H1 7371   3.502   2.982  12.112  0.9870  2.3179 -0.4433
  492MPD2    H2 7372   3.690   3.051  11.744 -0.1562 -0.8247 -0.3421
  492MPD2    H3 7373   3.664   3.093  11.988  0.3524  0.3973  0.2540
  492MPD2     N 7374   3.346   2.768  12.026 -0.1484 -0.5138 -0.3003
  492MPD2    H5 7375   3.352   2.803  12.121  0.0745  1.3925 -1.0180
  492MPD2    N1 7376   3.554   2.898  11.593  0.3403 -0.4829 -0.4149
  492MPD2    H7 7377   3.629   2.950  11.550  0.5843  1.2169  2.0968
  493TMC3    C1 7378   3.525   2.839  11.361  0.5759 -0.0288 -0.2543
  493TMC3    C2 7379   3.645   2.897  11.334 -0.2129  0.2546  0.6328
  493TMC3    C3 7380   3.664   2.922  11.202 -0.3476 -0.4824  0.4024
  493TMC3    C4 7381   3.450   2.777  11.268  0.3096  0.2764 -0.1813
  493TMC3    C5 7382   3.484   2.802  11.140 -0.0530 -0.6189 -0.7387
  493TMC3    C6 7383   3.581   2.889  11.103 -0.2216  0.0019 -0.0213
  493TMC3     C 7384   3.473   2.842  11.502  0.6712 -0.0824 -0.1914
  493TMC3     O 7385   3.373   2.778  11.521 -0.2451 -0.2010 -0.0443
  493TMC3     H 7386   3.718   2.929  11.407  1.2501  0.4708 -0.9229
  493TMC3    H1 7387   3.357   2.730  11.297  2.4459 -2.0825  2.8150
  493TMC3    H2 7388   3.605   2.906  10.999 -0.7422 -1.8249 -0.4279
  493TMC3    C7 7389   3.427   2.735  11.030  0.3443  0.6732 -0.4288
  493TMC3    C8 7390   3.773   3.016  11.179 -1.5190  0.3715  0.4119
  493TMC3    O1 7391   3.410   2.795  10.919 -0.1982  0.2291 -0.2128
  493TMC3    O2 7392   3.857   3.029  11.269 -0.1963  0.4857  0.1157
  494TMC3    C1 7393   4.333   0.215   1.090  0.4664 -0.0007  0.4658
  494TMC3    C2 7394   4.312   0.086   1.071 -0.2480  0.2002 -0.1518
  494TMC3    C3 7395   4.327   0.040   0.945 -0.1134 -0.4065 -0.0966
  494TMC3    C4 7396   4.381   0.302   0.992  0.2494 -0.5459  0.2132
  494TMC3    C5 7397   4.401   0.244   0.869  0.0756  0.5169  0.2337
  494TMC3    C6 7398   4.370   0.116   0.845 -0.1481  0.0510 -0.1966
  494TMC3     C 7399   4.292   0.260   1.222 -0.0963 -0.0381  0.7047
  494TMC3     O 7400   4.268   0.174   1.312 -0.4739  0.1115 -0.6029
  494TMC3     H 7401   4.267   0.028   1.150 -0.4909 -1.7413 -1.7121
  494TMC3    H1 7402   4.431   0.397   1.005 -2.3191  0.4894  2.6234
  494TMC3    H2 7403   4.395   0.070   0.751 -3.2379 -3.5104  0.6839
  494TMC3    C7 7404   4.472   0.318   0.764 -0.0859 -0.4736 -0.0104
  494TMC3    C8 7405   4.304   4.647   0.926  0.0244  0.1059  0.4899
  494TMC3    O1 7406   4.499   0.253   0.662 -0.1587 -0.0933  0.0520
  494TMC3    O2 7407   4.318   4.571   1.021  0.6376 -0.1869 -0.4391
  495TMC3    C1 7408   2.667   2.466  15.027 -0.5437 -0.0553  0.3358
  495TMC3    C2 7409   2.570   2.438  14.930  0.6385  0.5292  0.3994
  495TMC3    C3 7410   2.467   2.359  14.972 -0.2338  0.1674  1.1646
  495TMC3    C4 7411   2.648   2.435  15.154 -0.2995  1.3781  0.1181
  495TMC3    C5 7412   2.538   2.365  15.192  0.8448 -0.3148  0.2477
  495TMC3    C6 7413   2.440   2.331  15.105  0.6348 -0.6350  0.1320
  495TMC3     C 7414   2.802   2.442  14.974  0.1646 -0.2103  0.4394
  495TMC3     O 7415   2.870   2.348  15.015 -0.2594 -0.2608 -0.0190
  495TMC3     H 7416   2.592   2.448  14.825 -1.2398  0.3745  0.0014
  495TMC3    H1 7417   2.728   2.456  15.223  0.5463 -1.2036 -0.0478
  495TMC3    H2 7418   2.356   2.265  15.127 -0.8216  0.9263 -0.7914
  495TMC3    C7 7419   2.514   2.335  15.333  0.5209  0.2062  0.2366
  495TMC3    C8 7420   2.415   2.257  14.881  0.7645 -0.4150  0.8354
  495TMC3    O1 7421   2.597   2.394  15.404 -0.0221  0.1873  0.3461
  495TMC3    O2 7422   2.296   2.225  14.892 -0.4764 -0.2232 -0.9257
  496MPD2     C 7423   4.649   2.466  15.259 -0.1043 -0.2704  0.4770
  496MPD2    C1 7424   4.669   2.417  15.388 -0.1770 -0.8194 -0.4846
  496MPD2    C2 7425   4.560   2.400  15.480 -0.2558  0.7567 -0.1029
  496MPD2    C3 7426   4.434   2.433  15.437  0.4980  0.2309  0.2517
  496MPD2    C4 7427   4.414   2.480  15.312  0.8784  0.8726 -0.6037
  496MPD2    C5 7428   4.519   2.495  15.225 -0.4771  0.7320  0.5093
  496MPD2     H 7429   4.576   2.341  15.570 -1.3439  0.7050  0.0532
  496MPD2    H1 7430   4.315   2.499  15.271 -0.1982 -0.9291  1.1906
  496MPD2    H2 7431   4.724   2.475  15.182 -0.2321  2.4438  0.6962
  496MPD2    H3 7432   4.504   2.523  15.121  2.4540 -0.0798 -0.1417
  496MPD2     N 7433   4.326   2.406  15.523  0.4148  0.2681 -0.0759
  496MPD2    H5 7434   4.232   2.433  15.495  0.9934  0.3338 -1.9217
  496MPD2    N1 7435   0.060   2.363  15.414  0.1838  0.4613  0.0835
  496MPD2    H7 7436   0.125   2.366  15.336  0.6301 -2.2886  0.3362
  497TMC3    C1 7437   4.212   2.372  15.727  0.0248 -0.7693  0.7359
  497TMC3    C2 7438   4.134   2.272  15.672 -0.6129  0.7136 -0.3271
  497TMC3    C3 7439   4.056   2.204  15.759 -0.1561  0.0458  0.0825
  497TMC3    C4 7440   4.209   2.410  15.856 -0.0131 -0.2058  0.1674
  497TMC3    C5 7441   4.136   2.330  15.946  0.1295 -0.0026  0.0492
  497TMC3    C6 7442   4.054   2.231  15.893  0.3260 -0.5263  0.8060
  497TMC3     C 7443   4.340   2.393  15.661 -0.5560 -0.4826  0.0075
  497TMC3     O 7444   4.432   2.422  15.736  0.3727  0.2759  0.5400
  497TMC3     H 7445   4.131   2.241  15.568 -0.6077  0.4106 -0.2392
  497TMC3    H1 7446   4.270   2.490  15.897  2.5124 -0.3062 -3.3816
  497TMC3    H2 7447   3.991   2.173  15.959  0.0616 -1.5768 -0.3750
  497TMC3    C7 7448   4.144   2.342  16.088 -0.3692 -0.3949 -0.3303
  497TMC3    C8 7449   3.964   2.111  15.699 -0.3708  0.3594 -0.5724
  497TMC3    O1 7450   4.038   2.319  16.146 -0.5577 -0.0887  0.0811
  497TMC3    O2 7451   3.921   2.135  15.586  0.2493  0.3280 -0.0283
  498MPD2     C 7452   0.908   3.591  10.225  0.2648  1.0030  0.7481
  498MPD2    C1 7453   1.008   3.525  10.285  0.1598  0.3012 -0.4570
  498MPD2    C2 7454   0.991   3.396  10.318  0.0988  0.5433  0.1499
  498MPD2    C3 7455   0.872   3.326  10.293  0.3531 -0.1274  0.5747
  498MPD2    C4 7456   0.767   3.390  10.241 -0.2839  0.0139 -0.0183
  498MPD2    C5 7457   0.787   3.527  10.206  0.0334 -0.6999  0.2305
  498MPD2     H 7458   1.075   3.344  10.362 -1.1711 -0.8762  0.8974
  498MPD2    H1 7459   0.674   3.343  10.211 -0.1991 -0.5078  0.5256
  498MPD2    H2 7460   0.917   3.691  10.185  0.3016 -0.0882 -2.0099
  498MPD2    H3 7461   0.704   3.588  10.172  0.0587  0.0468  1.5341
  498MPD2     N 7462   0.865   3.192  10.336 -0.2171 -0.0986 -0.2928
  498MPD2    H5 7463   0.945   3.152  10.384  0.4215 -1.6853 -2.7000
  498MPD2    N1 7464   1.132   3.588  10.303 -0.0161  0.1101  0.9927
  498MPD2    H7 7465   1.213   3.538  10.338  1.9284  2.3761 -0.3402
  499TMC3    C1 7466   1.302   3.755  10.300  0.7411  0.0231 -0.3606
  499TMC3    C2 7467   1.397   3.656  10.314 -0.6348  0.3396  0.2549
  499TMC3    C3 7468   1.528   3.691  10.301  0.0591  0.4853 -0.3178
  499TMC3    C4 7469   1.339   3.887  10.272  0.1234 -0.4018 -0.1726
  499TMC3    C5 7470   1.475   3.911  10.253 -0.2536  0.4181 -0.0057
  499TMC3    C6 7471   1.574   3.814  10.264  0.1070 -0.1716 -0.6690
  499TMC3     C 7472   1.157   3.726  10.285 -0.0723  1.3049  0.2402
  499TMC3     O 7473   1.086   3.812  10.244  0.1603 -0.2889 -0.1611
  499TMC3     H 7474   1.378   3.560  10.362  0.6847  0.6876  1.4834
  499TMC3    H1 7475   1.256   3.956  10.263 -0.7359 -1.3955  0.1392
  499TMC3    H2 7476   1.678   3.841  10.248  0.6075 -0.8175  1.5299
  499TMC3    C7 7477   1.511   4.043  10.201 -0.4688 -0.1526  0.0253
  499TMC3    C8 7478   1.622   3.585  10.326  0.2877  0.4042  0.1945
  499TMC3    O1 7479   1.625   4.074  10.230  0.4916  0.1580  0.1966
  499TMC3    O2 7480   1.592   3.486  10.393 -0.5375  0.2579  0.0700
  500MPD2     C 7481   2.207   3.528  11.187  1.5229  0.2445  0.0288
  500MPD2    C1 7482   2.293   3.565  11.092 -0.2930  0.6988 -0.7163
  500MPD2    C2 7483   2.243   3.634  10.980  0.1273 -0.5370 -0.9054
  500MPD2    C3 7484   2.106   3.647  10.957 -0.1739  0.2141  0.6965
  500MPD2    C4 7485   2.018   3.598  11.057 -0.6262  0.0080  0.4094
  500MPD2    C5 7486   2.072   3.546  11.173  0.0150  0.5241  0.5857
  500MPD2     H 7487   2.319   3.662  10.907  0.4752 -0.3276 -0.4634
  500MPD2    H1 7488   1.910   3.603  11.046 -0.4159 -0.0049 -1.5821
  500MPD2    H2 7489   2.229   3.468  11.274  0.2281  0.3218  0.4102
  500MPD2    H3 7490   2.008   3.518  11.256 -0.3794  0.5556  0.2905
  500MPD2     N 7491   2.047   3.696  10.838 -0.0039  0.2619  0.2339
  500MPD2    H5 7492   1.947   3.698  10.822  0.1574  0.0931 -0.8108
  500MPD2    N1 7493   2.429   3.542  11.092  0.4894  0.1873 -0.2189
  500MPD2    H7 7494   2.484   3.580  11.016 -0.0949 -0.6941 -1.0912
  501TMC3    C1 7495   2.636   3.553  11.198  0.3563 -0.6619  0.3874
  501TMC3    C2 7496   2.668   3.612  11.084 -0.3444  0.6402 -0.5064
  501TMC3    C3 7497   2.744   3.725  11.086  0.0486  1.2127 -0.0134
  501TMC3    C4 7498   2.684   3.594  11.323 -0.0144  0.2008 -0.1441
  501TMC3    C5 7499   2.767   3.706  11.315  0.3681 -0.6190 -0.2455
  501TMC3    C6 7500   2.798   3.773  11.200  0.3587 -0.1624  0.3706
  501TMC3     C 7501   2.500   3.508  11.206 -0.0063 -0.3525 -0.2601
  501TMC3     O 7502   2.464   3.482  11.321 -0.1228  1.2795  0.4398
  501TMC3     H 7503   2.641   3.564  10.990  1.0854 -0.4157 -0.3795
  501TMC3    H1 7504   2.678   3.539  11.416 -1.0664  0.2706 -0.1649
  501TMC3    H2 7505   2.856   3.864  11.203  1.8525 -1.0512 -1.6809
  501TMC3    C7 7506   2.874   3.701  11.414  0.3635 -0.3284  0.2285
  501TMC3    C8 7507   2.742   3.793  10.961  0.3203  0.7395 -0.2985
  501TMC3    O1 7508   2.908   3.592  11.455 -0.3262 -0.4208 -0.4511
  501TMC3    O2 7509   2.694   3.729  10.868 -0.4449  0.2008 -0.3266
  502TMC3    C1 7510   2.380   3.106  15.311 -0.2490  0.2093 -0.1810
  502TMC3    C2 7511   2.346   3.231  15.259  0.0959 -0.4833 -0.6197
  502TMC3    C3 7512   2.212   3.247  15.229 -0.2643  0.1958 -0.0011
  502TMC3    C4 7513   2.283   3.011  15.338  0.4594 -0.1944  0.4736
  502TMC3    C5 7514   2.154   3.031  15.301  0.3768 -0.2095  0.4937
  502TMC3    C6 7515   2.112   3.149  15.237 -0.1141  0.2453 -0.1303
  502TMC3     C 7516   2.499   3.108  15.396  0.0294 -0.1404  0.1475
  502TMC3     O 7517   2.598   3.158  15.347 -0.4675  0.1569  0.4474
  502TMC3     H 7518   2.419   3.310  15.243 -1.3325  1.1788  0.9947
  502TMC3    H1 7519   2.313   2.918  15.386  0.2353  0.4711  1.9191
  502TMC3    H2 7520   2.020   3.162  15.181 -0.2453 -3.4576 -0.7597
  502TMC3    C7 7521   2.064   2.932  15.344 -0.3519 -0.7029 -0.2115
  502TMC3    C8 7522   2.181   3.369  15.157 -0.2970 -0.1696  0.5006
  502TMC3    O1 7523   2.104   2.827  15.395 -0.2162 -0.3902  0.3469
  502TMC3    O2 7524   2.272   3.433  15.107 -0.2525  0.5666  0.2686
  503MPD2     C 7525   4.262   4.040  17.242 -0.4817 -0.0899  0.1531
  503MPD2    C1 7526   4.300   4.050  17.375 -0.3959 -0.5783 -0.2881
  503MPD2    C2 7527   4.328   3.935  17.445 -0.0965  0.0798 -0.5709
  503MPD2    C3 7528   4.344   3.811  17.380 -0.2434 -0.3766 -0.1029
  503MPD2    C4 7529   4.295   3.803  17.251 -0.0235  0.1598 -0.0115
  503MPD2    C5 7530   4.244   3.916  17.195 -0.3276 -0.8723  0.4570
  503MPD2     H 7531   4.360   3.936  17.549  0.6068 -0.7728 -0.7700
  503MPD2    H1 7532   4.292   3.707  17.200  0.4543  0.6112 -0.9053
  503MPD2    H2 7533   4.218   4.122  17.187 -0.2022  0.3996  0.6638
  503MPD2    H3 7534   4.186   3.909  17.104 -1.4852 -0.2972  1.1546
  503MPD2     N 7535   4.413   3.718  17.458 -0.2718 -0.0062  0.5080
  503MPD2    H5 7536   4.448   3.738  17.552 -0.3290 -0.6652  0.6713
  503MPD2    N1 7537   4.308   4.168  17.449  0.0741  0.0565  0.0299
  503MPD2    H7 7538   4.308   4.169  17.550 -1.5674 -0.4231  0.0348
  504TMC3    C1 7539   4.529   3.523  17.510 -0.2455 -0.1451  0.1699
  504TMC3    C2 7540   4.461   3.508  17.628 -0.1677  0.4435  0.1511
  504TMC3    C3 7541   4.522   3.441  17.730 -0.2212 -1.0483  0.0359
  504TMC3    C4 7542   4.652   3.470  17.492 -0.3293 -0.0442 -0.0403
  504TMC3    C5 7543   4.706   3.395  17.592  0.1824  0.8836  0.2984
  504TMC3    C6 7544   4.647   3.383  17.717 -0.3968 -0.0052  0.0779
  504TMC3     C 7545   4.466   3.603  17.400 -0.2354  0.3348 -0.7765
  504TMC3     O 7546   4.482   3.577  17.282 -0.2838 -0.0692 -0.4238
  504TMC3     H 7547   4.362   3.552  17.632  1.2098  3.1125  4.7287
  504TMC3    H1 7548   4.700   3.486  17.396  0.7380  0.0603  0.5159
  504TMC3    H2 7549   4.697   3.331   0.049 -1.1396  1.1519  1.2619
  504TMC3    C7 7550   0.099   3.326  17.577 -0.3634  0.2314 -0.1429
  504TMC3    C8 7551   4.424   3.393   0.080  0.0751  0.4209 -0.5071
  504TMC3    O1 7552   0.145   3.276  17.680  0.4033 -0.8234  0.7849
  504TMC3    O2 7553   4.307   3.417   0.057 -0.7665 -0.0845 -0.0656
  505MPD2     C 7554   0.466   2.240  11.260 -0.3957  0.6503 -0.2837
  505MPD2    C1 7555   0.566   2.146  11.221 -0.2842 -0.4608 -0.1351
  505MPD2    C2 7556   0.695   2.167  11.260  0.7477  0.3846  0.4360
  505MPD2    C3 7557   0.728   2.273  11.339  0.0737 -0.9518  0.2233
  505MPD2    C4 7558   0.633   2.358  11.391  1.4621  0.2198  0.4821
  505MPD2    C5 7559   0.501   2.341  11.345 -0.5750 -0.6735  0.0452
  505MPD2     H 7560   0.774   2.097  11.235  1.3252 -0.0597  3.4033
  505MPD2    H1 7561   0.659   2.424  11.473 -0.5992 -0.2345  1.4882
  505MPD2    H2 7562   0.360   2.225  11.243 -0.0425 -1.5799 -0.4139
  505MPD2    H3 7563   0.418   2.409  11.363  0.4437  0.4683  0.4346
  505MPD2     N 7564   0.864   2.279  11.370  0.5636  0.2499 -0.3281
  505MPD2    H5 7565   0.918   2.200  11.336  0.2910 -0.3612  0.6510
  505MPD2    N1 7566   0.536   2.046  11.130  0.4118 -0.1989  0.1887
  505MPD2    H7 7567   0.438   2.047  11.103  0.5420 -0.7588 -0.3016
  506TMC3    C1 7568   0.568   1.885  10.961  0.6021  0.2941  0.5787
  506TMC3    C2 7569   0.549   1.958  10.843 -1.0081 -0.1774  0.0876
  506TMC3    C3 7570   0.568   1.892  10.722 -0.2554  0.2189 -0.3670
  506TMC3    C4 7571   0.633   1.764  10.955  1.4312  0.2653 -0.3575
  506TMC3    C5 7572   0.659   1.709  10.838  0.0071 -0.2743 -0.7895
  506TMC3    C6 7573   0.615   1.766  10.716 -0.2156  0.1421 -0.6291
  506TMC3     C 7574   0.628   1.958  11.076 -0.9282  0.4461  0.4738
  506TMC3     O 7575   0.742   1.919  11.106  0.1158 -0.2680 -0.2658
  506TMC3     H 7576   0.513   2.061  10.844  0.9489  0.5016  0.6382
  506TMC3    H1 7577   0.655   1.706  11.044 -1.5243 -1.0130 -0.4728
  506TMC3    H2 7578   0.624   1.709  10.624  2.6142 -0.4245 -0.0026
  506TMC3    C7 7579   0.798   1.683  10.820  0.2207 -0.2368 -0.1993
  506TMC3    C8 7580   0.556   1.956  10.594 -0.0513 -0.9307  0.9472
  506TMC3    O1 7581   0.831   1.655  10.709 -0.3476 -0.3454  0.1276
  506TMC3    O2 7582   0.503   1.892  10.503  0.2550 -0.1012 -0.1838
  507TMC3    C1 7583   1.134   4.250  15.423 -0.5626  0.0052  0.0416
  507TMC3    C2 7584   1.198   4.180  15.319  0.5767 -0.0335  0.0074
  507TMC3    C3 7585   1.259   4.250  15.216 -0.2327  0.0435  0.5455
  507TMC3    C4 7586   1.119   4.384  15.422 -0.2718  0.1235  0.3399
  507TMC3    C5 7587   1.175   4.450  15.313  0.5706  0.1399 -0.1407
  507TMC3    C6 7588   1.245   4.385  15.211 -0.7829  0.6148  0.8944
  507TMC3     C 7589   1.086   4.182  15.538 -0.1421 -0.1772  0.0183
  507TMC3     O 7590   1.003   4.239  15.609  0.1259 -0.2841  0.0632
  507TMC3     H 7591   1.185   4.073  15.304 -0.4781 -0.0412  0.9144
  507TMC3    H1 7592   1.060   4.437  15.495  0.9628  1.1516  0.5886
  507TMC3    H2 7593   1.304   4.439  15.138 -1.1418 -0.7544 -0.4296
  507TMC3    C7 7594   1.097   4.555  15.251 -0.2317 -0.9526 -1.0812
  507TMC3    C8 7595   1.235   4.190  15.088 -0.4084 -0.3067  0.9851
  507TMC3    O1 7596   1.120   4.572  15.128 -0.4000  0.2368  0.2313
  507TMC3    O2 7597   1.243   4.069  15.077 -0.3008  0.5069 -0.3401
  508MPD2     C 7598   1.964   0.552  16.407 -0.3363 -0.3103  0.2286
  508MPD2    C1 7599   1.887   0.622  16.499  0.2872 -0.6509  0.3434
  508MPD2    C2 7600   1.788   0.708  16.441  0.2395  0.3391  0.0089
  508MPD2    C3 7601   1.769   0.701  16.305  0.1483 -0.3402  0.4209
  508MPD2    C4 7602   1.839   0.613  16.218  0.1036  0.5865  0.6605
  508MPD2    C5 7603   1.937   0.536  16.270 -0.9520 -0.0920  0.7206
  508MPD2     H 7604   1.727   0.775  16.500 -0.6734 -1.7424  1.4465
  508MPD2    H1 7605   1.812   0.601  16.113  0.5187  0.6594  0.5433
  508MPD2    H2 7606   2.044   0.491  16.447 -0.3653  0.7419  1.8814
  508MPD2    H3 7607   1.985   0.460  16.210 -1.7401 -0.1020  0.0883
  508MPD2     N 7608   1.680   0.801  16.255  0.1701 -0.3103  0.0608
  508MPD2    H5 7609   1.633   0.849  16.331  0.2629 -0.1482  0.0163
  508MPD2    N1 7610   1.929   0.629  16.632 -0.0683 -0.5609  0.3386
  508MPD2    H7 7611   2.018   0.583  16.649  1.1928  0.9740 -2.0829
  509TMC3    C1 7612   1.517   1.134  15.958 -0.1266 -0.0368 -0.3767
  509TMC3    C2 7613   1.572   1.230  16.040 -0.0946  0.2596  0.1619
  509TMC3    C3 7614   1.621   1.186  16.162 -0.1917 -0.7072  0.2892
  509TMC3    C4 7615   1.528   0.996  15.993  0.5936 -0.4856 -0.2476
  509TMC3    C5 7616   1.590   0.960  16.112  0.3277 -0.0094  0.0610
  509TMC3    C6 7617   1.625   1.059  16.201 -0.1526  0.0872  0.5199
  509TMC3     C 7618   1.430   1.161  15.845  0.7448  0.5296  0.0092
  509TMC3     O 7619   1.381   1.066  15.785 -0.4721 -0.0382 -0.3515
  509TMC3     H 7620   1.559   1.335  16.018 -1.5519  0.3798  1.6025
  509TMC3    H1 7621   1.496   0.921  15.923  2.6352 -0.8656 -0.7870
  509TMC3    H2 7622   1.654   1.034  16.302 -0.3305  0.4357  0.6599
  509TMC3    C7 7623   1.671   0.837  16.123  0.0297 -0.5041  0.4158
  509TMC3    C8 7624   1.650   1.288  16.263 -0.4712  0.3542 -0.2366
  509TMC3    O1 7625   1.680   0.756  16.028  0.3978  0.3824  0.2259
  509TMC3    O2 7626   1.666   1.248  16.379  0.4545 -0.2219  0.3962
  510MPD2     C 7627   4.213   2.739  15.117  0.3506  0.0472  0.6527
  510MPD2    C1 7628   4.187   2.607  15.087  0.1062  0.8320  0.2090
  510MPD2    C2 7629   4.251   2.551  14.976 -0.4164  0.2214 -0.4930
  510MPD2    C3 7630   4.349   2.618  14.909 -0.6283 -0.6512 -0.0335
  510MPD2    C4 7631   4.360   2.752  14.932 -0.2140  0.2430 -0.1146
  510MPD2    C5 7632   4.287   2.810  15.034 -0.2112  0.5265  0.1451
  510MPD2     H 7633   4.235   2.445  14.960  0.8619 -0.3944  2.3465
  510MPD2    H1 7634   4.431   2.809  14.873  0.2772  0.5454  0.7536
  510MPD2    H2 7635   4.151   2.804  15.178 -1.7376  0.0468 -1.4747
  510MPD2    H3 7636   4.291   2.916  15.058  1.8913  0.5633 -0.4118
  510MPD2     N 7637   4.441   2.552  14.831 -0.4440 -0.3094 -0.2515
  510MPD2    H5 7638   4.438   2.451  14.836  0.2905 -0.3523 -0.6503
  510MPD2    N1 7639   4.084   2.538  15.156  0.0480 -0.2117  0.2767
  510MPD2    H7 7640   4.043   2.582  15.238 -0.6008 -1.4933  0.6384
  511TMC3    C1 7641   3.924   2.364  15.200 -0.0213 -0.8450  0.0046
  511TMC3    C2 7642   3.873   2.441  15.311  0.5909  0.2867 -0.2252
  511TMC3    C3 7643   3.799   2.371  15.408 -0.2418  0.2979 -0.0734
  511TMC3    C4 7644   3.878   2.243  15.163 -0.2635 -0.3293  0.3679
  511TMC3    C5 7645   3.794   2.190  15.263  0.5583  0.5124  0.2445
  511TMC3    C6 7646   3.756   2.243  15.384 -0.7102  0.2249  0.1307
  511TMC3     C 7647   4.030   2.420  15.116  0.1374 -0.4461 -0.7267
  511TMC3     O 7648   4.042   2.356  15.014  0.5176  0.2747  0.4575
  511TMC3     H 7649   3.888   2.548  15.317  0.3189  0.3128 -0.0338
  511TMC3    H1 7650   3.916   2.184  15.080  1.1019 -2.4791  2.5015
  511TMC3    H2 7651   3.682   2.191  15.443 -0.3642  1.0693  1.3016
  511TMC3    C7 7652   3.749   2.054  15.231 -0.9229  0.8241  0.1161
  511TMC3    C8 7653   3.742   2.454  15.510 -0.0392  0.0977  0.4217
  511TMC3    O1 7654   3.772   2.015  15.116 -0.0062  0.1075  0.4277
  511TMC3    O2 7655   3.735   2.574  15.490  1.0137 -0.1780 -0.3694
  512TMC3    C1 7656   2.743   1.782  13.327 -0.1121  0.8537  0.1010
  512TMC3    C2 7657   2.821   1.754  13.442 -0.8300  0.8793 -0.1334
  512TMC3    C3 7658   2.877   1.629  13.445 -0.4317 -0.6411  0.6333
  512TMC3    C4 7659   2.730   1.690  13.225 -0.7808  0.5521 -0.0060
  512TMC3    C5 7660   2.789   1.568  13.241  0.0024 -0.5909 -0.3434
  512TMC3    C6 7661   2.866   1.538  13.351  1.1324  0.2383  0.0586
  512TMC3     C 7662   2.680   1.913  13.307  0.0304  0.4289  0.1022
  512TMC3     O 7663   2.576   1.917  13.245 -0.3496  0.4433  0.7087
  512TMC3     H 7664   2.829   1.813  13.532 -0.0993  0.8123 -0.1584
  512TMC3    H1 7665   2.652   1.706  13.152 -0.2391 -0.0823 -0.7249
  512TMC3    H2 7666   2.897   1.435  13.361  1.6531  0.2876 -1.0998
  512TMC3    C7 7667   2.772   1.479  13.128 -0.0906  0.7696 -0.1183
  512TMC3    C8 7668   2.978   1.597  13.540  0.0168  0.5046  0.0675
  512TMC3    O1 7669   2.689   1.509  13.044 -0.4149 -0.1530  0.3212
  512TMC3    O2 7670   2.995   1.478  13.564 -0.2349 -0.1759 -0.1034
  513MPD2     C 7671   0.062   1.328  13.295  0.4676 -0.2195  0.0052
  513MPD2    C1 7672   0.182   1.396  13.270 -0.7185  0.0186 -0.0403
  513MPD2    C2 7673   0.198   1.514  13.333  0.2370  0.2779  0.5688
  513MPD2    C3 7674   0.121   1.552  13.442 -0.0427  0.1194  0.8239
  513MPD2    C4 7675   0.009   1.479  13.475  0.3808 -0.1459  0.2138
  513MPD2    C5 7676   4.713   1.366  13.397 -0.4992  0.8348  0.4352
  513MPD2     H 7677   0.285   1.573  13.305 -0.3490  1.4091  1.0968
  513MPD2    H1 7678   4.683   1.513  13.556  1.8207 -1.6006  1.9585
  513MPD2    H2 7679   0.036   1.234  13.248  1.0713  0.2786 -1.3231
  513MPD2    H3 7680   4.624   1.305  13.405  0.3178 -0.3085  0.9174
  513MPD2     N 7681   0.161   1.672  13.510 -0.0385 -0.2698  0.3925
  513MPD2    H5 7682   0.254   1.701  13.479 -0.3055  0.5197  0.3373
  513MPD2    N1 7683   0.273   1.332  13.179  0.4225 -0.1188  0.0929
  513MPD2    H7 7684   0.245   1.240  13.148 -0.4894  0.6456 -1.3889
  514TMC3    C1 7685   0.497   1.303  13.081  0.1803 -0.2154  1.0104
  514TMC3    C2 7686   0.455   1.296  12.952 -0.2767  0.7845 -0.2018
  514TMC3    C3 7687   0.542   1.331  12.853  0.1246 -0.0017 -0.7775
  514TMC3    C4 7688   0.634   1.337  13.107  0.4217  0.4702 -0.6266
  514TMC3    C5 7689   0.718   1.374  13.006 -0.2572 -0.7185 -0.7500
  514TMC3    C6 7690   0.666   1.380  12.880 -0.0796  0.7427  0.7779
  514TMC3     C 7691   0.403   1.378  13.158 -0.5099 -0.3535  0.6715
  514TMC3     O 7692   0.455   1.483  13.193  0.3859 -0.4715 -0.4028
  514TMC3     H 7693   0.351   1.285  12.926  0.0630  1.3406 -1.7917
  514TMC3    H1 7694   0.675   1.342  13.207 -2.2856  2.1614  0.4057
  514TMC3    H2 7695   0.731   1.401  12.796 -1.6408  0.3368 -0.5385
  514TMC3    C7 7696   0.795   1.498  13.046  0.0656 -0.0722 -0.0919
  514TMC3    C8 7697   0.489   1.372  12.725 -0.8227 -0.0245  0.1310
  514TMC3    O1 7698   0.885   1.539  12.973 -0.1810 -0.8913 -0.4634
  514TMC3    O2 7699   0.527   1.472  12.662 -0.3326  0.8922  0.3694
  515MPD2     C 7700   2.995   3.408  15.166 -0.2052 -0.2073  0.1366
  515MPD2    C1 7701   2.999   3.444  15.032  0.2609 -0.4520  0.3131
  515MPD2    C2 7702   3.037   3.575  14.995  0.6699  0.0221  0.1196
  515MPD2    C3 7703   3.086   3.665  15.093 -0.4510  0.2315  0.1455
  515MPD2    C4 7704   3.105   3.617  15.222  0.1900 -0.4727  0.6547
  515MPD2    C5 7705   3.053   3.490  15.255  0.9517  0.6004  0.5648
  515MPD2     H 7706   3.019   3.604  14.892  0.6524  0.4061  0.2328
  515MPD2    H1 7707   3.153   3.672  15.303  0.0961 -1.0357  1.0942
  515MPD2    H2 7708   2.953   3.318  15.209  1.2185 -1.1903 -0.5212
  515MPD2    H3 7709   3.066   3.443  15.352 -0.6128  0.5140  0.7336
  515MPD2     N 7710   3.125   3.793  15.073 -0.5839  0.4471 -0.3540
  515MPD2    H5 7711   3.157   3.840  15.157 -0.2021 -0.0422 -0.2202
  515MPD2    N1 7712   2.928   3.361  14.932 -0.8831  0.5087 -0.1884
  515MPD2    H7 7713   2.916   3.402  14.840  3.2570 -0.0557 -0.9895
  516TMC3    C1 7714   2.813   3.176  14.825  0.3198  0.0360 -0.1185
  516TMC3    C2 7715   2.740   3.259  14.747  0.6112  0.1679  0.2421
  516TMC3    C3 7716   2.661   3.209  14.651 -0.0677 -0.1188  0.1768
  516TMC3    C4 7717   2.800   3.037  14.814  0.6019 -0.9571 -0.2568
  516TMC3    C5 7718   2.707   2.983  14.729 -0.1568  0.9171  0.0673
  516TMC3    C6 7719   2.627   3.075  14.652  0.9075  0.9033 -0.1974
  516TMC3     C 7720   2.887   3.229  14.944 -0.6604  0.3551 -0.5839
  516TMC3     O 7721   2.912   3.158  15.039 -0.1453  0.1226  0.1788
  516TMC3     H 7722   2.746   3.365  14.770 -3.1450  0.4664 -0.2525
  516TMC3    H1 7723   2.864   2.977  14.878  1.4842  1.0569  0.7667
  516TMC3    H2 7724   2.546   3.039  14.590  1.6764  2.0991 -1.8975
  516TMC3    C7 7725   2.645   2.861  14.784  1.1843  0.8219 -0.8414
  516TMC3    C8 7726   2.580   3.300  14.570  0.2819  0.6649 -0.7528
  516TMC3    O1 7727   2.722   2.783  14.838  0.0636 -0.5937 -0.4429
  516TMC3    O2 7728   2.483   3.254  14.512 -0.2066  0.1116 -0.5603
  517MPD2     C 7729   2.614   0.281   0.443 -0.5595 -0.5348 -0.5764
  517MPD2    C1 7730   2.751   0.263   0.438 -0.3467 -0.1529 -0.1188
  517MPD2    C2 7731   2.826   0.351   0.512 -0.7490 -0.5217 -0.3360
  517MPD2    C3 7732   2.766   0.446   0.598  0.2201  1.2585 -0.0183
  517MPD2    C4 7733   2.630   0.468   0.590  0.4424 -0.3174  0.0293
  517MPD2    C5 7734   2.557   0.384   0.513 -0.3530 -0.0190  0.4733
  517MPD2     H 7735   2.932   0.339   0.530 -0.7409  1.3925  0.9051
  517MPD2    H1 7736   2.580   0.549   0.643  0.3918 -1.0333  1.0741
  517MPD2    H2 7737   2.545   0.219   0.386 -2.1622 -1.1933  2.0847
  517MPD2    H3 7738   2.450   0.405   0.512 -0.6365 -1.5656 -1.2377
  517MPD2     N 7739   2.845   0.538   0.680  0.4365  0.8814  0.5638
  517MPD2    H5 7740   2.790   0.589   0.747  0.4504 -0.5253  1.6555
  517MPD2    N1 7741   2.817   0.149   0.376 -0.5011 -0.5578 -0.0414
  517MPD2    H7 7742   2.915   0.133   0.396 -0.7498 -1.0463  0.7988
  518TMC3    C1 7743   2.844   4.705   0.245 -0.6945 -0.3933 -0.8937
  518TMC3    C2 7744   2.790   4.615   0.156  0.1915  0.1097  0.4528
  518TMC3    C3 7745   2.865   4.566   0.055 -0.2109 -0.4905  0.0548
  518TMC3    C4 7746   2.978   0.017   0.218  0.3975  0.2978 -1.1187
  518TMC3    C5 7747   3.046   4.696   0.111  0.8790  0.1500  0.2101
  518TMC3    C6 7748   2.995   4.604   0.025 -0.1186 -0.7867  0.2497
  518TMC3     C 7749   2.745   0.057   0.302 -0.3993 -0.4837 -0.3640
  518TMC3     O 7750   2.627   0.039   0.272  0.4344 -0.1119 -0.4188
  518TMC3     H 7751   2.697   4.569   0.187  0.4621  0.2762  1.5004
  518TMC3    H1 7752   3.030   0.091   0.277 -0.6961 -0.3008  0.6015
  518TMC3    H2 7753   3.038   4.570  17.680 -1.8197 -2.2280 -0.0047
  518TMC3    C7 7754   3.188   4.724   0.110  0.7230  0.2049  0.1906
  518TMC3    C8 7755   2.841   4.435  17.746  0.0066 -0.1893  0.3808
  518TMC3    O1 7756   3.230   0.092   0.155 -0.0284  0.3023  0.0643
  518TMC3    O2 7757   2.933   4.369  17.698  0.5221 -0.3791 -0.2136
  519MPD2     C 7758   4.368   3.599  14.832 -0.0232 -0.4345  0.1514
  519MPD2    C1 7759   4.343   3.622  14.696  0.0571  0.2952  0.2965
  519MPD2    C2 7760   4.434   3.576  14.603  0.3783  0.3854 -0.3651
  519MPD2    C3 7761   4.549   3.505  14.639 -0.3594 -0.2353 -0.5128
  519MPD2    C4 7762   4.572   3.480  14.771 -0.0009 -0.0916 -0.3990
  519MPD2    C5 7763   4.483   3.533  14.869  0.4983  0.2318  0.4354
  519MPD2     H 7764   4.418   3.608  14.501 -0.0219 -3.9286 -1.6419
  519MPD2    H1 7765   4.656   3.417  14.799 -0.2143  0.6392  1.9517
  519MPD2    H2 7766   4.310   3.632  14.918  0.1361  1.2569 -0.3916
  519MPD2    H3 7767   4.507   3.520  14.974  2.0772  0.8816  0.1582
  519MPD2     N 7768   4.639   3.445  14.545 -0.2736  0.2796 -0.4797
  519MPD2    H5 7769   4.729   3.409  14.576 -0.6625 -0.6457 -0.4452
  519MPD2    N1 7770   4.226   3.703  14.670  0.3254 -0.7348  0.5067
  519MPD2    H7 7771   4.156   3.722  14.741  0.5133  0.4853  0.3580
  520TMC3    C1 7772   4.707   3.356  14.340  0.2981 -0.0346  0.0465
  520TMC3    C2 7773   4.703   3.376  14.204  0.8316 -0.2891 -0.0044
  520TMC3    C3 7774   0.045   3.296  14.125 -0.5443  0.2541  0.0362
  520TMC3    C4 7775   0.047   3.272  14.405  1.1150 -0.0132  0.2610
  520TMC3    C5 7776   0.122   3.198  14.318 -0.2877 -0.0629  0.0999
  520TMC3    C6 7777   0.122   3.205  14.182 -0.0277 -0.0190 -0.8589
  520TMC3     C 7778   4.606   3.428  14.412  0.0495 -0.7638 -0.3476
  520TMC3     O 7779   4.501   3.448  14.349  0.4309  0.6915 -0.3133
  520TMC3     H 7780   4.646   3.452  14.153  1.4940  0.5413  0.4930
  520TMC3    H1 7781   0.047   3.249  14.512 -0.1759 -2.7878 -0.3176
  520TMC3    H2 7782   0.174   3.138  14.115 -0.5276  0.8725 -2.1187
  520TMC3    C7 7783   0.187   3.082  14.389  0.3909  0.7733 -0.3234
  520TMC3    C8 7784   0.020   3.295  13.988  0.0128 -0.1461  0.1072
  520TMC3    O1 7785   0.148   3.060  14.504  0.1353  0.1834 -0.5008
  520TMC3    O2 7786   0.112   3.298  13.911  0.1473  0.0200 -0.1203
  521MPD2     C 7787   0.663   1.590   0.155  0.0148  0.1280  0.0943
  521MPD2    C1 7788   0.611   1.542   0.041 -0.7307  0.1299 -0.5375
  521MPD2    C2 7789   0.696   1.495  17.691  0.0079 -0.5408 -0.3639
  521MPD2    C3 7790   0.834   1.492  17.705 -0.4864  0.6678 -0.4032
  521MPD2    C4 7791   0.877   1.550   0.074 -0.0477 -0.5457 -0.0782
  521MPD2    C5 7792   0.800   1.592   0.170  0.0267  0.0211  0.3240
  521MPD2     H 7793   0.647   1.438  17.613  0.2820 -1.7650  0.3585
  521MPD2    H1 7794   0.985   1.561   0.082 -0.0598 -1.1712  0.9700
  521MPD2    H2 7795   0.603   1.620   0.240  2.1654  2.6171  0.7480
  521MPD2    H3 7796   0.845   1.621   0.265 -1.3631 -0.4323  1.1308
  521MPD2     N 7797   0.920   1.458  17.610 -0.3771  0.2171 -0.6108
  521MPD2    H5 7798   0.898   1.445  17.512  0.6417  1.7773 -1.0402
  521MPD2    N1 7799   0.468   1.549   0.035 -0.4533  0.3276 -0.5729
  521MPD2    H7 7800   0.424   1.586   0.119  1.7002  0.8678  0.3087
  522TMC3    C1 7801   1.144   1.416  17.523 -0.0885  0.4257  0.6639
  522TMC3    C2 7802   1.268   1.373  17.559 -0.1010 -0.3171  0.6543
  522TMC3    C3 7803   1.357   1.375  17.463  0.0678  0.4918 -0.7199
  522TMC3    C4 7804   1.105   1.451  17.393 -0.2191 -0.4767  0.1084
  522TMC3    C5 7805   1.210   1.465  17.300 -0.1180  0.0582 -0.4224
  522TMC3    C6 7806   1.334   1.415  17.330 -0.3298  0.0482  0.2050
  522TMC3     C 7807   1.053   1.429  17.635 -0.5761  0.5029 -0.3932
  522TMC3     O 7808   1.107   1.408  17.741  0.1345  0.7079 -0.0392
  522TMC3     H 7809   1.289   1.324  17.654 -0.2902 -1.1208  0.2814
  522TMC3    H1 7810   0.999   1.463  17.373 -0.2420 -2.4809 -0.9234
  522TMC3    H2 7811   1.408   1.408  17.251 -0.8106  0.8614 -0.3157
  522TMC3    C7 7812   1.179   1.498  17.160 -0.1824  0.9360  0.3987
  522TMC3    C8 7813   1.496   1.353  17.508 -0.4660 -0.8814 -0.3101
  522TMC3    O1 7814   1.254   1.456  17.077  0.5508 -0.1271  0.0662
  522TMC3    O2 7815   1.529   1.376  17.623 -0.0022  0.1487  0.0278
  523MPD2     C 7816   3.660   1.499  10.501 -0.2482 -0.9165  0.4523
  523MPD2    C1 7817   3.519   1.488  10.493 -0.4397 -0.5003 -0.1306
  523MPD2    C2 7818   3.443   1.568  10.411  0.6702 -0.1084 -0.2144
  523MPD2    C3 7819   3.510   1.665  10.331 -0.8718  0.6333 -0.0370
  523MPD2    C4 7820   3.644   1.676  10.341  0.2401  0.1823 -0.0124
  523MPD2    C5 7821   3.719   1.604  10.427  0.7262  0.2611 -0.5932
  523MPD2     H 7822   3.336   1.562  10.398  0.0729  1.8760  3.6881
  523MPD2    H1 7823   3.704   1.753  10.295  0.8779 -0.2189  0.1433
  523MPD2    H2 7824   3.726   1.436  10.559  0.6189 -1.0204 -0.6440
  523MPD2    H3 7825   3.827   1.615  10.426  0.4933  2.6946  1.0523
  523MPD2     N 7826   3.446   1.751  10.238  0.0317 -0.3478 -0.8571
  523MPD2    H5 7827   3.500   1.824  10.192 -0.5483 -0.2032 -1.3028
  523MPD2    N1 7828   3.459   1.381  10.564  0.2752  0.8776  0.5016
  523MPD2    H7 7829   3.528   1.318  10.603  0.3332 -0.3659 -1.6627
  524TMC3    C1 7830   3.277   1.858  10.119 -0.7660 -0.2256 -0.3999
  524TMC3    C2 7831   3.184   1.849  10.017  0.1747 -0.1621 -0.2448
  524TMC3    C3 7832   3.175   1.955   9.930 -1.0657  0.3432  0.2139
  524TMC3    C4 7833   3.333   1.979  10.147 -0.2003 -0.3859  0.1767
  524TMC3    C5 7834   3.304   2.089  10.069  0.3096 -0.2291  0.6804
  524TMC3    C6 7835   3.231   2.077   9.954  0.0235 -0.1641 -0.2544
  524TMC3     C 7836   3.320   1.740  10.189 -0.3980  0.6505  0.1165
  524TMC3     O 7837   3.238   1.648  10.193  0.2330 -0.5696  0.1442
  524TMC3     H 7838   3.151   1.749   9.989 -3.4645  0.5518  1.5530
  524TMC3    H1 7839   3.385   1.988  10.241 -2.2615 -2.1598  1.4965
  524TMC3    H2 7840   3.215   2.162   9.889 -1.7234 -1.9463 -2.1613
  524TMC3    C7 7841   3.406   2.198  10.078 -0.2554  0.1345  0.0446
  524TMC3    C8 7842   3.069   1.940   9.836  0.0832  0.1462 -0.5775
  524TMC3    O1 7843   3.511   2.170  10.136  0.3692  0.4284  0.0684
  524TMC3    O2 7844   3.033   1.826   9.808  0.2208 -0.6339 -0.3857
  525MPD2     C 7845   1.084   2.731  14.595  0.1358 -0.3225 -0.4978
  525MPD2    C1 7846   1.199   2.742  14.667 -0.5787 -0.3718 -0.9367
  525MPD2    C2 7847   1.285   2.844  14.624 -0.0601 -0.2615  0.3626
  525MPD2    C3 7848   1.263   2.925  14.507 -0.3079 -0.4224  0.1470
  525MPD2    C4 7849   1.144   2.904  14.441  0.4093  0.5496  0.0745
  525MPD2    C5 7850   1.061   2.810  14.485  0.9619  0.1059 -0.3935
  525MPD2     H 7851   1.377   2.858  14.680  0.1142 -0.9974  0.2586
  525MPD2    H1 7852   1.123   2.966  14.354 -0.1333  0.2684  0.0036
  525MPD2    H2 7853   1.011   2.652  14.610  0.4548 -0.4305  0.4841
  525MPD2    H3 7854   0.973   2.794  14.423 -0.9765  1.7773  1.9227
  525MPD2     N 7855   1.334   3.047  14.480 -0.2810  0.0942 -0.5571
  525MPD2    H5 7856   1.298   3.109  14.408 -4.2256 -1.1358  0.3315
  525MPD2    N1 7857   1.233   2.658  14.776 -0.2219  0.9194  0.1001
  525MPD2    H7 7858   1.324   2.680  14.816 -1.9421  0.8471  4.0065
  526TMC3    C1 7859   1.202   2.544  14.978  0.7515  0.3852 -0.8535
  526TMC3    C2 7860   1.114   2.552  15.084 -0.4022  0.1147 -0.2543
  526TMC3    C3 7861   1.149   2.500  15.200 -0.3058 -0.1917  0.0202
  526TMC3    C4 7862   1.320   2.474  14.984 -0.5861 -0.4150 -0.7799
  526TMC3    C5 7863   1.349   2.406  15.104 -0.0976 -1.0193 -0.6114
  526TMC3    C6 7864   1.272   2.438  15.212 -0.2584  0.2991 -0.5524
  526TMC3     C 7865   1.147   2.588  14.854  0.0269 -0.3140 -0.5799
  526TMC3     O 7866   1.027   2.554  14.838  0.6739  0.3216 -0.1218
  526TMC3     H 7867   1.025   2.611  15.064 -2.1498 -2.5982 -0.4992
  526TMC3    H1 7868   1.395   2.455  14.907  1.7072 -0.6592  1.5043
  526TMC3    H2 7869   1.300   2.386  15.303 -2.9229 -0.8236 -0.3866
  526TMC3    C7 7870   1.477   2.356  15.133 -0.6324  0.2180 -0.5690
  526TMC3    C8 7871   1.098   2.545  15.328 -0.3228 -0.3638  0.3420
  526TMC3    O1 7872   1.523   2.371  15.241  0.0483  0.2957  0.6238
  526TMC3    O2 7873   1.177   2.544  15.419 -0.5980  0.1688 -0.1826
  527MPD2     C 7874   3.854   0.587   2.102 -0.0453  0.2495 -0.0324
  527MPD2    C1 7875   3.865   0.675   1.995  0.8987 -0.1755  0.2277
  527MPD2    C2 7876   3.984   0.661   1.920  1.2575 -0.0085  0.7125
  527MPD2    C3 7877   4.073   0.554   1.957 -0.5327 -0.1015  0.4169
  527MPD2    C4 7878   4.050   0.469   2.057 -0.3537 -0.6330  0.0787
  527MPD2    C5 7879   3.939   0.489   2.136 -0.0344 -0.0542 -0.0088
  527MPD2     H 7880   4.011   0.734   1.845 -1.0100  0.7149  0.5932
  527MPD2    H1 7881   4.123   0.400   2.098 -0.2461 -0.3067  0.4400
  527MPD2    H2 7882   3.769   0.593   2.168  0.0244 -4.5211  0.4340
  527MPD2    H3 7883   3.919   0.442   2.232 -0.6969  0.1538 -0.0454
  527MPD2     N 7884   4.195   0.539   1.878 -1.1916  0.4182 -0.2283
  527MPD2    H5 7885   4.222   0.611   1.812  2.9226 -0.6240  0.3498
  527MPD2    N1 7886   3.766   0.756   1.946 -0.3021 -0.2805 -0.5758
  527MPD2    H7 7887   3.779   0.808   1.860  2.0131  2.2315  1.3073
  528TMC3    C1 7888   3.541   0.825   1.906  0.3737  0.1440 -0.5573
  528TMC3    C2 7889   3.567   0.845   1.777  0.2552 -0.7717  0.0905
  528TMC3    C3 7890   3.465   0.870   1.689  0.0977 -0.3687  0.0585
  528TMC3    C4 7891   3.411   0.817   1.949  0.2383 -0.0811  0.5931
  528TMC3    C5 7892   3.314   0.845   1.861 -0.0730 -0.3494  0.1180
  528TMC3    C6 7893   3.334   0.857   1.725 -0.0695  0.1438  0.0208
  528TMC3     C 7894   3.645   0.779   2.004 -0.2375  0.3480 -0.4122
  528TMC3     O 7895   3.604   0.748   2.114  0.0856 -0.1710 -0.4368
  528TMC3     H 7896   3.669   0.866   1.745 -0.0849  0.3533 -0.2346
  528TMC3    H1 7897   3.386   0.792   2.052 -0.8008  0.7005  0.5358
  528TMC3    H2 7898   3.255   0.885   1.656 -0.7810 -2.7050 -0.3178
  528TMC3    C7 7899   3.176   0.835   1.910 -0.3794 -0.1829 -0.4723
  528TMC3    C8 7900   3.500   0.854   1.555 -0.3925 -0.4829  0.0093
  528TMC3    O1 7901   3.160   0.885   2.020  0.3666  0.6516  0.6254
  528TMC3    O2 7902   3.613   0.883   1.522 -0.2919  0.2207  0.6350
  529MPD2     C 7903   1.380   3.874   0.983  0.1857 -0.8946 -0.2154
  529MPD2    C1 7904   1.448   3.775   0.909 -0.0345 -0.3171  0.2220
  529MPD2    C2 7905   1.470   3.794   0.766  0.0446  0.0323 -0.4154
  529MPD2    C3 7906   1.418   3.904   0.702  0.6786  0.1890 -0.4212
  529MPD2    C4 7907   1.342   3.993   0.772  0.0485  0.8538 -0.0264
  529MPD2    C5 7908   1.324   3.982   0.910 -0.9465 -0.2643 -0.0997
  529MPD2     H 7909   1.535   3.728   0.709  1.8954  0.4050  1.2459
  529MPD2    H1 7910   1.292   4.076   0.722  1.3272  1.0331 -1.0256
  529MPD2    H2 7911   1.352   3.870   1.088  0.0421  0.1384 -0.2089
  529MPD2    H3 7912   1.265   4.058   0.960 -0.2681  0.8556 -1.0033
  529MPD2     N 7913   1.447   3.944   0.565 -0.4181  0.4518  0.3600
  529MPD2    H5 7914   1.407   4.030   0.530 -0.6265  0.1680 -0.1117
  529MPD2    N1 7915   1.506   3.664   0.967  0.0143 -0.3375  0.8519
  529MPD2    H7 7916   1.545   3.595   0.903  1.0327 -0.1034  1.2150
  530TMC3    C1 7917   1.615   3.540   1.139 -0.2378 -0.1398 -0.0179
  530TMC3    C2 7918   1.659   3.535   1.267  0.6028  0.7181  1.1246
  530TMC3    C3 7919   1.736   3.431   1.308 -0.5760  0.2947 -0.4529
  530TMC3    C4 7920   1.619   3.428   1.059 -0.4711 -0.5460  0.7564
  530TMC3    C5 7921   1.684   3.318   1.109  0.5609 -0.3111 -0.4309
  530TMC3    C6 7922   1.754   3.320   1.229 -0.0710  0.0429  0.1766
  530TMC3     C 7923   1.528   3.652   1.099  0.6383 -0.5278  0.0749
  530TMC3     O 7924   1.511   3.734   1.189 -0.1347 -0.6281 -0.4710
  530TMC3     H 7925   1.661   3.622   1.332 -1.9775  1.0152  0.7931
  530TMC3    H1 7926   1.568   3.423   0.964  0.4365 -1.6173  0.3246
  530TMC3    H2 7927   1.804   3.232   1.267 -0.8422 -0.9497 -1.1452
  530TMC3    C7 7928   1.693   3.204   1.027  0.1785  0.0103  0.3926
  530TMC3    C8 7929   1.777   3.435   1.446  0.0929  0.3716 -0.0330
  530TMC3    O1 7930   1.656   3.219   0.907 -0.7539  0.2536  0.3250
  530TMC3    O2 7931   1.695   3.482   1.525 -0.1123 -0.1839 -0.0069
  531MPD2     C 7932   0.823   1.901  13.368  0.5332  0.1725  0.6066
  531MPD2    C1 7933   0.710   1.831  13.390 -0.4447 -0.0120 -0.2668
  531MPD2    C2 7934   0.686   1.717  13.319  0.0797  0.6084 -0.1188
  531MPD2    C3 7935   0.769   1.674  13.214 -0.6132 -0.4804 -0.2491
  531MPD2    C4 7936   0.885   1.747  13.191 -0.5780  0.3467  0.3313
  531MPD2    C5 7937   0.911   1.860  13.265  0.0661  0.2020 -0.1040
  531MPD2     H 7938   0.598   1.654  13.329  0.5468 -0.1855 -0.9505
  531MPD2    H1 7939   0.941   1.722  13.102 -0.1649 -2.0260  1.2579
  531MPD2    H2 7940   0.832   1.997  13.417  0.0688  0.2918  0.4615
  531MPD2    H3 7941   0.999   1.916  13.237 -0.1513  0.5826 -0.0144
  531MPD2     N 7942   0.725   1.555  13.145 -0.3951  0.3397  0.3208
  531MPD2    H5 7943   0.645   1.507  13.184 -1.6811  1.0655 -1.4217
  531MPD2    N1 7944   0.620   1.884  13.481 -0.8592 -0.1512  0.2022
  531MPD2    H7 7945   0.654   1.954  13.546  0.0188 -0.7130  0.3320
  532TMC3    C1 7946   0.428   1.902  13.597  0.5766 -0.3128  0.4655
  532TMC3    C2 7947   0.296   1.887  13.579 -0.8376  0.3399 -0.2287
  532TMC3    C3 7948   0.216   1.825  13.675  0.3498  0.4109  0.0832
  532TMC3    C4 7949   0.481   1.885  13.726 -0.1940  0.0149 -0.2900
  532TMC3    C5 7950   0.392   1.848  13.830  0.3112 -0.1490 -0.5099
  532TMC3    C6 7951   0.263   1.807  13.801  0.4685  0.5122  0.8186
  532TMC3     C 7952   0.495   1.844  13.495  0.0439 -0.4283 -0.6738
  532TMC3     O 7953   0.429   1.756  13.434  0.0358  0.2971  0.0475
  532TMC3     H 7954   0.257   1.912  13.481  0.5204  0.5104 -0.7187
  532TMC3    H1 7955   0.581   1.919  13.754 -0.6749 -1.4190  3.1853
  532TMC3    H2 7956   0.199   1.756  13.873  2.1010 -0.3168  1.6765
  532TMC3    C7 7957   0.429   1.790  13.962 -0.6361  0.7696  0.2679
  532TMC3    C8 7958   0.119   1.729  13.628 -0.5771 -0.5583  0.2377
  532TMC3    O1 7959   0.344   1.782  14.047  0.5607  0.1229 -0.0544
  532TMC3    O2 7960   0.034   1.690  13.710 -0.5155  0.1130 -0.6811
  533TMC3    C1 7961   1.487   3.209  14.537 -0.6280 -0.5516 -0.0171
  533TMC3    C2 7962   1.614   3.264  14.532  0.2206 -0.4671 -0.4835
  533TMC3    C3 7963   1.637   3.389  14.574  0.4177 -0.4674 -0.0122
  533TMC3    C4 7964   1.386   3.271  14.610  0.3192  0.0895 -0.2357
  533TMC3    C5 7965   1.415   3.401  14.655 -0.2328 -0.4395 -0.6873
  533TMC3    C6 7966   1.537   3.461  14.635 -0.8410  0.3341  0.2549
  533TMC3     C 7967   1.461   3.068  14.518 -0.5174  0.3719  0.7161
  533TMC3     O 7968   1.536   2.994  14.583  0.0591 -0.3179 -0.0311
  533TMC3     H 7969   1.701   3.211  14.494  0.0671 -1.2969  0.3229
  533TMC3    H1 7970   1.295   3.219  14.636 -0.1984 -0.0896 -2.3870
  533TMC3    H2 7971   1.560   3.560  14.672 -0.7100  1.1714 -2.0990
  533TMC3    C7 7972   1.348   3.421  14.784 -0.1027 -0.8292  0.1357
  533TMC3    C8 7973   1.764   3.455  14.552 -0.9521 -0.0485  0.0198
  533TMC3    O1 7974   1.261   3.339  14.813  0.0986 -0.0585 -0.2590
  533TMC3    O2 7975   1.763   3.572  14.513  0.5594 -0.3651 -0.6225
  534MPD2     C 7976   4.330   3.646   1.616 -0.6571  0.1299 -0.6894
  534MPD2    C1 7977   4.236   3.720   1.689 -0.1120  0.1671 -0.5247
  534MPD2    C2 7978   4.107   3.715   1.643  0.3021 -0.2115  0.4945
  534MPD2    C3 7979   4.075   3.641   1.537 -0.1018  0.9756  0.4404
  534MPD2    C4 7980   4.166   3.566   1.472  0.1416  0.3846  0.5831
  534MPD2    C5 7981   4.296   3.566   1.518 -0.7657 -0.2341 -0.2329
  534MPD2     H 7982   4.025   3.778   1.676  0.2329  0.0323 -0.1500
  534MPD2    H1 7983   4.129   3.508   1.388 -0.6148 -1.9647  2.5595
  534MPD2    H2 7984   4.436   3.651   1.640 -0.8921  1.2856  0.1013
  534MPD2    H3 7985   4.372   3.504   1.472  0.7341  1.2935  0.1720
  534MPD2     N 7986   3.946   3.630   1.485 -0.6453 -0.7621 -0.1097
  534MPD2    H5 7987   3.939   3.577   1.399  0.7612  0.2232 -0.8365
  534MPD2    N1 7988   4.265   3.810   1.795  0.2754 -0.4539 -0.1444
  534MPD2    H7 7989   4.185   3.872   1.811  1.3029  0.8751 -0.1581
  535TMC3    C1 7990   3.728   3.688   1.419 -0.0285  0.0062 -0.9497
  535TMC3    C2 7991   3.612   3.681   1.483  0.4106 -0.4667 -0.0388
  535TMC3    C3 7992   3.497   3.710   1.408  0.6146  0.7613  0.1504
  535TMC3    C4 7993   3.746   3.745   1.299 -0.2313 -0.5151 -0.7257
  535TMC3    C5 7994   3.630   3.794   1.235 -0.4386  0.2048 -0.2324
  535TMC3    C6 7995   3.508   3.774   1.286  0.4551 -0.6762  0.6709
  535TMC3     C 7996   3.836   3.707   1.517 -0.4730  0.2803  0.3453
  535TMC3     O 7997   3.813   3.751   1.626 -0.0877  0.1079 -0.0153
  535TMC3     H 7998   3.612   3.651   1.588  0.3422  2.2962  0.7478
  535TMC3    H1 7999   3.842   3.773   1.258 -0.4349  0.2700 -0.6696
  535TMC3    H2 8000   3.417   3.812   1.242  0.6866  1.0079  1.6197
  535TMC3    C7 8001   3.650   3.879   1.119 -0.3734 -0.3181 -0.9758
  535TMC3    C8 8002   3.362   3.691   1.458  0.0419  0.4335 -1.0681
  535TMC3    O1 8003   3.547   3.894   1.049  0.5444  0.5704  0.3462
  535TMC3    O2 8004   3.275   3.695   1.372  0.1956  0.1214  0.0097
  536MPD2     C 8005   2.806   2.581  16.709  0.3075  0.3640 -0.0001
  536MPD2    C1 8006   2.678   2.518  16.720  0.1388 -0.1818 -0.1088
  536MPD2    C2 8007   2.587   2.548  16.618 -0.5806  0.5381  0.5684
  536MPD2    C3 8008   2.610   2.631  16.507 -0.0095  0.7954 -0.6557
  536MPD2    C4 8009   2.735   2.695  16.505 -0.6946  0.0221  0.2607
  536MPD2    C5 8010   2.830   2.662  16.600 -0.5902  0.0476  0.2642
  536MPD2     H 8011   2.488   2.504  16.618 -0.7548  0.9391  0.9983
  536MPD2    H1 8012   2.766   2.758  16.423 -1.7174 -0.0917 -0.2116
  536MPD2    H2 8013   2.891   2.546  16.766 -0.3468 -0.2048  0.6192
  536MPD2    H3 8014   2.935   2.686  16.594 -0.1836 -1.7964 -0.1492
  536MPD2     N 8015   2.518   2.652  16.398  0.1741  0.0431  0.2716
  536MPD2    H5 8016   2.559   2.696  16.316 -1.0891 -1.3002 -1.0758
  536MPD2    N1 8017   2.656   2.434  16.836  0.0687 -0.0174  0.1747
  536MPD2    H7 8018   2.733   2.425  16.901  0.7308 -0.4959 -0.6892
  537TMC3    C1 8019   2.525   2.316  16.996 -0.3940  0.2012 -0.4626
  537TMC3    C2 8020   2.637   2.298  17.067 -0.1022  0.5424 -0.6073
  537TMC3    C3 8021   2.643   2.234  17.188 -0.4573 -0.1140 -0.0146
  537TMC3    C4 8022   2.402   2.288  17.052  0.4681  0.0738 -0.2611
  537TMC3    C5 8023   2.408   2.229  17.177 -0.4627 -0.2972 -0.0565
  537TMC3    C6 8024   2.527   2.206  17.247  0.2150  0.0176  0.0518
  537TMC3     C 8025   2.529   2.390  16.875 -0.4903 -0.0398  0.0124
  537TMC3     O 8026   2.419   2.428  16.839  0.2082 -0.3327  0.1191
  537TMC3     H 8027   2.728   2.335  17.021  0.7207 -1.3362 -0.4910
  537TMC3    H1 8028   2.315   2.285  16.987  1.6772 -1.2772 -1.8221
  537TMC3    H2 8029   2.527   2.158  17.344 -1.0908  0.9125  0.4929
  537TMC3    C7 8030   2.280   2.165  17.222  0.2213  0.1143  0.3478
  537TMC3    C8 8031   2.768   2.240  17.266 -0.0091 -0.4769  0.1329
  537TMC3    O1 8032   2.187   2.198  17.157 -0.8603 -0.0996  0.0144
  537TMC3    O2 8033   2.865   2.299  17.213 -0.4020 -0.4587  0.2181
  538TMC3    C1 8034   4.141   0.824  10.744  0.4229 -0.3627  0.8055
  538TMC3    C2 8035   4.222   0.903  10.829  0.4391 -0.3568  0.1146
  538TMC3    C3 8036   4.160   1.006  10.888 -0.1991 -0.3644 -0.0458
  538TMC3    C4 8037   4.000   0.833  10.751 -0.1378 -0.2092  1.0209
  538TMC3    C5 8038   3.943   0.935  10.820 -0.5008 -0.6405  0.6476
  538TMC3    C6 8039   4.026   1.024  10.892  0.4094  0.1806 -0.2207
  538TMC3     C 8040   4.198   0.720  10.665 -0.3612 -0.7371 -0.8389
  538TMC3     O 8041   4.144   0.697  10.559 -0.6576 -0.0040 -0.2556
  538TMC3     H 8042   4.330   0.891  10.833  0.4235 -0.7323 -0.5289
  538TMC3    H1 8043   3.950   0.763  10.685 -0.0992  0.6740  0.0498
  538TMC3    H2 8044   3.986   1.100  10.959 -2.6077 -0.2970 -1.5030
  538TMC3    C7 8045   3.805   0.951  10.840 -0.1378  0.1689  0.3706
  538TMC3    C8 8046   4.238   1.108  10.960 -0.4958  0.4243  0.3227
  538TMC3    O1 8047   3.743   0.847  10.862  0.4083  0.2560 -0.1998
  538TMC3    O2 8048   4.343   1.063  11.003 -0.5459  0.4390 -0.3350
  539MPD2     C 8049   4.167   0.121  11.020 -0.0719 -0.2947 -0.2929
  539MPD2    C1 8050   4.073   0.082  11.106  0.5897 -0.4942 -0.2767
  539MPD2    C2 8051   3.954   0.152  11.105 -0.1277  0.7468  0.0483
  539MPD2    C3 8052   3.942   0.275  11.041  0.9595  0.3399 -0.4558
  539MPD2    C4 8053   4.051   0.314  10.966  0.5666 -0.5781  0.3063
  539MPD2    C5 8054   4.163   0.235  10.948  0.2542  0.3652 -0.0980
  539MPD2     H 8055   3.859   0.119  11.147  1.6203 -1.1400  2.5033
  539MPD2    H1 8056   4.052   0.415  10.927 -0.6368  0.3989  2.8079
  539MPD2    H2 8057   4.262   0.069  11.009 -0.3848 -1.1332  0.9910
  539MPD2    H3 8058   4.245   0.257  10.881  1.5232  1.2150  1.7420
  539MPD2     N 8059   3.835   0.373  11.055 -0.1124 -0.0219 -0.1935
  539MPD2    H5 8060   3.847   0.460  11.004 -0.9664  0.2793  0.1354
  539MPD2    N1 8061   4.071   4.699  11.180  0.6210  0.0714  0.0109
  539MPD2    H7 8062   3.982   4.667  11.218  1.0953  0.9308  1.8309
  540TMC3    C1 8063   3.657   0.478  11.147 -0.1017  0.7515 -0.6510
  540TMC3    C2 8064   3.610   0.519  11.026 -0.3389 -0.3022  0.0338
  540TMC3    C3 8065   3.532   0.633  11.022  0.1233 -0.5115  0.0228
  540TMC3    C4 8066   3.612   0.522  11.269 -0.1708  0.6902  0.3700
  540TMC3    C5 8067   3.522   0.622  11.258 -0.2920  0.5747  0.4830
  540TMC3    C6 8068   3.492   0.692  11.141  0.0596  0.4532 -0.1445
  540TMC3     C 8069   3.729   0.356  11.137  0.1316  0.4565 -0.0654
  540TMC3     O 8070   3.708   0.267  11.223 -0.1703  0.7759  0.6044
  540TMC3     H 8071   3.656   0.495  10.931  0.6062 -3.1529  1.2322
  540TMC3    H1 8072   3.644   0.477  11.362 -0.3239 -1.4826 -0.6205
  540TMC3    H2 8073   3.408   0.760  11.133  0.4753  0.7987 -1.6506
  540TMC3    C7 8074   3.443   0.665  11.370 -0.3182 -0.8922 -0.2570
  540TMC3    C8 8075   3.435   0.651  10.915  1.2273 -0.2250  0.0334
  540TMC3    O1 8076   3.393   0.773  11.367  0.3864 -0.5513  0.4698
  540TMC3    O2 8077   3.391   0.760  10.881 -0.4728  0.1631  0.5930
  541MPD2     C 8078   1.697   1.606  13.456  0.3206  0.6840 -0.0930
  541MPD2    C1 8079   1.679   1.521  13.347  0.6346 -0.3092  0.0620
  541MPD2    C2 8080   1.768   1.531  13.241 -0.0842  0.3468  0.0804
  541MPD2    C3 8081   1.860   1.632  13.226 -0.4815  0.1793 -0.5790
  541MPD2    C4 8082   1.872   1.714  13.343 -0.3568  0.3407 -0.0464
  541MPD2    C5 8083   1.792   1.704  13.453  0.2777  0.5894  0.4361
  541MPD2     H 8084   1.755   1.455  13.165  0.3352 -0.0919  0.4400
  541MPD2    H1 8085   1.944   1.795  13.343 -0.6114  0.5644  0.9053
  541MPD2    H2 8086   1.625   1.601  13.537  1.3729 -0.8130  0.7402
  541MPD2    H3 8087   1.801   1.777  13.533 -1.1193 -0.2365  1.3467
  541MPD2     N 8088   1.943   1.649  13.112 -0.4289  0.1636  0.5721
  541MPD2    H5 8089   2.023   1.709  13.127  0.5269 -0.4212 -2.2262
  541MPD2    N1 8090   1.585   1.413  13.340  0.1334  0.0002  0.3812
  541MPD2    H7 8091   1.578   1.361  13.253 -0.8103 -1.7044  1.4686
  542TMC3    C1 8092   2.029   1.655  12.896 -0.2649  0.6363  0.6639
  542TMC3    C2 8093   2.068   1.594  12.783 -0.3760 -0.4243  0.4759
  542TMC3    C3 8094   2.137   1.676  12.693  0.1549 -0.1588 -0.9235
  542TMC3    C4 8095   2.059   1.790  12.930 -0.0433  0.0305  0.4172
  542TMC3    C5 8096   2.109   1.868  12.832  0.9831 -0.0107  0.6480
  542TMC3    C6 8097   2.158   1.810  12.718 -0.1150  0.7762  0.2227
  542TMC3     C 8098   1.935   1.593  12.986  0.2529  0.2428 -0.7872
  542TMC3     O 8099   1.865   1.504  12.944 -0.1207 -0.1045  0.1769
  542TMC3     H 8100   2.049   1.489  12.767 -2.1959 -0.1589  0.9337
  542TMC3    H1 8101   2.015   1.848  13.011  2.1600  0.6184  1.2028
  542TMC3    H2 8102   2.204   1.868  12.638  0.5513 -1.7832 -1.2467
  542TMC3    C7 8103   2.087   2.011  12.835  0.9905 -0.5178  0.4457
  542TMC3    C8 8104   2.209   1.605  12.588 -0.3535 -0.5774 -0.1864
  542TMC3    O1 8105   2.080   2.048  12.952  0.4792 -0.3554 -0.2119
  542TMC3    O2 8106   2.157   1.507  12.531 -0.3809 -0.6302  0.1285
  543TMC3    C1 8107   1.101   3.214  17.607  0.1193  0.6062  0.1226
  543TMC3    C2 8108   1.140   3.095  17.669  0.6113 -0.5283  0.1262
  543TMC3    C3 8109   1.145   3.085   0.051 -0.4870  0.1042 -0.4964
  543TMC3    C4 8110   1.068   3.324  17.675 -0.4701  0.2364  0.2621
  543TMC3    C5 8111   1.074   3.309   0.065 -0.5744  0.6849 -0.2196
  543TMC3    C6 8112   1.097   3.188   0.127 -0.1613 -0.1425 -0.3086
  543TMC3     C 8113   1.162   3.228  17.474  0.1655  0.0413  0.0658
  543TMC3     O 8114   1.199   3.118  17.427  0.3345 -0.1640 -0.0159
  543TMC3     H 8115   1.151   3.006  17.608  1.5911 -0.3931  0.1037
  543TMC3    H1 8116   1.039   3.415  17.622 -0.6650 -0.9529 -1.6620
  543TMC3    H2 8117   1.113   3.186   0.234 -0.8574 -0.5455 -0.2103
  543TMC3    C7 8118   0.986   3.389   0.146  0.5911  0.4408  0.7744
  543TMC3    C8 8119   1.171   2.955   0.112 -0.2891 -0.1188 -1.0131
  543TMC3    O1 8120   0.936   3.332   0.240  0.3909 -0.3061  0.4134
  543TMC3    O2 8121   1.234   2.884   0.038 -0.1779  0.1664  0.4966
  544MPD2     C 8122   1.060   2.531   0.395 -0.0244 -0.2264  0.6180
  544MPD2    C1 8123   1.120   2.549   0.272  0.5471 -0.3245 -0.1161
  544MPD2    C2 8124   1.152   2.676   0.222 -0.8146 -0.4809  0.0432
  544MPD2    C3 8125   1.114   2.787   0.288 -0.7640  1.0833  0.2521
  544MPD2    C4 8126   1.070   2.770   0.419  0.4364 -0.3282 -0.1962
  544MPD2    C5 8127   1.032   2.646   0.471  0.3590  0.1199  0.4535
  544MPD2     H 8128   1.203   2.696   0.128 -2.2230 -0.8711 -0.7968
  544MPD2    H1 8129   1.051   2.850   0.490  1.6078 -0.6584  0.4880
  544MPD2    H2 8130   1.038   2.430   0.425  1.3101 -0.7959 -0.3533
  544MPD2    H3 8131   0.969   2.635   0.558  0.8757 -2.8081  0.4558
  544MPD2     N 8132   1.123   2.922   0.239 -0.4340 -0.4054  0.0573
  544MPD2    H5 8133   1.104   3.001   0.301  0.5267  0.2494 -0.4936
  544MPD2    N1 8134   1.153   2.434   0.194  0.1646 -0.4574  0.2571
  544MPD2    H7 8135   1.112   2.349   0.232  2.0260 -0.3688  2.4463
  545TMC3    C1 8136   1.271   2.296   0.051  0.4597 -0.1208 -0.0816
  545TMC3    C2 8137   1.303   2.261  17.672  0.5266  0.5841  0.0905
  545TMC3    C3 8138   1.352   2.136  17.648  0.7483 -0.0863 -0.4987
  545TMC3    C4 8139   1.295   2.223   0.159 -0.6439  0.1378 -0.2985
  545TMC3    C5 8140   1.364   2.111   0.138  0.4067  0.0279  1.0677
  545TMC3    C6 8141   1.387   2.060   0.012  0.1127 -0.6182  0.1625
  545TMC3     C 8142   1.221   2.427   0.074  0.3319 -0.5688 -0.9864
  545TMC3     O 8143   1.237   2.509  17.736 -0.3119  0.3345 -0.3165
  545TMC3     H 8144   1.276   2.324  17.588  1.8615  1.3272  0.2266
  545TMC3    H1 8145   1.282   2.252   0.262 -1.3741 -0.2294 -0.2847
  545TMC3    H2 8146   1.417   1.956   0.005 -0.6339 -0.8804  0.9557
  545TMC3    C7 8147   1.376   2.020   0.249  0.7225 -0.7413 -0.0433
  545TMC3    C8 8148   1.366   2.094  17.515  0.2307  0.3004  0.2525
  545TMC3    O1 8149   1.305   2.041   0.344 -0.1631 -0.6098 -0.4433
  545TMC3    O2 8150   1.311   2.163  17.428 -0.2674  0.6420  0.5588
  546MPD2     C 8151   2.930   2.954  17.355  0.2014 -0.5728 -0.7588
  546MPD2    C1 8152   2.832   3.002  17.273  0.0013  0.1580  0.0622
  546MPD2    C2 8153   2.811   3.138  17.267  0.1543  0.7107  0.2029
  546MPD2    C3 8154   2.875   3.220  17.362  0.5740 -0.0887  0.0935
  546MPD2    C4 8155   2.956   3.163  17.454 -0.9019  0.7115 -0.5931
  546MPD2    C5 8156   2.976   3.028  17.459 -0.5478 -0.1860  0.1956
  546MPD2     H 8157   2.749   3.179  17.188 -0.2745 -2.5317 -1.1510
  546MPD2    H1 8158   3.013   3.228  17.519 -2.4360  2.1748 -0.6849
  546MPD2    H2 8159   2.953   2.848  17.356 -1.7025 -0.9430  3.5100
  546MPD2    H3 8160   3.047   2.998  17.535  1.9596  1.0548 -1.6631
  546MPD2     N 8161   2.872   3.359  17.350 -0.1792 -0.5453 -0.2877
  546MPD2    H5 8162   2.925   3.414  17.417  2.9390 -1.1251 -2.2879
  546MPD2    N1 8163   2.756   2.903  17.204  0.1290 -0.0141 -0.3729
  546MPD2    H7 8164   2.772   2.806  17.227 -0.6202 -0.0061  0.2048
  547TMC3    C1 8165   2.572   2.802  17.110 -0.1039 -0.3049 -0.3385
  547TMC3    C2 8166   2.477   2.808  17.008 -0.2517 -0.6323 -0.4186
  547TMC3    C3 8167   2.365   2.731  17.028 -0.1634  0.2205 -0.4085
  547TMC3    C4 8168   2.554   2.715  17.213 -0.2030 -0.8259  0.4720
  547TMC3    C5 8169   2.455   2.627  17.214  0.0754  0.1429 -0.2150
  547TMC3    C6 8170   2.365   2.627  17.114 -0.1529  0.1414 -0.1811
  547TMC3     C 8171   2.650   2.931  17.126  0.4038  0.1105  0.3428
  547TMC3     O 8172   2.615   3.036  17.075 -0.2407  0.4497 -0.1992
  547TMC3     H 8173   2.490   2.887  16.935 -0.1648 -0.0609  0.2114
  547TMC3    H1 8174   2.620   2.721  17.300  1.3186 -3.8948 -0.4752
  547TMC3    H2 8175   2.285   2.554  17.124  0.6644 -0.8043 -0.4769
  547TMC3    C7 8176   2.423   2.546  17.329 -0.9923  0.5924 -0.1081
  547TMC3    C8 8177   2.237   2.768  16.965 -0.4413 -0.5980 -0.4522
  547TMC3    O1 8178   2.312   2.502  17.334 -0.2326 -0.0336 -0.0106
  547TMC3    O2 8179   2.136   2.716  17.008 -0.1432 -0.0612 -0.1319
  548MPD2     C 8180   2.479   3.516  12.907 -0.2296 -0.0579  0.0553
  548MPD2    C1 8181   2.403   3.417  12.855  0.5430  1.1021 -0.1492
  548MPD2    C2 8182   2.452   3.286  12.851 -0.3119 -0.2493 -0.2214
  548MPD2    C3 8183   2.567   3.249  12.910 -0.1947 -0.6874 -0.4250
  548MPD2    C4 8184   2.635   3.350  12.977  0.2605 -0.4350 -0.6246
  548MPD2    C5 8185   2.596   3.479  12.966 -0.1191 -0.1102  0.2616
  548MPD2     H 8186   2.386   3.209  12.811 -2.5542  1.1461  0.8161
  548MPD2    H1 8187   2.733   3.334  13.022  0.4749 -0.0279 -0.9421
  548MPD2    H2 8188   2.439   3.611  12.941 -0.3917 -0.3470  0.6637
  548MPD2    H3 8189   2.672   3.551  12.994 -0.7063  0.2211  0.9803
  548MPD2     N 8190   2.612   3.117  12.902 -0.0170  0.3918 -0.2359
  548MPD2    H5 8191   2.548   3.044  12.871 -0.6439  1.2182 -0.8857
  548MPD2    N1 8192   2.273   3.452  12.810  0.3794  0.2304  0.0352
  548MPD2    H7 8193   2.245   3.549  12.802  1.7439  0.4762 -1.5191
  549TMC3    C1 8194   2.037   3.421  12.803  1.2942  0.5587 -0.0772
  549TMC3    C2 8195   2.024   3.550  12.764  0.7781  0.2092 -0.8142
  549TMC3    C3 8196   1.898   3.601  12.774 -0.0501 -0.0469  0.5329
  549TMC3    C4 8197   1.932   3.340  12.846  0.0997  0.0100  0.3536
  549TMC3    C5 8198   1.811   3.402  12.857 -0.7540  0.5596  0.3601
  549TMC3    C6 8199   1.795   3.533  12.826 -0.2423 -0.1316 -0.9812
  549TMC3     C 8200   2.172   3.358  12.813  0.5238 -0.1945 -1.0952
  549TMC3     O 8201   2.176   3.241  12.845  0.5781  0.5450 -0.4450
  549TMC3     H 8202   2.095   3.611  12.710 -2.3650 -0.2553 -5.3937
  549TMC3    H1 8203   1.955   3.240  12.882 -0.3650 -1.0703 -2.3785
  549TMC3    H2 8204   1.700   3.584  12.820 -0.2639 -0.1145 -0.4975
  549TMC3    C7 8205   1.698   3.327  12.910  0.1061 -0.0672 -0.3190
  549TMC3    C8 8206   1.874   3.738  12.729 -0.4140 -0.1932 -0.9609
  549TMC3    O1 8207   1.591   3.381  12.898 -0.6371  0.1590  0.5256
  549TMC3    O2 8208   1.757   3.768  12.701  0.0541  0.2733 -0.4542
  550TMC3    C1 8209   0.993   1.516  12.486  0.0359  0.5911  0.3151
  550TMC3    C2 8210   0.947   1.596  12.586  0.7337 -0.2222  0.2177
  550TMC3    C3 8211   0.961   1.731  12.565 -0.6428 -0.2181  0.1089
  550TMC3    C4 8212   1.058   1.572  12.379  0.1777  0.2476  0.5546
  550TMC3    C5 8213   1.063   1.707  12.358 -0.5983 -0.2875 -0.3951
  550TMC3    C6 8214   1.018   1.792  12.455  0.3235 -0.1352  0.8645
  550TMC3     C 8215   0.897   1.404  12.461 -0.1320  0.0808  0.0755
  550TMC3     O 8216   0.857   1.341  12.557 -0.5135 -0.0161 -0.4321
  550TMC3     H 8217   0.900   1.553  12.673  0.3851  2.5474  1.3731
  550TMC3    H1 8218   1.070   1.500  12.299  2.6587  0.7025  0.5267
  550TMC3    H2 8219   1.006   1.898  12.438 -3.8224 -0.7043  0.4579
  550TMC3    C7 8220   1.003   1.737  12.230  0.6591 -0.0464  0.4572
  550TMC3    C8 8221   0.928   1.805  12.687 -0.3203 -0.8144  0.0809
  550TMC3    O1 8222   0.934   1.648  12.186 -0.4060 -1.0460 -0.0336
  550TMC3    O2 8223   1.004   1.897  12.716 -0.4496  0.2572 -0.2663
  551TMC3    C1 8224   3.416   4.236  13.600  0.1565 -0.2423 -0.1828
  551TMC3    C2 8225   3.547   4.206  13.564  0.0798 -0.1133  0.1463
  551TMC3    C3 8226   3.655   4.267  13.620  0.6313  0.1352 -0.3126
  551TMC3    C4 8227   3.396   4.344  13.682  0.7814  0.4592  0.0962
  551TMC3    C5 8228   3.507   4.407  13.735  0.5753 -0.3806  0.5626
  551TMC3    C6 8229   3.636   4.369  13.703  0.0870 -0.7511 -0.3335
  551TMC3     C 8230   3.318   4.194  13.503 -0.3792 -0.2787  0.2458
  551TMC3     O 8231   3.356   4.179  13.388  0.4455  0.0451  0.1692
  551TMC3     H 8232   3.576   4.138  13.485  1.8381  1.2322 -0.3795
  551TMC3    H1 8233   3.298   4.380  13.711  0.0515 -0.2879 -1.4461
  551TMC3    H2 8234   3.727   4.414  13.741 -1.2206  1.2989  0.4027
  551TMC3    C7 8235   3.498   4.466  13.870  0.3941 -0.2605 -0.7039
  551TMC3    C8 8236   3.784   4.238  13.561 -0.5128 -0.1363  0.2527
  551TMC3    O1 8237   3.604   4.505  13.918 -0.3531 -0.0774  0.3070
  551TMC3    O2 8238   3.810   4.122  13.525 -0.2210 -0.4648  0.6604
  552MPD2     C 8239   0.344   1.038  14.743 -0.2749 -0.0741 -0.1045
  552MPD2    C1 8240   0.429   1.078  14.636 -0.0184 -0.0098  0.2414
  552MPD2    C2 8241   0.557   1.113  14.661 -0.0107 -0.4609 -1.2660
  552MPD2    C3 8242   0.611   1.106  14.794  0.1656 -0.3010  0.9179
  552MPD2    C4 8243   0.531   1.052  14.895  0.1927  0.6153  0.3976
  552MPD2    C5 8244   0.398   1.016  14.868  0.3553  0.1039 -0.5873
  552MPD2     H 8245   0.606   1.169  14.582  0.4829  2.3659  1.0135
  552MPD2    H1 8246   0.565   1.050  14.998  1.7045  1.1864 -0.0800
  552MPD2    H2 8247   0.242   1.005  14.728 -0.4116  0.9815 -1.5098
  552MPD2    H3 8248   0.349   0.977  14.956  1.0287 -0.7150 -0.5758
  552MPD2     N 8249   0.741   1.136  14.841  0.1934  0.2939 -0.2490
  552MPD2    H5 8250   0.767   1.122  14.938  1.1242  0.8360 -0.4121
  552MPD2    N1 8251   0.385   1.102  14.500 -0.2163  0.8944  0.3310
  552MPD2    H7 8252   0.444   1.134  14.423  0.1758 -2.0822 -0.6138
  553TMC3    C1 8253   0.231   1.143  14.319  0.0527 -0.0284 -0.6351
  553TMC3    C2 8254   0.326   1.218  14.255  0.3052 -0.8474  0.0809
  553TMC3    C3 8255   0.306   1.233  14.125  0.3324  0.0216  0.0075
  553TMC3    C4 8256   0.133   1.062  14.258 -0.1199 -0.0774 -0.3398
  553TMC3    C5 8257   0.142   1.071  14.120 -0.7954  0.8549 -0.5051
  553TMC3    C6 8258   0.233   1.146  14.055  0.6514  0.1628  0.2530
  553TMC3     C 8259   0.251   1.098  14.462 -0.1043  0.9248 -0.5633
  553TMC3     O 8260   0.152   1.052  14.515  0.0692  0.1697 -0.1098
  553TMC3     H 8261   0.407   1.276  14.297  0.2317 -1.0474  0.5012
  553TMC3    H1 8262   0.080   0.990  14.318 -0.4780 -0.3817 -1.0191
  553TMC3    H2 8263   0.232   1.150  13.947 -1.8449 -1.8049  0.1940
  553TMC3    C7 8264   0.122   0.947  14.054  0.6661 -0.0979 -0.3024
  553TMC3    C8 8265   0.418   1.288  14.048  0.3050 -0.8462 -0.2101
  553TMC3    O1 8266   0.021   0.932  13.988 -0.7333  0.2029  0.5307
  553TMC3    O2 8267   0.531   1.271  14.090  0.4060 -0.2762 -0.2254
  554TMC3    C1 8268   2.467   4.729  11.515 -0.0166 -0.0378 -0.2275
  554TMC3    C2 8269   2.351   0.028  11.452 -0.3972 -0.3249  0.1090
  554TMC3    C3 8270   2.371   0.052  11.318  0.5373 -0.5990 -0.4089
  554TMC3    C4 8271   2.599   4.722  11.461 -0.1667 -0.8090  0.4376
  554TMC3    C5 8272   2.607   0.015  11.328  0.9578 -0.3515 -0.7035
  554TMC3    C6 8273   2.495   0.043  11.258  0.7292 -0.1679  0.7145
  554TMC3     C 8274   2.450   4.677  11.653 -0.1357 -0.1669 -0.1215
  554TMC3     O 8275   2.335   4.690  11.698  0.0241 -0.1665 -0.2573
  554TMC3     H 8276   2.259   0.062  11.499 -0.1656 -0.1654  0.4532
  554TMC3    H1 8277   2.687   4.686  11.512  0.4157  0.0642  0.0573
  554TMC3    H2 8278   2.491   0.072  11.154 -0.7591 -2.2471  0.1854
  554TMC3    C7 8279   2.728   0.075  11.275 -0.3836 -0.0745  0.0657
  554TMC3    C8 8280   2.275   0.143  11.252 -0.1072 -0.2103  0.2621
  554TMC3    O1 8281   2.731   0.104  11.156  0.1077  0.5759  0.1244
  554TMC3    O2 8282   2.325   0.226  11.180  0.1958 -0.0817  0.0040
  555TMC3    C1 8283   1.545   0.324  15.542 -0.2648 -0.9392 -0.2261
  555TMC3    C2 8284   1.500   0.401  15.649  0.3258 -0.0639  0.8505
  555TMC3    C3 8285   1.496   0.338  15.768 -0.4217  0.7994 -0.6238
  555TMC3    C4 8286   1.594   0.201  15.555 -0.8614  0.0632 -0.2576
  555TMC3    C5 8287   1.587   0.143  15.677  0.3163  0.1830  0.0178
  555TMC3    C6 8288   1.535   0.213  15.785  0.6694 -0.2902 -0.5539
  555TMC3     C 8289   1.560   0.379  15.409  0.2112  0.1734 -0.3392
  555TMC3     O 8290   1.650   0.332  15.341 -0.4405 -0.3855  0.1743
  555TMC3     H 8291   1.462   0.503  15.640  1.5860  0.1639 -1.9132
  555TMC3    H1 8292   1.639   0.147  15.472 -2.9859 -0.9594 -0.7300
  555TMC3    H2 8293   1.519   0.163  15.880  1.3611  3.2777  1.4869
  555TMC3    C7 8294   1.607   0.001  15.696  0.4261  0.2405  0.8926
  555TMC3    C8 8295   1.468   0.419  15.880  0.2747  0.0439 -1.0297
  555TMC3    O1 8296   1.571   4.652  15.614 -0.1302  0.5432  0.5879
  555TMC3    O2 8297   1.395   0.515  15.862  0.3765  0.0680 -0.8560
  556MPD2     C 8298   4.599   2.427  11.167 -0.2759  0.6040  0.2480
  556MPD2    C1 8299   4.535   2.312  11.203 -0.5984  0.6763  0.6441
  556MPD2    C2 8300   4.467   2.235  11.110 -0.5225  0.1354 -0.1447
  556MPD2    C3 8301   4.488   2.254  10.980 -0.4700  0.2617 -0.1960
  556MPD2    C4 8302   4.576   2.358  10.948 -0.1776 -0.2786 -0.1569
  556MPD2    C5 8303   4.610   2.456  11.035 -0.3998  0.5175  0.2402
  556MPD2     H 8304   4.402   2.154  11.141  0.5377  0.6050  3.2783
  556MPD2    H1 8305   4.604   2.378  10.845 -1.7342 -1.2230 -0.7608
  556MPD2    H2 8306   4.648   2.497  11.234  1.1393 -0.2340  0.0915
  556MPD2    H3 8307   4.658   2.546  11.000  0.4948 -0.3018 -0.6673
  556MPD2     N 8308   4.411   2.180  10.889  0.0833 -0.1373  0.7560
  556MPD2    H5 8309   4.351   2.113  10.935 -0.1443  0.0759  0.7651
  556MPD2    N1 8310   4.502   2.285  11.342 -0.5610 -0.5397 -0.3862
  556MPD2    H7 8311   4.420   2.229  11.359 -0.3348 -0.3946  1.1833
  557TMC3    C1 8312   4.374   2.064  10.678 -0.6255  0.4311  0.0445
  557TMC3    C2 8313   4.306   2.091  10.562  0.2989 -0.2236 -0.0519
  557TMC3    C3 8314   4.239   1.990  10.498  0.4915 -0.5012  0.2007
  557TMC3    C4 8315   4.361   1.941  10.741 -0.1000 -0.0409 -0.5208
  557TMC3    C5 8316   4.283   1.844  10.678 -0.1630 -0.4225  0.2671
  557TMC3    C6 8317   4.235   1.860  10.550  0.2693  0.5360  0.1091
  557TMC3     C 8318   4.432   2.177  10.750  0.3470 -0.2815 -1.1768
  557TMC3     O 8319   4.499   2.252  10.680  0.0421  0.3493  0.0569
  557TMC3     H 8320   4.330   2.186  10.516 -1.0663  0.5978  0.9194
  557TMC3    H1 8321   4.410   1.921  10.835  0.9527 -0.5245 -1.1736
  557TMC3    H2 8322   4.197   1.774  10.498  0.2029  0.1888  0.7256
  557TMC3    C7 8323   4.259   1.713  10.750  0.0204  0.0507  0.4681
  557TMC3    C8 8324   4.217   2.001  10.360 -0.5787 -0.3677  0.1768
  557TMC3    O1 8325   4.182   1.638  10.693 -0.2575  0.1155 -0.5141
  557TMC3    O2 8326   4.279   2.097  10.315  0.1435 -0.1625 -0.2326
  558TMC3    C1 8327   2.040   3.789  10.615 -0.3318  0.6985 -0.8271
  558TMC3    C2 8328   1.905   3.750  10.617  0.7367 -0.2944  0.4028
  558TMC3    C3 8329   1.816   3.815  10.533  0.3946  0.5632  0.0310
  558TMC3    C4 8330   2.078   3.899  10.549  0.3972  0.7111 -0.1086
  558TMC3    C5 8331   1.989   3.969  10.472  0.1045 -0.7098  0.3059
  558TMC3    C6 8332   1.860   3.925  10.457  0.2803  0.1196  0.1084
  558TMC3     C 8333   2.123   3.747  10.726 -0.3889  0.1769  0.1342
  558TMC3     O 8334   2.243   3.760  10.704 -0.1323  0.0565  0.2634
  558TMC3     H 8335   1.874   3.662  10.672  0.2306 -1.0693 -1.1336
  558TMC3    H1 8336   2.185   3.920  10.549  0.4683  0.3501 -0.2576
  558TMC3    H2 8337   1.791   3.987  10.401 -1.3311 -0.8516  1.0021
  558TMC3    C7 8338   2.009   4.107  10.428  0.1418  0.4832  0.7311
  558TMC3    C8 8339   1.707   3.851  10.619  0.2533 -0.7023 -0.0612
  558TMC3    O1 8340   1.950   4.134  10.329 -0.6626 -0.0313  0.2567
  558TMC3    O2 8341   1.600   3.894  10.578  0.0630 -0.0898  0.8720
  559MPD2     C 8342   2.264   0.065  10.862 -0.0612 -0.3267  0.4870
  559MPD2    C1 8343   2.232   4.698  10.942  0.1616  0.0999 -0.6093
  559MPD2    C2 8344   2.333   4.616  10.986  0.5728  0.0731 -0.2132
  559MPD2    C3 8345   2.465   4.643  10.950  0.0648  0.4228 -0.1680
  559MPD2    C4 8346   2.492   0.005  10.861  0.4050 -0.5310 -0.4421
  559MPD2    C5 8347   2.389   0.086  10.828  0.0967  0.6008  0.1057
  559MPD2     H 8348   2.308   4.534  11.051  0.4939 -0.1802 -0.5617
  559MPD2    H1 8349   2.587   0.032  10.816  0.4270  0.2626  0.0957
  559MPD2    H2 8350   2.185   0.130  10.827  1.1979  0.7805 -0.3276
  559MPD2    H3 8351   2.417   0.169  10.764 -0.8748  0.0810 -0.9967
  559MPD2     N 8352   2.566   4.549  10.987  0.2535 -0.6189  0.4177
  559MPD2    H5 8353   2.543   4.473  11.050  0.8014 -1.4438 -0.3727
  559MPD2    N1 8354   2.093   4.672  10.956 -0.5857  0.0981 -0.2206
  559MPD2    H7 8355   2.034   4.733  10.900  0.8235  1.2217 -0.4894
  560TMC3    C1 8356   2.769   4.445  11.034 -0.3823  0.4436  0.6760
  560TMC3    C2 8357   2.695   4.327  11.045 -0.1553 -0.4181 -0.4064
  560TMC3    C3 8358   2.755   4.226  11.109  0.4651 -0.2754 -0.4403
  560TMC3    C4 8359   2.903   4.455  11.059 -0.2956 -0.0957 -0.4278
  560TMC3    C5 8360   2.962   4.339  11.114  0.1671  0.2394  0.1872
  560TMC3    C6 8361   2.887   4.232  11.153  0.1267  0.5528 -0.0035
  560TMC3     C 8362   2.702   4.560  10.963 -0.5286  0.5110 -0.4804
  560TMC3     O 8363   2.763   4.656  10.920 -0.4551 -0.2384  0.3398
  560TMC3     H 8364   2.591   4.318  11.016 -0.1208 -1.3937 -0.2305
  560TMC3    H1 8365   2.961   4.542  11.029  2.7219 -2.3122 -0.9736
  560TMC3    H2 8366   2.932   4.140  11.188  0.5972  1.6918  2.3933
  560TMC3    C7 8367   3.102   4.327  11.153  0.8388 -0.0346 -0.2190
  560TMC3    C8 8368   2.656   4.155  11.189  0.2675 -1.1251 -0.0705
  560TMC3    O1 8369   3.121   4.240  11.235 -0.3632  0.0745 -0.2841
  560TMC3    O2 8370   2.540   4.147  11.155 -0.1280 -0.2506  0.0651
  561TMC3    C1 8371   4.710   3.596  11.574  0.5690  0.7385 -0.4383
  561TMC3    C2 8372   4.576   3.604  11.613 -0.5690 -0.0171 -0.6596
  561TMC3    C3 8373   4.493   3.655  11.517  0.8024  0.5206  0.0567
  561TMC3    C4 8374   0.030   3.644  11.460 -1.0994  0.6463  0.0067
  561TMC3    C5 8375   4.678   3.687  11.366  0.2174 -0.1922 -0.3988
  561TMC3    C6 8376   4.547   3.696  11.393 -0.1635  0.6428 -0.1866
  561TMC3     C 8377   0.058   3.550  11.687 -0.5624 -0.6899  0.0155
  561TMC3     O 8378   0.005   3.513  11.788  0.0741  1.0323  0.3159
  561TMC3     H 8379   4.533   3.557  11.701  0.4123 -2.8612 -1.7178
  561TMC3    H1 8380   0.132   3.625  11.429 -1.8599 -0.8990 -1.5085
  561TMC3    H2 8381   4.477   3.729  11.318 -1.5502  2.7703  2.0226
  561TMC3    C7 8382   4.719   3.725  11.233 -0.2779  0.1728 -0.3396
  561TMC3    C8 8383   4.351   3.640  11.546  0.0001  0.4086 -0.5197
  561TMC3    O1 8384   4.634   3.706  11.144 -0.2954  0.4269 -0.4347
  561TMC3    O2 8385   4.274   3.631  11.451  0.3553  1.5047  1.1815
  562TMC3    C1 8386   1.327   0.612  16.710 -0.0589 -0.7553  0.0167
  562TMC3    C2 8387   1.246   0.711  16.697 -0.0204 -0.8481  0.9289
  562TMC3    C3 8388   1.136   0.696  16.620 -0.7256  0.2917  0.0625
  562TMC3    C4 8389   1.306   0.486  16.665  0.1020  0.3675  0.1254
  562TMC3    C5 8390   1.198   0.470  16.583  0.7835 -0.1874 -0.4986
  562TMC3    C6 8391   1.109   0.574  16.563 -0.6606 -0.6672  0.0845
  562TMC3     C 8392   1.409   0.621  16.826  0.2521 -0.3428 -0.4082
  562TMC3     O 8393   1.366   0.704  16.908 -0.3294 -0.3382  0.0129
  562TMC3     H 8394   1.257   0.805  16.750 -1.2817  0.0607 -0.4216
  562TMC3    H1 8395   1.368   0.400  16.685 -0.9420 -0.4655 -0.2078
  562TMC3    H2 8396   1.011   0.546  16.528 -1.3768  1.1342  0.6499
  562TMC3    C7 8397   1.197   0.365  16.483 -0.1100  0.4185  0.3855
  562TMC3    C8 8398   1.049   0.816  16.598  0.1331 -0.2367 -0.6442
  562TMC3    O1 8399   1.138   0.391  16.380 -0.1980  0.5814 -0.1015
  562TMC3    O2 8400   1.071   0.912  16.672 -0.5796 -0.2493  0.2336
  563MPD2     C 8401   3.617   1.890  16.256 -0.1520  0.3273  0.7248
  563MPD2    C1 8402   3.675   1.796  16.339  0.3606 -0.3272 -0.0823
  563MPD2    C2 8403   3.818   1.788  16.322  0.3477  0.7895 -0.1330
  563MPD2    C3 8404   3.892   1.862  16.228  0.6378  0.3889  1.0208
  563MPD2    C4 8405   3.830   1.964  16.167 -0.1410 -0.4205  0.4641
  563MPD2    C5 8406   3.692   1.973  16.171 -0.7817  0.3141 -0.2804
  563MPD2     H 8407   3.866   1.708  16.376  0.6125 -0.3808 -2.0870
  563MPD2    H1 8408   3.874   2.027  16.091  1.5682  0.6954  2.3486
  563MPD2    H2 8409   3.509   1.903  16.252 -0.2789 -1.0283 -0.4687
  563MPD2    H3 8410   3.647   2.055  16.116  3.0826  2.5530 -0.1873
  563MPD2     N 8411   4.029   1.840  16.217 -0.1675  0.5603 -0.1706
  563MPD2    H5 8412   4.075   1.766  16.268 -2.4679 -0.5740  0.2935
  563MPD2    N1 8413   3.615   1.716  16.441  0.1072  0.0982  0.3763
  563MPD2    H7 8414   3.672   1.660  16.504  2.4004 -0.6245 -2.3957
  564TMC3    C1 8415   3.451   1.617  16.566  0.0418 -0.7351  0.1977
  564TMC3    C2 8416   3.348   1.527  16.549 -0.4979  0.0786 -0.1666
  564TMC3    C3 8417   3.320   1.430  16.642  1.0776  0.4909  0.2824
  564TMC3    C4 8418   3.543   1.592  16.669 -0.5163 -0.1134 -0.6841
  564TMC3    C5 8419   3.522   1.483  16.748  0.1086 -0.8273 -0.3860
  564TMC3    C6 8420   3.408   1.404  16.741 -0.0046 -0.5700  0.1622
  564TMC3     C 8421   3.477   1.703  16.456 -0.2058  0.4316  0.7613
  564TMC3     O 8422   3.389   1.748  16.388  0.2835 -0.1007  0.2239
  564TMC3     H 8423   3.267   1.552  16.481 -0.0733  3.7866  0.6551
  564TMC3    H1 8424   3.620   1.664  16.697 -0.2874  0.0384 -1.7285
  564TMC3    H2 8425   3.385   1.320  16.806 -4.7867  0.0100 -0.8491
  564TMC3    C7 8426   3.627   1.444  16.848 -0.1468  0.2332 -0.4653
  564TMC3    C8 8427   3.270   1.308  16.587  0.6427  0.0765  0.0429
  564TMC3    O1 8428   3.722   1.524  16.851 -0.3712 -0.0150  0.2081
  564TMC3    O2 8429   3.255   1.215  16.668 -0.1877  0.1037 -0.1976
  565TMC3    C1 8430   4.241   2.517  10.873  0.5247  0.8039 -0.0154
  565TMC3    C2 8431   4.191   2.449  10.983 -0.4024 -0.3760 -0.1736
  565TMC3    C3 8432   4.095   2.356  10.955 -0.4860  0.4319 -0.2558
  565TMC3    C4 8433   4.209   2.490  10.744  0.1134 -0.8465  0.1925
  565TMC3    C5 8434   4.105   2.397  10.729  0.1527 -0.1360  0.2267
  565TMC3    C6 8435   4.040   2.334  10.832  0.6275 -0.1576 -0.1397
  565TMC3     C 8436   4.327   2.628  10.897 -0.4080  0.0344  0.4803
  565TMC3     O 8437   4.374   2.683  10.799  0.3824 -0.8599 -0.8695
  565TMC3     H 8438   4.213   2.468  11.087  0.3123 -0.4508 -0.3102
  565TMC3    H1 8439   4.252   2.545  10.661 -0.0915 -1.2976 -0.2169
  565TMC3    H2 8440   3.970   2.255  10.807  0.1735 -0.1479  1.0800
  565TMC3    C7 8441   4.051   2.361  10.597  0.3010  0.5670 -0.3115
  565TMC3    C8 8442   4.030   2.296  11.073  0.3633  0.4939 -0.2073
  565TMC3    O1 8443   3.972   2.264  10.589 -0.5464 -0.4660  0.1290
  565TMC3    O2 8444   4.098   2.301  11.174 -0.4120 -0.0913  0.1499
  566MPD2     C 8445   0.910   3.947  14.372 -0.4649 -0.2950  0.3073
  566MPD2    C1 8446   0.929   4.079  14.337 -0.0263 -0.7452 -0.2033
  566MPD2    C2 8447   0.823   4.134  14.268  0.0837  0.1223  0.8519
  566MPD2    C3 8448   0.699   4.075  14.239  0.0259  0.6764  0.9031
  566MPD2    C4 8449   0.677   3.950  14.288  0.0986 -0.8505  0.4043
  566MPD2    C5 8450   0.789   3.889  14.343 -0.4932  0.0521  0.1855
  566MPD2     H 8451   0.842   4.232  14.228  1.8963 -0.7371 -0.3940
  566MPD2    H1 8452   0.589   3.888  14.277 -0.1665 -0.7670  2.0341
  566MPD2    H2 8453   0.986   3.887  14.422  0.8468  0.3242 -0.9510
  566MPD2    H3 8454   0.782   3.782  14.363 -1.3469  0.2373  0.8514
  566MPD2     N 8455   0.592   4.132  14.168  0.1986  0.7443 -0.1018
  566MPD2    H5 8456   0.498   4.097  14.187  0.5925  0.6552  1.6745
  566MPD2    N1 8457   1.053   4.129  14.352  0.3075  0.3630 -0.6560
  566MPD2    H7 8458   1.121   4.066  14.394 -0.0337  0.3093 -0.1938
  567TMC3    C1 8459   1.235   4.275  14.345 -0.8941  0.4562  0.2792
  567TMC3    C2 8460   1.297   4.376  14.275 -0.1065  0.1058 -0.1394
  567TMC3    C3 8461   1.384   4.457  14.344 -0.8738 -0.0242  0.8355
  567TMC3    C4 8462   1.284   4.253  14.475 -0.2539  0.2189 -0.3527
  567TMC3    C5 8463   1.385   4.324  14.527  0.6737  0.3152  0.4337
  567TMC3    C6 8464   1.433   4.435  14.467 -0.3105  0.0358  0.8522
  567TMC3     C 8465   1.094   4.249  14.308  0.1452 -0.6644 -0.0382
  567TMC3     O 8466   1.039   4.315  14.221  0.5219  0.5207 -0.4434
  567TMC3     H 8467   1.254   4.408  14.181 -0.0390 -1.2134 -0.6177
  567TMC3    H1 8468   1.242   4.180  14.542 -1.2150 -0.3203 -1.5387
  567TMC3    H2 8469   1.518   4.494  14.501 -0.3730  1.2829 -1.1851
  567TMC3    C7 8470   1.432   4.313  14.667  0.2658 -0.1895  0.1381
  567TMC3    C8 8471   1.418   4.582  14.276  0.3212 -0.3810  0.1690
  567TMC3    O1 8472   1.443   4.202  14.719  0.1256 -0.1190 -0.5579
  567TMC3    O2 8473   1.336   4.622  14.194  0.2872  0.6741  0.6215
  568MPD2     C 8474   3.251   4.641  16.873 -0.3558 -0.4260 -0.4583
  568MPD2    C1 8475   3.316   0.007  16.933  0.2668 -0.2739  0.0186
  568MPD2    C2 8476   3.327   0.126  16.859  0.0677  0.6614  0.3960
  568MPD2    C3 8477   3.304   0.131  16.721 -0.2638  0.1182  0.1552
  568MPD2    C4 8478   3.244   0.021  16.670 -0.3953  0.4295 -0.5709
  568MPD2    C5 8479   3.213   4.654  16.740  0.1272 -0.4869 -0.0637
  568MPD2     H 8480   3.358   0.221  16.901  0.9181  0.6842 -0.2803
  568MPD2    H1 8481   3.206   0.019  16.568  1.5994  1.9410 -1.3300
  568MPD2    H2 8482   3.230   4.541  16.911  2.0320 -0.5403  0.5600
  568MPD2    H3 8483   3.164   4.568  16.695 -0.1887 -1.0919  1.4491
  568MPD2     N 8484   3.356   0.229  16.639  0.2105  0.4698 -0.2063
  568MPD2    H5 8485   3.413   0.300  16.685 -1.0766  0.2240  1.7458
  568MPD2    N1 8486   3.334   0.011  17.070  0.3641 -0.3435  0.6996
  568MPD2    H7 8487   3.296   4.675  17.129  1.2620 -1.1235  0.3081
  569TMC3    C1 8488   3.411   0.372  16.472 -0.7109 -0.3292 -1.1472
  569TMC3    C2 8489   3.511   0.406  16.563 -0.6550  0.2833 -0.0145
  569TMC3    C3 8490   3.518   0.525  16.613 -0.2731 -0.4438  0.2688
  569TMC3    C4 8491   3.350   0.467  16.404 -0.8146 -0.4730  0.0206
  569TMC3    C5 8492   3.359   0.599  16.447  0.0189  0.3268  0.0628
  569TMC3    C6 8493   3.441   0.624  16.556 -0.2095  0.3216 -0.2251
  569TMC3     C 8494   3.346   0.249  16.507  0.7194  0.0102 -0.1958
  569TMC3     O 8495   3.272   0.197  16.429 -0.6360  0.3151  0.0942
  569TMC3     H 8496   3.574   0.327  16.602  1.8530  0.9900 -2.5969
  569TMC3    H1 8497   3.287   0.439  16.320 -2.5768  0.3457  1.0566
  569TMC3    H2 8498   3.429   0.717  16.609  1.1657 -0.5231  1.5751
  569TMC3    C7 8499   3.347   0.695  16.346 -0.1342  0.2126  0.0573
  569TMC3    C8 8500   3.515   0.525  16.766 -0.1599 -0.0824  0.1786
  569TMC3    O1 8501   3.323   0.669  16.230 -0.5623 -0.3660  0.8351
  569TMC3    O2 8502   3.516   0.413  16.820  0.0799  0.8941  0.3251
  570TMC3    C1 8503   2.790   3.968  16.419  0.0774  0.1131 -0.6655
  570TMC3    C2 8504   2.866   4.036  16.329 -0.3243  0.0196 -0.0669
  570TMC3    C3 8505   2.875   4.171  16.335  0.7322 -0.1735  1.2464
  570TMC3    C4 8506   2.732   4.034  16.521  0.2445 -0.5685 -0.4609
  570TMC3    C5 8507   2.737   4.172  16.519 -0.1704  0.4010 -0.2561
  570TMC3    C6 8508   2.802   4.248  16.423  0.3783 -0.0868 -0.7154
  570TMC3     C 8509   2.750   3.832  16.386  0.3273  0.6967  0.0438
  570TMC3     O 8510   2.769   3.787  16.275 -0.1685  0.3490 -0.1237
  570TMC3     H 8511   2.904   3.973  16.250 -0.5560  0.0424 -0.1959
  570TMC3    H1 8512   2.675   3.982  16.598 -2.1299  2.0003 -0.4710
  570TMC3    H2 8513   2.797   4.356  16.413 -0.1088 -0.0470 -0.0974
  570TMC3    C7 8514   2.651   4.246  16.610  0.4217 -0.5632  0.0243
  570TMC3    C8 8515   2.962   4.233  16.232  0.1349 -0.1567 -0.5844
  570TMC3    O1 8516   2.677   4.364  16.613 -0.5017 -0.1134 -0.1352
  570TMC3    O2 8517   3.027   4.332  16.253  0.5226 -0.6448  0.3862
  571MPD2     C 8518   1.060   0.855   0.023  0.5185 -0.5607  0.4180
  571MPD2    C1 8519   0.991   0.868   0.144 -0.4036 -0.3747  0.0956
  571MPD2    C2 8520   1.013   0.988   0.210 -0.1607 -0.6661  0.4487
  571MPD2    C3 8521   1.073   1.100   0.150  0.5843 -0.0334 -0.0883
  571MPD2    C4 8522   1.140   1.083   0.029  0.6739  0.2329  0.1928
  571MPD2    C5 8523   1.136   0.960  17.721  0.5769 -0.1229  0.3824
  571MPD2     H 8524   0.964   1.005   0.305  1.0392  0.6862  0.8158
  571MPD2    H1 8525   1.197   1.162  17.730 -1.0344  0.8540 -0.8226
  571MPD2    H2 8526   1.044   0.764  17.714  0.6731 -2.8509  3.9932
  571MPD2    H3 8527   1.182   0.944  17.624  1.4377 -0.9913  0.9375
  571MPD2     N 8528   1.096   1.224   0.217 -0.1066  0.9373  0.3087
  571MPD2    H5 8529   1.130   1.302   0.161  1.1631  0.0195 -0.2102
  571MPD2    N1 8530   0.925   0.754   0.196 -0.0897  0.3231  0.1892
  571MPD2    H7 8531   0.952   0.664   0.158  0.0452  1.5777 -2.6283
  572TMC3    C1 8532   1.111   1.381   0.402  0.3644 -0.1782 -0.5871
  572TMC3    C2 8533   1.079   1.409   0.536 -0.1432  0.6545 -0.9367
  572TMC3    C3 8534   1.134   1.525   0.589  0.3787 -0.3896 -0.4214
  572TMC3    C4 8535   1.171   1.477   0.323 -0.0631 -0.2013 -0.5455
  572TMC3    C5 8536   1.207   1.595   0.377 -0.4064  0.2085  0.3587
  572TMC3    C6 8537   1.191   1.622   0.514  0.0842 -0.7771 -0.0082
  572TMC3     C 8538   1.073   1.249   0.345 -0.3011 -0.2642  0.5860
  572TMC3     O 8539   1.036   1.172   0.429  0.7138 -0.2116 -0.1193
  572TMC3     H 8540   1.044   1.331   0.602  1.0051  0.6864 -0.2912
  572TMC3    H1 8541   1.197   1.450   0.221 -0.7276  0.0299 -0.7805
  572TMC3    H2 8542   1.229   1.719   0.546 -0.8369 -0.1514 -0.8178
  572TMC3    C7 8543   1.184   1.709   0.289 -0.5255 -0.0761  0.8309
  572TMC3    C8 8544   1.153   1.518   0.733  0.5727  0.1086  0.1907
  572TMC3    O1 8545   1.128   1.797   0.350  0.4723  0.3317  0.5309
  572TMC3    O2 8546   1.253   1.571   0.782 -0.1128  0.7079  0.5274
  573MPD2     C 8547   2.529   1.468   1.061  0.3821  0.0628 -0.4338
  573MPD2    C1 8548   2.395   1.476   1.024  0.0874  0.2288 -0.1057
  573MPD2    C2 8549   2.368   1.450   0.894 -0.3838  0.3217  0.6865
  573MPD2    C3 8550   2.468   1.431   0.797  0.2028  0.1301  0.1189
  573MPD2    C4 8551   2.596   1.433   0.836 -1.0182  0.4626 -0.5555
  573MPD2    C5 8552   2.624   1.451   0.970 -0.2666 -0.0616 -0.2183
  573MPD2     H 8553   2.266   1.436   0.859  0.4427 -0.7273 -1.3014
  573MPD2    H1 8554   2.683   1.428   0.771 -0.5900 -1.1295  0.1434
  573MPD2    H2 8555   2.563   1.480   1.163  0.5927 -1.1069 -0.3692
  573MPD2    H3 8556   2.725   1.450   1.008  0.6740 -0.9852 -2.7668
  573MPD2     N 8557   2.442   1.419   0.661  0.1366  0.3266  0.6073
  573MPD2    H5 8558   2.517   1.448   0.599 -0.4805 -0.6857 -0.6188
  573MPD2    N1 8559   2.297   1.508   1.120 -0.6624  0.4337 -0.3720
  573MPD2    H7 8560   2.316   1.500   1.220  3.1556  0.1913 -1.1170
  574TMC3    C1 8561   2.269   1.462   0.495  0.0533  0.3566  0.4030
  574TMC3    C2 8562   2.131   1.464   0.466 -0.3465  0.1597  0.2168
  574TMC3    C3 8563   2.059   1.572   0.421 -0.0498 -0.3529  0.5073
  574TMC3    C4 8564   2.337   1.574   0.460 -0.3231 -0.7194 -0.1696
  574TMC3    C5 8565   2.267   1.689   0.416 -0.5434  0.0142 -0.3661
  574TMC3    C6 8566   2.129   1.692   0.405  0.3510  1.2584  0.0466
  574TMC3     C 8567   2.311   1.395   0.614  0.4851  0.8290  0.0287
  574TMC3     O 8568   2.229   1.319   0.667 -0.5898  0.5445  0.3882
  574TMC3     H 8569   2.073   1.377   0.497  2.4529 -1.4356  0.9616
  574TMC3    H1 8570   2.442   1.580   0.485 -0.2747 -0.5882 -0.4022
  574TMC3    H2 8571   2.075   1.784   0.385 -0.0375  0.9120 -0.4952
  574TMC3    C7 8572   2.351   1.808   0.389  0.1314  0.0475 -0.5291
  574TMC3    C8 8573   1.916   1.575   0.457 -0.2291  0.0653  0.3025
  574TMC3    O1 8574   2.472   1.801   0.396 -0.4143  0.4734 -0.1126
  574TMC3    O2 8575   1.892   1.515   0.562  0.1777  0.1386 -0.4653
  575TMC3    C1 8576   4.024   2.328  11.854  0.0951 -0.3897 -0.7430
  575TMC3    C2 8577   3.923   2.307  11.948  1.3197 -0.3267 -0.0800
  575TMC3    C3 8578   3.827   2.219  11.916  0.6228 -0.0446 -0.1391
  575TMC3    C4 8579   4.030   2.246  11.745  0.0440 -0.6852 -0.4278
  575TMC3    C5 8580   3.927   2.161  11.714 -0.3416 -0.6663  0.3950
  575TMC3    C6 8581   3.820   2.147  11.799  0.4406  0.1138 -0.7673
  575TMC3     C 8582   4.067   2.461  11.817  0.1527  0.6366  0.8419
  575TMC3     O 8583   4.077   2.486  11.692 -0.3622 -0.3581  0.4297
  575TMC3     H 8584   3.913   2.369  12.036  0.0485 -0.7863  0.1016
  575TMC3    H1 8585   4.108   2.256  11.671 -0.4766 -0.1169 -0.8989
  575TMC3    H2 8586   3.737   2.081  11.774  0.8837 -0.1502 -1.5277
  575TMC3    C7 8587   3.911   2.141  11.572 -0.4114  0.2969 -0.4697
  575TMC3    C8 8588   3.715   2.224  12.011 -0.7580 -0.0006  0.7289
  575TMC3    O1 8589   4.010   2.118  11.503  0.1970  0.4670  0.2911
  575TMC3    O2 8590   3.728   2.286  12.114 -0.0866 -0.1748  0.2365
  576MPD2     C 8591   3.703   3.998  12.811 -0.0338  0.6798 -0.9437
  576MPD2    C1 8592   3.763   4.103  12.740 -0.1795  0.3345 -0.0829
  576MPD2    C2 8593   3.769   4.228  12.797  0.2721 -0.4888 -0.2297
  576MPD2    C3 8594   3.699   4.257  12.916 -0.1366 -0.1516  0.4402
  576MPD2    C4 8595   3.635   4.152  12.980  0.1547 -0.2783  0.7899
  576MPD2    C5 8596   3.643   4.026  12.928  1.0710  0.6363 -0.3557
  576MPD2     H 8597   3.825   4.304  12.743  0.3207  2.4672  3.9623
  576MPD2    H1 8598   3.603   4.152  13.083 -2.5093  0.5624 -0.0610
  576MPD2    H2 8599   3.711   3.896  12.776  2.2546  0.3635  0.5214
  576MPD2    H3 8600   3.593   3.946  12.983  0.3768  0.5393 -1.1201
  576MPD2     N 8601   3.713   4.385  12.972  0.2726 -0.6194  0.2183
  576MPD2    H5 8602   3.767   4.456  12.924 -0.1144 -0.4019  0.1083
  576MPD2    N1 8603   3.840   4.079  12.628  0.5907  0.7831 -0.9187
  576MPD2    H7 8604   3.912   4.145  12.599  2.1821 -1.6796 -2.5606
  577TMC3    C1 8605   3.909   3.992  12.421 -0.1245 -0.3749 -0.0266
  577TMC3    C2 8606   3.887   3.893  12.327  0.5532  0.0686 -0.5986
  577TMC3    C3 8607   3.967   3.888  12.218  0.0107 -0.1537  0.0445
  577TMC3    C4 8608   4.004   4.088  12.396  0.3099  0.3014  0.3456
  577TMC3    C5 8609   4.074   4.088  12.276 -0.9174 -0.5101 -0.4158
  577TMC3    C6 8610   4.056   3.988  12.184  0.2952  0.4604 -0.3838
  577TMC3     C 8611   3.822   3.977  12.541  0.8391  0.3599 -0.1944
  577TMC3     O 8612   3.741   3.883  12.546 -0.0820 -0.1232  0.9845
  577TMC3     H 8613   3.817   3.813  12.344  1.1072 -0.1137  0.8157
  577TMC3    H1 8614   4.013   4.179  12.455  2.4585 -0.9631  1.9493
  577TMC3    H2 8615   4.114   3.989  12.092  0.2685 -1.7467 -0.4382
  577TMC3    C7 8616   4.141   4.206  12.237  0.2519  0.3018  0.1391
  577TMC3    C8 8617   3.940   3.777  12.123  0.1412 -0.0674  0.3410
  577TMC3    O1 8618   4.209   4.257  12.322 -0.4956  0.2227  0.2941
  577TMC3    O2 8619   3.826   3.730  12.115 -0.3345  0.2650  0.5341
  578MPD2     C 8620   1.839   3.855   1.462 -0.2194  0.1978 -0.0450
  578MPD2    C1 8621   1.907   3.809   1.352  0.8137  0.1696 -0.6836
  578MPD2    C2 8622   2.029   3.743   1.366  0.1196 -0.4230  0.3371
  578MPD2    C3 8623   2.087   3.721   1.493  0.0975  0.5483 -0.6513
  578MPD2    C4 8624   2.014   3.764   1.603 -0.3140  0.3566 -0.2692
  578MPD2    C5 8625   1.897   3.833   1.583 -0.2800 -0.3473  0.5339
  578MPD2     H 8626   2.084   3.711   1.278 -1.2826 -0.2755 -0.5752
  578MPD2    H1 8627   2.039   3.746   1.707 -1.0377 -1.7227 -0.4429
  578MPD2    H2 8628   1.743   3.905   1.460 -0.3349  0.0194  1.0267
  578MPD2    H3 8629   1.840   3.876   1.665  1.0298  1.8842  0.2648
  578MPD2     N 8630   2.207   3.649   1.496  0.0699  0.4863 -0.4678
  578MPD2    H5 8631   2.246   3.618   1.408  2.8185  0.2482  0.8356
  578MPD2    N1 8632   1.835   3.827   1.229  0.3134  0.2038 -0.3186
  578MPD2    H7 8633   1.748   3.879   1.234 -0.6151 -1.4030  0.1562
  579TMC3    C1 8634   2.421   3.577   1.584  0.3776  0.0276  0.4921
  579TMC3    C2 8635   2.524   3.621   1.653  0.0700  0.4096 -0.3210
  579TMC3    C3 8636   2.647   3.567   1.616 -0.7680 -0.6401  0.3003
  579TMC3    C4 8637   2.428   3.477   1.489 -0.1696  0.5188  0.5118
  579TMC3    C5 8638   2.551   3.431   1.448  0.1878  0.5547 -0.1576
  579TMC3    C6 8639   2.663   3.477   1.514 -0.2672  0.0365  0.0742
  579TMC3     C 8640   2.296   3.649   1.605  0.1642  0.5633 -1.2616
  579TMC3     O 8641   2.291   3.723   1.697  0.9734  0.2533  0.0173
  579TMC3     H 8642   2.517   3.687   1.738 -0.6370  0.5162 -0.4640
  579TMC3    H1 8643   2.332   3.438   1.455 -0.0832  2.2010 -1.7283
  579TMC3    H2 8644   2.757   3.432   1.485 -0.4258 -0.9521  1.1001
  579TMC3    C7 8645   2.559   3.315   1.357  0.2858 -0.2624  0.2483
  579TMC3    C8 8646   2.762   3.618   1.692 -0.7349  0.1646 -0.0761
  579TMC3    O1 8647   2.650   3.229   1.367 -0.1499  0.2893 -0.2881
  579TMC3    O2 8648   2.732   3.680   1.793 -0.2011  0.7953  0.0471
  580TMC3    C1 8649   1.462   3.103  12.546  0.1590  0.2721 -0.1753
  580TMC3    C2 8650   1.411   3.108  12.417  0.0427 -0.5069  0.3041
  580TMC3    C3 8651   1.412   2.996  12.345  0.1357 -0.4484 -0.0479
  580TMC3    C4 8652   1.466   2.982  12.608 -0.7482 -0.4010  0.1302
  580TMC3    C5 8653   1.446   2.870  12.534 -0.0213  0.0754 -0.4015
  580TMC3    C6 8654   1.427   2.874  12.398  0.2112  0.0947  0.2253
  580TMC3     C 8655   1.573   3.203  12.563  0.4006 -0.3780  0.2341
  580TMC3     O 8656   1.551   3.318  12.521  0.3930 -0.2348 -0.0949
  580TMC3     H 8657   1.422   3.202  12.364 -0.0337 -1.6031 -1.6440
  580TMC3    H1 8658   1.518   2.988  12.704  0.3647  1.9353 -0.6145
  580TMC3    H2 8659   1.452   2.791  12.333 -1.1010 -1.7264  2.0464
  580TMC3    C7 8660   1.443   2.743  12.607  0.3128 -0.8819 -0.1012
  580TMC3    C8 8661   1.490   3.023  12.229  0.0288 -0.1737 -0.0323
  580TMC3    O1 8662   1.439   2.750  12.728  0.1826  0.8572 -0.9291
  580TMC3    O2 8663   1.437   3.080  12.135 -0.7425  0.0734 -0.6486
  581MPD2     C 8664   4.591   3.125  14.786  0.1127  0.4684  0.8747
  581MPD2    C1 8665   4.551   3.108  14.924 -0.8888  0.7618 -0.5150
  581MPD2    C2 8666   4.420   3.134  14.962 -0.0522 -0.3654  0.3597
  581MPD2    C3 8667   4.327   3.194  14.866  0.0216 -0.2716 -0.6233
  581MPD2    C4 8668   4.368   3.206  14.735  0.4476 -0.2226  0.2851
  581MPD2    C5 8669   4.499   3.171  14.699 -0.3146 -0.3546  0.6046
  581MPD2     H 8670   4.380   3.126  15.063 -2.2188 -0.1897 -0.4801
  581MPD2    H1 8671   4.303   3.254  14.662 -0.2105  1.1433  1.7722
  581MPD2    H2 8672   4.691   3.099  14.753 -1.0193 -2.6617 -0.1028
  581MPD2    H3 8673   4.536   3.193  14.599  1.9936 -1.5745  1.2030
  581MPD2     N 8674   4.206   3.239  14.913 -0.5933 -0.4461 -0.2910
  581MPD2    H5 8675   4.200   3.233  15.014 -0.7511  2.6309 -0.1445
  581MPD2    N1 8676   4.649   3.051  15.011 -0.0541  0.5403  0.1088
  581MPD2    H7 8677   0.007   3.051  14.977  0.0191  1.1364  0.3110
  582TMC3    C1 8678   4.718   2.924  15.195  0.2788 -0.0892 -0.4708
  582TMC3    C2 8679   0.084   2.998  15.262  0.3340 -0.4556  0.2609
  582TMC3    C3 8680   0.126   2.944  15.387 -0.0116  0.4019 -0.0124
  582TMC3    C4 8681   4.646   2.821  15.257  0.1131 -0.0730 -0.1762
  582TMC3    C5 8682   4.692   2.784  15.382 -0.0423  0.6904 -0.2132
  582TMC3    C6 8683   0.066   2.837  15.441 -0.9400  0.0323  0.4073
  582TMC3     C 8684   4.618   3.005  15.137 -0.9778  0.6756 -0.3936
  582TMC3     O 8685   4.510   2.992  15.191 -0.5511 -0.2865 -0.8051
  582TMC3     H 8686   0.128   3.090  15.226 -2.3695  0.4263 -0.8464
  582TMC3    H1 8687   4.566   2.767  15.208  0.0123 -0.2842  0.2150
  582TMC3    H2 8688   0.093   2.820  15.545 -0.7954  2.4747  0.7761
  582TMC3    C7 8689   4.588   2.751  15.477  0.0043 -0.2470  0.3124
  582TMC3    C8 8690   0.165   3.045  15.478 -0.1861  0.0857  0.1352
  582TMC3    O1 8691   4.618   2.731  15.596  0.1773  0.3740 -0.2413
  582TMC3    O2 8692   0.085   3.137  15.491  0.1614 -0.0393 -0.4566
  583MPD2     C 8693   4.596   4.641  17.185 -0.0461 -0.7125  0.1903
  583MPD2    C1 8694   4.604   0.036  17.149  0.3576 -0.1652 -0.5578
  583MPD2    C2 8695   4.582   0.133  17.246 -0.1318 -0.0848  0.2499
  583MPD2    C3 8696   4.588   0.095  17.380 -0.0933  0.1304 -0.1577
  583MPD2    C4 8697   4.583   4.701  17.419  0.8044 -0.3169 -0.2596
  583MPD2    C5 8698   4.576   4.612  17.317  0.0487 -0.1946 -0.1530
  583MPD2     H 8699   4.560   0.236  17.220  0.0547  0.1880  1.1726
  583MPD2    H1 8700   4.583   4.668  17.522  0.2222 -0.5917 -0.3489
  583MPD2    H2 8701   4.602   4.563  17.111 -2.1231 -0.8618  0.1769
  583MPD2    H3 8702   4.572   4.505  17.337 -0.7792  0.1771  1.6988
  583MPD2     N 8703   4.601   0.202  17.473  0.0505  0.5105  0.0855
  583MPD2    H5 8704   4.589   0.293  17.428  1.6438  1.0469  0.7638
  583MPD2    N1 8705   4.637   0.067  17.008  0.5267 -0.0961  0.4116
  583MPD2    H7 8706   4.642   4.723  16.947 -0.9943 -0.2221  0.4569
  584TMC3    C1 8707   4.635   0.321  17.682  0.3584 -0.5640 -0.3301
  584TMC3    C2 8708   4.645   0.433  17.606  0.4868 -0.1648  0.5164
  584TMC3    C3 8709   4.656   0.549  17.668 -0.5952  0.0039 -0.0074
  584TMC3    C4 8710   4.620   0.328   0.071 -0.3763 -0.2311 -0.4191
  584TMC3    C5 8711   4.624   0.455   0.130  0.2634 -0.1260 -0.8186
  584TMC3    C6 8712   4.638   0.567   0.052 -0.7131  0.1148 -0.3632
  584TMC3     C 8713   4.636   0.188  17.607  0.4897 -0.5880 -0.6986
  584TMC3     O 8714   4.653   0.084  17.669  0.0213  1.0130  0.1501
  584TMC3     H 8715   4.656   0.426  17.498  1.1693 -3.3055  0.7824
  584TMC3    H1 8716   4.612   0.243   0.138 -1.0951  2.6872  3.1902
  584TMC3    H2 8717   4.639   0.668   0.092  0.3059  0.5847 -1.5796
  584TMC3    C7 8718   4.622   0.457   0.276  0.2124 -0.2008 -0.5957
  584TMC3    C8 8719   4.619   0.659  17.578  0.4223  0.2748 -0.4095
  584TMC3    O1 8720   4.651   0.355   0.330 -0.2928 -0.6742  0.1739
  584TMC3    O2 8721   4.547   0.628  17.483  0.0476 -0.2751  0.0296
  585MPD2     C 8722   3.408   3.813   0.246  0.3385  0.3974 -0.1080
  585MPD2    C1 8723   3.494   3.900   0.187  0.0092 -0.0727 -0.4260
  585MPD2    C2 8724   3.567   3.863   0.077  0.3520  0.1916  1.2861
  585MPD2    C3 8725   3.556   3.732   0.029 -0.2874  0.0873  0.2337
  585MPD2    C4 8726   3.456   3.651   0.077  0.6934  0.1448 -0.1919
  585MPD2    C5 8727   3.385   3.688   0.191  0.3993  0.0741 -0.0598
  585MPD2     H 8728   3.648   3.930   0.049  0.5529 -1.0598 -1.0856
  585MPD2    H1 8729   3.432   3.552   0.040 -2.2155  0.6418  0.3919
  585MPD2    H2 8730   3.358   3.835   0.340  1.4917 -0.2276  0.6620
  585MPD2    H3 8731   3.323   3.619   0.247 -0.2969  1.0536  0.3745
  585MPD2     N 8732   3.625   3.685  17.667  0.6374  0.4157 -0.0076
  585MPD2    H5 8733   3.587   3.596  17.635  0.0166  1.2946 -1.7224
  585MPD2    N1 8734   3.507   4.028   0.244 -0.0282 -0.2807 -0.5753
  585MPD2    H7 8735   3.458   4.041   0.332  1.9587  0.3255  0.4380
  586TMC3    C1 8736   3.780   3.669  17.490  0.5135 -0.1884 -0.0436
  586TMC3    C2 8737   3.914   3.661  17.468 -0.1205 -0.1570  0.3922
  586TMC3    C3 8738   3.953   3.598  17.351  0.2375  0.1965 -0.1645
  586TMC3    C4 8739   3.685   3.628  17.403 -0.2442  0.4308 -0.3212
  586TMC3    C5 8740   3.734   3.565  17.293 -0.2044  0.4965 -0.2218
  586TMC3    C6 8741   3.865   3.554  17.257 -0.1845 -0.7871  0.2413
  586TMC3     C 8742   3.740   3.738  17.611 -0.7164  0.0965 -0.2382
  586TMC3     O 8743   3.819   3.821  17.654  0.3440  0.2820 -0.7439
  586TMC3     H 8744   3.981   3.692  17.547 -0.5322 -0.5333  0.8938
  586TMC3    H1 8745   3.580   3.629  17.430  0.0921  1.5974  0.9780
  586TMC3    H2 8746   3.888   3.486  17.176 -1.1751  1.1804 -1.7134
  586TMC3    C7 8747   3.661   3.448  17.271  0.0377 -0.2316 -0.2970
  586TMC3    C8 8748   4.067   3.510  17.372 -0.3171  0.3424 -0.0090
  586TMC3    O1 8749   3.721   3.346  17.284  0.0388 -0.7151  0.1507
  586TMC3    O2 8750   4.101   3.467  17.481  0.5266  0.6860  0.0370
  587TMC3    C1 8751   1.209   2.356  16.678  0.0374  0.2402 -0.5812
  587TMC3    C2 8752   1.197   2.478  16.616  0.1637 -0.0376  0.2327
  587TMC3    C3 8753   1.289   2.518  16.521  0.0652 -0.4074 -0.0826
  587TMC3    C4 8754   1.299   2.265  16.634  0.1989 -0.0041  0.0860
  587TMC3    C5 8755   1.370   2.299  16.524 -0.3038 -0.1357  0.0544
  587TMC3    C6 8756   1.374   2.423  16.466  0.1543 -0.2158 -0.0584
  587TMC3     C 8757   1.102   2.302  16.766  0.4611  0.2452  0.4408
  587TMC3     O 8758   1.123   2.224  16.854 -0.4262  0.2350  0.2533
  587TMC3     H 8759   1.115   2.544  16.640  1.0762  1.1643  0.0264
  587TMC3    H1 8760   1.326   2.176  16.690 -0.7950  0.9783  2.1136
  587TMC3    H2 8761   1.447   2.452  16.390 -0.5538  3.5775  0.7012
  587TMC3    C7 8762   1.436   2.194  16.451 -0.5037 -0.5786 -0.4643
  587TMC3    C8 8763   1.275   2.638  16.442  0.5832  0.3656 -0.3645
  587TMC3    O1 8764   1.481   2.104  16.521 -0.4365 -0.6249  0.2974
  587TMC3    O2 8765   1.299   2.624  16.318 -0.1294 -0.0665 -0.3778
  588TMC3    C1 8766   3.160   4.393   9.983  0.6145 -0.3207  0.5121
  588TMC3    C2 8767   3.126   4.263   9.995  0.9008 -0.4450  0.2207
  588TMC3    C3 8768   3.232   4.171   9.998 -0.2155 -0.1841  0.5260
  588TMC3    C4 8769   3.290   4.433   9.977  0.4941  0.3167 -0.4616
  588TMC3    C5 8770   3.385   4.337   9.972  0.2795  0.0152 -0.7894
  588TMC3    C6 8771   3.358   4.207   9.979 -0.6488  0.0219 -0.5923
  588TMC3     C 8772   3.060   4.500   9.988 -0.5484 -0.1361 -0.1667
  588TMC3     O 8773   2.976   4.470  10.069 -0.1276  0.3301  0.0209
  588TMC3     H 8774   3.024   4.231  10.013  1.7369 -1.9070  2.2924
  588TMC3    H1 8775   3.325   4.530  10.011  0.6856  0.5664 -1.3763
  588TMC3    H2 8776   3.440   4.136   9.972 -0.2783  0.6006 -2.1046
  588TMC3    C7 8777   3.522   4.380   9.962 -0.2795 -1.0988 -0.8569
  588TMC3    C8 8778   3.197   4.037  10.045  0.1705  0.2981  0.0468
  588TMC3    O1 8779   3.609   4.303   9.998  0.3751 -0.3628  0.1510
  588TMC3    O2 8780   3.090   3.987  10.009  0.1647  0.1739 -0.3398
  589TMC3    C1 8781   2.956   1.755   1.474  0.2923 -0.1728  0.0097
  589TMC3    C2 8782   3.064   1.814   1.542  1.0059 -0.3935  0.5516
  589TMC3    C3 8783   3.158   1.724   1.582 -0.1604 -0.6031 -0.8447
  589TMC3    C4 8784   2.944   1.618   1.458  0.3146  0.2637 -0.1639
  589TMC3    C5 8785   3.036   1.538   1.509  0.9873  0.4751  0.3492
  589TMC3    C6 8786   3.144   1.583   1.574 -0.0968  0.2242  0.5807
  589TMC3     C 8787   2.855   1.828   1.403 -0.1539  0.1711  0.1724
  589TMC3     O 8788   2.782   1.766   1.330 -0.3026  0.1948  0.2010
  589TMC3     H 8789   3.074   1.922   1.543 -1.3117 -0.1795  1.0698
  589TMC3    H1 8790   2.866   1.578   1.395 -1.6133  1.2381  1.6033
  589TMC3    H2 8791   3.202   1.517   1.637 -1.6446 -0.9180  0.8295
  589TMC3    C7 8792   3.012   1.396   1.503  0.0630  1.0353  0.5075
  589TMC3    C8 8793   3.275   1.768   1.652  0.0101  0.1937  0.0292
  589TMC3    O1 8794   2.894   1.356   1.502 -0.1090  0.6520 -0.1774
  589TMC3    O2 8795   3.326   1.693   1.730 -0.0430 -0.1237 -0.0021
  590MPD2     C 8796   2.508   0.635  17.202  0.0519 -0.2953  0.7643
  590MPD2    C1 8797   2.447   0.703  17.096  0.5189  0.2195 -0.5991
  590MPD2    C2 8798   2.516   0.801  17.033 -0.4115 -0.1322  0.3420
  590MPD2    C3 8799   2.649   0.825  17.053 -0.4470 -0.3910  0.1074
  590MPD2    C4 8800   2.709   0.758  17.159  0.0246  0.2841 -0.1281
  590MPD2    C5 8801   2.635   0.667  17.232 -0.5024  0.2597 -0.4277
  590MPD2     H 8802   2.463   0.864  16.962 -0.8241  0.4933  1.2119
  590MPD2    H1 8803   2.812   0.776  17.187 -0.0284  0.2202  0.1048
  590MPD2    H2 8804   2.455   0.574  17.274 -1.0255  1.1649  1.2103
  590MPD2    H3 8805   2.684   0.629  17.321  2.4825  2.4796 -1.1213
  590MPD2     N 8806   2.714   0.926  16.973  0.1280 -0.1996 -0.4476
  590MPD2    H5 8807   2.655   0.973  16.904  0.1107  0.5082  0.0418
  590MPD2    N1 8808   2.310   0.678  17.076  0.4900 -0.4161 -0.1564
  590MPD2    H7 8809   2.264   0.613  17.139  0.4117  0.5463  0.7722
  591TMC3    C1 8810   2.878   1.016  16.844  0.2449 -0.1721 -0.6036
  591TMC3    C2 8811   2.959   0.980  16.744 -0.2680  0.1292  0.3671
  591TMC3    C3 8812   2.956   1.057  16.628  0.2402  0.0792 -0.0965
  591TMC3    C4 8813   2.800   1.131  16.839  0.7246  0.6118  0.2064
  591TMC3    C5 8814   2.803   1.205  16.723 -0.4863  0.2098 -0.3556
  591TMC3    C6 8815   2.880   1.165  16.616  0.6707 -0.0728  0.4731
  591TMC3     C 8816   2.851   0.928  16.954 -0.2149  0.2866 -0.3314
  591TMC3     O 8817   2.935   0.846  16.994 -0.2809  0.1243 -0.7956
  591TMC3     H 8818   3.008   0.883  16.745  1.9544  1.2723  2.9512
  591TMC3    H1 8819   2.751   1.167  16.929  0.4155 -1.9513  1.0630
  591TMC3    H2 8820   2.899   1.224  16.527  0.8051 -1.5859 -0.5001
  591TMC3    C7 8821   2.724   1.330  16.720 -0.0736 -0.4746  0.1733
  591TMC3    C8 8822   2.966   0.971  16.509 -0.3633  0.0197 -0.3270
  591TMC3    O1 8823   2.647   1.339  16.819 -0.0721  0.0314  0.2202
  591TMC3    O2 8824   3.053   0.886  16.518  0.4061 -0.8091  0.4633
  592MPD2     C 8825   2.785   2.563  11.769  0.2982 -0.6558  0.3749
  592MPD2    C1 8826   2.788   2.604  11.901 -0.3371 -0.4857 -0.5341
  592MPD2    C2 8827   2.708   2.535  11.993  0.4031 -1.1619  0.1639
  592MPD2    C3 8828   2.651   2.412  11.961 -0.5390 -0.0990  0.1696
  592MPD2    C4 8829   2.643   2.384  11.827  1.0305 -0.7141  0.3483
  592MPD2    C5 8830   2.712   2.456  11.733 -0.0220  0.1870 -0.1757
  592MPD2     H 8831   2.694   2.567  12.096  0.2632  0.7429 -0.4513
  592MPD2    H1 8832   2.588   2.298  11.789  2.8644 -0.7120 -2.2259
  592MPD2    H2 8833   2.844   2.617  11.697  0.2377 -1.4195 -0.2471
  592MPD2    H3 8834   2.713   2.410  11.635 -1.8832 -3.2547  1.4465
  592MPD2     N 8835   2.604   2.322  12.064 -0.1929  0.1363  0.0153
  592MPD2    H5 8836   2.599   2.362  12.157  0.9875 -2.3964  1.1688
  592MPD2    N1 8837   2.870   2.715  11.923  0.7125 -0.0088 -0.2872
  592MPD2    H7 8838   2.920   2.753  11.843  0.8659  0.5430  0.0720
  593TMC3    C1 8839   2.955   2.904  12.020 -0.0190  0.0047  0.0689
  593TMC3    C2 8840   2.960   2.994  12.124  0.1735 -0.0606 -0.3868
  593TMC3    C3 8841   3.031   3.108  12.116  0.2513  0.0899 -0.5814
  593TMC3    C4 8842   3.031   2.929  11.911  0.3657  0.0907 -0.2088
  593TMC3    C5 8843   3.099   3.043  11.908  0.4725  0.3303 -0.3560
  593TMC3    C6 8844   3.109   3.134  12.007  0.3644  0.7642  0.1694
  593TMC3     C 8845   2.881   2.785  12.045 -0.0787 -0.2882 -0.2390
  593TMC3     O 8846   2.831   2.769  12.155  0.0753  0.5862  0.1928
  593TMC3     H 8847   2.895   2.977  12.210  2.0340 -0.6151  0.9094
  593TMC3    H1 8848   3.056   2.854  11.837 -0.7238 -1.3279  0.8503
  593TMC3    H2 8849   3.160   3.227  11.984  2.6441 -0.7318 -0.8566
  593TMC3    C7 8850   3.164   3.074  11.783 -0.6571  0.0370 -0.7974
  593TMC3    C8 8851   3.029   3.200  12.232  0.3226  0.7106 -0.2135
  593TMC3    O1 8852   3.244   3.164  11.792 -0.1554  0.7236  0.0058
  593TMC3    O2 8853   2.921   3.218  12.284  0.4317 -0.2512  0.0835
  594MPD2     C 8854   1.419   1.239  14.407  0.2963 -0.2045  0.3172
  594MPD2    C1 8855   1.396   1.319  14.511  0.4080  0.9150  0.2758
  594MPD2    C2 8856   1.475   1.432  14.527 -0.2344 -0.6985  0.1997
  594MPD2    C3 8857   1.580   1.455  14.444  0.3471  0.2432  0.1932
  594MPD2    C4 8858   1.594   1.372  14.334 -0.0569  0.4871 -0.4770
  594MPD2    C5 8859   1.513   1.263  14.320  0.0406  0.2084 -0.1086
  594MPD2     H 8860   1.460   1.499  14.611 -0.1621 -0.5157  0.0668
  594MPD2    H1 8861   1.674   1.382  14.261  0.4710  4.4322  0.6069
  594MPD2    H2 8862   1.362   1.147  14.401  1.9362 -1.1193 -1.2345
  594MPD2    H3 8863   1.533   1.196  14.237  1.4635  0.5008 -0.0023
  594MPD2     N 8864   1.665   1.566  14.470 -0.0798 -0.2910 -0.4378
  594MPD2    H5 8865   1.648   1.612  14.559  0.4638  1.7502 -1.3935
  594MPD2    N1 8866   1.302   1.266  14.607 -0.4148  0.4575 -0.5128
  594MPD2    H7 8867   1.244   1.187  14.580  0.3909 -1.0950  2.2396
  595TMC3    C1 8868   2.032   1.811  14.518  1.0338  0.1344  0.1869
  595TMC3    C2 8869   1.965   1.740  14.426 -0.0048 -0.4377  0.8138
  595TMC3    C3 8870   1.830   1.731  14.453 -0.3432  0.5079  0.1705
  595TMC3    C4 8871   1.980   1.897  14.610 -0.7185  0.7090 -0.4214
  595TMC3    C5 8872   1.848   1.893  14.621 -0.0377  0.2835 -0.8691
  595TMC3    C6 8873   1.773   1.809  14.544  0.2245  0.6425  0.5009
  595TMC3     C 8874   2.171   1.793  14.505  0.3311 -0.5549  0.3261
  595TMC3     O 8875   2.226   1.735  14.411  0.4806 -0.1379  0.2868
  595TMC3     H 8876   2.015   1.666  14.365  1.4522  1.3748 -0.2176
  595TMC3    H1 8877   2.039   1.983  14.641  1.1737 -0.9606  0.6028
  595TMC3    H2 8878   1.665   1.800  14.553  0.2972  0.4278  1.1265
  595TMC3    C7 8879   1.776   1.988  14.699 -0.2029 -0.6245  0.0756
  595TMC3    C8 8880   1.765   1.618  14.392  0.5852  0.5173  0.9697
  595TMC3    O1 8881   1.657   1.972  14.696  0.0578  0.5077 -0.4800
  595TMC3    O2 8882   1.809   1.567  14.288  0.3606 -0.2913 -0.1448
  596MPD2     C 8883   0.598   4.587  17.265 -0.0588 -0.0768  0.0883
  596MPD2    C1 8884   0.611   4.701  17.194  0.2803  0.0490  0.3226
  596MPD2    C2 8885   0.624   4.689  17.056 -0.1021 -0.0196  0.3637
  596MPD2    C3 8886   0.629   4.566  16.994 -0.2083  0.2089 -0.1825
  596MPD2    C4 8887   0.610   4.447  17.062  0.6718 -0.6712 -0.5606
  596MPD2    C5 8888   0.588   4.465  17.200 -0.2520  0.0443  0.2933
  596MPD2     H 8889   0.624   0.047  17.003  1.1502  0.0441  0.4708
  596MPD2    H1 8890   0.591   4.354  17.009 -0.9597 -0.0477 -1.0898
  596MPD2    H2 8891   0.573   4.580  17.370 -1.0415 -1.5577 -0.2384
  596MPD2    H3 8892   0.552   4.373  17.244  2.1454 -0.6287  0.8157
  596MPD2     N 8893   0.653   4.559  16.854 -0.2825  0.0636  0.7738
  596MPD2    H5 8894   0.632   4.467  16.817 -0.3856  0.7387 -0.8297
  596MPD2    N1 8895   0.599   0.097  17.243 -0.0526 -0.8860 -0.8198
  596MPD2    H7 8896   0.613   0.175  17.179 -3.1578  1.0305  0.7799
  597TMC3    C1 8897   0.523   0.265  17.384  0.2752 -0.4377  0.0662
  597TMC3    C2 8898   0.524   0.352  17.278 -0.5190  0.0584  0.8271
  597TMC3    C3 8899   0.511   0.484  17.310 -0.1732 -0.4597  0.1988
  597TMC3    C4 8900   0.497   0.301  17.512 -0.2827  0.8904  0.0549
  597TMC3    C5 8901   0.483   0.433  17.540 -0.3374 -0.5267  0.3807
  597TMC3    C6 8902   0.488   0.530  17.440 -1.4462  0.0287 -0.0899
  597TMC3     C 8903   0.563   0.128  17.367 -0.0652  0.0579  0.0801
  597TMC3     O 8904   0.543   0.058  17.465 -0.4347 -0.1565 -0.0919
  597TMC3     H 8905   0.529   0.320  17.175  0.5044 -0.8114  1.1451
  597TMC3    H1 8906   0.489   0.214  17.577 -1.4987  0.1634 -1.0690
  597TMC3    H2 8907   0.473   0.635  17.463 -2.2065 -0.6029  2.2719
  597TMC3    C7 8908   0.474   0.464  17.676 -0.1669  0.5013 -0.9944
  597TMC3    C8 8909   0.506   0.582  17.204 -0.3488 -0.2736  0.5295
  597TMC3    O1 8910   0.422   0.373  17.745 -0.2223 -0.3624 -0.6585
  597TMC3    O2 8911   0.467   0.693  17.241 -0.0612 -0.1545 -0.3817
  598TMC3    C1 8912   3.401   1.375  15.780  0.5236  0.2458 -0.2053
  598TMC3    C2 8913   3.321   1.263  15.785  0.5752 -0.6789 -0.3571
  598TMC3    C3 8914   3.240   1.239  15.678  0.2202  0.5174  0.5337
  598TMC3    C4 8915   3.387   1.476  15.687  0.1842  0.0769  0.3167
  598TMC3    C5 8916   3.289   1.458  15.589 -1.2565  0.5203  0.4170
  598TMC3    C6 8917   3.222   1.336  15.580  0.2076 -1.0082 -0.0659
  598TMC3     C 8918   3.466   1.415  15.900  0.6225 -1.2727 -0.4403
  598TMC3     O 8919   3.497   1.532  15.919 -0.1492 -0.4007  0.0282
  598TMC3     H 8920   3.326   1.190  15.865 -0.6900 -0.6881 -0.2825
  598TMC3    H1 8921   3.463   1.554  15.694 -0.6749  1.0638 -1.4742
  598TMC3    H2 8922   3.138   1.326  15.514  0.9288  1.2704 -1.3035
  598TMC3    C7 8923   3.289   1.537  15.461 -0.1144  0.4013 -0.1289
  598TMC3    C8 8924   3.170   1.118  15.676 -0.2735  0.6164  0.4409
  598TMC3    O1 8925   3.236   1.484  15.367 -0.3204  0.1817 -0.1708
  598TMC3    O2 8926   3.163   1.039  15.768  0.0519  0.3585 -0.0548
  599MPD2     C 8927   3.560   3.843  15.863 -0.4794 -0.4272 -0.5782
  599MPD2    C1 8928   3.554   3.702  15.872  0.1902 -0.1096  0.2402
  599MPD2    C2 8929   3.435   3.642  15.917  0.5683  0.1152  0.5670
  599MPD2    C3 8930   3.328   3.724  15.956  0.5437  0.0574 -0.1086
  599MPD2    C4 8931   3.335   3.861  15.952  0.4599  0.6241  0.1527
  599MPD2    C5 8932   3.448   3.915  15.897 -0.3873 -0.5327  1.4389
  599MPD2     H 8933   3.430   3.534  15.922  2.1375  0.1344  2.3913
  599MPD2    H1 8934   3.253   3.921  15.989  0.9768  0.6563  1.2427
  599MPD2    H2 8935   3.648   3.892  15.823  0.1760 -0.6261  0.6147
  599MPD2    H3 8936   3.449   4.023  15.895  0.5267 -0.6061 -1.9990
  599MPD2     N 8937   3.222   3.666  16.024  0.1547  0.2143  0.0316
  599MPD2    H5 8938   3.152   3.733  16.053  0.2111 -1.1320  3.2748
  599MPD2    N1 8939   3.674   3.631  15.835  0.2780  0.3586 -0.4442
  599MPD2    H7 8940   3.755   3.691  15.822  0.7079 -0.1548 -0.1264
  600TMC3    C1 8941   3.117   3.530  16.175  0.1402  0.0180  0.0969
  600TMC3    C2 8942   3.023   3.432  16.185  0.4696  0.1496  0.0834
  600TMC3    C3 8943   2.960   3.419  16.306  0.0190  0.2985  0.4144
  600TMC3    C4 8944   3.146   3.608  16.280  0.9638 -0.1847 -0.5636
  600TMC3    C5 8945   3.068   3.601  16.394 -0.0997  0.2721 -0.3009
  600TMC3    C6 8946   2.972   3.508  16.405  0.5539  0.3003  0.5747
  600TMC3     C 8947   3.211   3.537  16.069  0.4806 -0.8029 -0.1167
  600TMC3     O 8948   3.295   3.446  16.067 -0.5913  0.3579 -0.6573
  600TMC3     H 8949   2.993   3.374  16.099  2.3467  0.9452 -1.0984
  600TMC3    H1 8950   3.242   3.659  16.270  0.8559  0.0426 -0.4390
  600TMC3    H2 8951   2.909   3.506  16.493  1.3253  2.6062  1.1843
  600TMC3    C7 8952   3.068   3.716  16.492 -0.0788  0.2872  0.1977
  600TMC3    C8 8953   2.860   3.317  16.330 -0.2440 -0.7634 -0.6392
  600TMC3    O1 8954   2.994   3.711  16.589  0.9439  0.0457  0.0263
  600TMC3    O2 8955   2.849   3.270  16.444  0.3972 -0.3444 -0.6543
  601MPD2     C 8956   1.102   1.912  17.582  0.1812  0.0897 -0.2628
  601MPD2    C1 8957   1.048   1.948  17.706 -0.1943 -0.4998 -0.0675
  601MPD2    C2 8958   1.088   1.869   0.062  0.5914  0.0886 -0.2413
  601MPD2    C3 8959   1.177   1.761   0.050 -0.0406 -0.4213  0.2348
  601MPD2    C4 8960   1.220   1.730  17.671 -0.5520  0.4910 -0.2597
  601MPD2    C5 8961   1.181   1.800  17.566  0.5995  0.7226 -0.1320
  601MPD2     H 8962   1.070   1.911   0.160 -3.0184 -3.4164  0.6106
  601MPD2    H1 8963   1.297   1.655  17.660 -0.6247  0.2281  1.0605
  601MPD2    H2 8964   1.070   1.957  17.489  0.0785 -1.4422 -0.9808
  601MPD2    H3 8965   1.227   1.777  17.470  0.7384 -0.8140  0.3055
  601MPD2     N 8966   1.223   1.686   0.159  0.4116 -0.3511  0.4081
  601MPD2    H5 8967   1.288   1.610   0.146  1.4822  0.6834 -0.3228
  601MPD2    N1 8968   0.970   2.065  17.721 -0.0138  0.4053  0.5603
  601MPD2    H7 8969   0.921   2.082   0.059 -1.2745 -1.9813  0.3143
  602TMC3    C1 8970   0.855   2.264  17.669  0.2251  0.2106  0.7539
  602TMC3    C2 8971   0.885   2.388  17.621  0.2719  0.3358 -0.8198
  602TMC3    C3 8972   0.774   2.470  17.609 -0.2461 -0.1594 -0.5403
  602TMC3    C4 8973   0.738   2.218  17.711  0.5156  0.6954 -0.4300
  602TMC3    C5 8974   0.634   2.303  17.689 -0.1287 -0.2567  0.1958
  602TMC3    C6 8975   0.649   2.430  17.647 -0.3673 -0.1136  0.1695
  602TMC3     C 8976   0.955   2.165  17.625  0.4892  0.5185  0.5161
  602TMC3     O 8977   1.015   2.202  17.520  0.0714 -0.0252 -0.1060
  602TMC3     H 8978   0.983   2.420  17.588  0.0739  1.3517 -0.4400
  602TMC3    H1 8979   0.723   2.114  17.739 -0.1112  0.6518 -0.9313
  602TMC3    H2 8980   0.561   2.491  17.631  0.1296  1.2533  2.6957
  602TMC3    C7 8981   0.503   2.263  17.732  0.4352 -0.1050 -0.0669
  602TMC3    C8 8982   0.776   2.569  17.505 -0.3060  0.3587  0.0558
  602TMC3    O1 8983   0.495   2.181   0.076  0.0760  0.0125  0.1672
  602TMC3    O2 8984   0.870   2.581  17.426 -0.1654  0.8689  0.3442
  603TMC3    C1 8985   3.568   2.462  11.489  0.1034  0.9786 -0.1063
  603TMC3    C2 8986   3.563   2.525  11.615 -0.4187 -0.0886  0.5294
  603TMC3    C3 8987   3.668   2.593  11.657 -0.0759  0.1268 -0.1695
  603TMC3    C4 8988   3.670   2.471  11.408 -0.9490 -0.2068  0.2507
  603TMC3    C5 8989   3.783   2.540  11.450 -0.5342  0.1946 -0.5288
  603TMC3    C6 8990   3.784   2.606  11.574  0.3130  0.2443  0.4313
  603TMC3     C 8991   3.442   2.434  11.431 -0.0238 -0.8414  0.1749
  603TMC3     O 8992   3.439   2.473  11.315 -0.0713 -0.6138 -0.0862
  603TMC3     H 8993   3.470   2.540  11.668  0.0439  2.2525  0.6984
  603TMC3    H1 8994   3.658   2.434  11.307 -1.1775 -1.5251  0.7600
  603TMC3    H2 8995   3.879   2.637  11.616 -0.3164  1.6014  0.8517
  603TMC3    C7 8996   3.891   2.569  11.354 -0.3771 -0.3846  0.5718
  603TMC3    C8 8997   3.693   2.571  11.797  0.0483  0.5051  0.2328
  603TMC3    O1 8998   3.989   2.625  11.399 -0.0037 -0.4824  0.0230
  603TMC3    O2 8999   3.620   2.490  11.850 -0.0732 -0.4462  0.8625
  604MPD2     C 9000   0.090   1.391  16.841  0.2156 -0.3065  0.2840
  604MPD2    C1 9001   4.717   1.308  16.837  0.2067  0.7191  0.3193
  604MPD2    C2 9002   4.707   1.221  16.723 -0.2506 -0.1399 -0.1200
  604MPD2    C3 9003   0.056   1.244  16.621  0.4986 -0.8520 -0.0301
  604MPD2    C4 9004   0.149   1.340  16.621  0.7464 -0.0980  0.0156
  604MPD2    C5 9005   0.171   1.417  16.730  0.5316 -0.2347  0.2433
  604MPD2     H 9006   4.627   1.148  16.714 -0.5917  0.6123 -3.1721
  604MPD2    H1 9007   0.215   1.354  16.536  1.6332 -1.8255  0.4340
  604MPD2    H2 9008   0.097   1.467  16.918  0.9295  1.7564 -1.8122
  604MPD2    H3 9009   0.250   1.489  16.714  0.1133  0.5466  1.6755
  604MPD2     N 9010   0.035   1.158  16.511  0.1206  0.2690  0.0011
  604MPD2    H5 9011   4.683   1.110  16.505  1.5483 -2.3497 -0.1767
  604MPD2    N1 9012   4.634   1.300  16.952  0.3807 -0.0146  0.5844
  604MPD2    H7 9013   4.652   1.371  17.023  0.4985 -0.1366  0.6775
  605TMC3    C1 9014   4.447   1.267  17.077  0.6789  0.1658 -0.1535
  605TMC3    C2 9015   4.501   1.378  17.141 -0.4256 -0.7879  0.2034
  605TMC3    C3 9016   4.423   1.491  17.166  0.2935  0.1625  0.2374
  605TMC3    C4 9017   4.309   1.258  17.057  0.0118  0.0519 -0.1351
  605TMC3    C5 9018   4.235   1.364  17.099  0.3257 -1.0798 -0.5792
  605TMC3    C6 9019   4.287   1.483  17.147 -0.1435  0.0440  0.2553
  605TMC3     C 9020   4.516   1.233  16.956 -0.0470  0.3223 -0.2599
  605TMC3     O 9021   4.475   1.143  16.883 -0.0322 -0.4055 -0.0971
  605TMC3     H 9022   4.606   1.386  17.165 -0.7402  3.7617 -0.0000
  605TMC3    H1 9023   4.266   1.171  17.010  0.7664  0.0517 -0.8235
  605TMC3    H2 9024   4.221   1.568  17.156 -1.8888 -1.3164  0.1625
  605TMC3    C7 9025   4.098   1.357  17.066  1.1595 -0.1830  0.2378
  605TMC3    C8 9026   4.501   1.610  17.136  0.1375  0.3368  0.4357
  605TMC3    O1 9027   4.059   1.451  17.002  0.1775 -0.3270  0.0912
  605TMC3    O2 9028   4.603   1.594  17.065  0.9456  0.1618  0.1059
  606TMC3    C1 9029   0.920   0.098  17.585  0.3878 -0.5273  0.1529
  606TMC3    C2 9030   0.982   0.125  17.703  0.1235  0.4721 -0.0868
  606TMC3    C3 9031   1.003   0.026   0.044 -0.5079 -0.3535 -0.2934
  606TMC3    C4 9032   0.879   4.715  17.554  0.1150  0.3173 -0.2323
  606TMC3    C5 9033   0.902   4.612  17.642  0.0795  1.1596 -0.1117
  606TMC3    C6 9034   0.967   4.633   0.011 -0.2788 -0.3578 -0.3516
  606TMC3     C 9035   0.910   0.207  17.490  0.1551  0.4116 -0.1408
  606TMC3     O 9036   0.914   0.175  17.373 -0.1544 -0.2901  0.0034
  606TMC3     H 9037   1.011   0.227  17.726  0.7314  0.1349  0.6372
  606TMC3    H1 9038   0.833   4.697  17.458  0.2595  0.4446 -0.3236
  606TMC3    H2 9039   0.991   4.545   0.070  0.2510 -0.2927 -0.4683
  606TMC3    C7 9040   0.928   4.486  17.578 -0.2466 -0.6150  0.5223
  606TMC3    C8 9041   1.111   0.036   0.140  0.0237  0.9273 -0.4883
  606TMC3    O1 9042   1.044   4.455  17.564  0.3421 -0.0138 -0.2345
  606TMC3    O2 9043   1.123   0.148   0.193 -0.4350  0.1379 -0.6219
  607MPD2     C 9044   2.872   2.042  12.287 -0.2073 -0.2455 -0.3399
  607MPD2    C1 9045   2.886   2.163  12.358  0.0243 -0.3894  0.5694
  607MPD2    C2 9046   2.856   2.175  12.492  0.4203  0.4306  0.1825
  607MPD2    C3 9047   2.818   2.065  12.566  0.5747 -0.6889  0.9370
  607MPD2    C4 9048   2.807   1.939  12.498  0.3256 -0.5069 -0.0739
  607MPD2    C5 9049   2.832   1.931  12.362  0.0545 -0.4727  0.6565
  607MPD2     H 9050   2.864   2.269  12.546  0.0753  1.1841 -1.0781
  607MPD2    H1 9051   2.773   1.851  12.552 -2.8848  1.7592  1.6018
  607MPD2    H2 9052   2.906   2.028  12.185  1.2962 -0.2742  0.1711
  607MPD2    H3 9053   2.830   1.836  12.310 -1.1482  0.4720 -1.0200
  607MPD2     N 9054   2.799   2.088  12.705  0.4292 -0.1469 -0.2245
  607MPD2    H5 9055   2.815   2.179  12.748  2.3041 -1.3769  1.6930
  607MPD2    N1 9056   2.927   2.287  12.306  0.2431 -0.1917 -0.3023
  607MPD2    H7 9057   2.926   2.361  12.376 -0.5784  0.4450 -0.9756
  608TMC3    C1 9058   3.023   2.451  12.180  0.6606 -0.4924  0.6565
  608TMC3    C2 9059   3.018   2.536  12.291  0.7049  0.4636 -0.2646
  608TMC3    C3 9060   3.106   2.643  12.310 -0.8663 -0.1520 -0.2060
  608TMC3    C4 9061   3.114   2.486  12.085 -0.4390 -0.0778  0.3748
  608TMC3    C5 9062   3.187   2.608  12.096 -0.6013  0.2488 -0.4290
  608TMC3    C6 9063   3.182   2.684  12.210  0.3168  0.4157 -0.0145
  608TMC3     C 9064   2.964   2.319  12.180 -0.6889  1.1259 -0.4251
  608TMC3     O 9065   2.970   2.254  12.076 -0.2062  0.1516  0.5133
  608TMC3     H 9066   2.949   2.519  12.373 -1.5136  1.3379 -1.9218
  608TMC3    H1 9067   3.117   2.432  11.991 -0.3862 -1.1063  0.9709
  608TMC3    H2 9068   3.241   2.772  12.234  0.9989 -0.1923  0.5505
  608TMC3    C7 9069   3.267   2.656  11.989  0.1727  0.2264 -1.0765
  608TMC3    C8 9070   3.101   2.717  12.436 -0.2109  0.6842  1.0572
  608TMC3    O1 9071   3.264   2.587  11.886  0.2238  0.1108 -0.0060
  608TMC3    O2 9072   3.115   2.840  12.442 -0.2121  0.2704  0.5631
  609TMC3    C1 9073   2.153   1.379   9.533  0.2438  0.2157  0.6135
  609TMC3    C2 9074   2.099   1.272   9.471  0.7079  0.3838 -0.9255
  609TMC3    C3 9075   2.136   1.145   9.505  0.7270 -0.0621  0.4173
  609TMC3    C4 9076   2.255   1.364   9.626 -0.7317 -0.2715  0.1380
  609TMC3    C5 9077   2.294   1.236   9.650 -0.1307  0.4899 -0.0308
  609TMC3    C6 9078   2.228   1.123   9.603 -0.0435 -0.0509  0.3269
  609TMC3     C 9079   2.069   1.501   9.548 -0.4569  0.4312  0.5743
  609TMC3     O 9080   1.962   1.507   9.492 -0.3867 -0.0586  0.2892
  609TMC3     H 9081   2.010   1.295   9.413  0.9148 -0.5839 -1.6226
  609TMC3    H1 9082   2.299   1.453   9.668 -1.1649 -0.4845  1.0409
  609TMC3    H2 9083   2.259   1.019   9.610 -0.2184 -0.2775 -2.1309
  609TMC3    C7 9084   2.397   1.225   9.759 -0.1975 -0.0383 -0.3974
  609TMC3    C8 9085   2.057   1.034   9.471  0.4876  0.1941 -0.6226
  609TMC3    O1 9086   2.467   1.322   9.769 -0.2814 -0.1150 -0.6548
  609TMC3    O2 9087   2.058   0.946   9.557  0.9290  0.0140  0.1339
  610TMC3    C1 9088   3.285   2.657  13.165  0.0826  0.9731  0.4920
  610TMC3    C2 9089   3.333   2.711  13.054 -0.3586  0.3565  0.8456
  610TMC3    C3 9090   3.402   2.630  12.967  0.2093  0.0087  0.0610
  610TMC3    C4 9091   3.314   2.527  13.204  0.0066  0.0895 -0.4411
  610TMC3    C5 9092   3.382   2.450  13.115  0.7196  0.1489  0.2032
  610TMC3    C6 9093   3.431   2.498  12.992  0.1835  0.7147 -0.2880
  610TMC3     C 9094   3.207   2.737  13.261 -0.3890  0.2795  0.2473
  610TMC3     O 9095   3.188   2.693  13.372  0.4614 -0.2385  0.3168
  610TMC3     H 9096   3.315   2.813  13.024  1.0573  0.1434 -0.7376
  610TMC3    H1 9097   3.247   2.470  13.268  0.1248  0.0544 -0.3491
  610TMC3    H2 9098   3.496   2.445  12.923  0.7233  0.0062  0.7529
  610TMC3    C7 9099   3.455   2.349  13.181 -0.6078 -0.4927 -0.3940
  610TMC3    C8 9100   3.436   2.679  12.832  0.2134  0.6719 -0.4683
  610TMC3    O1 9101   3.527   2.278  13.111 -0.1058  0.6004  0.2086
  610TMC3    O2 9102   3.442   2.798  12.807 -0.6338  0.3254  0.1519
  611MPD2     C 9103   3.278   1.939  10.567  0.2940  0.7888  0.2325
  611MPD2    C1 9104   3.210   2.061  10.549  0.4534  0.1710  0.1926
  611MPD2    C2 9105   3.282   2.180  10.525 -0.1351  0.9185 -0.0900
  611MPD2    C3 9106   3.423   2.174  10.522  0.0163 -0.7343  0.3048
  611MPD2    C4 9107   3.491   2.055  10.548 -0.2903 -0.3369 -1.1064
  611MPD2    C5 9108   3.416   1.940  10.573  0.2132  0.5540  0.2930
  611MPD2     H 9109   3.231   2.275  10.517  1.4029  2.0744  3.6115
  611MPD2    H1 9110   3.598   2.043  10.557 -0.5089 -1.1312  0.4104
  611MPD2    H2 9111   3.227   1.845  10.582  2.1914 -0.2099  0.4087
  611MPD2    H3 9112   3.476   1.850  10.585  1.6409  1.5083  0.3300
  611MPD2     N 9113   3.508   2.289  10.502  0.1890 -0.1548  0.2360
  611MPD2    H5 9114   3.608   2.277  10.495  0.1734  0.6640 -1.2233
  611MPD2    N1 9115   3.068   2.055  10.534  0.0488 -0.4471 -0.0116
  611MPD2    H7 9116   3.031   1.966  10.503 -1.4937 -0.3042  1.3804
  612TMC3    C1 9117   3.568   2.505  10.431 -0.0230  0.2191  0.4081
  612TMC3    C2 9118   3.669   2.514  10.516  0.2551  0.5367  0.1189
  612TMC3    C3 9119   3.735   2.636  10.526 -0.4751 -0.0931  0.6508
  612TMC3    C4 9120   3.528   2.609  10.353 -0.1176 -0.6450  0.1826
  612TMC3    C5 9121   3.589   2.724  10.377 -0.5408 -0.0815  0.0796
  612TMC3    C6 9122   3.695   2.741  10.458  0.6293 -0.2548  0.1216
  612TMC3     C 9123   3.461   2.409  10.466  0.1704 -0.3945 -0.2871
  612TMC3     O 9124   3.351   2.447  10.432 -0.2881 -0.4476 -0.2643
  612TMC3     H 9125   3.699   2.436  10.585  0.6939  0.8840  0.3278
  612TMC3    H1 9126   3.458   2.583  10.275  0.3302 -0.8643 -0.1415
  612TMC3    H2 9127   3.733   2.839  10.484  0.3494 -0.7097  2.2516
  612TMC3    C7 9128   3.566   2.839  10.297 -0.2867  0.2980 -0.9956
  612TMC3    C8 9129   3.821   2.674  10.632  0.0737 -0.0597  0.0705
  612TMC3    O1 9130   3.651   2.931  10.291 -0.0307  0.2275 -0.1556
  612TMC3    O2 9131   3.914   2.743  10.596 -0.4533  0.3033 -0.2604
  613MPD2     C 9132   1.984   4.539  17.117 -0.1478  0.2530  0.4943
  613MPD2    C1 9133   1.890   4.601  17.042 -0.0031  0.1924 -0.3090
  613MPD2    C2 9134   1.795   4.526  16.975 -0.3043 -0.1450 -0.7317
  613MPD2    C3 9135   1.790   4.384  16.987  0.0952 -0.1138  0.6519
  613MPD2    C4 9136   1.885   4.325  17.066 -1.1696 -0.2099  0.7449
  613MPD2    C5 9137   1.985   4.403  17.124 -0.7397 -0.1142 -0.7526
  613MPD2     H 9138   1.735   4.566  16.895 -3.1266  0.4373  1.6573
  613MPD2    H1 9139   1.900   4.218  17.078  0.2862 -0.0057  0.8302
  613MPD2    H2 9140   2.068   4.591  17.160  1.4686 -0.9549 -1.2137
  613MPD2    H3 9141   2.061   4.361  17.188 -0.9248 -0.5422 -0.8157
  613MPD2     N 9142   1.704   4.301  16.919  0.2360 -0.4741 -0.2979
  613MPD2    H5 9143   1.736   4.204  16.913 -1.1780 -1.0365  1.3651
  613MPD2    N1 9144   1.916   4.736  17.009 -0.0690  0.5471  0.3085
  613MPD2    H7 9145   2.015   0.016  17.012  0.5577 -2.9966  0.7197
  614TMC3    C1 9146   1.897   0.127  16.814  0.8057 -0.2814 -0.1482
  614TMC3    C2 9147   1.939   0.021  16.741  0.3885 -0.6349 -0.7595
  614TMC3    C3 9148   1.900   0.002  16.614 -1.4626  0.0164  0.1140
  614TMC3    C4 9149   1.820   0.220  16.750  0.1738 -0.7036 -0.0020
  614TMC3    C5 9150   1.779   0.207  16.621 -0.6812  0.4030 -0.4318
  614TMC3    C6 9151   1.812   0.092  16.551 -0.1006 -0.2386  0.6105
  614TMC3     C 9152   1.828   0.080  16.934 -0.3177 -0.4023 -0.7891
  614TMC3     O 9153   1.709   0.070  16.927  0.1277  0.3658  1.0237
  614TMC3     H 9154   2.011   4.686  16.775  0.1975 -0.2432  0.4909
  614TMC3    H1 9155   1.781   0.310  16.795  1.1383 -1.5898  2.5960
  614TMC3    H2 9156   1.777   0.068  16.451  2.3139 -1.4607  0.0528
  614TMC3    C7 9157   1.678   0.296  16.567  0.6728  0.4950  0.0610
  614TMC3    C8 9158   1.903   4.600  16.568 -0.1964 -0.0810 -0.0051
  614TMC3    O1 9159   1.608   0.366  16.640  0.3999  0.0423 -0.2948
  614TMC3    O2 9160   1.899   4.510  16.651  0.2790  0.0803  0.3950
  615MPD2     C 9161   1.342   0.930  16.345 -0.2574 -0.3349  0.2461
  615MPD2    C1 9162   1.300   1.047  16.407 -0.4616 -0.4157 -0.0419
  615MPD2    C2 9163   1.210   1.133  16.343  0.2596  0.6357 -0.4530
  615MPD2    C3 9164   1.157   1.103  16.216  0.8310 -0.4276  0.1197
  615MPD2    C4 9165   1.198   0.986  16.158 -0.0909 -0.7844  0.1772
  615MPD2    C5 9166   1.296   0.909  16.219  0.2477 -0.0593 -0.2552
  615MPD2     H 9167   1.184   1.228  16.390  0.4317  0.0198  0.8867
  615MPD2    H1 9168   1.166   0.958  16.058 -0.3043  0.0749  0.0070
  615MPD2    H2 9169   1.394   0.850  16.397 -0.6151 -0.8737 -0.2329
  615MPD2    H3 9170   1.340   0.826  16.163  0.8106  0.6175 -0.8189
  615MPD2     N 9171   1.052   1.174  16.154  0.0286 -0.4142 -0.4137
  615MPD2    H5 9172   1.023   1.130  16.067 -0.3848  1.2794 -1.1239
  615MPD2    N1 9173   1.345   1.089  16.530  0.1879 -0.2543  0.1371
  615MPD2    H7 9174   1.309   1.178  16.563  0.7784  0.5537 -1.3797
  616TMC3    C1 9175   1.449   1.092  16.738  0.1529  0.1157 -0.4808
  616TMC3    C2 9176   1.478   1.231  16.726  0.5119 -0.5117  0.6548
  616TMC3    C3 9177   1.481   1.310  16.834 -0.2913  0.0280  0.2694
  616TMC3    C4 9178   1.422   1.032  16.865  0.7518 -0.0538 -0.1737
  616TMC3    C5 9179   1.445   1.120  16.967 -0.0960 -0.8054 -0.0218
  616TMC3    C6 9180   1.476   1.253  16.954  0.2154 -0.0418  0.5724
  616TMC3     C 9181   1.424   1.019  16.614  0.5269  0.0266  0.8782
  616TMC3     O 9182   1.483   0.913  16.601 -0.2752 -0.5114  0.0768
  616TMC3     H 9183   1.483   1.280  16.629 -0.9822 -1.8133 -0.0785
  616TMC3    H1 9184   1.413   0.926  16.887 -0.1520  0.2213  0.7486
  616TMC3    H2 9185   1.475   1.317  17.041 -0.8605 -0.3824  0.8186
  616TMC3    C7 9186   1.417   1.083  17.100 -0.9736  0.3407 -0.2655
  616TMC3    C8 9187   1.539   1.437  16.799 -0.1956  0.0462  0.3351
  616TMC3    O1 9188   1.448   1.159  17.193 -0.1968 -0.1024  0.2362
  616TMC3    O2 9189   1.504   1.486  16.695  0.1138 -0.3093  0.3089
  617MPD2     C 9190   4.129   4.523  13.790 -0.7107 -0.0421  0.0047
  617MPD2    C1 9191   4.165   4.424  13.878 -0.5872 -0.5482 -0.2373
  617MPD2    C2 9192   4.073   4.373  13.971  0.0337  0.0541 -0.0762
  617MPD2    C3 9193   3.948   4.430  13.981 -0.0695  0.0653 -0.2661
  617MPD2    C4 9194   3.910   4.530  13.894 -0.5355 -0.5378  0.0302
  617MPD2    C5 9195   4.001   4.578  13.797 -0.4351  0.0560 -0.0680
  617MPD2     H 9196   4.087   4.279  14.023 -3.4273  0.3450  1.3440
  617MPD2    H1 9197   3.814   4.579  13.894 -0.7372 -0.9312  1.6642
  617MPD2    H2 9198   4.200   4.574  13.726 -0.6307  0.0968  0.2054
  617MPD2    H3 9199   3.978   4.671  13.745  1.9829  0.8655  0.3437
  617MPD2     N 9200   3.850   4.386  14.070  0.3028 -0.3881 -0.0624
  617MPD2    H5 9201   3.755   4.423  14.070  0.9837  1.3617 -1.7112
  617MPD2    N1 9202   4.304   4.397  13.872  0.5107 -0.9841 -0.1493
  617MPD2    H7 9203   4.356   4.449  13.802  0.6770  0.1085  0.7899
  618TMC3    C1 9204   4.497   4.319  13.977 -0.5664 -0.4390  0.4851
  618TMC3    C2 9205   4.549   4.203  14.021  0.6226 -0.5622 -0.4878
  618TMC3    C3 9206   4.680   4.200  14.056 -0.0888  0.1753 -0.2777
  618TMC3    C4 9207   4.573   4.424  13.956 -0.4985 -0.2598 -0.6237
  618TMC3    C5 9208   4.707   4.404  13.974  0.1260 -0.5787  0.0937
  618TMC3    C6 9209   0.029   4.303  14.042 -0.2683  0.0895 -0.4248
  618TMC3     C 9210   4.355   4.323  13.972  0.7081 -0.5226 -0.6642
  618TMC3     O 9211   4.301   4.242  14.048 -0.5918  0.7099 -0.3119
  618TMC3     H 9212   4.490   4.114  14.039  0.3277 -0.0885  0.8680
  618TMC3    H1 9213   4.525   4.519  13.935 -0.9108  0.1487  2.1312
  618TMC3    H2 9214   0.131   4.300  14.077  0.3771  3.5944 -1.9214
  618TMC3    C7 9215   0.059   4.515  13.937  0.2786 -0.8217  0.2282
  618TMC3    C8 9216   4.732   4.069  14.050  0.1394 -0.7115  0.7125
  618TMC3    O1 9217   0.026   4.627  13.961 -0.3430 -0.7336 -0.3678
  618TMC3    O2 9218   4.671   3.982  14.114  0.0409  0.1981  0.1673
  619MPD2     C 9219   0.891   0.800  13.681  0.6106  0.0392 -0.4292
  619MPD2    C1 9220   0.848   0.927  13.720 -0.3811  0.0845  0.5636
  619MPD2    C2 9221   0.715   0.958  13.728 -0.4772  0.2412  0.3346
  619MPD2    C3 9222   0.624   0.852  13.696 -0.9297 -0.4664  0.0800
  619MPD2    C4 9223   0.670   0.724  13.667  0.1662 -0.1371  0.7494
  619MPD2    C5 9224   0.802   0.699  13.664 -0.6361  0.3969  0.2973
  619MPD2     H 9225   0.679   1.059  13.739  0.4306  0.4772  1.1965
  619MPD2    H1 9226   0.596   0.648  13.642  0.3395 -0.9961  2.8715
  619MPD2    H2 9227   0.997   0.776  13.679  0.7427  0.2439  2.8045
  619MPD2    H3 9228   0.837   0.600  13.634  0.9020  1.4106 -1.2588
  619MPD2     N 9229   0.491   0.865  13.673 -1.0068  0.2590  0.0315
  619MPD2    H5 9230   0.440   0.792  13.625 -1.8168  1.1458 -0.4476
  619MPD2    N1 9231   0.947   1.023  13.741 -0.1988  0.1907  0.2300
  619MPD2    H7 9232   1.039   1.003  13.703 -0.7608 -0.5106 -0.7399
  620TMC3    C1 9233   1.038   1.236  13.793  0.0531 -0.0694 -0.1667
  620TMC3    C2 9234   1.017   1.303  13.678 -0.6611 -0.1204  0.1503
  620TMC3    C3 9235   1.016   1.435  13.679  0.9519  0.0212  0.5808
  620TMC3    C4 9236   1.062   1.300  13.914 -0.3706  0.5859  0.6153
  620TMC3    C5 9237   1.064   1.438  13.907 -0.1213  0.5239 -0.3511
  620TMC3    C6 9238   1.048   1.505  13.789 -0.6179  0.7176  0.1758
  620TMC3     C 9239   0.934   1.141  13.813  0.7435  0.1867  0.1769
  620TMC3     O 9240   0.847   1.174  13.893  0.1072  0.2099  0.2288
  620TMC3     H 9241   0.984   1.243  13.594  1.1330 -0.4725 -0.2974
  620TMC3    H1 9242   1.078   1.231  13.996 -0.8370 -1.0081 -0.6363
  620TMC3    H2 9243   1.029   1.612  13.784 -1.9117  0.5783  2.0377
  620TMC3    C7 9244   1.014   1.513  14.024 -0.1538  0.8182 -0.4964
  620TMC3    C8 9245   0.881   1.486  13.650 -0.1529 -0.3817 -0.3544
  620TMC3    O1 9246   1.030   1.634  14.023  0.0472 -0.5722 -0.0209
  620TMC3    O2 9247   0.871   1.579  13.574  0.2270  0.0874 -0.2719
  621MPD2     C 9248   1.072   1.566   9.649 -0.2175  0.6323 -0.2239
  621MPD2    C1 9249   1.039   1.443   9.707  0.0032  0.4306 -0.1315
  621MPD2    C2 9250   1.114   1.396   9.818 -0.5273  1.0559  0.2474
  621MPD2    C3 9251   1.214   1.478   9.870  0.3217 -0.0225 -0.0517
  621MPD2    C4 9252   1.245   1.599   9.814  0.4727 -0.1407 -0.2947
  621MPD2    C5 9253   1.172   1.641   9.703  0.0502 -0.3240 -0.2809
  621MPD2     H 9254   1.084   1.303   9.865 -1.4869  0.7050 -1.0672
  621MPD2    H1 9255   1.330   1.661   9.841  1.3716 -1.0459 -1.0569
  621MPD2    H2 9256   1.016   1.612   9.568 -2.6716 -1.8970  0.0501
  621MPD2    H3 9257   1.178   1.742   9.666  2.5133 -0.0766  0.8105
  621MPD2     N 9258   1.262   1.431   9.992  0.0218 -0.0513  0.1911
  621MPD2    H5 9259   1.221   1.343  10.022 -0.4872  0.1938  0.2286
  621MPD2    N1 9260   0.928   1.364   9.678  0.3700 -0.2323  0.1939
  621MPD2    H7 9261   0.922   1.272   9.720  1.8386 -0.6742 -0.5433
  622TMC3    C1 9262   0.705   1.315   9.608  0.7054 -0.2817  0.3233
  622TMC3    C2 9263   0.686   1.215   9.709  0.1543 -0.4841 -0.7452
  622TMC3    C3 9264   0.559   1.168   9.722 -0.4695 -0.3346  0.3766
  622TMC3    C4 9265   0.608   1.349   9.519 -0.3878 -0.3305  0.2103
  622TMC3    C5 9266   0.491   1.284   9.536  0.3231  0.4095 -0.0897
  622TMC3    C6 9267   0.457   1.207   9.642  0.3408  0.3167 -0.2457
  622TMC3     C 9268   0.820   1.407   9.608  0.1088  0.4438  0.4047
  622TMC3     O 9269   0.796   1.525   9.570 -0.2164  0.3789  0.9185
  622TMC3     H 9270   0.768   1.160   9.755  0.6090 -0.1004 -1.0970
  622TMC3    H1 9271   0.625   1.403   9.427  0.6619  0.8369  1.0934
  622TMC3    H2 9272   0.355   1.178   9.664 -0.2142  0.1222 -2.9779
  622TMC3    C7 9273   0.384   1.345   9.460  0.7340  0.1086 -0.4500
  622TMC3    C8 9274   0.538   1.059   9.810  0.5218  0.7251 -0.0057
  622TMC3    O1 9275   0.415   1.370   9.343 -0.0586 -0.0201  0.3409
  622TMC3    O2 9276   0.431   0.999   9.809  0.3469  0.1359  0.4249
  623MPD2     C 9277   0.106   2.193  16.245  0.0817 -0.0752  0.4186
  623MPD2    C1 9278   0.032   2.117  16.333  0.3724  0.5192 -0.3943
  623MPD2    C2 9279   0.091   2.082  16.454  0.4447  0.5802 -0.4610
  623MPD2    C3 9280   0.221   2.116  16.479  0.0433  0.5600  0.0160
  623MPD2    C4 9281   0.290   2.196  16.391 -0.3077 -0.2008 -0.2150
  623MPD2    C5 9282   0.234   2.227  16.268  0.2803 -0.3080  0.1038
  623MPD2     H 9283   0.030   2.025  16.523  0.0730  0.9137 -0.5173
  623MPD2    H1 9284   0.393   2.229  16.400  0.6252 -2.6858 -1.7811
  623MPD2    H2 9285   0.061   2.235  16.156  2.0139  0.9806 -0.0612
  623MPD2    H3 9286   0.283   2.301  16.205  1.5476  0.1156  1.5572
  623MPD2     N 9287   0.264   2.073  16.609 -0.1133  0.3769  0.2249
  623MPD2    H5 9288   0.198   2.014  16.657 -1.7235 -0.2508 -2.7445
  623MPD2    N1 9289   4.641   2.072  16.319  0.8192 -0.0467  0.5552
  623MPD2    H7 9290   4.595   2.023  16.395  0.2694  1.2259  1.0486
  624TMC3    C1 9291   0.525   1.951  16.970 -0.3208  0.1184 -0.1061
  624TMC3    C2 9292   0.410   1.947  17.048  0.1555  0.3704  0.5072
  624TMC3    C3 9293   0.294   1.996  16.999  0.7451  0.2020 -0.1607
  624TMC3    C4 9294   0.519   2.002  16.840  0.3388 -0.8074 -0.4780
  624TMC3    C5 9295   0.400   2.050  16.802 -0.4891  0.5413 -0.3538
  624TMC3    C6 9296   0.287   2.063  16.881  0.0630 -0.9058 -0.1253
  624TMC3     C 9297   0.647   1.873  17.008  0.4748 -0.1899  0.2721
  624TMC3     O 9298   0.657   1.847  17.128 -0.0055  0.2317  0.0667
  624TMC3     H 9299   0.410   1.896  17.144  0.9327 -4.0243 -1.8169
  624TMC3    H1 9300   0.600   1.993  16.768 -0.7040 -1.6589 -1.5395
  624TMC3    H2 9301   0.188   2.096  16.849 -0.2312 -3.8431 -2.2976
  624TMC3    C7 9302   0.393   2.082  16.660 -0.9122 -0.0385 -0.5413
  624TMC3    C8 9303   0.179   1.950  17.069 -0.0189  1.1889  0.8256
  624TMC3    O1 9304   0.495   2.115  16.600  0.3154  0.0180  0.3553
  624TMC3    O2 9305   0.178   1.836  17.115 -0.5634  0.2761 -0.1981
  625MPD2     C 9306   0.289   2.600   1.196  0.5061 -0.2334  0.9004
  625MPD2    C1 9307   0.309   2.699   1.102  0.0627 -0.1025 -0.5855
  625MPD2    C2 9308   0.441   2.739   1.081  0.5258 -0.3870 -0.3288
  625MPD2    C3 9309   0.546   2.684   1.155 -0.7918  0.4639 -0.4781
  625MPD2    C4 9310   0.527   2.579   1.246  0.0538 -0.3298  0.0666
  625MPD2    C5 9311   0.392   2.543   1.264  0.3762 -0.8019  0.0387
  625MPD2     H 9312   0.456   2.820   1.011  2.1126  0.5663  1.0999
  625MPD2    H1 9313   0.608   2.538   1.305  2.2495  2.1942 -1.1812
  625MPD2    H2 9314   0.190   2.566   1.227 -0.0456  2.5557  2.2574
  625MPD2    H3 9315   0.360   2.475   1.342 -0.6700 -1.2128 -0.7482
  625MPD2     N 9316   0.673   2.737   1.125  0.1910 -0.1046 -0.4360
  625MPD2    H5 9317   0.674   2.798   1.044  0.5276 -0.7203 -0.8996
  625MPD2    N1 9318   0.196   2.743   1.027 -0.0189 -0.1768 -0.1735
  625MPD2    H7 9319   0.103   2.713   1.055 -0.7216  1.4699 -0.6966
  626TMC3    C1 9320   0.064   2.879   0.894 -0.0895  0.3616  0.3929
  626TMC3    C2 9321   0.034   2.926   0.766 -0.2932 -0.3039 -0.5871
  626TMC3    C3 9322   4.644   2.974   0.745 -0.6303 -1.0516  0.7715
  626TMC3    C4 9323   4.721   2.913   1.000  0.5559 -0.4766  0.2531
  626TMC3    C5 9324   4.602   2.977   0.974 -0.2683  0.5795 -0.1502
  626TMC3    C6 9325   4.567   3.010   0.846  0.1456  0.2509 -0.2622
  626TMC3     C 9326   0.194   2.829   0.920 -0.7671  0.1789 -0.3735
  626TMC3     O 9327   0.286   2.863   0.849  0.1137 -0.0648  0.3849
  626TMC3     H 9328   0.088   2.897   0.677  0.1026  1.0761 -0.7863
  626TMC3    H1 9329   0.014   2.880   1.099  0.7119  0.4359  0.5057
  626TMC3    H2 9330   4.467   3.049   0.830  0.6402  1.6877  0.0970
  626TMC3    C7 9331   4.516   3.021   1.083  0.0362 -0.2871 -0.5176
  626TMC3    C8 9332   4.619   3.043   0.615  0.5626  0.1615  0.3335
  626TMC3    O1 9333   4.536   2.974   1.195 -0.2698 -0.3046  0.5733
  626TMC3    O2 9334   4.704   3.114   0.571 -0.7099 -0.1152 -0.1558
  627MPD2     C 9335   3.346   3.225  14.771 -0.2349  0.0027 -0.5779
  627MPD2    C1 9336   3.455   3.141  14.801 -0.5273 -0.8741  0.0234
  627MPD2    C2 9337   3.437   3.009  14.831  0.6941 -0.0397 -0.3216
  627MPD2    C3 9338   3.304   2.962  14.831 -0.4883 -0.6541  0.7563
  627MPD2    C4 9339   3.197   3.043  14.792  0.0848  0.0714  0.0543
  627MPD2    C5 9340   3.220   3.172  14.749  0.2817 -0.0056  0.2715
  627MPD2     H 9341   3.513   2.951  14.881 -0.8634 -0.6061  1.3697
  627MPD2    H1 9342   3.096   3.006  14.783  1.1223 -2.5838 -0.7216
  627MPD2    H2 9343   3.356   3.331  14.749  0.0923  0.1629  0.3474
  627MPD2    H3 9344   3.141   3.230  14.704 -0.8762 -0.0888  2.1824
  627MPD2     N 9345   3.293   2.822  14.871  0.4716  0.3341 -0.5507
  627MPD2    H5 9346   3.380   2.770  14.883  1.0627  1.5981  0.6669
  627MPD2    N1 9347   3.586   3.190  14.837 -0.0245 -0.2767  0.1377
  627MPD2    H7 9348   3.650   3.128  14.886  2.1197  0.3272 -1.9149
  628TMC3    C1 9349   3.759   3.345  14.886 -0.3419  0.2501  0.4573
  628TMC3    C2 9350   3.864   3.254  14.877  0.7534 -0.4914  1.5656
  628TMC3    C3 9351   3.991   3.295  14.910 -0.2386  0.4595 -0.0025
  628TMC3    C4 9352   3.784   3.473  14.913  0.7186  0.3556 -0.3213
  628TMC3    C5 9353   3.910   3.513  14.951  0.0508 -0.5395 -0.5598
  628TMC3    C6 9354   4.008   3.419  14.963 -0.2970  0.1296 -0.5137
  628TMC3     C 9355   3.636   3.315  14.814 -0.2766  0.3221 -0.1024
  628TMC3     O 9356   3.575   3.408  14.766 -0.0988 -0.3740  0.5202
  628TMC3     H 9357   3.847   3.159  14.827  1.0942 -0.6069  1.6645
  628TMC3    H1 9358   3.698   3.540  14.914  1.9748  1.9194  1.4904
  628TMC3    H2 9359   4.112   3.451  14.966 -0.5842  0.9050  0.8958
  628TMC3    C7 9360   3.943   3.654  14.940  0.1653 -0.9028 -0.3360
  628TMC3    C8 9361   4.101   3.244  14.832  0.5289 -0.3778 -0.3373
  628TMC3    O1 9362   4.064   3.673  14.942 -0.5645  0.0453  0.0170
  628TMC3    O2 9363   4.084   3.216  14.712 -0.2277 -0.6854  0.8854
  629MPD2     C 9364   1.846   1.823  16.859 -0.4917 -0.3466  0.4368
  629MPD2    C1 9365   1.895   1.717  16.938 -0.8329  0.0920 -0.0076
  629MPD2    C2 9366   1.822   1.593  16.952 -0.5128  0.3060  0.3028
  629MPD2    C3 9367   1.699   1.592  16.892  0.9735  0.0513  0.4445
  629MPD2    C4 9368   1.640   1.703  16.830  0.5461 -0.2902  0.0291
  629MPD2    C5 9369   1.719   1.816  16.811 -0.6798 -0.6645  0.5252
  629MPD2     H 9370   1.849   1.502  17.005  1.1893  0.3807 -0.4427
  629MPD2    H1 9371   1.536   1.713  16.803 -0.0304  0.2670  2.4575
  629MPD2    H2 9372   1.906   1.914  16.851 -1.0599  0.0586  0.7660
  629MPD2    H3 9373   1.684   1.904  16.758 -0.3141 -0.3624  0.7895
  629MPD2     N 9374   1.626   1.475  16.892 -0.4307  0.2606 -0.0909
  629MPD2    H5 9375   1.662   1.401  16.952  1.2343 -0.6078 -2.1636
  629MPD2    N1 9376   2.021   1.743  16.992  0.3445 -0.7675 -0.0487
  629MPD2    H7 9377   2.050   1.838  16.970 -2.3033  0.0755  0.1474
  630TMC3    C1 9378   2.221   1.715  17.122 -0.2748  0.0458 -0.1915
  630TMC3    C2 9379   2.281   1.817  17.051  0.6085 -0.3123 -0.6517
  630TMC3    C3 9380   2.405   1.854  17.087 -0.4686 -0.2987  0.2499
  630TMC3    C4 9381   2.287   1.634  17.214 -0.6003  0.1050  0.4299
  630TMC3    C5 9382   2.409   1.681  17.253 -0.6013  0.0989  0.5822
  630TMC3    C6 9383   2.463   1.792  17.193  0.1510  0.0906 -0.1232
  630TMC3     C 9384   2.096   1.656  17.067  0.3235  0.3200  0.3604
  630TMC3     O 9385   2.066   1.539  17.087 -0.1340  0.1420  0.3977
  630TMC3     H 9386   2.228   1.853  16.963 -0.7147  0.8614  0.6291
  630TMC3    H1 9387   2.237   1.550  17.260 -2.9740  0.3992 -1.6199
  630TMC3    H2 9388   2.556   1.838  17.226 -1.0227 -0.0210  3.3036
  630TMC3    C7 9389   2.470   1.613  17.369  0.4134  0.0779  0.1203
  630TMC3    C8 9390   2.478   1.936  16.991 -0.3091  0.0472 -0.3146
  630TMC3    O1 9391   2.414   1.525  17.433  0.4340  0.4892 -0.6573
  630TMC3    O2 9392   2.592   1.963  17.023  0.3411  0.1439  0.6737
  631MPD2     C 9393   0.358   1.962  16.043  0.1365  0.4662  0.3089
  631MPD2    C1 9394   0.388   1.912  15.922  0.4147 -0.0533 -0.4947
  631MPD2    C2 9395   0.442   1.785  15.914 -0.2786 -0.0785 -0.6058
  631MPD2    C3 9396   0.464   1.707  16.021  0.2576 -0.5126 -1.2400
  631MPD2    C4 9397   0.439   1.757  16.144 -0.8106  0.2840 -0.1101
  631MPD2    C5 9398   0.383   1.888  16.150 -0.0526  0.0502 -0.7219
  631MPD2     H 9399   0.471   1.738  15.822  0.2470 -0.5711 -0.1864
  631MPD2    H1 9400   0.448   1.702  16.237  1.2108 -0.0594 -0.5096
  631MPD2    H2 9401   0.303   2.055  16.044  2.7222  2.0361 -3.9998
  631MPD2    H3 9402   0.347   1.924  16.246  1.5273  0.8271 -0.4255
  631MPD2     N 9403   0.532   1.582  15.992 -0.1042 -0.6981 -0.5843
  631MPD2    H5 9404   0.554   1.557  15.896  2.1521  0.0100 -0.2546
  631MPD2    N1 9405   0.366   1.993  15.810  0.2272  0.6813  0.2704
  631MPD2    H7 9406   0.334   2.089  15.822 -1.1067  0.2578  0.0523
  632TMC3    C1 9407   0.379   2.070  15.587 -0.3596 -0.2771  0.3600
  632TMC3    C2 9408   0.270   2.155  15.609  0.3254  0.0859 -0.2809
  632TMC3    C3 9409   0.228   2.233  15.504 -0.1097 -0.1475  0.3913
  632TMC3    C4 9410   0.440   2.066  15.471 -0.2878 -0.1962  0.2395
  632TMC3    C5 9411   0.403   2.142  15.370  0.3241  0.0022 -0.3135
  632TMC3    C6 9412   0.291   2.221  15.382 -0.0997 -0.8527 -0.3871
  632TMC3     C 9413   0.405   1.966  15.677 -0.1689  0.0747  0.4788
  632TMC3     O 9414   0.458   1.868  15.628  0.4263  0.4094  0.4712
  632TMC3     H 9415   0.217   2.162  15.703 -0.7681  0.6493 -0.9371
  632TMC3    H1 9416   0.510   1.984  15.458 -2.6015 -2.1306 -0.1598
  632TMC3    H2 9417   0.243   2.265  15.295 -2.0793 -1.3717  0.4320
  632TMC3    C7 9418   0.468   2.142  15.241  0.9517  0.0530 -0.7191
  632TMC3    C8 9419   0.096   2.289  15.527 -0.7411 -0.3769 -0.1986
  632TMC3    O1 9420   0.414   2.196  15.149 -0.0969 -0.1518  0.3603
  632TMC3    O2 9421   0.043   2.274  15.635 -0.4713 -0.0051 -0.2219
  633MPD2     C 9422   0.271   4.502   0.077 -0.0148  0.4298  0.5347
  633MPD2    C1 9423   0.214   4.448  17.711 -0.6232 -0.2332 -0.4748
  633MPD2    C2 9424   0.186   4.320  17.714  0.3846  0.5539  0.0259
  633MPD2    C3 9425   0.193   4.241   0.076 -0.1343 -0.3377  0.0377
  633MPD2    C4 9426   0.246   4.295   0.191  0.1123 -0.3429 -0.9135
  633MPD2    C5 9427   0.288   4.427   0.186  0.1205  0.0958 -0.2568
  633MPD2     H 9428   0.156   4.278  17.619  0.6925 -0.9857  0.6068
  633MPD2    H1 9429   0.278   4.239   0.278  0.6085 -0.8448 -1.4136
  633MPD2    H2 9430   0.306   4.604   0.089 -0.3347  0.7573 -1.3210
  633MPD2    H3 9431   0.328   4.472   0.276 -5.0469  2.2804  0.9068
  633MPD2     N 9432   0.181   4.102   0.067 -0.0301  0.0870  0.1164
  633MPD2    H5 9433   0.225   4.049   0.141 -0.4627  0.4730  0.6525
  633MPD2    N1 9434   0.205   4.515  17.583 -0.3747 -0.7135 -0.1690
  633MPD2    H7 9435   0.170   4.464  17.503 -0.8990 -2.1917  0.9880
  634TMC3    C1 9436   0.222   4.686  17.429  0.9071 -0.1252  0.2127
  634TMC3    C2 9437   0.239   4.585  17.335 -0.5938 -0.1460 -0.3379
  634TMC3    C3 9438   0.233   4.615  17.201  0.0972 -0.8710 -0.1051
  634TMC3    C4 9439   0.198   0.078  17.393  0.7911 -0.4116 -0.8996
  634TMC3    C5 9440   0.192   0.106  17.260  0.4633  0.3886  0.3783
  634TMC3    C6 9441   0.200   0.007  17.162 -0.8192  0.2178 -0.0495
  634TMC3     C 9442   0.224   4.648  17.564 -0.0677 -0.5522 -0.9388
  634TMC3     O 9443   0.250   4.731  17.645  0.3257 -0.3055  0.3646
  634TMC3     H 9444   0.280   4.490  17.367 -1.8127 -0.3804  0.5206
  634TMC3    H1 9445   0.175   0.151  17.470 -1.4681 -1.8708 -0.2103
  634TMC3    H2 9446   0.175   0.031  17.060 -0.1586  0.1679 -0.2227
  634TMC3    C7 9447   0.214   0.244  17.213 -0.1676  0.7640 -0.0248
  634TMC3    C8 9448   0.238   4.507  17.106  0.2968  0.1345 -0.0407
  634TMC3    O1 9449   0.270   0.252  17.106 -0.0508 -0.4386 -0.5816
  634TMC3    O2 9450   0.217   4.391  17.140 -0.0759  0.1243  0.0601
  635TMC3    C1 9451   0.785   0.627   0.325 -0.3235 -0.3123 -0.0964
  635TMC3    C2 9452   0.783   0.524   0.234  0.0403 -0.0202  0.0010
  635TMC3    C3 9453   0.732   0.403   0.278  1.0681  0.3606  0.0645
  635TMC3    C4 9454   0.726   0.619   0.449 -0.7562 -0.0687 -0.5810
  635TMC3    C5 9455   0.683   0.495   0.493  0.7964 -0.3751  0.4107
  635TMC3    C6 9456   0.674   0.388   0.403 -0.4979 -0.4204  0.3240
  635TMC3     C 9457   0.830   0.761   0.288 -0.2543  0.3451  0.3258
  635TMC3     O 9458   0.783   0.863   0.335  0.2005 -0.5632 -0.0550
  635TMC3     H 9459   0.815   0.527   0.130 -1.2309  1.7840 -0.3471
  635TMC3    H1 9460   0.713   0.712   0.504  1.2186 -0.3603  0.3874
  635TMC3    H2 9461   0.633   0.293   0.434 -0.7759 -0.8396 -1.2994
  635TMC3    C7 9462   0.601   0.481   0.619 -0.0062 -0.4590 -0.9502
  635TMC3    C8 9463   0.733   0.286   0.189 -0.1602 -0.3354  0.2044
  635TMC3    O1 9464   0.527   0.384   0.615  0.8728  0.0347 -0.0600
  635TMC3    O2 9465   0.756   0.303   0.070 -0.3160 -0.3349  0.0043
  636MPD2     C 9466   1.285   0.159  16.291  0.0054 -0.4206  0.9744
  636MPD2    C1 9467   1.306   0.146  16.425 -0.3879 -0.2819  0.0210
  636MPD2    C2 9468   1.358   0.028  16.482 -0.4666 -0.1195 -0.0929
  636MPD2    C3 9469   1.400   4.660  16.401  0.1539 -0.2030  0.1583
  636MPD2    C4 9470   1.390   4.680  16.265 -0.6722 -0.3995 -0.0674
  636MPD2    C5 9471   1.324   0.051  16.215 -0.4394 -0.5192 -0.6326
  636MPD2     H 9472   1.363   0.022  16.590  1.9917 -1.0268 -0.2386
  636MPD2    H1 9473   1.417   4.603  16.193 -0.5178 -0.2755 -0.1422
  636MPD2    H2 9474   1.231   0.240  16.244  0.7308 -0.5775 -0.1330
  636MPD2    H3 9475   1.320   0.066  16.108  2.7161 -1.0709 -0.8298
  636MPD2     N 9476   1.453   4.541  16.463  0.4456  0.1629 -0.1756
  636MPD2    H5 9477   1.474   4.541  16.562  1.1907  0.4456 -0.3328
  636MPD2    N1 9478   1.275   0.251  16.518  0.6497  0.6616 -0.0995
  636MPD2    H7 9479   1.296   0.236  16.616  1.2784  0.3626 -0.2792
  637TMC3    C1 9480   1.497   4.318  16.497 -0.8938 -0.2034 -0.2900
  637TMC3    C2 9481   1.488   4.340  16.632  0.3223  0.1618  0.0823
  637TMC3    C3 9482   1.578   4.279  16.719  0.2894 -0.2049 -0.5047
  637TMC3    C4 9483   1.600   4.237  16.445  0.6823  0.0485  0.9365
  637TMC3    C5 9484   1.680   4.170  16.531 -0.1907 -0.6335 -0.8614
  637TMC3    C6 9485   1.678   4.189  16.668 -0.0423  0.0784 -0.3903
  637TMC3     C 9486   1.460   4.418  16.401  0.4345  0.0988  0.2349
  637TMC3     O 9487   1.451   4.389  16.283  0.0692  0.2603 -0.2825
  637TMC3     H 9488   1.405   4.395  16.675  0.1763 -1.1581  1.5117
  637TMC3    H1 9489   1.619   4.237  16.338 -2.2373 -0.5788  0.4248
  637TMC3    H2 9490   1.733   4.118  16.728  0.5064  0.2737 -0.6657
  637TMC3    C7 9491   1.784   4.083  16.487 -0.2264 -0.2782  0.6752
  637TMC3    C8 9492   1.607   4.351  16.838 -0.1921  0.1377  0.2179
  637TMC3    O1 9493   1.772   3.970  16.539 -0.3986  0.1657  0.4604
  637TMC3    O2 9494   1.542   4.454  16.856 -0.3199  0.2520 -0.4406
  638MPD2     C 9495   1.425   3.668  15.035  0.8274  0.5274 -0.0731
  638MPD2    C1 9496   1.361   3.565  14.983 -0.3424 -0.3804 -0.0400
  638MPD2    C2 9497   1.282   3.480  15.072  1.1832 -0.2519 -0.3955
  638MPD2    C3 9498   1.276   3.502  15.209  0.3088  0.1101  0.4690
  638MPD2    C4 9499   1.332   3.621  15.253  0.1513  0.0691 -0.4165
  638MPD2    C5 9500   1.399   3.702  15.168 -0.1465  0.1486 -0.0963
  638MPD2     H 9501   1.227   3.395  15.034  0.0059 -0.3111  1.4585
  638MPD2    H1 9502   1.322   3.655  15.356  2.8850 -0.6576  0.0929
  638MPD2    H2 9503   1.486   3.735  14.976 -2.6943  2.8325 -1.0795
  638MPD2    H3 9504   1.442   3.791  15.212  1.2730 -1.9601  2.7863
  638MPD2     N 9505   1.213   3.417  15.290 -0.3487 -0.5421 -0.3723
  638MPD2    H5 9506   1.176   3.338  15.238 -0.3672  0.2864 -1.6118
  638MPD2    N1 9507   1.385   3.530  14.853 -0.1100  0.2711  0.6835
  638MPD2    H7 9508   1.450   3.595  14.808 -0.4247  1.6078  2.1699
  639TMC3    C1 9509   1.184   3.286  15.477  0.5896 -0.0097 -1.0072
  639TMC3    C2 9510   1.079   3.238  15.403 -0.2956  0.6279 -0.0524
  639TMC3    C3 9511   1.063   3.104  15.410  0.0232 -1.4303 -0.1435
  639TMC3    C4 9512   1.275   3.209  15.545  0.7109 -0.4579 -0.0640
  639TMC3    C5 9513   1.260   3.076  15.533 -0.0796 -0.4380 -0.4265
  639TMC3    C6 9514   1.152   3.022  15.475  0.6512  0.4288  0.0547
  639TMC3     C 9515   1.236   3.407  15.428  0.2741 -0.2790  1.4571
  639TMC3     O 9516   1.302   3.480  15.502 -0.4776  0.2478 -0.2919
  639TMC3     H 9517   0.999   3.301  15.365 -0.8555 -0.8254 -1.2675
  639TMC3    H1 9518   1.360   3.257  15.592 -0.1994 -0.3623  1.5115
  639TMC3    H2 9519   1.148   2.915  15.457 -1.4082  0.5513 -0.2566
  639TMC3    C7 9520   1.369   2.987  15.568  0.0251 -0.0660 -0.0675
  639TMC3    C8 9521   0.960   3.041  15.326  1.4045 -0.0025  1.0939
  639TMC3    O1 9522   1.330   2.872  15.580 -0.0161  0.2021  0.6426
  639TMC3    O2 9523   0.997   2.950  15.249 -0.4445 -1.1344  0.2401
  640MPD2     C 9524   2.113   2.389  10.334  0.2993 -0.0975  0.7002
  640MPD2    C1 9525   2.085   2.417  10.200 -0.4491  0.0392  0.2490
  640MPD2    C2 9526   1.989   2.512  10.169 -0.7492 -0.3939  0.0316
  640MPD2    C3 9527   1.923   2.569  10.277  1.1436 -0.0621  0.0966
  640MPD2    C4 9528   1.945   2.534  10.410 -0.0447  0.0133  0.1201
  640MPD2    C5 9529   2.038   2.439  10.433  0.1374 -0.2362 -0.4007
  640MPD2     H 9530   1.962   2.536  10.066  0.6351  1.6879  0.1734
  640MPD2    H1 9531   1.882   2.567  10.492 -0.4739 -1.4369  0.3818
  640MPD2    H2 9532   2.191   2.318  10.360  0.0313 -0.4921  0.4356
  640MPD2    H3 9533   2.065   2.413  10.535  0.1284 -1.2691 -0.6663
  640MPD2     N 9534   1.820   2.660  10.261  0.2543 -0.0711 -0.3244
  640MPD2    H5 9535   1.770   2.686  10.345 -0.2609 -0.7649 -0.4229
  640MPD2    N1 9536   2.143   2.336  10.109 -0.0982 -0.0127 -0.3926
  640MPD2    H7 9537   2.215   2.276  10.147 -0.2457 -0.7852 -1.3392
  641TMC3    C1 9538   2.195   2.241   9.904  0.2873 -0.2498 -0.3864
  641TMC3    C2 9539   2.329   2.242   9.922  0.2760 -0.4140  0.2128
  641TMC3    C3 9540   2.404   2.170   9.834 -0.0846 -0.3069  0.0956
  641TMC3    C4 9541   2.134   2.193   9.790 -0.7361  0.3337 -0.1942
  641TMC3    C5 9542   2.211   2.132   9.697 -0.1258  0.4225 -0.3222
  641TMC3    C6 9543   2.350   2.106   9.729  0.2946 -0.1553  0.3928
  641TMC3     C 9544   2.094   2.309   9.985  0.7384 -0.2666 -0.5300
  641TMC3     O 9545   1.974   2.324   9.949 -0.2674  0.0378  0.1599
  641TMC3     H 9546   2.380   2.289  10.005  0.5244  0.9076 -0.6880
  641TMC3    H1 9547   2.026   2.200   9.775 -0.7442  2.1958  0.7867
  641TMC3    H2 9548   2.413   2.052   9.659  2.7802  2.0951  0.8910
  641TMC3    C7 9549   2.147   2.062   9.587  0.0199 -0.0747  0.2299
  641TMC3    C8 9550   2.516   2.098   9.896  0.0008  0.0261  0.3483
  641TMC3    O1 9551   2.214   1.968   9.542 -0.4907 -0.5610 -0.1367
  641TMC3    O2 9552   2.516   1.977   9.882  0.0083 -0.3491 -0.2716
  642TMC3    C1 9553   2.737   2.939  12.984 -0.5526  0.1714  0.6348
  642TMC3    C2 9554   2.740   2.914  13.118  0.1528  0.2305  0.2023
  642TMC3    C3 9555   2.718   2.787  13.158  0.5737  0.7137  0.1160
  642TMC3    C4 9556   2.694   2.849  12.888 -0.4074 -0.1428 -0.2398
  642TMC3    C5 9557   2.657   2.726  12.941 -0.6100 -0.3417  0.1375
  642TMC3    C6 9558   2.678   2.687  13.072 -0.0528  0.4188  0.0253
  642TMC3     C 9559   2.732   3.077  12.953 -0.2514 -0.1237 -0.8227
  642TMC3     O 9560   2.838   3.139  12.976 -0.1853  0.1123 -0.3158
  642TMC3     H 9561   2.754   3.000  13.182  1.3518 -1.0412  1.6608
  642TMC3    H1 9562   2.692   2.865  12.781 -1.1860  3.4177  0.3191
  642TMC3    H2 9563   2.638   2.593  13.107 -1.3914  0.4266 -1.4837
  642TMC3    C7 9564   2.600   2.634  12.840 -0.3826 -0.1338 -0.6188
  642TMC3    C8 9565   2.739   2.750  13.301  0.1957 -0.7024 -0.0952
  642TMC3    O1 9566   2.637   2.647  12.725 -0.6381 -0.0442 -0.0899
  642TMC3    O2 9567   2.783   2.637  13.325  0.4110 -0.1497  0.7233
  643TMC3    C1 9568   2.068   2.849   0.311  0.5608 -0.0594  0.3639
  643TMC3    C2 9569   1.995   2.930   0.240  0.1682  0.8218  0.1229
  643TMC3    C3 9570   1.986   2.930   0.104  0.4942  0.2010  0.3811
  643TMC3    C4 9571   2.129   2.751   0.242  0.3550  0.3590  0.0621
  643TMC3    C5 9572   2.109   2.738   0.108 -0.3338  0.2814  0.2662
  643TMC3    C6 9573   2.041   2.828   0.033  0.0977 -0.1041 -0.4021
  643TMC3     C 9574   2.112   2.890   0.440 -0.7980  0.0267  0.2270
  643TMC3     O 9575   2.075   3.001   0.474  0.2561 -0.0365 -0.1867
  643TMC3     H 9576   1.938   3.004   0.295  0.1413  2.8502 -2.6119
  643TMC3    H1 9577   2.188   2.677   0.294  0.6756  0.1643 -0.5679
  643TMC3    H2 9578   2.053   2.825  17.674 -3.1659  2.8941 -0.8575
  643TMC3    C7 9579   2.172   2.643   0.033  0.3089  0.0577  0.1045
  643TMC3    C8 9580   1.915   3.041   0.039 -0.2157 -0.3615  0.2462
  643TMC3    O1 9581   2.125   2.617  17.673 -0.6469 -0.2071 -0.1566
  643TMC3    O2 9582   1.913   3.147   0.097  0.3597 -0.1596 -0.1654
  644MPD2     C 9583   3.922   3.389   9.641  0.4967 -0.1848 -0.5829
  644MPD2    C1 9584   3.788   3.408   9.628  0.5490 -0.6485  0.6054
  644MPD2    C2 9585   3.738   3.533   9.603 -1.0861  0.2072  0.1318
  644MPD2    C3 9586   3.832   3.634   9.591 -0.0359 -0.5081 -0.4737
  644MPD2    C4 9587   3.968   3.608   9.608  0.4534 -0.6299 -0.2639
  644MPD2    C5 9588   4.012   3.484   9.625  0.5929  0.5499  0.7665
  644MPD2     H 9589   3.636   3.555   9.573 -1.3663 -0.1367  0.8273
  644MPD2    H1 9590   4.050   3.679   9.611  0.7347 -0.8677 -2.4893
  644MPD2    H2 9591   3.962   3.293   9.674 -0.0072  0.5240  2.1147
  644MPD2    H3 9592   4.118   3.463   9.618  0.5852  1.0110 -0.6281
  644MPD2     N 9593   3.796   3.764   9.537  0.1212  0.1401 -0.4384
  644MPD2    H5 9594   3.697   3.770   9.517  0.0190  2.0301  0.6312
  644MPD2    N1 9595   3.707   3.298   9.625  0.7370  0.1145  0.2213
  644MPD2    H7 9596   3.749   3.206   9.618 -1.2057 -0.6572 -1.0706
  645TMC3    C1 9597   3.794   3.989   9.464 -0.0458 -0.2896  0.1763
  645TMC3    C2 9598   3.864   4.100   9.419  0.2713  0.4280  0.5032
  645TMC3    C3 9599   3.797   4.198   9.350  0.2932  0.1743  0.0467
  645TMC3    C4 9600   3.658   3.979   9.434 -0.2480  0.5894  0.5785
  645TMC3    C5 9601   3.601   4.078   9.355 -0.1476  0.5477  0.0906
  645TMC3    C6 9602   3.659   4.192   9.324  0.0678  0.0099 -0.0305
  645TMC3     C 9603   3.874   3.879   9.515 -0.4025  0.3018  0.5877
  645TMC3     O 9604   3.994   3.899   9.536  0.2927  0.1538 -0.0189
  645TMC3     H 9605   3.971   4.097   9.436  0.0796 -0.8020  1.5229
  645TMC3    H1 9606   3.593   3.900   9.469 -0.4559  0.9602  1.0344
  645TMC3    H2 9607   3.619   4.265   9.255  1.2537  0.6376 -0.0624
  645TMC3    C7 9608   3.459   4.065   9.337  0.4953 -0.1880 -0.7071
  645TMC3    C8 9609   3.880   4.312   9.320  0.8991  0.5735 -0.1330
  645TMC3    O1 9610   3.420   3.953   9.331  0.1457  1.0672 -0.0574
  645TMC3    O2 9611   4.000   4.305   9.356 -0.7366 -0.6493  0.2268
  646MPD2     C 9612   1.169   2.131  15.010 -0.0419 -0.3372  0.0511
  646MPD2    C1 9613   1.109   2.162  15.131 -0.0971 -0.3117 -0.0723
  646MPD2    C2 9614   0.991   2.235  15.127 -0.7276 -0.7721  0.4385
  646MPD2    C3 9615   0.930   2.269  15.005  0.2291  0.4855  0.0660
  646MPD2    C4 9616   0.995   2.235  14.888 -0.8724 -0.2493 -0.4371
  646MPD2    C5 9617   1.103   2.157  14.898 -0.2228 -0.2929  0.1724
  646MPD2     H 9618   0.942   2.261  15.220 -0.9803 -0.0907  0.1189
  646MPD2    H1 9619   0.965   2.260  14.787 -0.4960  2.5771  0.1443
  646MPD2    H2 9620   1.252   2.061  15.004 -0.6959 -1.2848  1.9921
  646MPD2    H3 9621   1.145   2.118  14.806 -1.5999 -0.8885 -0.2076
  646MPD2     N 9622   0.801   2.332  15.002  0.2229 -0.2388 -0.5263
  646MPD2    H5 9623   0.760   2.366  15.088 -0.8396  0.6053 -1.3622
  646MPD2    N1 9624   1.167   2.100  15.246  0.6436  0.1467 -0.6751
  646MPD2    H7 9625   1.252   2.045  15.245  0.4679 -0.1107 -1.6009
  647TMC3    C1 9626   1.213   2.053  15.476  0.2120 -0.8468  0.4629
  647TMC3    C2 9627   1.160   1.978  15.576  0.4000 -0.0603  0.3742
  647TMC3    C3 9628   1.241   1.911  15.667 -0.1757 -0.1927 -0.5028
  647TMC3    C4 9629   1.342   2.069  15.464 -0.6971 -0.1019 -0.0096
  647TMC3    C5 9630   1.429   2.003  15.549  0.2576  0.6524  0.9507
  647TMC3    C6 9631   1.375   1.925  15.660  0.0546  0.4366 -0.5723
  647TMC3     C 9632   1.125   2.120  15.373 -0.0091 -0.3347  0.3596
  647TMC3     O 9633   1.029   2.176  15.423 -0.3347  0.0507  0.0474
  647TMC3     H 9634   1.053   1.964  15.570  0.1066  2.6551 -0.6144
  647TMC3    H1 9635   1.393   2.150  15.414 -0.3895 -1.2778 -1.6008
  647TMC3    H2 9636   1.439   1.874  15.731  1.2571  1.1107 -1.1754
  647TMC3    C7 9637   1.571   1.991  15.531 -0.9261  0.1687  0.3735
  647TMC3    C8 9638   1.205   1.782  15.729 -0.2167 -0.1931 -0.3783
  647TMC3    O1 9639   1.640   1.958  15.630  0.2112 -0.5300  0.2817
  647TMC3    O2 9640   1.236   1.757  15.845 -0.1988  0.2050 -0.4191
  648TMC3    C1 9641   0.679   4.623  16.624 -0.2389  0.1266 -0.1722
  648TMC3    C2 9642   0.705   4.492  16.591  0.2471  0.6301  0.4065
  648TMC3    C3 9643   0.670   4.456  16.464 -0.3840 -0.3848  0.0335
  648TMC3    C4 9644   0.630   4.716  16.538  0.1964 -0.5306  0.3830
  648TMC3    C5 9645   0.613   4.673  16.406 -0.9288  0.5143  0.1835
  648TMC3    C6 9646   0.619   4.542  16.373 -0.1333  0.2310  0.3650
  648TMC3     C 9647   0.680   4.665  16.766  0.6700 -0.2023 -0.1969
  648TMC3     O 9648   0.706   0.046  16.789 -0.1229  0.0678  0.5002
  648TMC3     H 9649   0.756   4.427  16.662 -0.1262  1.0195  1.0393
  648TMC3    H1 9650   0.616   0.079  16.576  1.3169 -0.0085 -0.5930
  648TMC3    H2 9651   0.570   4.507  16.282 -0.9293  1.7427  0.2107
  648TMC3    C7 9652   0.551   0.021  16.309  0.5725  0.5614  0.2633
  648TMC3    C8 9653   0.709   4.319  16.441 -0.7132 -0.5568  0.4640
  648TMC3    O1 9654   0.545   4.728  16.193  0.0990 -0.5731  0.8315
  648TMC3    O2 9655   0.693   4.236  16.529  0.1173 -0.3097 -0.7348
  649TMC3    C1 9656   4.074   0.899  13.299 -0.9179 -0.2101  1.2093
  649TMC3    C2 9657   4.143   1.015  13.315 -0.4090 -0.5848  0.3347
  649TMC3    C3 9658   4.248   1.013  13.401 -0.6814 -0.0963  0.2787
  649TMC3    C4 9659   4.116   0.783  13.354  0.3658 -0.0701  0.4553
  649TMC3    C5 9660   4.228   0.782  13.434  0.6215  0.0243 -1.3644
  649TMC3    C6 9661   4.291   0.899  13.459 -0.3014 -0.5333  0.6184
  649TMC3     C 9662   3.950   0.913  13.228 -0.3919 -0.1723 -0.0974
  649TMC3     O 9663   3.921   1.029  13.208  0.0106 -0.1823 -0.3404
  649TMC3     H 9664   4.109   1.106  13.268  1.0047  0.2144  0.8808
  649TMC3    H1 9665   4.063   0.689  13.340 -2.5077  1.4892  0.8501
  649TMC3    H2 9666   4.372   0.906  13.530  0.5019  0.6904 -0.4252
  649TMC3    C7 9667   4.196   0.715  13.558 -0.0204  0.0618  0.7933
  649TMC3    C8 9668   4.303   1.141  13.440  0.2486  0.8938 -0.6113
  649TMC3    O1 9669   4.181   0.791  13.653 -0.1851  0.0197  0.0403
  649TMC3    O2 9670   4.397   1.132  13.522 -0.2488  0.0841 -0.6576
  650TMC3    C1 9671   1.960   2.374  13.117  0.2146 -0.5121  0.1191
  650TMC3    C2 9672   1.928   2.504  13.115 -0.2201 -0.1956  0.3089
  650TMC3    C3 9673   1.799   2.540  13.103 -0.9362 -0.4301  0.3034
  650TMC3    C4 9674   1.869   2.275  13.091 -0.0537 -0.2038  0.9999
  650TMC3    C5 9675   1.739   2.317  13.062 -0.5046  0.4487 -0.1114
  650TMC3    C6 9676   1.701   2.450  13.075 -0.0338  0.1836  0.3616
  650TMC3     C 9677   2.081   2.332  13.186 -0.4321  0.1862 -0.3724
  650TMC3     O 9678   2.164   2.419  13.205 -0.1211  0.5236 -0.8136
  650TMC3     H 9679   2.003   2.581  13.123 -0.1562 -0.2093 -0.1164
  650TMC3    H1 9680   1.891   2.169  13.083  0.9597  0.0148  0.8516
  650TMC3    H2 9681   1.598   2.484  13.076 -0.0374  0.3556 -3.3507
  650TMC3    C7 9682   1.685   2.256  12.941  0.0836  0.4909 -0.6031
  650TMC3    C8 9683   1.779   2.681  13.079  0.5321  0.0444  0.1477
  650TMC3    O1 9684   1.740   2.153  12.910  0.5585  0.1974 -0.2622
  650TMC3    O2 9685   1.879   2.744  13.046 -0.2171 -0.1324  0.6845
  651MPD2     C 9686   1.298   4.035  11.434 -0.0356  0.6751  0.2407
  651MPD2    C1 9687   1.282   4.058  11.299 -0.7216  0.8235  0.1500
  651MPD2    C2 9688   1.373   4.143  11.236 -0.9613  0.2638 -0.0903
  651MPD2    C3 9689   1.482   4.196  11.294 -0.0154 -0.6139 -0.3134
  651MPD2    C4 9690   1.501   4.169  11.423  0.5542 -0.6470 -0.0875
  651MPD2    C5 9691   1.407   4.095  11.497 -0.0160 -0.3568 -0.6894
  651MPD2     H 9692   1.370   4.165  11.130 -1.7074 -1.2334 -0.3738
  651MPD2    H1 9693   1.582   4.214  11.479  1.4785 -1.0165 -1.1173
  651MPD2    H2 9694   1.228   3.978  11.494  0.1355  1.1219  0.8567
  651MPD2    H3 9695   1.418   4.079  11.604 -1.6791 -2.9668 -0.9030
  651MPD2     N 9696   1.557   4.291  11.225  0.4869 -0.7152 -0.0614
  651MPD2    H5 9697   1.520   4.316  11.134 -1.8810 -0.3148  1.0133
  651MPD2    N1 9698   1.171   4.019  11.225 -0.3097  0.2903  0.1162
  651MPD2    H7 9699   1.165   4.053  11.129 -0.1805  1.4343  0.5176
  652TMC3    C1 9700   1.895   4.569  11.063 -0.1157 -0.0910 -0.3704
  652TMC3    C2 9701   1.851   4.471  11.148 -0.1338  0.5000  0.9966
  652TMC3    C3 9702   1.716   4.441  11.152  0.2222  0.2024  0.1722
  652TMC3    C4 9703   1.804   4.638  10.992 -0.3367  0.1222 -0.4825
  652TMC3    C5 9704   1.668   4.606  11.003 -0.6541  0.0430  0.5270
  652TMC3    C6 9705   1.615   4.504  11.081  0.5161 -0.4205 -0.7245
  652TMC3     C 9706   2.036   4.580  11.053 -0.7117  0.1792  0.6481
  652TMC3     O 9707   2.101   4.500  11.118  0.0462  0.4377 -0.1430
  652TMC3     H 9708   1.916   4.428  11.223 -1.4358 -0.5912  1.5081
  652TMC3    H1 9709   1.830   4.719  10.925  2.1768  0.2971  0.7143
  652TMC3    H2 9710   1.510   4.476  11.074  0.1091  0.5301  1.5579
  652TMC3    C7 9711   1.588   4.654  10.894 -0.6077  0.6525 -0.3600
  652TMC3    C8 9712   1.681   4.340  11.251 -0.2224  0.2891  0.0405
  652TMC3    O1 9713   1.614   0.029  10.849 -0.5203 -0.4287 -0.0331
  652TMC3    O2 9714   1.763   4.308  11.333 -0.1833  0.3086  0.4837
  653MPD2     C 9715   0.072   4.637   0.414 -0.6979 -0.5762 -0.2921
  653MPD2    C1 9716   4.734   0.008   0.383  0.5533  0.1769 -0.1516
  653MPD2    C2 9717   4.641   4.733   0.284 -0.5991  0.3510  0.5085
  653MPD2    C3 9718   4.623   4.616   0.213  0.4245  0.1257 -0.0338
  653MPD2    C4 9719   4.691   4.502   0.258  0.5554  0.5512 -0.1278
  653MPD2    C5 9720   0.040   4.519   0.358  0.4977 -1.4112 -0.2394
  653MPD2     H 9721   4.570   0.074   0.262  0.0946  0.5111 -1.1784
  653MPD2    H1 9722   4.683   4.402   0.218 -2.0678  0.1892  1.3130
  653MPD2    H2 9723   0.155   4.634   0.484 -1.9568  1.8670  1.3089
  653MPD2    H3 9724   0.099   4.436   0.397  0.3991 -0.7866  1.2334
  653MPD2     N 9725   4.527   4.605   0.114 -0.8776 -0.1670  0.3911
  653MPD2    H5 9726   4.482   4.691   0.083  0.3394 -0.4738 -2.2584
  653MPD2    N1 9727   0.015   0.130   0.451  0.1179  0.6551  0.1166
  653MPD2    H7 9728   4.698   0.210   0.420  1.0881  1.1987 -0.1688
  654TMC3    C1 9729   4.394   4.494  17.694 -0.4270 -0.1767  0.0433
  654TMC3    C2 9730   4.300   4.591  17.692 -0.0972 -0.8708 -1.0541
  654TMC3    C3 9731   4.210   4.584  17.591  0.4633  0.0443 -0.1966
  654TMC3    C4 9732   4.402   4.392  17.599  0.0054 -0.0440  0.4470
  654TMC3    C5 9733   4.320   4.399  17.495  0.2732 -0.2645 -0.4866
  654TMC3    C6 9734   4.222   4.498  17.492 -0.8608 -0.0295  0.3731
  654TMC3     C 9735   4.488   4.487   0.050 -0.4364 -0.4784 -0.1456
  654TMC3     O 9736   4.516   4.366   0.078  0.4761 -0.3371 -0.1288
  654TMC3     H 9737   4.281   4.654   0.029  1.8727 -0.2394 -1.0685
  654TMC3    H1 9738   4.471   4.309  17.605 -0.8545 -0.8168 -0.3686
  654TMC3    H2 9739   4.163   4.508  17.402  1.2071  0.8535 -0.8845
  654TMC3    C7 9740   4.311   4.298  17.391 -0.1574 -0.7123 -0.1829
  654TMC3    C8 9741   4.080   4.659  17.586 -0.1292  1.0176  0.7652
  654TMC3    O1 9742   4.301   4.332  17.273 -0.0025 -0.1333  0.2718
  654TMC3    O2 9743   3.987   4.613  17.517 -0.6294  0.3542  0.1078
  655MPD2     C 9744   1.164   4.668  15.901 -0.1580 -0.1815  0.0100
  655MPD2    C1 9745   1.122   0.053  15.869 -0.3825 -0.5972 -0.0436
  655MPD2    C2 9746   1.158   0.107  15.743  0.0408 -0.4647 -0.1996
  655MPD2    C3 9747   1.217   0.018  15.652  0.9798  0.6395 -0.0269
  655MPD2    C4 9748   1.262   4.633  15.693  0.0561  0.3869 -0.1575
  655MPD2    C5 9749   1.235   4.587  15.819 -0.4197 -0.3127  0.7936
  655MPD2     H 9750   1.123   0.204  15.710 -0.0804  0.1603  1.7930
  655MPD2    H1 9751   1.306   4.558  15.629  0.1646 -0.0952  0.4841
  655MPD2    H2 9752   1.146   4.628  16.000  0.1998 -1.7013 -0.5418
  655MPD2    H3 9753   1.280   4.496  15.856  3.0099  1.2925  0.6477
  655MPD2     N 9754   1.241   0.064  15.520  0.3962  0.0713  0.1821
  655MPD2    H5 9755   1.299   0.001  15.465 -1.1825  1.5866 -3.1894
  655MPD2    N1 9756   1.040   0.138  15.951  0.6482 -0.1779  0.3289
  655MPD2    H7 9757   1.016   0.226  15.906 -0.3550  0.1523  1.5358
  656TMC3    C1 9758   0.913   0.216  16.117 -0.5318  0.7858 -0.2473
  656TMC3    C2 9759   0.885   0.225  16.248  0.2279  0.1073  0.3881
  656TMC3    C3 9760   0.806   0.328  16.293 -0.2899 -0.0381 -0.2243
  656TMC3    C4 9761   0.856   0.301  16.023  0.6311 -0.1902  0.5624
  656TMC3    C5 9762   0.777   0.398  16.067 -0.2984 -0.0925 -0.3304
  656TMC3    C6 9763   0.748   0.415  16.202 -0.1464 -0.0144 -0.1585
  656TMC3     C 9764   0.994   0.108  16.069 -0.1822 -0.0725 -0.2136
  656TMC3     O 9765   1.006   0.005  16.131  0.2995  0.1828 -0.3308
  656TMC3     H 9766   0.924   0.154  16.321 -0.2358  0.4678  0.9850
  656TMC3    H1 9767   0.876   0.292  15.916  0.5514 -0.7572  0.5949
  656TMC3    H2 9768   0.667   0.480  16.234  1.1872  0.1517  2.8274
  656TMC3    C7 9769   0.690   0.466  15.968 -0.3524  0.0859  0.2771
  656TMC3    C8 9770   0.776   0.340  16.439 -0.0079  0.1689 -0.2181
  656TMC3    O1 9771   0.715   0.430  15.852  0.3647  0.3662 -0.0895
  656TMC3    O2 9772   0.790   0.239  16.506 -0.4263 -0.0216  0.2078
  657TMC3    C1 9773   4.615   4.475  14.867 -0.1608 -0.1210 -0.3496
  657TMC3    C2 9774   4.673   4.551  14.961  0.3454  0.7407  0.9877
  657TMC3    C3 9775   4.601   4.660  15.005 -0.2908 -0.5786  0.1057
  657TMC3    C4 9776   4.504   4.512  14.799  0.8007 -0.8154  0.2580
  657TMC3    C5 9777   4.441   4.622  14.842 -0.4080 -0.3792  0.0748
  657TMC3    C6 9778   4.481   4.695  14.948 -0.5747 -0.2685  0.2047
  657TMC3     C 9779   4.682   4.353  14.826 -0.1744 -0.6277 -0.4139
  657TMC3     O 9780   4.613   4.276  14.763 -0.6612  0.2065 -0.2291
  657TMC3     H 9781   0.020   4.511  15.015  0.6539  0.0066 -0.0349
  657TMC3    H1 9782   4.467   4.455  14.715 -1.6985 -0.5227  1.1393
  657TMC3    H2 9783   4.439   0.053  14.976 -0.9972  0.0521 -1.5325
  657TMC3    C7 9784   4.345   4.689  14.752  1.2992 -0.3832 -0.7726
  657TMC3    C8 9785   4.646   4.727  15.127 -0.1510  0.4604 -0.4275
  657TMC3    O1 9786   4.291   0.053  14.791 -0.0900 -0.3939 -0.7616
  657TMC3    O2 9787   4.608   0.108  15.141  0.2874 -0.5620 -0.0488
  658MPD2     C 9788   1.576   4.516  15.116 -0.3566  0.4846 -0.6671
  658MPD2    C1 9789   1.514   4.611  15.046  0.5447 -0.1930  0.1446
  658MPD2    C2 9790   1.471   4.577  14.919 -0.3189 -0.4064  0.7047
  658MPD2    C3 9791   1.500   4.448  14.858 -0.4007 -0.0349 -0.7169
  658MPD2    C4 9792   1.561   4.347  14.932  0.3556 -0.1241 -0.5316
  658MPD2    C5 9793   1.600   4.389  15.063 -0.0093  0.1912  0.4293
  658MPD2     H 9794   1.423   4.650  14.854  1.4469  1.2502  1.2530
  658MPD2    H1 9795   1.586   4.248  14.896  0.1389 -0.4771  0.2837
  658MPD2    H2 9796   1.613   4.539  15.215  0.6648 -0.6530 -0.7964
  658MPD2    H3 9797   1.659   4.324  15.126  0.5170  0.5547  0.3118
  658MPD2     N 9798   1.455   4.434  14.721 -0.2872 -0.1974  0.6487
  658MPD2    H5 9799   1.411   4.514  14.677  1.0542 -0.1764 -0.6372
  658MPD2    N1 9800   1.484   4.734  15.107 -0.6682  0.0144 -0.1367
  658MPD2    H7 9801   1.494   0.005  15.207 -0.6906 -0.1910 -0.1159
  659TMC3    C1 9802   1.373   0.193  15.136 -0.0147  0.5478 -0.0234
  659TMC3    C2 9803   1.340   0.145  15.264 -0.2251  0.3500 -0.4717
  659TMC3    C3 9804   1.212   0.187  15.315 -0.4174  0.4509 -0.4600
  659TMC3    C4 9805   1.285   0.276  15.071 -0.1497 -0.1158  0.1732
  659TMC3    C5 9806   1.170   0.324  15.127 -0.3642  0.8661  1.0223
  659TMC3    C6 9807   1.126   0.280  15.255  0.8822  0.0983  0.0660
  659TMC3     C 9808   1.427   0.101  15.043 -0.3634  0.1827  0.1386
  659TMC3     O 9809   1.421   0.124  14.926  0.4595 -0.3030  0.1095
  659TMC3     H 9810   1.405   0.093  15.334  0.9955  2.8647  0.2583
  659TMC3    H1 9811   1.320   0.324  14.981 -2.0128  1.1003  0.1118
  659TMC3    H2 9812   1.037   0.310  15.311  1.2141  0.3117  0.4825
  659TMC3    C7 9813   1.055   0.368  15.055 -0.3396  0.5398  0.5721
  659TMC3    C8 9814   1.173   0.163  15.455  0.0175  0.5449 -0.0691
  659TMC3    O1 9815   0.967   0.417  15.125 -0.2871  0.2253 -0.4011
  659TMC3    O2 9816   1.090   0.242  15.502 -0.4266 -0.2659  0.4384
  660MPD2     C 9817   4.040   3.151  12.831  0.1223  0.0335 -0.8754
  660MPD2    C1 9818   3.985   3.259  12.890  0.4680  0.4328  0.7403
  660MPD2    C2 9819   3.943   3.245  13.018 -0.0871 -0.0944  0.0220
  660MPD2    C3 9820   3.939   3.127  13.081  0.1285  0.1163 -0.5150
  660MPD2    C4 9821   3.991   3.020  13.016  0.1383 -0.5649  0.2356
  660MPD2    C5 9822   4.038   3.031  12.890 -0.5576 -0.1118 -0.0648
  660MPD2     H 9823   3.902   3.335  13.062  2.0991  0.3171  1.1929
  660MPD2    H1 9824   3.985   2.920  13.057 -1.8134 -1.5651 -2.4910
  660MPD2    H2 9825   4.081   3.156  12.731  0.0845 -0.4105 -0.9140
  660MPD2    H3 9826   4.082   2.950  12.833 -0.8429  1.1300 -2.0371
  660MPD2     N 9827   3.882   3.117  13.206 -0.3842  0.1991  0.1194
  660MPD2    H5 9828   3.897   3.023  13.243  0.9532  0.9515  1.4802
  660MPD2    N1 9829   3.973   3.373  12.809 -0.9455  0.1257 -0.2321
  660MPD2    H7 9830   4.015   3.352  12.719 -1.1571  1.2373 -0.5965
  661TMC3    C1 9831   3.863   3.550  12.709 -0.3532  0.0763 -0.3252
  661TMC3    C2 9832   3.948   3.526  12.600  0.1688  0.9255 -0.3089
  661TMC3    C3 9833   3.887   3.519  12.482 -0.7381 -0.5221 -0.4558
  661TMC3    C4 9834   3.731   3.585  12.691  0.0905  0.1446  0.0411
  661TMC3    C5 9835   3.679   3.570  12.570  0.2409  0.5955  0.3113
  661TMC3    C6 9836   3.750   3.535  12.462  0.2982  0.0807 -0.0626
  661TMC3     C 9837   3.898   3.485  12.839  0.1865  0.7106 -0.3200
  661TMC3     O 9838   3.827   3.500  12.938  0.2529 -0.1547  0.6386
  661TMC3     H 9839   4.055   3.531  12.618  0.0967 -0.5484  0.4911
  661TMC3    H1 9840   3.671   3.599  12.780 -0.4990 -0.1431 -0.3173
  661TMC3    H2 9841   3.708   3.523  12.363  0.2422  1.7553 -0.2381
  661TMC3    C7 9842   3.538   3.588  12.560 -0.1707  0.9350 -0.1074
  661TMC3    C8 9843   3.959   3.494  12.361 -0.4529  0.4586 -0.4023
  661TMC3    O1 9844   3.482   3.673  12.629 -0.2215 -0.3970 -0.0143
  661TMC3    O2 9845   3.888   3.445  12.275  0.7033  0.0475 -0.1191
  662MPD2     C 9846   4.328   3.131  17.133  0.0254  0.3028 -0.9781
  662MPD2    C1 9847   4.265   3.133  17.255  0.7188 -0.2545 -0.1599
  662MPD2    C2 9848   4.198   3.247  17.301  0.0277 -0.9601  0.3213
  662MPD2    C3 9849   4.200   3.358  17.224  0.1327  0.3001  0.5019
  662MPD2    C4 9850   4.279   3.360  17.110  0.4462 -0.7296  0.0685
  662MPD2    C5 9851   4.337   3.243  17.056  0.0085 -0.0122  0.0442
  662MPD2     H 9852   4.137   3.239  17.391 -0.6079  2.4916  0.1959
  662MPD2    H1 9853   4.304   3.451  17.057  0.6592  0.6898  2.6158
  662MPD2    H2 9854   4.383   3.046  17.096  0.5172  0.2418 -0.1051
  662MPD2    H3 9855   4.401   3.242  16.969  1.0879  0.3366  0.8370
  662MPD2     N 9856   4.129   3.475  17.247  0.5743  0.0321  0.2869
  662MPD2    H5 9857   4.142   3.537  17.167  2.1191  0.4113  0.8226
  662MPD2    N1 9858   4.234   3.020  17.334  0.3046 -0.0393 -0.0332
  662MPD2    H7 9859   4.173   3.029  17.415 -1.5320 -1.7001 -1.2442
  663TMC3    C1 9860   4.204   2.799  17.394  0.0798  0.2007 -1.1118
  663TMC3    C2 9861   4.078   2.827  17.439  0.3260 -0.9552 -0.3046
  663TMC3    C3 9862   4.015   2.739  17.529  0.1425 -0.1407 -0.5865
  663TMC3    C4 9863   4.275   2.699  17.455 -0.1302 -0.5812 -0.6961
  663TMC3    C5 9864   4.217   2.624  17.553  0.5482 -0.3137  0.2279
  663TMC3    C6 9865   4.092   2.643  17.589 -0.6673  0.0059 -0.3182
  663TMC3     C 9866   4.271   2.890  17.302 -0.5657 -0.1122  0.4685
  663TMC3     O 9867   4.368   2.860  17.234  0.1696 -0.0776  0.1464
  663TMC3     H 9868   4.014   2.898  17.389  1.0978  0.6717  1.0101
  663TMC3    H1 9869   4.361   2.652  17.409  0.9940  1.3146 -0.4960
  663TMC3    H2 9870   4.050   2.614  17.685 -0.7853 -0.8939 -0.6392
  663TMC3    C7 9871   4.310   2.526  17.607 -0.1921 -0.1898  0.1180
  663TMC3    C8 9872   3.923   2.814  17.613  0.4535  0.0341 -0.5307
  663TMC3    O1 9873   4.423   2.570  17.610 -0.3408 -0.1078  0.0947
  663TMC3    O2 9874   3.923   2.936  17.605  0.2006  0.1536  0.2414
  664MPD2     C 9875   2.016   1.059   0.233 -0.0806  0.2792 -0.1335
  664MPD2    C1 9876   2.136   1.094   0.288 -0.1197  0.4987  0.0735
  664MPD2    C2 9877   2.169   1.033   0.408  0.1348  0.3944  0.2171
  664MPD2    C3 9878   2.089   0.943   0.469  0.4408  0.0201  0.3187
  664MPD2    C4 9879   1.971   0.901   0.398  0.0607  0.1669 -0.5182
  664MPD2    C5 9880   1.933   0.966   0.286 -0.0584  0.2903  0.3680
  664MPD2     H 9881   2.262   1.062   0.454  0.3670 -1.0728  0.6633
  664MPD2    H1 9882   1.917   0.811   0.423  1.2033 -1.0958 -2.6084
  664MPD2    H2 9883   1.987   1.096   0.135 -1.3510 -1.0180 -0.2525
  664MPD2    H3 9884   1.854   0.934   0.218  0.2100 -0.6129  0.4758
  664MPD2     N 9885   2.132   0.889   0.598  0.1021  0.5624  0.0399
  664MPD2    H5 9886   2.223   0.916   0.634  0.9574 -2.4951  0.1339
  664MPD2    N1 9887   2.225   1.188   0.222 -0.4355  0.6166  0.6180
  664MPD2    H7 9888   2.320   1.194   0.256  0.4706 -2.1287 -1.4583
  665TMC3    C1 9889   2.099   0.801   0.818  0.4638 -0.4283 -0.1697
  665TMC3    C2 9890   2.006   0.775   0.914 -0.0124 -0.5298 -0.2422
  665TMC3    C3 9891   2.037   0.799   1.042  0.5058 -0.0058 -0.0011
  665TMC3    C4 9892   2.234   0.819   0.846 -0.2543 -0.0526  0.0096
  665TMC3    C5 9893   2.267   0.841   0.973 -0.5810  0.2210 -0.2747
  665TMC3    C6 9894   2.168   0.830   1.075 -0.4557  0.2327  0.4970
  665TMC3     C 9895   2.043   0.822   0.684 -0.3982  0.5581 -0.3821
  665TMC3     O 9896   1.932   0.780   0.657 -0.1059 -0.0611 -0.1047
  665TMC3     H 9897   1.904   0.768   0.877 -0.3075 -1.5896  0.7812
  665TMC3    H1 9898   2.308   0.831   0.768  1.0120 -2.2547  0.8870
  665TMC3    H2 9899   2.190   0.823   1.180 -1.9666  0.0204  0.7975
  665TMC3    C7 9900   2.407   0.877   1.002  0.3130 -0.1239 -0.2993
  665TMC3    C8 9901   1.938   0.776   1.152  0.9386 -0.0972  0.0372
  665TMC3    O1 9902   2.496   0.840   0.927  0.0163 -0.5657 -0.2277
  665TMC3    O2 9903   1.950   0.841   1.256 -0.3550  0.5940 -0.1093
  666TMC3    C1 9904   1.369   1.438  10.202  0.7698  0.2917  0.3335
  666TMC3    C2 9905   1.369   1.302  10.213 -0.1028  0.0137 -0.5886
  666TMC3    C3 9906   1.404   1.257  10.335  0.5115  0.6070  0.2214
  666TMC3    C4 9907   1.420   1.515  10.298  0.6399  0.0108  0.4125
  666TMC3    C5 9908   1.434   1.463  10.421 -0.0368  0.7744  0.7092
  666TMC3    C6 9909   1.431   1.328  10.445 -0.3198 -0.5091 -0.2135
  666TMC3     C 9910   1.341   1.500  10.076 -0.9248  0.0024  0.3954
  666TMC3     O 9911   1.389   1.609  10.058 -0.5617  0.3905  0.2887
  666TMC3     H 9912   1.385   1.241  10.125 -0.9463 -0.3060 -0.5253
  666TMC3    H1 9913   1.401   1.622  10.291 -3.4301 -0.7706 -0.7233
  666TMC3    H2 9914   1.450   1.286  10.543  1.4461 -1.6645 -1.0607
  666TMC3    C7 9915   1.438   1.549  10.531  0.7015  0.2427 -0.0958
  666TMC3    C8 9916   1.392   1.113  10.353 -0.2041 -0.3057  0.9711
  666TMC3    O1 9917   1.403   1.511  10.643 -0.6900 -0.2178  0.4043
  666TMC3    O2 9918   1.326   1.058  10.263  0.2213  0.2371 -0.1522
  667MPD2     C 9919   2.676   1.813  14.944  0.2371  0.0871 -0.4726
  667MPD2    C1 9920   2.679   1.762  15.067 -0.4628  0.4955 -0.0086
  667MPD2    C2 9921   2.580   1.687  15.121 -0.3911  0.1864  0.0933
  667MPD2    C3 9922   2.480   1.642  15.034  0.0948  0.6056 -0.3420
  667MPD2    C4 9923   2.476   1.691  14.904 -0.4867  0.3087  0.5457
  667MPD2    C5 9924   2.566   1.783  14.865  0.6537 -0.0061  0.4632
  667MPD2     H 9925   2.574   1.656  15.225  0.5644  2.6082  0.8615
  667MPD2    H1 9926   2.396   1.662  14.837  0.0985  0.9013 -0.4059
  667MPD2    H2 9927   2.747   1.888  14.912  0.4684 -0.1773 -0.5770
  667MPD2    H3 9928   2.555   1.824  14.765 -0.2921  2.3400  1.5449
  667MPD2     N 9929   2.390   1.538  15.070 -0.4699 -0.0456  0.0542
  667MPD2    H5 9930   2.330   1.505  14.995  2.0927  1.6646 -2.7175
  667MPD2    N1 9931   2.782   1.790  15.163 -0.4022  0.4784 -0.6343
  667MPD2    H7 9932   2.766   1.767  15.260  2.0024  3.0854  0.3892
  668TMC3    C1 9933   2.966   1.895  15.267  0.1490  0.1519 -0.4014
  668TMC3    C2 9934   3.075   1.974  15.258  0.0420  0.4092 -0.3354
  668TMC3    C3 9935   3.157   1.984  15.360 -0.0286 -0.3229 -0.7780
  668TMC3    C4 9936   2.940   1.833  15.387 -0.6209  0.5548 -0.3854
  668TMC3    C5 9937   3.026   1.847  15.493 -0.5681  0.1550 -0.2157
  668TMC3    C6 9938   3.140   1.925  15.482  0.5917 -0.1204 -0.4641
  668TMC3     C 9939   2.892   1.863  15.142  0.1062 -0.0475  1.3341
  668TMC3     O 9940   2.935   1.910  15.035 -0.5633 -0.4002 -0.0516
  668TMC3     H 9941   3.102   2.027  15.167 -0.2147  1.3036  0.1088
  668TMC3    H1 9942   2.870   1.751  15.396  2.6156 -2.4338 -1.9610
  668TMC3    H2 9943   3.221   1.930  15.553 -0.2403  0.2175  0.4683
  668TMC3    C7 9944   3.025   1.754  15.604  0.8776 -0.2406 -0.4759
  668TMC3    C8 9945   3.252   2.089  15.370  0.1875 -1.2059 -0.3958
  668TMC3    O1 9946   2.961   1.653  15.590 -0.1209  0.3318  0.6394
  668TMC3    O2 9947   3.298   2.116  15.481  0.1432 -0.4933  0.2773
  669TMC3    C1 9948   1.089   1.214  15.017  0.2377 -0.3106 -0.6678
  669TMC3    C2 9949   0.972   1.215  14.957  0.3554  0.0373 -0.4310
  669TMC3    C3 9950   0.962   1.228  14.824  1.1689  0.4114 -0.0757
  669TMC3    C4 9951   1.210   1.214  14.950 -0.9803  0.1611  0.1799
  669TMC3    C5 9952   1.197   1.220  14.815 -0.3792  0.1070 -0.0492
  669TMC3    C6 9953   1.073   1.218  14.750  0.0237 -0.0456 -0.5169
  669TMC3     C 9954   1.077   1.161  15.152  0.0560 -0.3835 -0.2212
  669TMC3     O 9955   0.983   1.208  15.216 -0.1088  0.0540 -0.2687
  669TMC3     H 9956   0.886   1.211  15.024  1.0594 -1.6880  0.3706
  669TMC3    H1 9957   1.302   1.245  14.998 -0.0035 -1.9613 -0.3322
  669TMC3    H2 9958   1.072   1.217  14.642 -3.6215  1.2988 -0.4854
  669TMC3    C7 9959   1.299   1.296  14.745 -0.4473 -0.3644 -0.5267
  669TMC3    C8 9960   0.841   1.186  14.755 -0.8264 -0.1731  0.3006
  669TMC3    O1 9961   1.378   1.363  14.808  0.3666  0.1337 -0.1431
  669TMC3    O2 9962   0.835   1.189  14.634  0.4934  0.0486  0.0042
  670MPD2     C 9963   3.992   3.999  13.796  0.7443 -0.9338 -1.1919
  670MPD2    C1 9964   4.109   3.954  13.857  0.3801  0.5405  0.1273
  670MPD2    C2 9965   4.104   3.918  13.993 -0.0736  0.1597  0.0429
  670MPD2    C3 9966   3.980   3.930  14.057 -0.3725 -0.0608  0.1254
  670MPD2    C4 9967   3.871   3.976  13.993  0.5191  0.5060 -0.1042
  670MPD2    C5 9968   3.874   4.006  13.861 -0.3568 -0.2078  0.1576
  670MPD2     H 9969   4.188   3.864  14.036  0.5513  0.5204 -0.7141
  670MPD2    H1 9970   3.771   3.975  14.035 -0.0013 -2.5142 -1.4173
  670MPD2    H2 9971   3.992   4.044  13.697  0.2805  0.5435 -0.5194
  670MPD2    H3 9972   3.787   4.057  13.821 -1.1148 -2.3615 -0.9714
  670MPD2     N 9973   3.971   3.885  14.192  0.5797 -0.0857  0.1594
  670MPD2    H5 9974   4.053   3.851  14.242  0.0256 -0.3755  0.8668
  670MPD2    N1 9975   4.225   3.921  13.784  0.7685  0.2737  0.0128
  670MPD2    H7 9976   4.304   3.891  13.840 -0.6238 -1.9499  0.7930
  671TMC3    C1 9977   3.884   3.839  14.399  0.4981 -0.8777 -0.3743
  671TMC3    C2 9978   4.014   3.856  14.439 -0.2062  0.3730 -0.8212
  671TMC3    C3 9979   4.055   3.774  14.538  0.1904 -0.7069 -0.0302
  671TMC3    C4 9980   3.805   3.727  14.439  0.3696 -0.4793  0.1548
  671TMC3    C5 9981   3.860   3.635  14.532 -0.0931 -0.1113  0.7749
  671TMC3    C6 9982   3.984   3.663  14.580 -0.3322  0.6425 -0.2571
  671TMC3     C 9983   3.854   3.881  14.260 -0.3119 -0.0448  0.2118
  671TMC3     O 9984   3.738   3.882  14.222  0.0763  0.1995  0.1181
  671TMC3     H 9985   4.062   3.950  14.416  0.2749 -0.2585 -2.4268
  671TMC3    H1 9986   3.707   3.712  14.395  0.5959 -3.1303  0.5618
  671TMC3    H2 9987   4.032   3.584  14.637 -2.0031 -0.4575 -0.3543
  671TMC3    C7 9988   3.830   3.496  14.499  0.9360  0.3617  0.4086
  671TMC3    C8 9989   4.199   3.761  14.552 -0.4471  0.4620 -0.1416
  671TMC3    O1 9990   3.920   3.413  14.513  0.1105  0.5401  0.3157
  671TMC3    O2 9991   4.266   3.807  14.462  0.9648  0.4860  0.7884
  672MPD2     C 9992   4.149   3.997   1.436  0.5560  0.3445  0.8463
  672MPD2    C1 9993   4.272   3.933   1.395  0.3354  0.6537  0.2187
  672MPD2    C2 9994   4.386   3.972   1.456 -0.0389  0.7783  0.9377
  672MPD2    C3 9995   4.394   4.078   1.550  0.4768  0.1332  0.0087
  672MPD2    C4 9996   4.277   4.137   1.591  0.1245  0.0805 -0.1078
  672MPD2    C5 9997   4.163   4.101   1.529 -0.1291 -0.5565  0.0453
  672MPD2     H 9998   4.473   3.916   1.427 -0.5709 -0.3231  1.4756
  672MPD2    H1 9999   4.275   4.229   1.648  1.5295  1.6335 -2.5426
  672MPD2    H210000   4.050   3.971   1.402  0.7499  1.2639 -0.4310
  672MPD2    H310001   4.077   4.161   1.554 -0.8101 -0.8064 -1.7462
  672MPD2     N10002   4.514   4.125   1.605 -0.6900  0.1662 -0.1759
  672MPD2    H510003   4.506   4.203   1.670  0.7987 -0.4404  0.7331
  672MPD2    N110004   4.277   3.853   1.285 -0.1366  0.3110  0.0553
  672MPD2    H710005   4.369   3.814   1.269 -0.7104 -1.0781  0.1618
  673TMC3    C110006   4.233   3.825   1.060  0.0929 -0.2993  0.3469
  673TMC3    C210007   4.328   3.736   1.049 -0.7898 -0.0691  0.0411
  673TMC3    C310008   4.396   3.738   0.931  0.0030 -0.2589  0.9246
  673TMC3    C410009   4.205   3.922   0.968  0.0588  0.2520  0.3579
  673TMC3    C510010   4.275   3.917   0.848 -0.1771 -0.3093  0.1620
  673TMC3    C610011   4.369   3.821   0.824  0.0369  0.1519  0.2029
  673TMC3     C10012   4.174   3.842   1.190 -0.0349  0.2634 -0.4676
  673TMC3     O10013   4.055   3.879   1.183  0.5265  0.2397 -0.9199
  673TMC3     H10014   4.341   3.664   1.129 -0.8783  0.8235  0.8470
  673TMC3    H110015   4.123   3.989   0.989 -0.5121 -0.7896  1.4476
  673TMC3    H210016   4.432   3.832   0.737 -0.7630  1.1568 -0.2461
  673TMC3    C710017   4.253   4.017   0.747 -0.2145 -0.1318 -0.3592
  673TMC3    C810018   4.475   3.623   0.889  0.1161  0.5161 -0.2399
  673TMC3    O110019   4.250   4.001   0.630 -0.6740  0.3215 -0.8131
  673TMC3    O210020   4.486   3.603   0.771  0.3292  0.4050  0.2881
  674MPD2     C10021   4.192   4.637   0.293 -0.1000  0.6765  0.6335
  674MPD2    C110022   4.162   4.506   0.269 -0.7542  0.1680  0.0966
  674MPD2    C210023   4.032   4.467   0.241 -0.1692 -0.3047 -0.1728
  674MPD2    C310024   3.942   4.566   0.235 -0.4474 -0.5855  0.6116
  674MPD2    C410025   3.965   4.700   0.235 -0.3735  0.4079  0.1423
  674MPD2    C510026   4.096   4.728   0.263  0.0174 -0.1181  0.8172
  674MPD2     H10027   4.010   4.365   0.213 -0.4070  0.3926 -2.5672
  674MPD2    H110028   3.893   0.042   0.221  0.7459  1.2801 -0.5899
  674MPD2    H210029   4.295   4.665   0.314  0.8570 -1.7389 -0.8055
  674MPD2    H310030   4.111   0.097   0.256 -3.0770  0.1974 -0.7756
  674MPD2     N10031   3.806   4.516   0.232  0.2908 -0.7341 -0.7267
  674MPD2    H510032   3.799   4.415   0.235 -1.7657 -0.5957 -0.3897
  674MPD2    N110033   4.264   4.411   0.293  0.0993  0.5320  0.2562
  674MPD2    H710034   4.348   4.434   0.346  0.7857  0.6554 -0.8693
  675TMC3    C110035   4.357   4.198   0.329  0.3362 -0.0601  0.1752
  675TMC3    C210036   4.379   4.078   0.275 -0.2325  0.0295 -0.7600
  675TMC3    C310037   4.464   3.991   0.343  0.4371  0.7678 -0.2090
  675TMC3    C410038   4.407   4.235   0.451 -1.2629  0.4208 -0.8792
  675TMC3    C510039   4.485   4.151   0.515 -0.4514 -0.5541  0.0743
  675TMC3    C610040   4.509   4.024   0.470  0.2272 -0.3731 -0.0877
  675TMC3     C10041   4.258   4.278   0.255  0.3023 -0.0904 -0.5207
  675TMC3     O10042   4.179   4.220   0.178  0.1679  0.4247  0.1336
  675TMC3     H10043   4.328   4.050   0.184  0.8898 -0.6895 -1.1634
  675TMC3    H110044   4.374   4.327   0.497 -0.5888 -0.8962  2.2521
  675TMC3    H210045   4.559   3.954   0.536 -1.3739 -1.9363 -0.5306
  675TMC3    C710046   4.534   4.186   0.653  0.4077 -0.5315 -0.1517
  675TMC3    C810047   4.403   3.858   0.320 -0.3809 -0.5421  0.7934
  675TMC3    O110048   4.575   4.093   0.722 -0.1147 -0.2327  0.3528
  675TMC3    O210049   4.427   3.807   0.214  0.6577  0.0762 -0.1580
  676MPD2     C10050   2.344   2.004  11.363  0.6850  0.0607 -0.2301
  676MPD2    C110051   2.324   1.888  11.438  0.3589 -0.6460 -0.0323
  676MPD2    C210052   2.335   1.765  11.389 -0.1470  0.4023 -0.0512
  676MPD2    C310053   2.377   1.746  11.257 -0.5037  0.1342  0.0829
  676MPD2    C410054   2.386   1.856  11.175  0.4748  0.0284  0.6597
  676MPD2    C510055   2.374   1.980  11.231  0.8232  0.6468  0.1203
  676MPD2     H10056   2.324   1.685  11.460 -0.9986  0.9270  0.4042
  676MPD2    H110057   2.420   1.849  11.073 -2.1251  2.6094 -0.3911
  676MPD2    H210058   2.320   2.102  11.401 -0.3255 -0.4558  0.4577
  676MPD2    H310059   2.393   2.069  11.173 -0.0884  1.4434  1.0505
  676MPD2     N10060   2.401   1.621  11.201 -0.4195  0.6991  0.1182
  676MPD2    H510061   2.426   1.615  11.103  1.2640  1.1469  0.5351
  676MPD2    N110062   2.256   1.892  11.563 -0.4231 -0.6131 -0.1112
  676MPD2    H710063   2.206   1.813  11.603 -1.3785 -0.4056 -0.8656
  677TMC3    C110064   2.137   2.013  11.731  0.2184 -0.6221 -0.1203
  677TMC3    C210065   2.040   1.912  11.718  0.1510 -0.1278 -0.2795
  677TMC3    C310066   1.953   1.894  11.824  0.1542 -0.4008  0.0085
  677TMC3    C410067   2.157   2.082  11.846 -0.4874  0.0457  0.0247
  677TMC3    C510068   2.056   2.074  11.940 -0.2693 -0.1940 -1.1845
  677TMC3    C610069   1.959   1.975  11.936  0.4964  0.1402 -0.1271
  677TMC3     C10070   2.240   2.007  11.639  0.1185  0.0747  0.2613
  677TMC3     O10071   2.305   2.108  11.622  0.0511  0.3854 -0.2366
  677TMC3     H10072   2.016   1.860  11.626  1.8220 -2.8365  0.8043
  677TMC3    H110073   2.248   2.140  11.848  0.2986 -1.2695  1.6983
  677TMC3    H210074   1.876   1.971  12.006  0.0176 -0.0694 -0.7014
  677TMC3    C710075   2.084   2.128  12.073 -0.4190  0.4600 -0.1910
  677TMC3    C810076   1.859   1.781  11.815 -0.0061  0.3425 -0.1899
  677TMC3    O110077   2.038   2.085  12.176 -0.7119 -0.1493  0.4583
  677TMC3    O210078   1.816   1.757  11.707 -0.3693  0.6843 -0.2260
  678MPD2     C10079   3.628   2.094   1.781 -0.3017 -0.5230  0.2068
  678MPD2    C110080   3.605   2.110   1.648  0.2149  0.4879  1.0221
  678MPD2    C210081   3.507   2.039   1.581 -0.3339  0.2079  0.2297
  678MPD2    C310082   3.437   1.948   1.659 -0.0321  0.6970 -0.0293
  678MPD2    C410083   3.465   1.929   1.793 -0.4558 -0.8992 -0.1427
  678MPD2    C510084   3.555   2.003   1.858  0.1178 -0.0206  0.1992
  678MPD2     H10085   3.484   2.052   1.476  0.7486  1.0910  0.1014
  678MPD2    H110086   3.417   1.854   1.855 -0.5924 -0.0490  0.7861
  678MPD2    H210087   3.690   2.167   1.831 -0.8896 -0.4958  0.8898
  678MPD2    H310088   3.577   1.991   1.964  1.3486  1.7067  0.1452
  678MPD2     N10089   3.331   1.884   1.602 -0.2418  0.5910  0.2565
  678MPD2    H510090   3.291   1.915   1.514  1.0896  1.2063 -0.1342
  678MPD2    N110091   3.689   2.192   1.572 -0.6121 -0.2933 -0.2862
  678MPD2    H710092   3.676   2.198   1.472  2.2853  1.3264 -0.5616
  679TMC3    C110093   4.086   2.394   1.432 -0.3529  1.0963 -0.5116
  679TMC3    C210094   4.012   2.328   1.521 -0.4055  0.0614 -0.5152
  679TMC3    C310095   3.876   2.326   1.516 -0.2433 -0.1324  0.3885
  679TMC3    C410096   4.026   2.436   1.319  0.4452 -0.1849  0.1928
  679TMC3    C510097   3.899   2.408   1.297  0.2402 -0.1283  0.1084
  679TMC3    C610098   3.813   2.354   1.392 -0.3580 -0.3619  0.3497
  679TMC3     C10099   4.211   2.324   1.405 -0.0366  0.4848 -0.1624
  679TMC3     O10100   4.201   2.280   1.288  0.0673  0.6992 -0.8011
  679TMC3     H10101   4.060   2.287   1.610 -0.0780  2.0781  0.2382
  679TMC3    H110102   4.086   2.467   1.234  1.1028  1.6874  1.3506
  679TMC3    H210103   3.705   2.367   1.391 -0.3174  0.2858  2.5406
  679TMC3    C710104   3.838   2.446   1.168 -0.6667  0.2215 -0.2497
  679TMC3    C810105   3.802   2.256   1.617 -0.1978  0.1230 -0.0774
  679TMC3    O110106   3.740   2.381   1.143  0.3200 -0.0780 -0.5297
  679TMC3    O210107   3.866   2.240   1.717 -0.3030 -0.2177 -0.1006
  680MPD2     C10108   3.564   1.182  14.038  0.4472  0.7925  0.0751
  680MPD2    C110109   3.653   1.145  14.137 -0.0278 -0.2080  0.3692
  680MPD2    C210110   3.721   1.234  14.210 -0.0215  0.4836  0.3151
  680MPD2    C310111   3.710   1.372  14.189 -0.2683  0.7662 -0.1214
  680MPD2    C410112   3.622   1.413  14.090  0.5848 -0.0704  0.2030
  680MPD2    C510113   3.551   1.315  14.027 -0.6386  0.4416 -0.0816
  680MPD2     H10114   3.797   1.191  14.274  0.5397 -1.1696 -1.4667
  680MPD2    H110115   3.605   1.518  14.068  1.8600 -0.5500 -3.0106
  680MPD2    H210116   3.505   1.123  13.969  0.2547 -1.1971  1.9589
  680MPD2    H310117   3.484   1.348  13.948  0.4047  0.5991 -0.9113
  680MPD2     N10118   3.790   1.462  14.249 -0.1808 -0.4793  0.4462
  680MPD2    H510119   3.774   1.561  14.230 -1.2861 -0.8963 -0.6982
  680MPD2    N110120   3.688   1.005  14.153  0.8724 -0.4498 -0.4141
  680MPD2    H710121   3.767   0.984  14.213  0.1294  1.0786  1.1085
  681TMC3    C110122   3.663   0.770  14.147 -0.7476  0.1296  0.5863
  681TMC3    C210123   3.680   0.763  14.278 -0.1318 -0.2379  0.2156
  681TMC3    C310124   3.705   0.633  14.319 -0.4784 -0.1527 -0.6260
  681TMC3    C410125   3.701   0.671  14.058  0.4178  0.5597  0.1791
  681TMC3    C510126   3.728   0.541  14.107 -0.7333  0.1716  0.5490
  681TMC3    C610127   3.718   0.519  14.238 -0.5346 -0.4502  0.6092
  681TMC3     C10128   3.625   0.892  14.092  0.2189 -0.1543 -0.3191
  681TMC3     O10129   3.537   0.899  14.006  0.0996 -0.3252 -0.0082
  681TMC3     H10130   3.648   0.844  14.343 -1.4545  1.6083 -2.7237
  681TMC3    H110131   3.703   0.693  13.952  2.9779  0.6203  0.2416
  681TMC3    H210132   3.741   0.422  14.282  0.8201  0.4479  1.8681
  681TMC3    C710133   3.807   0.448  14.018 -0.6461 -0.0373  0.8437
  681TMC3    C810134   3.719   0.607  14.460  0.0005  0.4718 -0.0350
  681TMC3    O110135   3.834   0.338  14.065  0.3396  0.0837  0.0523
  681TMC3    O210136   3.701   0.494  14.501 -0.2498  0.5281  0.3657
  682MPD2     C10137   1.629   2.364  11.615 -0.1181 -0.0463 -0.6069
  682MPD2    C110138   1.524   2.281  11.580 -0.5162 -0.1702  0.0662
  682MPD2    C210139   1.393   2.314  11.632  0.2594 -0.4553  0.5234
  682MPD2    C310140   1.373   2.424  11.719 -0.4104  0.6935 -0.4503
  682MPD2    C410141   1.483   2.496  11.756  0.3930  0.2557 -0.6287
  682MPD2    C510142   1.609   2.473  11.697 -0.3463  0.5765  0.3951
  682MPD2     H10143   1.310   2.244  11.627 -0.3204  0.3220 -0.8663
  682MPD2    H110144   1.477   2.580  11.825  0.5098  0.5890 -1.0268
  682MPD2    H210145   1.727   2.362  11.569 -0.8682  1.9307 -2.2672
  682MPD2    H310146   1.690   2.542  11.718  1.6374 -1.8634  0.7100
  682MPD2     N10147   1.249   2.458  11.777 -0.2131  0.4670  0.1321
  682MPD2    H510148   1.251   2.538  11.839 -2.6509  0.3015  0.4155
  682MPD2    N110149   1.529   2.162  11.501 -0.5174  0.0248 -0.1258
  682MPD2    H710150   1.441   2.117  11.478 -1.4061  1.0242  1.3502
  683TMC3    C110151   0.942   2.594  12.004  0.2255 -0.0571  0.8515
  683TMC3    C210152   0.822   2.597  11.950  0.2142  0.6007 -0.7636
  683TMC3    C310153   0.804   2.511  11.852 -0.1062  0.4003 -0.7645
  683TMC3    C410154   1.047   2.522  11.957  0.3523 -0.0878 -0.4382
  683TMC3    C510155   1.024   2.444  11.846 -0.1435 -0.3171 -0.1324
  683TMC3    C610156   0.901   2.433  11.792  0.0362 -0.2851  0.0132
  683TMC3     C10157   0.958   2.651  12.136 -0.9296 -0.2837 -0.6726
  683TMC3     O10158   0.909   2.761  12.162  0.4245 -0.0669  0.4851
  683TMC3     H10159   0.742   2.654  11.994  0.5073  1.1702 -0.9644
  683TMC3    H110160   1.145   2.533  12.002 -0.0561 -0.8830  0.6315
  683TMC3    H210161   0.884   2.376  11.701  1.2230  0.0238 -0.3942
  683TMC3    C710162   1.130   2.384  11.773  0.1469  0.1862  0.1937
  683TMC3    C810163   0.670   2.504  11.791  0.3307  0.0896 -0.2051
  683TMC3    O110164   1.096   2.285  11.715  0.5490 -0.0787  0.2240
  683TMC3    O210165   0.601   2.599  11.816  0.6215  0.8577  0.5093
  684MPD2     C10166   4.193   2.135  16.833  0.2051 -0.2655  0.0075
  684MPD2    C110167   4.114   2.133  16.715 -0.2968 -0.0532 -0.5994
  684MPD2    C210168   4.009   2.219  16.709 -0.0877  0.5306 -0.8498
  684MPD2    C310169   3.968   2.300  16.818  0.2143 -0.2324  0.0411
  684MPD2    C410170   4.043   2.297  16.932  0.6759  0.1414 -0.0067
  684MPD2    C510171   4.149   2.210  16.941  0.1827  0.2373 -0.0862
  684MPD2     H10172   3.947   2.228  16.620 -0.5998  2.5512 -0.2756
  684MPD2    H110173   4.024   2.369  17.010  0.7901  0.1762 -0.0102
  684MPD2    H210174   4.277   2.068  16.846  2.0761  2.3180  1.3879
  684MPD2    H310175   4.198   2.197  17.037  1.0505 -2.1652 -0.8433
  684MPD2     N10176   3.890   2.419  16.799  0.6597  0.0635  0.6443
  684MPD2    H510177   3.888   2.481  16.879  1.0955  0.7177  0.1583
  684MPD2    N110178   4.153   2.071  16.596  0.0639  0.0049 -0.5642
  684MPD2    H710179   4.095   2.093  16.516  1.3391 -0.4661 -1.6071
  685TMC3    C110180   4.293   2.021  16.429 -0.0865 -0.1018 -0.6222
  685TMC3    C210181   4.197   1.953  16.359  0.0198 -0.9752  0.5072
  685TMC3    C310182   4.217   1.959  16.223 -0.4110 -0.0865  0.4803
  685TMC3    C410183   4.402   2.083  16.380  0.1027 -0.6563 -0.2203
  685TMC3    C510184   4.421   2.066  16.247 -0.3841 -0.1947 -0.5096
  685TMC3    C610185   4.323   2.014  16.165 -0.5156 -0.0096  0.4150
  685TMC3     C10186   4.283   2.026  16.567 -0.2379 -0.0417  0.0159
  685TMC3     O10187   4.384   2.024  16.634 -0.1071  0.0071 -0.2801
  685TMC3     H10188   4.105   1.923  16.408 -0.5108 -0.6085 -0.2704
  685TMC3    H110189   4.460   2.150  16.442 -2.1690  0.0812  1.1286
  685TMC3    H210190   4.339   1.992  16.060 -2.2557 -0.1696  0.1862
  685TMC3    C710191   4.559   2.090  16.209 -0.7128  0.2694  0.4264
  685TMC3    C810192   4.108   1.910  16.139  0.6896  0.2236  0.5527
  685TMC3    O110193   4.581   2.128  16.092 -0.1435 -0.2016 -0.1516
  685TMC3    O210194   4.086   1.969  16.033 -0.7065 -0.4273  0.3277
  686MPD2     C10195   0.775   1.842  15.745  0.2164 -0.0151  0.6144
  686MPD2    C110196   0.833   1.773  15.845 -0.2770 -0.5765 -0.2512
  686MPD2    C210197   0.873   1.640  15.818  0.1148 -0.0616 -0.0544
  686MPD2    C310198   0.833   1.580  15.698  0.0725 -0.2889  0.5387
  686MPD2    C410199   0.777   1.655  15.596 -0.4064 -0.1207  0.4477
  686MPD2    C510200   0.755   1.786  15.623 -0.0452  0.4132  0.1528
  686MPD2     H10201   0.932   1.579  15.885  0.4496  0.3800  0.0567
  686MPD2    H110202   0.736   1.612  15.505  3.2230 -0.8499 -0.8407
  686MPD2    H210203   0.751   1.947  15.757  1.8766  0.8417 -3.5058
  686MPD2    H310204   0.711   1.845  15.544 -0.3124  1.9195  1.4237
  686MPD2     N10205   0.852   1.444  15.660  0.1934 -0.4216 -0.3126
  686MPD2    H510206   0.837   1.432  15.561  0.6705  0.7371 -0.5284
  686MPD2    N110207   0.843   1.838  15.971 -0.2520  0.4985  1.1945
  686MPD2    H710208   0.790   1.924  15.977 -0.4756  0.3585  1.2088
  687TMC3    C110209   0.850   1.362  15.876  0.8718  0.3014  0.4607
  687TMC3    C210210   0.722   1.392  15.909 -0.1217 -0.0727 -0.5035
  687TMC3    C310211   0.689   1.407  16.040 -0.4325  0.3779  0.1278
  687TMC3    C410212   0.930   1.310  15.971  0.5100  0.8312 -0.0730
  687TMC3    C510213   0.897   1.334  16.100 -0.4178 -0.1213  0.4254
  687TMC3    C610214   0.777   1.375  16.140 -0.6729  0.7607 -0.5684
  687TMC3     C10215   0.888   1.337  15.741 -0.2270 -0.4141 -0.2434
  687TMC3     O10216   0.916   1.220  15.715 -0.1827  0.0499  0.3495
  687TMC3     H10217   0.650   1.416  15.831  0.2683  1.2470 -0.4523
  687TMC3    H110218   1.032   1.291  15.942  0.0542  0.6237 -1.5764
  687TMC3    H210219   0.755   1.375  16.246  1.3243 -1.8204 -0.1465
  687TMC3    C710220   0.992   1.290  16.201 -0.2983 -0.3297 -0.3372
  687TMC3    C810221   0.577   1.493  16.086 -0.1675 -0.0375 -0.1182
  687TMC3    O110222   0.999   1.349  16.309  0.6012 -0.0903 -0.1815
  687TMC3    O210223   0.554   1.491  16.211 -0.1776 -0.5919  0.2473
  688MPD2     C10224   0.397   0.797   0.311 -0.4165 -0.1143 -0.1796
  688MPD2    C110225   0.377   0.661   0.304 -0.5719  0.4584 -0.0106
  688MPD2    C210226   0.424   0.598   0.192 -0.5505  0.0204  1.0066
  688MPD2    C310227   0.489   0.661   0.083  0.3418  0.0619  0.9130
  688MPD2    C410228   0.514   0.797   0.093 -0.1186 -0.2590 -0.6844
  688MPD2    C510229   0.455   0.862   0.201 -0.4872  0.3957 -0.0506
  688MPD2     H10230   0.407   0.492   0.179  1.2846 -0.1418 -0.2040
  688MPD2    H110231   0.559   0.857   0.015 -1.3328 -1.0170 -1.9629
  688MPD2    H210232   0.373   0.855   0.399 -0.9447  0.6235 -0.8194
  688MPD2    H310233   0.451   0.971   0.195 -1.8070  0.3757  0.3294
  688MPD2     N10234   0.502   0.592  17.704 -0.3692 -0.3119  0.7054
  688MPD2    H510235   0.540   0.647  17.627 -2.7902  0.7042  0.2533
  688MPD2    N110236   0.317   0.582   0.405  0.6093 -0.1636  0.0180
  688MPD2    H710237   0.320   0.482   0.387  0.0165  0.1021 -1.5748
  689TMC3    C110238   0.198   0.504   0.599 -0.3751 -0.0569  0.9289
  689TMC3    C210239   0.171   0.524   0.733 -0.8644  1.4742 -0.7036
  689TMC3    C310240   0.111   0.417   0.801 -0.0555  0.0165  0.4273
  689TMC3    C410241   0.162   0.387   0.524  0.4767 -0.5007  0.3536
  689TMC3    C510242   0.104   0.289   0.596  0.5965  0.4894 -0.2474
  689TMC3    C610243   0.075   0.305   0.733  0.0363  0.6372  0.5119
  689TMC3     C10244   0.264   0.616   0.530 -0.0101  0.8897  0.5078
  689TMC3     O10245   0.264   0.728   0.585  0.2952 -0.1888  0.3175
  689TMC3     H10246   0.212   0.605   0.792 -2.7883  0.8147  1.5272
  689TMC3    H110247   0.162   0.375   0.416 -1.3976  0.7555  0.2096
  689TMC3    H210248   0.037   0.227   0.798  3.4843  0.1343  1.9370
  689TMC3    C710249   0.107   0.153   0.550  0.5104  0.5435 -0.0313
  689TMC3    C810250   0.054   0.441   0.931  0.3225  1.1117 -0.4153
  689TMC3    O110251   0.174   0.078   0.625  0.2949 -0.1619  0.0847
  689TMC3    O210252   0.011   0.342   0.994  0.3850  0.1349  0.1998
  690MPD2     C10253   2.440   2.359  16.165  0.8055  0.4949  0.6923
  690MPD2    C110254   2.360   2.372  16.053 -0.2060 -0.5457  0.0748
  690MPD2    C210255   2.412   2.436  15.939 -0.1485  0.0869 -0.0379
  690MPD2    C310256   2.545   2.462  15.925  0.6081 -0.2568  0.4923
  690MPD2    C410257   2.623   2.423  16.030  0.0136  0.3612  0.4216
  690MPD2    C510258   2.574   2.384  16.153  0.1926 -0.3113 -0.4237
  690MPD2     H10259   2.339   2.458  15.861 -0.7640  0.2887  0.6001
  690MPD2    H110260   2.730   2.440  16.026  0.1048  0.1599  1.9526
  690MPD2    H210261   2.397   2.324  16.258 -1.1482  0.9348 -0.0364
  690MPD2    H310262   2.648   2.383  16.232  0.4445  0.6883 -0.6420
  690MPD2     N10263   2.587   2.533  15.812  0.0784  0.5100 -0.0117
  690MPD2    H510264   2.517   2.549  15.741  0.8409 -0.2661 -0.9414
  690MPD2    N110265   2.225   2.326  16.058 -0.6125 -0.2060 -0.1564
  690MPD2    H710266   2.178   2.338  15.969 -3.2057 -0.1216  1.2162
  691TMC3    C110267   2.052   2.181  16.085 -1.5001  0.0756 -0.0480
  691TMC3    C210268   1.993   2.253  15.980  0.2013  0.3171  0.2686
  691TMC3    C310269   1.924   2.176  15.886 -0.2327 -0.3968  0.3859
  691TMC3    C410270   2.044   2.046  16.091 -0.5762  0.7508 -0.6192
  691TMC3    C510271   1.977   1.975  15.994 -0.0120  0.6239 -0.0144
  691TMC3    C610272   1.909   2.043  15.895  0.3405  0.8422 -0.0906
  691TMC3     C10273   2.166   2.238  16.147 -1.0858  0.3392  0.3804
  691TMC3     O10274   2.209   2.178  16.244 -0.5387  0.2402  0.7845
  691TMC3     H10275   2.006   2.361  15.975  0.1652  0.4813  3.8408
  691TMC3    H110276   2.116   1.985  16.145 -0.0712  1.1460 -0.8502
  691TMC3    H210277   1.854   1.990  15.818  2.9459 -0.3862 -1.1005
  691TMC3    C710278   1.921   1.848  16.039 -0.4146 -0.4388 -0.1889
  691TMC3    C810279   1.845   2.240  15.781 -0.0263 -0.3392 -0.8856
  691TMC3    O110280   1.874   1.775  15.949  0.3933  0.1987 -0.6557
  691TMC3    O210281   1.817   2.164  15.684  0.8053  0.2879  0.4379
  692TMC3    C110282   3.829   3.461  15.827  0.3712  0.5946 -0.2731
  692TMC3    C210283   3.930   3.550  15.834 -1.0938  0.0824 -0.0562
  692TMC3    C310284   4.061   3.522  15.876 -0.6596  0.0508 -0.1997
  692TMC3    C410285   3.858   3.334  15.856  0.2674  0.2698  0.0231
  692TMC3    C510286   3.978   3.303  15.911  0.0151  0.4827  0.0650
  692TMC3    C610287   4.086   3.394  15.908 -0.1319 -0.3713  0.2404
  692TMC3     C10288   3.687   3.499  15.833 -0.8378 -0.2692 -0.1233
  692TMC3     O10289   3.602   3.414  15.831  0.6680 -0.2511 -0.2086
  692TMC3     H10290   3.909   3.634  15.770  0.6033 -1.7960 -3.0643
  692TMC3    H110291   3.771   3.282  15.895 -0.0613 -0.3110 -1.4766
  692TMC3    H210292   4.182   3.365  15.949  0.4531  0.5948 -0.4284
  692TMC3    C710293   3.999   3.176  15.985 -0.5331  0.1149  0.7759
  692TMC3    C810294   4.113   3.615  15.973 -0.4359  0.0107 -0.4383
  692TMC3    O110295   4.081   3.174  16.077  0.4537  0.0626  0.2230
  692TMC3    O210296   4.216   3.581  16.035 -0.2492  0.1634  0.2069
  693MPD2     C10297   3.389   1.250  10.940 -0.3855 -0.0682  0.8564
  693MPD2    C110298   3.404   1.113  10.931  0.5357 -0.3241  0.3453
  693MPD2    C210299   3.526   1.054  10.900 -0.8389 -0.1213  0.2000
  693MPD2    C310300   3.639   1.132  10.877  0.0400  0.0021  0.0688
  693MPD2    C410301   3.628   1.265  10.894  0.0567  0.2072  0.2095
  693MPD2    C510302   3.508   1.322  10.931 -0.5376 -0.3868  0.4098
  693MPD2     H10303   3.528   0.948  10.878 -0.3749 -0.4742  1.9237
  693MPD2    H110304   3.707   1.330  10.857  1.3209  0.6236  3.6752
  693MPD2    H210305   3.299   1.294  10.981 -1.9884 -1.0430 -1.6602
  693MPD2    H310306   3.521   1.427  10.956  0.6734 -0.5182  0.3359
  693MPD2     N10307   3.765   1.083  10.840 -0.8143  0.0700 -0.0831
  693MPD2    H510308   3.838   1.153  10.828 -1.1186  0.4714  0.4296
  693MPD2    N110309   3.295   1.017  10.936  0.6197  0.2170 -0.2835
  693MPD2    H710310   3.322   0.921  10.917 -0.5218 -0.0812 -0.4249
  694TMC3    C110311   3.074   0.928  10.950  0.2093  0.0064 -0.2539
  694TMC3    C210312   2.935   0.946  10.915  0.3105 -0.6724 -0.2347
  694TMC3    C310313   2.848   0.851  10.954 -0.8175  0.0537 -0.0628
  694TMC3    C410314   3.112   0.821  11.028 -0.6137  0.5501 -0.7186
  694TMC3    C510315   3.014   0.738  11.076 -0.3199  0.7608  0.0518
  694TMC3    C610316   2.888   0.747  11.035  0.1935  0.0647 -0.4730
  694TMC3     C10317   3.163   1.041  10.953  0.0222  0.0983  0.0590
  694TMC3     O10318   3.109   1.148  10.982 -0.2398  0.3455  0.4205
  694TMC3     H10319   2.907   1.044  10.879 -2.7489 -0.4996  2.5848
  694TMC3    H110320   3.214   0.827  11.065 -1.3638  0.8233  1.3205
  694TMC3    H210321   2.818   0.672  11.069 -0.5729  0.0173 -2.1586
  694TMC3    C710322   3.065   0.625  11.154  0.4098  0.0314  0.4000
  694TMC3    C810323   2.711   0.853  10.904 -0.1428 -0.1322  0.3442
  694TMC3    O110324   3.175   0.646  11.201 -0.3920 -0.2193  0.0790
  694TMC3    O210325   2.636   0.770  10.950 -0.0783 -0.2266  0.7151
  695MPD2     C10326   4.606   3.289  13.728  0.2305 -0.9260 -0.0350
  695MPD2    C110327   4.547   3.254  13.851 -0.1878 -0.5159 -0.4090
  695MPD2    C210328   4.408   3.244  13.859  0.0851 -0.5310  0.2395
  695MPD2    C310329   4.329   3.238  13.750 -0.1884 -0.2031 -0.3791
  695MPD2    C410330   4.384   3.265  13.627  1.0544 -0.5210 -0.4776
  695MPD2    C510331   4.520   3.299  13.621  0.1341  0.5394  0.0620
  695MPD2     H10332   4.357   3.241  13.955  0.1893 -1.2606  0.2788
  695MPD2    H110333   4.325   3.281  13.537  1.0872  1.4673 -0.1330
  695MPD2    H210334   4.711   3.314  13.716  0.5288 -1.8722  0.5578
  695MPD2    H310335   4.568   3.330  13.529 -1.6201 -0.6265 -1.2468
  695MPD2     N10336   4.192   3.212  13.773  0.4456 -0.0589  0.1385
  695MPD2    H510337   4.163   3.193  13.869 -0.0746  1.7859  0.3425
  695MPD2    N110338   4.621   3.272  13.972 -0.3029 -0.4982  0.1161
  695MPD2    H710339   4.572   3.261  14.060 -0.3344  2.3035  0.4498
  696TMC3    C110340   3.966   3.251  13.741  0.1247  0.5198  0.2326
  696TMC3    C210341   3.941   3.187  13.859 -0.4097  0.4753 -0.2819
  696TMC3    C310342   3.825   3.204  13.925  0.4342  0.7552  0.3364
  696TMC3    C410343   3.877   3.341  13.689 -0.0578  0.5507  0.4481
  696TMC3    C510344   3.772   3.378  13.773 -0.2861  0.4079  0.0265
  696TMC3    C610345   3.736   3.304  13.881 -0.1305  0.6661  0.3087
  696TMC3     C10346   4.091   3.231  13.679  0.5982 -0.3084  0.3416
  696TMC3     O10347   4.095   3.256  13.558  0.0827  0.0049 -0.1525
  696TMC3     H10348   4.003   3.110  13.903  0.2426  0.8031 -0.6348
  696TMC3    H110349   3.915   3.407  13.612 -0.9943 -1.9210 -2.1244
  696TMC3    H210350   3.656   3.339  13.945 -0.4481 -0.5553  0.5802
  696TMC3    C710351   3.687   3.488  13.736  0.2126  0.0835 -0.2562
  696TMC3    C810352   3.838   3.193  14.069  0.9897 -0.0209 -0.5430
  696TMC3    O110353   3.665   3.503  13.616 -0.0729 -0.1697 -0.5866
  696TMC3    O210354   3.944   3.208  14.130  0.0801 -0.0114  0.3397
  697MPD2     C10355   3.757   0.276  15.860  0.0013 -0.2289 -0.5082
  697MPD2    C110356   3.653   0.222  15.780  0.5713 -0.1914 -1.0180
  697MPD2    C210357   3.593   0.309  15.691  0.0584  1.1430  0.3746
  697MPD2    C310358   3.634   0.446  15.683 -0.3655  0.2326  0.5939
  697MPD2    C410359   3.746   0.489  15.763  0.8015  0.9729 -0.1817
  697MPD2    C510360   3.800   0.402  15.852  0.3938 -0.2619 -0.0329
  697MPD2     H10361   3.514   0.268  15.629  0.2055  1.3582  0.0451
  697MPD2    H110362   3.785   0.590  15.767 -0.8059  1.4972  2.3411
  697MPD2    H210363   3.801   0.214  15.938 -1.1175 -1.4449 -0.8463
  697MPD2    H310364   3.873   0.427  15.929  1.4344 -3.9014  0.1260
  697MPD2     N10365   3.573   0.532  15.588  0.4138 -0.2137 -0.1588
  697MPD2    H510366   3.494   0.495  15.535  1.0989 -0.3550 -1.0890
  697MPD2    N110367   3.611   0.088  15.788  0.4013  0.0980  0.3702
  697MPD2    H710368   3.546   0.056  15.717 -0.2431  1.1857  0.4730
  698TMC3    C110369   3.507   0.741  15.497 -0.2880 -0.5311 -0.3984
  698TMC3    C210370   3.513   0.877  15.502  0.1179  0.4053 -0.8917
  698TMC3    C310371   3.457   0.946  15.396 -0.0930  0.2257  0.0794
  698TMC3    C410372   3.442   0.675  15.396 -0.4979 -0.8182  0.2288
  698TMC3    C510373   3.385   0.750  15.302  0.1418 -0.3316  0.5061
  698TMC3    C610374   3.384   0.882  15.300 -0.8244 -0.7066 -1.2599
  698TMC3     C10375   3.593   0.666  15.581  0.7309 -0.0231 -0.1113
  698TMC3     O10376   3.679   0.738  15.635  0.3524 -0.2945  0.2095
  698TMC3     H10377   3.567   0.927  15.582 -0.4174  0.7386 -0.7421
  698TMC3    H110378   3.452   0.568  15.381  2.3049 -0.3029 -1.4766
  698TMC3    H210379   3.337   0.945  15.225  0.8582  1.9779 -0.0566
  698TMC3    C710380   3.384   0.703  15.165  0.1697  0.1821  0.7625
  698TMC3    C810381   3.477   1.086  15.383 -0.5106 -0.1171 -0.1268
  698TMC3    O110382   3.308   0.751  15.081  0.0712  0.1113  0.3006
  698TMC3    O210383   3.390   1.136  15.316  0.1327  0.5057 -1.4432
  699TMC3    C110384   3.744   3.167  13.400  0.2579  0.0186  0.0692
  699TMC3    C210385   3.794   3.060  13.468  0.2839 -0.3060  0.0613
  699TMC3    C310386   3.734   3.015  13.585  0.6070  0.0204 -0.4147
  699TMC3    C410387   3.636   3.231  13.443 -0.3748 -0.1708 -0.1823
  699TMC3    C510388   3.566   3.181  13.546 -0.5588  0.4552  0.6119
  699TMC3    C610389   3.618   3.085  13.629 -0.8594 -0.6461  0.1866
  699TMC3     C10390   3.807   3.213  13.274  0.1313 -0.0965 -0.2547
  699TMC3     O10391   3.758   3.314  13.228  0.2080 -0.0345  0.1454
  699TMC3     H10392   3.884   3.010  13.436  0.4603  1.0052 -1.4617
  699TMC3    H110393   3.607   3.321  13.390 -0.7785  0.0965  0.4843
  699TMC3    H210394   3.561   3.043  13.711  1.4932 -1.8380  1.2085
  699TMC3    C710395   3.453   3.254  13.603 -0.0432 -0.4828 -0.6825
  699TMC3    C810396   3.783   2.890  13.641  0.7587 -0.3316  0.1703
  699TMC3    O110397   3.400   3.214  13.705  0.3584  0.4746  0.3671
  699TMC3    O210398   3.750   2.868  13.759  0.4105  0.1033 -0.1516
  700TMC3    C110399   2.617   0.791   0.255 -0.2643  0.0641  0.4279
  700TMC3    C210400   2.659   0.668   0.217  0.3700  0.2672 -0.2906
  700TMC3    C310401   2.759   0.608   0.283  0.1380 -0.1035  0.2692
  700TMC3    C410402   2.682   0.853   0.361  0.4817 -0.2537  0.2848
  700TMC3    C510403   2.782   0.786   0.422 -0.2021  1.0289  0.6211
  700TMC3    C610404   2.824   0.662   0.386  0.5826  0.7161  0.5311
  700TMC3     C10405   2.552   0.869   0.145  0.1149 -0.1939  0.0040
  700TMC3     O10406   2.486   0.801   0.071  0.1148  0.4046  0.4370
  700TMC3     H10407   2.605   0.634   0.130 -2.7895 -0.1970  1.8335
  700TMC3    H110408   2.662   0.948   0.411 -0.4377 -0.4834  0.3482
  700TMC3    H210409   2.916   0.625   0.429  1.5748  3.1829  0.5361
  700TMC3    C710410   2.873   0.869   0.494 -0.2633 -0.0592 -0.0129
  700TMC3    C810411   2.822   0.498   0.214  0.0418  0.7547  0.0292
  700TMC3    O110412   2.988   0.871   0.454  0.2460  0.2827  0.1166
  700TMC3    O210413   2.944   0.482   0.224 -0.8155  0.2201  0.4380
  701TMC3    C110414   2.804   4.355  15.808 -0.1794 -0.2422  0.2660
  701TMC3    C210415   2.778   4.323  15.678 -0.4542 -0.5507  0.3295
  701TMC3    C310416   2.871   4.359  15.582 -0.5236  0.3142  0.0842
  701TMC3    C410417   2.915   4.430  15.845  0.1827  0.3764  0.1287
  701TMC3    C510418   3.001   4.452  15.742 -0.3681  0.1354  0.0353
  701TMC3    C610419   2.988   4.422  15.610 -0.5247  0.5977  0.2423
  701TMC3     C10420   2.709   4.318  15.910  0.2379 -0.0328  0.2484
  701TMC3     O10421   2.695   4.405  15.991 -0.0467  0.3846  0.3295
  701TMC3     H10422   2.686   4.275  15.650 -0.2254  0.1671 -1.6192
  701TMC3    H110423   2.928   4.461  15.948 -0.1308 -0.0061  0.2852
  701TMC3    H210424   3.062   4.440  15.533 -0.1563 -2.0429 -0.0446
  701TMC3    C710425   3.104   4.546  15.775 -0.2876  0.4363  0.3110
  701TMC3    C810426   2.897   4.256  15.488  0.0759 -0.7105  0.0450
  701TMC3    O110427   3.157   4.614  15.685 -0.7714 -0.2259  0.2384
  701TMC3    O210428   3.014   4.227  15.462  0.5621 -0.3980  0.1296
  702MPD2     C10429   2.399   1.382  10.560  0.0139 -0.3438  0.2643
  702MPD2    C110430   2.459   1.458  10.657  0.9771  0.1694 -0.0579
  702MPD2    C210431   2.512   1.578  10.630 -0.3934 -0.9820  0.8110
  702MPD2    C310432   2.506   1.626  10.497  0.6209 -0.2790 -0.3488
  702MPD2    C410433   2.437   1.552  10.396  0.2643  0.2081 -0.3662
  702MPD2    C510434   2.389   1.427  10.428 -0.5665  0.5661  0.0343
  702MPD2     H10435   2.564   1.627  10.711 -0.4138  1.7860 -0.8660
  702MPD2    H110436   2.437   1.593  10.296  0.6625  1.8813  0.3101
  702MPD2    H210437   2.357   1.285  10.585 -0.6589 -0.2112 -0.3450
  702MPD2    H310438   2.323   1.379  10.357 -0.2718  1.2189 -0.6794
  702MPD2     N10439   2.547   1.758  10.468  0.5224  0.0635 -0.0282
  702MPD2    H510440   2.502   1.801  10.388 -0.6103  1.9398  1.6022
  702MPD2    N110441   2.469   1.405  10.794 -0.2895 -0.3744 -0.0662
  702MPD2    H710442   2.536   1.450  10.855 -0.5508 -0.0494 -0.0187
  703TMC3    C110443   2.673   1.956  10.521 -0.4998 -0.0087 -0.1126
  703TMC3    C210444   2.585   2.037  10.452 -0.3892  0.3251  0.2387
  703TMC3    C310445   2.621   2.164  10.403  0.0089 -0.7426 -0.2200
  703TMC3    C410446   2.797   1.992  10.546  0.2557 -0.5886 -0.7521
  703TMC3    C510447   2.842   2.114  10.501  0.4265 -0.1233  0.5455
  703TMC3    C610448   2.754   2.202  10.435 -0.2459 -0.3426  0.2009
  703TMC3     C10449   2.639   1.818  10.550  0.0031 -0.1253 -0.0896
  703TMC3     O10450   2.719   1.761  10.625 -0.2280 -0.2042 -0.3671
  703TMC3     H10451   2.482   2.009  10.436 -1.3341  2.4665  2.4512
  703TMC3    H110452   2.863   1.930  10.605  0.3912 -2.4117 -2.8285
  703TMC3    H210453   2.789   2.296  10.394  0.4558 -1.7074 -2.3877
  703TMC3    C710454   2.978   2.159  10.526 -0.1014  0.6857 -0.1624
  703TMC3    C810455   2.542   2.281  10.435  0.2107  0.2947 -0.4006
  703TMC3    O110456   2.994   2.279  10.519 -0.3194  0.0534  0.4334
  703TMC3    O210457   2.569   2.388  10.383 -0.1468 -0.1201  0.2892
  704TMC3    C110458   0.872   0.531  12.389  0.3483 -0.1242 -0.0054
  704TMC3    C210459   0.802   0.570  12.282  0.2638 -0.1836 -0.6457
  704TMC3    C310460   0.866   0.582  12.160  1.0361 -0.1599  0.3232
  704TMC3    C410461   1.006   0.502  12.391  0.2704  0.4969  0.2164
  704TMC3    C510462   1.065   0.513  12.270 -0.2885  0.0517 -1.4740
  704TMC3    C610463   1.000   0.558  12.162 -0.0312  0.2097  0.0972
  704TMC3     C10464   0.795   0.419  12.453  0.5075 -0.4170  0.1136
  704TMC3     O10465   0.833   0.381  12.565 -0.0360  0.2774  0.1235
  704TMC3     H10466   0.704   0.607  12.307  0.5335  1.2123 -1.7093
  704TMC3    H110467   1.050   0.444  12.471  2.0858  0.7025 -0.6141
  704TMC3    H210468   1.061   0.569  12.073  2.4136  1.7398  1.9833
  704TMC3    C710469   1.115   0.386  12.242 -0.6881 -0.2237 -0.0459
  704TMC3    C810470   0.798   0.540  12.040 -0.3994  0.1660 -0.2645
  704TMC3    O110471   1.046   0.327  12.163  0.1718  0.2263 -0.3437
  704TMC3    O210472   0.701   0.462  12.051 -0.3462  0.1960 -0.0103
  705MPD2     C10473   4.265   3.157  16.646 -0.4994 -0.0127 -0.2542
  705MPD2    C110474   4.235   3.240  16.539  0.1041  0.2982 -0.2990
  705MPD2    C210475   4.105   3.292  16.523  0.4592 -0.3744 -0.2439
  705MPD2    C310476   4.005   3.266  16.610 -0.2198 -0.7781 -0.1029
  705MPD2    C410477   4.040   3.182  16.718 -0.0101  0.9975  0.2365
  705MPD2    C510478   4.171   3.142  16.745  1.1095 -0.0737  0.3583
  705MPD2     H10479   4.102   3.363  16.441  1.0113 -0.3973 -0.2844
  705MPD2    H110480   3.957   3.148  16.778  0.4625  1.4901  1.1714
  705MPD2    H210481   4.364   3.114  16.656 -1.6174 -2.0327  2.1765
  705MPD2    H310482   4.191   3.066  16.820  3.1403  1.1102  0.9851
  705MPD2     N10483   3.875   3.313  16.582 -0.5473  0.2062 -0.5149
  705MPD2    H510484   3.874   3.380  16.505  2.1700 -1.7585 -2.2528
  705MPD2    N110485   4.337   3.272  16.441  0.1588 -0.4398  0.3412
  705MPD2    H710486   4.304   3.336  16.370  0.9165  0.3361  0.6831
  706TMC3    C110487   4.720   3.259  16.177  0.1528  0.0962  0.2779
  706TMC3    C210488   4.692   3.370  16.105  1.0506  0.5585  0.0022
  706TMC3    C310489   4.575   3.436  16.144  0.7090 -0.2298 -0.9714
  706TMC3    C410490   4.658   3.220  16.290 -0.1309 -0.0321 -0.3164
  706TMC3    C510491   4.544   3.291  16.326  0.3612 -0.4074 -0.6773
  706TMC3    C610492   4.497   3.392  16.249  0.0204  0.2589  0.2891
  706TMC3     C10493   0.077   3.152  16.126 -0.4935 -0.7031 -0.4768
  706TMC3     O10494   0.130   3.083  16.214  0.3986  0.6217 -0.5524
  706TMC3     H10495   0.006   3.404  16.016  0.4267  0.3669 -0.4369
  706TMC3    H110496   4.702   3.141  16.350 -0.9039  0.1175  0.4364
  706TMC3    H210497   4.397   3.431  16.263  0.5389  1.9486 -0.7415
  706TMC3    C710498   4.474   3.240  16.440 -0.2059  0.1563 -0.9447
  706TMC3    C810499   4.546   3.564  16.081 -1.5077 -0.7400  0.1668
  706TMC3    O110500   4.538   3.174  16.524 -0.3377 -0.6030  0.9624
  706TMC3    O210501   4.602   3.592  15.977  0.3429  0.3696 -0.3518
  707TMC3    C110502   1.062   1.681   1.188  0.3868 -0.4375 -0.3674
  707TMC3    C210503   1.020   1.640   1.311  0.4812 -0.0787  0.2633
  707TMC3    C310504   0.886   1.610   1.334  0.4375  0.1858  0.2015
  707TMC3    C410505   0.975   1.695   1.083 -0.1506  0.3090  0.1622
  707TMC3    C510506   0.844   1.674   1.107  0.6977 -0.6137  0.1917
  707TMC3    C610507   0.796   1.628   1.231 -0.2466 -0.7639  0.2793
  707TMC3     C10508   1.207   1.695   1.173  0.8438  0.3682  0.2631
  707TMC3     O10509   1.276   1.667   1.269 -0.3932  0.2957 -0.1160
  707TMC3     H10510   1.086   1.643   1.396  0.2589 -0.7199  0.4599
  707TMC3    H110511   1.000   1.748   0.992  1.7495 -1.1325 -0.1639
  707TMC3    H210512   0.688   1.639   1.241  0.0610 -0.1719  2.8755
  707TMC3    C710513   0.757   1.706   1.001  0.0312 -0.5389  0.3210
  707TMC3    C810514   0.845   1.532   1.445 -0.3749  0.4048  0.1890
  707TMC3    O110515   0.786   1.779   0.908 -0.4640  0.5176  0.2828
  707TMC3    O210516   0.726   1.521   1.469 -0.0330  0.4408 -0.4760
  708MPD2     C10517   2.731   1.488  13.963  0.5107  0.8462  0.1921
  708MPD2    C110518   2.735   1.434  14.088 -0.2613  0.1583 -0.1936
  708MPD2    C210519   2.821   1.494  14.174  0.0604  0.6439 -0.5051
  708MPD2    C310520   2.896   1.604  14.144  1.8860  0.1347  0.1743
  708MPD2    C410521   2.893   1.654  14.012 -0.0853  0.4876 -0.1372
  708MPD2    C510522   2.810   1.597  13.919 -0.1628  0.7723 -0.0082
  708MPD2     H10523   2.823   1.469  14.280 -1.3811  2.0523 -0.1547
  708MPD2    H110524   2.937   1.745  13.973 -1.1933  1.2040  0.2681
  708MPD2    H210525   2.662   1.457  13.885 -2.8072  3.0063  2.3082
  708MPD2    H310526   2.790   1.635  13.819  0.0823  1.7380  0.3086
  708MPD2     N10527   2.966   1.667  14.254  0.1694  0.8809 -0.1953
  708MPD2    H510528   2.952   1.617  14.341  0.7370 -2.0014 -1.7231
  708MPD2    N110529   2.654   1.328  14.121 -0.0936 -0.6011  0.3358
  708MPD2    H710530   2.578   1.311  14.056  1.0481  0.1446 -1.1874
  709TMC3    C110531   2.536   1.173  14.272 -0.2469 -0.2141  0.2277
  709TMC3    C210532   2.414   1.202  14.224 -0.6177  0.5099  0.0120
  709TMC3    C310533   2.304   1.163  14.301 -0.2994 -0.4660  0.0599
  709TMC3    C410534   2.546   1.099  14.385  0.1388 -0.5034 -0.4064
  709TMC3    C510535   2.433   1.090  14.468  0.2898 -0.0734 -0.4139
  709TMC3    C610536   2.309   1.112  14.430  0.0468  0.0669 -0.2487
  709TMC3     C10537   2.650   1.264  14.250 -0.3713  0.3312 -0.2721
  709TMC3     O10538   2.735   1.262  14.341  0.5247  0.8031 -0.3084
  709TMC3     H10539   2.399   1.255  14.131  1.6314  0.7027 -0.2270
  709TMC3    H110540   2.635   1.055  14.426  0.3550 -0.1931 -0.5401
  709TMC3    H210541   2.224   1.099  14.497  0.2449 -1.5404 -0.3004
  709TMC3    C710542   2.463   1.134  14.599  0.5339 -0.1783 -0.0080
  709TMC3    C810543   2.179   1.138  14.237  0.3449 -0.8251 -0.6255
  709TMC3    O110544   2.372   1.132  14.687 -0.0875 -0.4106  0.7560
  709TMC3    O210545   2.102   1.056  14.284 -0.3122 -0.4563  0.0244
  710TMC3    C110546   3.211   2.526   0.537  0.5627 -0.2592  0.0368
  710TMC3    C210547   3.269   2.527   0.407 -0.5422 -0.0935  0.0733
  710TMC3    C310548   3.399   2.500   0.391 -0.1763  0.0605 -0.4004
  710TMC3    C410549   3.284   2.476   0.637  0.3028  0.0449  0.2131
  710TMC3    C510550   3.409   2.427   0.614 -0.4291  0.1842 -1.2988
  710TMC3    C610551   3.468   2.449   0.492  1.0393 -0.3711 -0.7128
  710TMC3     C10552   3.107   2.622   0.551 -1.1121 -0.5889 -0.1385
  710TMC3     O10553   3.057   2.645   0.444  0.4207 -0.2455 -0.1863
  710TMC3     H10554   3.217   2.573   0.324 -1.9225 -0.5783  0.6770
  710TMC3    H110555   3.238   2.445   0.730  0.1143  2.2736  0.8691
  710TMC3    H210556   3.571   2.419   0.474  0.9544 -0.4646 -1.0331
  710TMC3    C710557   3.513   2.418   0.716  0.7025 -0.0094  0.3408
  710TMC3    C810558   3.469   2.525   0.264 -0.0680  1.0170  0.3359
  710TMC3    O110559   3.521   2.323   0.791  0.3812  0.1382 -0.2200
  710TMC3    O210560   3.572   2.463   0.239 -0.8927 -0.0017 -0.4969
  711TMC3    C110561   3.216   3.973  14.980 -0.2135 -0.2608 -0.0838
  711TMC3    C210562   3.194   4.047  15.093 -0.3121  0.4373 -0.3419
  711TMC3    C310563   3.298   4.096  15.169  1.0025  0.9368 -0.3947
  711TMC3    C410564   3.347   3.946  14.939  0.1947 -0.2214 -0.0858
  711TMC3    C510565   3.453   3.994  15.016 -0.3530  0.9198 -1.0825
  711TMC3    C610566   3.426   4.075  15.119  0.2573  0.0241  0.4763
  711TMC3     C10567   3.142   3.854  14.953  0.0800 -0.0987 -0.2161
  711TMC3     O10568   3.130   3.805  14.837 -0.3942 -0.5208  0.4318
  711TMC3     H10569   3.095   4.042  15.137  1.0899 -0.7012  2.6483
  711TMC3    H110570   3.376   3.872  14.866  1.5585  1.0881 -0.8879
  711TMC3    H210571   3.507   4.090  15.189  1.7457 -1.8935 -0.8464
  711TMC3    C710572   3.536   3.885  15.063  0.0888  0.3741  0.5383
  711TMC3    C810573   3.298   4.034  15.298  0.3078  0.0505  0.8952
  711TMC3    O110574   3.632   3.905  15.140  0.3111 -0.3828  0.4245
  711TMC3    O210575   3.227   3.936  15.304  0.0981  0.3346 -0.3557
  712MPD2     C10576   4.434   0.383  13.712  0.7176  0.4066 -0.1380
  712MPD2    C110577   4.536   0.382  13.623 -0.0274 -0.1633 -0.2447
  712MPD2    C210578   4.612   0.491  13.601 -0.3082  0.3601 -0.0741
  712MPD2    C310579   4.566   0.619  13.647  0.4540 -0.1856 -0.5683
  712MPD2    C410580   4.461   0.615  13.738  0.1389 -0.2806  0.7956
  712MPD2    C510581   4.400   0.499  13.771  0.1034 -0.1062 -0.6659
  712MPD2     H10582   4.694   0.492  13.531 -2.3815  1.1303 -2.5037
  712MPD2    H110583   4.424   0.700  13.794 -0.5033  0.2442 -0.4419
  712MPD2    H210584   4.377   0.294  13.735  2.0118  0.5173  3.4271
  712MPD2    H310585   4.314   0.508  13.836  0.5757 -5.3953  0.7247
  712MPD2     N10586   4.643   0.740  13.634 -0.5780  0.1054 -0.3171
  712MPD2    H510587   4.613   0.811  13.701 -1.1382  0.6045 -1.1028
  712MPD2    N110588   4.570   0.258  13.567 -0.4697  0.0125 -0.2741
  712MPD2    H710589   4.501   0.184  13.575 -0.1832 -0.1789  0.3919
  713TMC3    C110590   0.088   0.886  13.585 -0.4946 -0.2198 -0.6138
  713TMC3    C210591   0.226   0.884  13.593 -0.3653  0.5630 -0.1712
  713TMC3    C310592   0.290   0.994  13.648 -0.3910  0.2122  0.5421
  713TMC3    C410593   0.016   0.989  13.638 -0.2256 -0.3567 -1.1658
  713TMC3    C510594   0.088   1.095  13.686 -0.1491 -0.6610  0.0550
  713TMC3    C610595   0.219   1.109  13.690 -0.1039  0.2482 -0.2448
  713TMC3     C10596   0.022   0.759  13.561 -0.1056 -0.3627 -0.0434
  713TMC3     O10597   0.079   0.678  13.492 -0.4824 -0.8918  0.8361
  713TMC3     H10598   0.284   0.798  13.562  0.8680  1.2049  0.3380
  713TMC3    H110599   4.645   0.996  13.633 -0.1778  1.7730  1.0658
  713TMC3    H210600   0.275   1.191  13.733  1.9710 -0.0170 -2.3994
  713TMC3    C710601   0.023   1.205  13.739  0.2278 -0.2597  0.6159
  713TMC3    C810602   0.422   0.984  13.703 -0.5982  0.1068  0.1616
  713TMC3    O110603   0.092   1.287  13.798 -0.3642 -0.2456 -0.1470
  713TMC3    O210604   0.461   1.075  13.782  0.0815 -0.3479 -0.0681
  714MPD2     C10605   2.120   3.404   1.833  0.3777  0.4813 -0.0166
  714MPD2    C110606   2.166   3.335   1.723  0.0488  0.3583  0.3965
  714MPD2    C210607   2.093   3.325   1.605 -0.0765 -0.0819  0.7515
  714MPD2    C310608   1.973   3.388   1.586  0.2518 -0.3154 -0.2414
  714MPD2    C410609   1.921   3.459   1.699 -0.6073  0.0490 -0.3672
  714MPD2    C510610   1.996   3.462   1.814 -0.0964 -0.4362 -0.5613
  714MPD2     H10611   2.128   3.277   1.515  1.6003  0.9173  0.8791
  714MPD2    H110612   1.831   3.520   1.690 -0.6416 -0.0168 -0.4656
  714MPD2    H210613   2.172   3.421   1.927 -0.2312 -0.3900  0.4831
  714MPD2    H310614   1.949   3.515   1.896 -0.4688 -0.6588 -0.6287
  714MPD2     N10615   1.909   3.386   1.464 -0.2778  0.0192  0.1103
  714MPD2    H510616   1.956   3.338   1.389 -0.8205  1.2454 -1.0213
  714MPD2    N110617   2.289   3.264   1.739 -0.2989  0.4002 -0.6544
  714MPD2    H710618   2.337   3.269   1.828 -1.0283  2.1929 -0.3578
  715TMC3    C110619   2.477   3.146   1.676 -0.1023  0.0447  0.5115
  715TMC3    C210620   2.526   3.038   1.613 -0.5468 -0.1381  0.8003
  715TMC3    C310621   2.658   3.009   1.616 -0.3096  0.1466 -0.0255
  715TMC3    C410622   2.560   3.227   1.753  0.0875  0.4718 -0.1327
  715TMC3    C510623   2.695   3.211   1.742  0.8842  0.0423  0.6322
  715TMC3    C610624   2.740   3.099   1.673 -0.6929 -0.2562 -0.3321
  715TMC3     C10625   2.345   3.188   1.643 -0.4120 -0.2613  0.0351
  715TMC3     O10626   2.303   3.143   1.533  0.1305  0.2741  0.0783
  715TMC3     H10627   2.461   2.975   1.553 -0.2746 -1.7224  2.1780
  715TMC3    H110628   2.525   3.322   1.792  0.2804  0.2259  0.6391
  715TMC3    H210629   2.847   3.086   1.662 -0.8619  2.1866 -5.1290
  715TMC3    C710630   2.791   3.283   1.819  1.1160 -0.1026  0.0044
  715TMC3    C810631   2.709   2.912   1.510 -0.5760 -0.0656 -0.7314
  715TMC3    O110632   2.903   3.293   1.775 -0.1654  0.0605  0.1393
  715TMC3    O210633   2.629   2.858   1.432  0.6497  0.2536  0.3636
  716MPD2     C10634   2.802   2.229  10.094 -0.3257 -0.2328 -1.2135
  716MPD2    C110635   2.708   2.130  10.053 -0.2208 -0.4588  0.4591
  716MPD2    C210636   2.729   1.995  10.081 -0.3251 -1.1798  0.0157
  716MPD2    C310637   2.838   1.954  10.155 -0.0242 -0.1105 -0.1879
  716MPD2    C410638   2.930   2.045  10.187  0.6982 -0.3763  0.7099
  716MPD2    C510639   2.918   2.180  10.151 -0.1810  0.1871  0.3675
  716MPD2     H10640   2.644   1.929  10.072 -1.5007  0.6412 -1.8729
  716MPD2    H110641   3.024   2.019  10.234  0.0251 -1.2364  1.5954
  716MPD2    H210642   2.790   2.334  10.071 -0.6953  0.2076  0.9578
  716MPD2    H310643   3.002   2.248  10.161 -0.1805  0.4116 -1.0698
  716MPD2     N10644   2.853   1.825  10.200  0.0162 -0.4490  0.2198
  716MPD2    H510645   2.779   1.758  10.182  0.0550 -0.5446  0.4286
  716MPD2    N110646   2.597   2.176   9.979  0.5869 -0.3682  0.0071
  716MPD2    H710647   2.600   2.276   9.964 -2.1556 -0.4830 -1.3255
  717TMC3    C110648   2.917   1.635  10.313 -0.4595 -0.4662  0.2793
  717TMC3    C210649   2.845   1.562  10.224 -0.2574  0.0177  0.3212
  717TMC3    C310650   2.775   1.450  10.266  1.0432  0.4850 -0.0174
  717TMC3    C410651   2.921   1.596  10.442  0.6594  0.0598 -0.1811
  717TMC3    C510652   2.857   1.477  10.479 -0.4308  0.1214 -0.0631
  717TMC3    C610653   2.783   1.407  10.391  0.4261  0.0595  0.0074
  717TMC3     C10654   2.937   1.780  10.291  1.3144 -0.0770  0.3956
  717TMC3     O10655   2.994   1.835  10.383 -0.2455 -0.0396 -0.4116
  717TMC3     H10656   2.845   1.589  10.119 -1.3767  1.4360  0.6880
  717TMC3    H110657   2.966   1.658  10.519 -0.2660  3.9459 -2.7844
  717TMC3    H210658   2.727   1.321  10.426 -2.1633  1.2695 -1.2010
  717TMC3    C710659   2.868   1.425  10.618 -0.5331  0.5541 -0.8469
  717TMC3    C810660   2.709   1.369  10.163  0.4647 -0.3016  0.2665
  717TMC3    O110661   2.874   1.302  10.628  0.0614 -0.1317 -0.1094
  717TMC3    O210662   2.666   1.437  10.069  0.1405  0.1603  0.4609
  718MPD2     C10663   2.300   0.637  13.137 -0.2095 -0.4468 -0.5994
  718MPD2    C110664   2.228   0.529  13.093  0.6028 -0.2381 -0.0236
  718MPD2    C210665   2.172   0.445  13.189 -0.6203 -0.6614 -0.1194
  718MPD2    C310666   2.179   0.477  13.322  0.3099 -1.0375  0.2058
  718MPD2    C410667   2.259   0.587  13.362  0.3967  0.4229 -0.6738
  718MPD2    C510668   2.316   0.662  13.267  0.0246  0.5069  0.7409
  718MPD2     H10669   2.112   0.359  13.160 -0.1584 -1.7606  2.2475
  718MPD2    H110670   2.280   0.600  13.467 -0.6474  0.4916 -0.4728
  718MPD2    H210671   2.341   0.704  13.062 -0.7289  1.3317  0.7109
  718MPD2    H310672   2.383   0.744  13.291  0.6175  0.2214  0.0915
  718MPD2     N10673   2.124   0.390  13.413 -0.2400 -0.5952  0.7048
  718MPD2    H510674   2.060   0.317  13.382 -2.9796  2.5375 -1.1054
  718MPD2    N110675   2.219   0.498  12.956  0.0608  0.6000  0.8485
  718MPD2    H710676   2.274   0.545  12.885 -1.4568  1.1831  0.0516
  719TMC3    C110677   2.182   0.373  12.754  0.5488 -0.6834 -0.1417
  719TMC3    C210678   2.092   0.270  12.709  0.2422  0.6744 -0.4742
  719TMC3    C310679   2.139   0.158  12.655  0.1493  0.1939  0.2092
  719TMC3    C410680   2.319   0.368  12.727 -0.1586  0.1301 -0.1828
  719TMC3    C510681   2.357   0.249  12.666 -0.2499 -0.3278 -0.3666
  719TMC3    C610682   2.271   0.153  12.628 -0.2180 -0.3000 -0.6335
  719TMC3     C10683   2.145   0.403  12.898 -0.3809  0.1716 -0.4900
  719TMC3     O10684   2.054   0.341  12.950 -0.2269 -0.4705  0.0316
  719TMC3     H10685   1.984   0.273  12.717  0.2032  1.5681 -1.2927
  719TMC3    H110686   2.387   0.430  12.784 -0.1876 -0.9315  0.9927
  719TMC3    H210687   2.316   0.065  12.585  1.0811  1.0321 -2.0186
  719TMC3    C710688   2.501   0.223  12.637  0.0295 -0.5154  0.5585
  719TMC3    C810689   2.094   0.034  12.714  0.5489 -1.2139 -0.2209
  719TMC3    O110690   2.527   0.139  12.556  0.4170 -0.9021  1.1168
  719TMC3    O210691   2.123   4.667  12.652 -0.0513  0.3491  0.4348
  720MPD2     C10692   4.580   2.010  14.188 -0.5403 -0.2821  0.3986
  720MPD2    C110693   4.672   2.008  14.088 -0.6366 -0.2464  0.6988
  720MPD2    C210694   0.063   1.989  14.118  0.1050 -0.0429 -0.2940
  720MPD2    C310695   0.103   1.972  14.252 -0.7214 -0.9653  0.3161
  720MPD2    C410696   0.011   1.972  14.351 -0.3554  0.0142 -0.1804
  720MPD2    C510697   4.616   1.984  14.323  0.0468 -0.4163 -0.2440
  720MPD2     H10698   0.131   1.987  14.034  2.2786  0.3139  1.4703
  720MPD2    H110699   0.030   1.958  14.457 -2.1046 -0.1071  0.1134
  720MPD2    H210700   4.473   2.012  14.170  0.1197 -0.9111 -3.6848
  720MPD2    H310701   4.542   1.973  14.401  2.0286 -1.6895  1.4507
  720MPD2     N10702   0.241   1.954  14.278  0.1838 -0.5714 -0.4775
  720MPD2    H510703   0.301   1.948  14.196 -0.6207  0.2628 -1.1343
  720MPD2    N110704   4.641   2.058  13.958 -0.6752  0.4522 -0.5043
  720MPD2    H710705   4.722   2.074  13.900  0.1365  0.5926  0.6751
  721TMC3    C110706   0.448   1.931  14.409  0.2807  0.3960  0.2198
  721TMC3    C210707   0.513   1.934  14.530 -0.2826 -0.0414  0.0592
  721TMC3    C310708   0.648   1.951  14.536 -0.0354 -0.6055 -0.1304
  721TMC3    C410709   0.516   1.957  14.296 -0.2708  0.7633  0.2700
  721TMC3    C510710   0.646   1.987  14.294 -0.0409 -0.4638  0.4257
  721TMC3    C610711   0.713   1.975  14.415 -0.3576  0.8387  0.4008
  721TMC3     C10712   0.298   1.941  14.407  0.5220 -0.1876  0.1309
  721TMC3     O10713   0.245   1.937  14.515 -0.5012  0.2026 -0.3107
  721TMC3     H10714   0.455   1.908  14.618 -0.1609 -1.8616 -0.3982
  721TMC3    H110715   0.473   1.963  14.197 -0.1668  2.1190  0.3166
  721TMC3    H210716   0.821   1.975  14.419 -0.3895 -0.4823  1.6089
  721TMC3    C710717   0.706   2.060  14.184  0.2845  1.0294  0.0123
  721TMC3    C810718   0.723   1.975  14.652 -0.0609 -0.5991  0.0943
  721TMC3    O110719   0.623   2.101  14.105  0.0614  0.2534  0.5174
  721TMC3    O210720   0.840   1.997  14.641  0.6895  0.4021  0.1820
  722MPD2     C10721   3.809   0.764  13.603 -0.4670 -0.0751  0.3175
  722MPD2    C110722   3.713   0.860  13.602  0.3910 -0.1740 -0.7434
  722MPD2    C210723   3.606   0.845  13.519 -0.4100  0.1733 -0.6172
  722MPD2    C310724   3.606   0.747  13.423 -0.3539 -0.4961  0.2592
  722MPD2    C410725   3.719   0.660  13.411 -0.5457  0.3752 -0.3321
  722MPD2    C510726   3.823   0.677  13.502 -0.3059 -0.2760  0.0991
  722MPD2     H10727   3.519   0.909  13.533  0.0915  1.1638 -2.0813
  722MPD2    H110728   3.730   0.585  13.333 -0.7717 -1.4273  1.3744
  722MPD2    H210729   3.889   0.758  13.676  0.7135 -0.1472 -0.9945
  722MPD2    H310730   3.903   0.606  13.513  1.2058  1.0450 -2.3888
  722MPD2     N10731   3.492   0.742  13.334 -0.6522 -0.2439  0.2612
  722MPD2    H510732   3.421   0.815  13.336  0.3757  0.7517  0.3573
  722MPD2    N110733   3.716   0.974  13.686 -0.2940  0.4279 -0.6969
  722MPD2    H710734   3.651   1.048  13.661 -1.0384 -0.1917 -0.5949
  723TMC3    C110735   3.341   0.633  13.186  0.4312  0.0430  1.1588
  723TMC3    C210736   3.263   0.520  13.199  0.3267  0.1503  0.3665
  723TMC3    C310737   3.133   0.541  13.161  0.0523 -0.1360  0.0154
  723TMC3    C410738   3.296   0.750  13.137 -0.2952 -0.2157 -0.1625
  723TMC3    C510739   3.170   0.763  13.102 -0.4208  0.2583  0.3878
  723TMC3    C610740   3.082   0.659  13.115 -0.3610 -1.2409 -0.4405
  723TMC3     C10741   3.467   0.638  13.252 -0.2455 -0.1638 -0.4536
  723TMC3     O10742   3.518   0.523  13.249 -0.0242  0.2245  0.0998
  723TMC3     H10743   3.300   0.431  13.247 -0.0168 -0.9965 -1.5027
  723TMC3    H110744   3.364   0.834  13.128 -0.3499 -0.0986  0.4851
  723TMC3    H210745   2.975   0.679  13.108 -0.4150 -1.4832 -0.3233
  723TMC3    C710746   3.123   0.909  13.099 -0.3028 -0.5015  0.0714
  723TMC3    C810747   3.035   0.436  13.176  0.0561  0.1096  0.3590
  723TMC3    O110748   3.194   0.989  13.157  0.2577  0.6371 -0.6649
  723TMC3    O210749   2.919   0.466  13.203 -0.0401 -0.0485  0.2200
  724TMC3    C110750   3.789   0.245   9.590 -0.2543 -0.5771 -0.4095
  724TMC3    C210751   3.849   0.355   9.650  0.1365 -0.1139 -0.5047
  724TMC3    C310752   3.970   0.327   9.711 -0.2887 -0.1428 -1.0203
  724TMC3    C410753   3.847   0.116   9.590  0.5390  0.2153  0.4293
  724TMC3    C510754   3.978   0.106   9.644 -0.1337  0.0101 -0.2378
  724TMC3    C610755   4.039   0.214   9.694  0.0296  0.1570 -0.2835
  724TMC3     C10756   3.653   0.253   9.548 -0.2151  0.2748 -0.7783
  724TMC3     O10757   3.579   0.156   9.572  0.3816 -0.1064  0.0315
  724TMC3     H10758   3.796   0.443   9.686  0.1610 -0.9369  1.5514
  724TMC3    H110759   3.818   0.045   9.513 -0.4245 -1.1073  2.0061
  724TMC3    H210760   4.138   0.194   9.735  0.5790  0.9774 -1.2060
  724TMC3    C710761   4.027   4.714   9.683  0.4859 -0.4898 -0.4940
  724TMC3    C810762   4.020   0.443   9.795 -0.5649 -0.3368  0.0314
  724TMC3    O110763   4.130   4.712   9.745 -0.2136  0.2050  0.1057
  724TMC3    O210764   3.949   0.540   9.813  0.1721  0.3644  0.1502
  725TMC3    C110765   1.018   2.460  13.258  0.3079 -0.1597 -0.4301
  725TMC3    C210766   0.912   2.546  13.280  0.0321  0.6238 -0.1829
  725TMC3    C310767   0.794   2.481  13.253 -0.7221 -0.3407 -0.3284
  725TMC3    C410768   1.007   2.332  13.203 -0.1072 -0.2363 -0.7279
  725TMC3    C510769   0.884   2.281  13.180 -0.5873  1.0311 -0.4994
  725TMC3    C610770   0.775   2.357  13.197 -0.2572 -0.1679 -0.2352
  725TMC3     C10771   1.147   2.525  13.260 -0.4158  0.2790  0.0702
  725TMC3     O10772   1.145   2.646  13.257  0.3402 -0.0268 -0.0470
  725TMC3     H10773   0.932   2.642  13.326 -1.9660 -0.1619  2.3345
  725TMC3    H110774   1.090   2.264  13.188 -0.4864 -0.8183 -0.1509
  725TMC3    H210775   0.676   2.331  13.160 -0.3671  0.5587 -0.4578
  725TMC3    C710776   0.871   2.164  13.091 -0.1795  0.1149  0.1700
  725TMC3    C810777   0.686   2.564  13.246 -0.2365  0.3855  0.7659
  725TMC3    O110778   0.972   2.142  13.025  0.3318  0.4764  0.0772
  725TMC3    O210779   0.591   2.535  13.315  0.2124  0.2918  0.0620
  726MPD2     C10780   3.334   3.846  10.880 -0.1693  0.5096  0.2886
  726MPD2    C110781   3.212   3.824  10.819 -0.1641  0.3682 -0.3086
  726MPD2    C210782   3.129   3.729  10.874 -0.4963  0.9005  0.0559
  726MPD2    C310783   3.168   3.647  10.981  0.6476  0.2820  0.1258
  726MPD2    C410784   3.292   3.671  11.040  0.3177  0.4221  0.3133
  726MPD2    C510785   3.374   3.765  10.987 -0.5001  0.0945  0.8533
  726MPD2     H10786   3.038   3.706  10.821 -1.1921  4.0030 -0.0548
  726MPD2    H110787   3.328   3.619  11.127 -0.8750  0.2913  0.7354
  726MPD2    H210788   3.412   3.915  10.848  1.0067 -0.5087  0.9717
  726MPD2    H310789   3.473   3.767  11.031  0.5552  1.3267 -1.6261
  726MPD2     N10790   3.080   3.551  11.035 -0.2595  0.0833 -0.1477
  726MPD2    H510791   2.999   3.525  10.980  0.4774 -2.4699 -0.0441
  726MPD2    N110792   3.160   3.886  10.697 -0.2971  0.5585  0.2743
  726MPD2    H710793   3.069   3.861  10.661  1.0624 -0.4307 -2.4264
  727TMC3    C110794   3.166   4.045  10.509 -1.2007 -0.6806  0.0792
  727TMC3    C210795   3.249   4.117  10.432  0.0332 -0.6425 -0.2376
  727TMC3    C310796   3.196   4.210  10.345 -0.5363 -0.4855 -0.7049
  727TMC3    C410797   3.028   4.056  10.498 -0.6108  0.4953 -0.3227
  727TMC3    C510798   2.976   4.151  10.412  0.0357 -0.1956  0.2155
  727TMC3    C610799   3.060   4.230  10.337  0.0846 -0.5451  0.2598
  727TMC3     C10800   3.234   3.986  10.631 -0.3005  0.2005 -0.3480
  727TMC3     O10801   3.345   4.030  10.659 -0.5846  0.4403  0.1788
  727TMC3     H10802   3.352   4.114  10.464 -0.2863 -1.7623  0.6791
  727TMC3    H110803   2.970   4.009  10.577  0.3543  1.1782  0.8001
  727TMC3    H210804   3.012   4.285  10.256  1.1668 -1.0488 -0.7285
  727TMC3    C710805   2.834   4.144  10.380 -0.4078 -0.2806  0.0759
  727TMC3    C810806   3.283   4.321  10.314 -0.3919 -0.4233 -0.1551
  727TMC3    O110807   2.799   4.226  10.295  1.1292 -0.0765 -0.3420
  727TMC3    O210808   3.405   4.295  10.327 -0.2431  0.0402  0.1205
  728TMC3    C110809   2.736   2.621  15.648 -0.4581  0.2212  0.3829
  728TMC3    C210810   2.861   2.649  15.607 -0.1210  0.4678 -0.3042
  728TMC3    C310811   2.875   2.705  15.479 -0.0432 -0.3105 -0.1831
  728TMC3    C410812   2.624   2.651  15.586  0.7500 -0.0965 -0.3284
  728TMC3    C510813   2.638   2.709  15.459 -0.6370  0.4310 -0.4059
  728TMC3    C610814   2.760   2.736  15.403  0.3235  0.1920  0.9028
  728TMC3     C10815   2.727   2.549  15.781  0.2673 -0.2978 -0.5471
  728TMC3     O10816   2.831   2.522  15.844  0.5405  0.0445  0.8776
  728TMC3     H10817   2.945   2.608  15.663  0.6220  0.4787 -1.4118
  728TMC3    H110818   2.520   2.640  15.614  0.5775 -1.3719 -1.4552
  728TMC3    H210819   2.777   2.799  15.317 -2.4372 -0.2377  0.0711
  728TMC3    C710820   2.515   2.717  15.381  0.5196  0.1411  0.0655
  728TMC3    C810821   2.998   2.789  15.469  0.3812 -0.2782 -0.8944
  728TMC3    O110822   2.406   2.715  15.435 -0.1734 -0.7087 -0.3828
  728TMC3    O210823   3.064   2.806  15.569 -0.1194  0.1155  0.1436
  729MPD2     C10824   4.600   3.943  16.944 -0.2342  0.0166 -0.0535
  729MPD2    C110825   4.699   3.857  16.955  0.4646  0.0216  0.4338
  729MPD2    C210826   0.018   3.807  17.073 -0.1162 -0.3114 -0.1252
  729MPD2    C310827   4.715   3.868  17.186  0.1332 -0.2611  0.4813
  729MPD2    C410828   4.616   3.957  17.179 -0.7394  0.4416 -0.1023
  729MPD2    C510829   4.561   3.998  17.062  0.3368 -0.5108  0.4449
  729MPD2     H10830   0.089   3.726  17.079 -0.8165 -0.9494 -0.5002
  729MPD2    H110831   4.578   3.997  17.273  1.6536  2.0117  0.2078
  729MPD2    H210832   4.540   3.958  16.855  0.0053  0.6616 -0.1108
  729MPD2    H310833   4.482   4.072  17.057 -1.5388 -2.4655  1.2887
  729MPD2     N10834   0.018   3.837  17.316 -0.4174  0.5047 -0.8561
  729MPD2    H510835   4.728   3.903  17.388  0.2429  0.2871 -0.3970
  729MPD2    N110836   0.020   3.818  16.829 -0.3423 -0.0817 -0.4457
  729MPD2    H710837   0.019   3.893  16.762  0.6839  0.2349 -0.1119
  730TMC3    C110838   0.174   3.776  17.478  0.0652  0.4482 -0.1685
  730TMC3    C210839   0.308   3.782  17.473 -0.0976 -0.1647 -0.2235
  730TMC3    C310840   0.369   3.850  17.573 -0.9711  0.3178 -0.5186
  730TMC3    C410841   0.096   3.843  17.575  0.4141  0.0407  0.1568
  730TMC3    C510842   0.163   3.900  17.681 -0.0111  0.0743 -0.2418
  730TMC3    C610843   0.300   3.908  17.681  1.1837 -0.5132  0.5345
  730TMC3     C10844   0.122   3.749  17.346 -0.4827 -0.5982  0.1213
  730TMC3     O10845   0.187   3.679  17.269 -0.1722 -0.1510 -0.5282
  730TMC3     H10846   0.363   3.749  17.386  1.3221  0.1514  0.5429
  730TMC3    H110847   4.726   3.847  17.575  0.4113 -0.1897  1.4969
  730TMC3    H210848   0.354   3.949   0.016  1.2656  2.2585 -0.8647
  730TMC3    C710849   0.108   4.035  17.716  0.1099  0.3378 -0.0562
  730TMC3    C810850   0.514   3.861  17.568 -0.0621  0.4075 -0.0259
  730TMC3    O110851   0.023   4.080  17.640 -0.4556  0.5026 -0.3804
  730TMC3    O210852   0.582   3.780  17.501 -0.0364  0.0493 -0.5803
  731MPD2     C10853   0.110   1.292  12.386 -0.2126 -0.5398  0.0268
  731MPD2    C110854   0.197   1.400  12.397 -0.1349 -0.0649 -0.5399
  731MPD2    C210855   0.296   1.398  12.496  0.1645  0.5062  0.2956
  731MPD2    C310856   0.302   1.290  12.574 -0.2272 -0.2196  0.7784
  731MPD2    C410857   0.211   1.182  12.564  0.5602 -0.5530  0.5417
  731MPD2    C510858   0.117   1.184  12.467  0.4415  0.0254  1.0578
  731MPD2     H10859   0.357   1.487  12.508 -1.4082  1.4548  1.3924
  731MPD2    H110860   0.215   1.089  12.620  2.7014 -0.2079  0.9492
  731MPD2    H210861   0.037   1.284  12.306 -0.6529  1.3456  0.2556
  731MPD2    H310862   0.048   1.100  12.455  0.8076 -0.0647 -0.5264
  731MPD2     N10863   0.393   1.278  12.687 -0.7071 -0.0602 -0.1464
  731MPD2    H510864   0.368   1.196  12.741 -0.9070  0.8068  1.0656
  731MPD2    N110865   0.179   1.510  12.312 -0.3851  0.5877 -0.2923
  731MPD2    H710866   0.112   1.489  12.238  0.6648 -1.1288 -0.7490
  732TMC3    C110867   0.232   1.696  12.176  0.3813  0.2001 -0.3487
  732TMC3    C210868   0.111   1.751  12.158  0.1313 -0.1842  0.0926
  732TMC3    C310869   0.084   1.859  12.077  0.1264 -0.4327  0.0875
  732TMC3    C410870   0.338   1.747  12.112 -0.2827  0.5311  0.2050
  732TMC3    C510871   0.313   1.848  12.025  0.5547 -0.2540 -0.8742
  732TMC3    C610872   0.191   1.908  12.004  0.4708 -0.0582  0.4936
  732TMC3     C10873   0.269   1.609  12.288 -0.0923  0.2854 -0.8300
  732TMC3     O10874   0.380   1.626  12.340 -0.5512 -0.2395  0.5239
  732TMC3     H10875   0.037   1.717  12.229  1.2968  0.3453  1.5479
  732TMC3    H110876   0.427   1.689  12.131 -0.8082 -0.5206 -0.5474
  732TMC3    H210877   0.188   1.984  11.927  0.4377 -0.2126  0.3432
  732TMC3    C710878   0.420   1.947  12.013  0.0170 -0.1505 -0.0292
  732TMC3    C810879   4.694   1.859  12.001 -1.3974 -0.0138 -0.7031
  732TMC3    O110880   0.376   2.063  12.024  0.0946  0.3462 -0.0609
  732TMC3    O210881   4.706   1.895  11.883 -0.4548  0.1570  0.3311
  733TMC3    C110882   1.929   0.153  13.722 -0.1773 -0.3733 -0.3185
  733TMC3    C210883   1.993   0.266  13.691 -0.0759 -0.1001  0.4598
  733TMC3    C310884   2.089   0.264  13.597  0.1290  0.8568  0.4253
  733TMC3    C410885   1.954   0.036  13.650  0.3666 -0.0281 -0.0590
  733TMC3    C510886   2.058   0.034  13.552 -0.1582 -0.4580  0.0946
  733TMC3    C610887   2.118   0.151  13.525 -0.1369 -0.7942  0.2129
  733TMC3     C10888   1.786   0.182  13.731  0.3103 -0.7414  0.1132
  733TMC3     O10889   1.750   0.292  13.695 -0.1285 -0.0124 -0.9136
  733TMC3     H10890   1.963   0.357  13.741  1.0779  0.2384  0.5349
  733TMC3    H110891   1.885   4.690  13.651  0.7807 -0.3692 -0.2056
  733TMC3    H210892   2.193   0.153  13.447 -2.0919  1.7025 -1.6011
  733TMC3    C710893   2.057   4.679  13.439 -0.2284  0.1335  0.5667
  733TMC3    C810894   2.141   0.384  13.547  0.0268  0.0228 -0.1347
  733TMC3    O110895   2.062   4.562  13.474 -0.4061  0.4330 -0.1670
  733TMC3    O210896   2.175   0.471  13.622 -0.1462  0.0238 -0.0005
  734MPD2     C10897   3.013   2.695  12.951 -0.3974 -0.2778 -0.7124
  734MPD2    C110898   2.999   2.571  12.896 -0.0495 -0.4192 -0.3376
  734MPD2    C210899   3.041   2.552  12.763 -0.1411 -0.2054  0.2587
  734MPD2    C310900   3.061   2.663  12.681 -0.2938  0.0930 -0.8273
  734MPD2    C410901   3.048   2.789  12.734 -0.2398 -0.4425 -0.9283
  734MPD2    C510902   3.045   2.800  12.871 -0.2612 -0.4166  0.1556
  734MPD2     H10903   3.048   2.454  12.719  0.4785 -0.6436  1.3169
  734MPD2    H110904   3.043   2.881  12.676  1.0930 -0.1394 -0.5537
  734MPD2    H210905   2.986   2.720  13.053 -0.1360 -0.2607 -0.6492
  734MPD2    H310906   3.024   2.898  12.912 -2.2788 -0.3129 -1.1049
  734MPD2     N10907   3.084   2.628  12.544  0.2828 -0.3228 -0.3736
  734MPD2    H510908   3.110   2.531  12.528 -0.0071 -0.7817  1.8895
  734MPD2    N110909   2.935   2.474  12.973 -0.0033 -0.0267 -0.4061
  734MPD2    H710910   2.938   2.473  13.074 -0.9078  1.6326 -0.3702
  735TMC3    C110911   2.855   2.251  12.996  0.5684 -0.0412 -0.7669
  735TMC3    C210912   2.752   2.174  12.945  0.6936  0.0623  0.7499
  735TMC3    C310913   2.777   2.043  12.932 -0.1385  0.4033 -0.5053
  735TMC3    C410914   2.977   2.202  13.039 -0.2326 -0.4116 -0.1607
  735TMC3    C510915   2.996   2.069  13.015 -0.1308 -0.2239 -0.1363
  735TMC3    C610916   2.892   1.988  12.975 -0.9092 -0.0246 -0.2005
  735TMC3     C10917   2.870   2.367  12.914  0.4681  0.3684 -0.1792
  735TMC3     O10918   2.835   2.349  12.802  0.4204  0.0662  0.7592
  735TMC3     H10919   2.663   2.216  12.898  0.9614  0.4423  0.5749
  735TMC3    H110920   3.049   2.269  13.085  0.0418  2.6169 -4.9382
  735TMC3    H210921   2.898   1.880  12.979 -1.5000  0.0025  1.3671
  735TMC3    C710922   3.119   2.043  12.947  0.1539 -0.1508  0.5277
  735TMC3    C810923   2.765   1.991  12.798  0.3417 -0.2895  0.1659
  735TMC3    O110924   3.196   2.138  12.957 -0.1921 -0.0296 -0.4825
  735TMC3    O210925   2.750   1.872  12.778  0.1554 -0.0056 -0.4614
  736MPD2     C10926   3.131   1.844  12.637  0.1348 -0.8794  0.1187
  736MPD2    C110927   3.180   1.935  12.732  0.2612 -0.1284  0.3809
  736MPD2    C210928   3.297   2.001  12.701  0.9789  0.0527  0.0455
  736MPD2    C310929   3.365   1.982  12.582  0.9708  0.5619 -0.4293
  736MPD2    C410930   3.309   1.893  12.489 -0.0445 -0.1752  0.2759
  736MPD2    C510931   3.188   1.829  12.513  0.0803  0.1686 -0.0627
  736MPD2     H10932   3.330   2.070  12.778 -0.9958  0.6235  0.3810
  736MPD2    H110933   3.355   1.887  12.391  1.2845 -2.0469  1.0138
  736MPD2    H210934   3.034   1.799  12.649  0.7921 -2.3557 -0.1475
  736MPD2    H310935   3.144   1.782  12.426 -0.6068 -1.0143  0.9256
  736MPD2     N10936   3.484   2.047  12.548 -0.3031 -0.2529 -0.2272
  736MPD2    H510937   3.533   2.015  12.465  0.8472 -1.8609  1.0759
  736MPD2    N110938   3.104   1.950  12.848  0.4932  0.2973 -0.5454
  736MPD2    H710939   3.026   1.885  12.844  0.3885  0.3384  0.6213
  737TMC3    C110940   3.681   2.178  12.562 -1.2183 -0.2702 -0.3321
  737TMC3    C210941   3.709   2.310  12.563  0.5465 -0.1049 -0.4196
  737TMC3    C310942   3.803   2.353  12.472  0.9200 -0.3361  0.2699
  737TMC3    C410943   3.731   2.090  12.476  0.3558 -0.2784 -0.0083
  737TMC3    C510944   3.823   2.134  12.380 -0.2838 -0.7179 -0.2646
  737TMC3    C610945   3.863   2.266  12.374  0.9877  0.2017  0.0705
  737TMC3     C10946   3.549   2.144  12.621 -0.1920  0.4020 -0.3358
  737TMC3     O10947   3.506   2.201  12.722 -0.6875 -0.0146 -0.1437
  737TMC3     H10948   3.665   2.391  12.619  0.2804  1.6421 -3.1594
  737TMC3    H110949   3.717   1.983  12.490 -1.3617 -0.3193 -2.0274
  737TMC3    H210950   3.922   2.302  12.291  0.5500  0.9054  0.0689
  737TMC3    C710951   3.854   2.046  12.273 -0.0125 -0.1299  0.9331
  737TMC3    C810952   3.801   2.491  12.434  0.6596  0.1228 -0.5748
  737TMC3    O110953   3.766   1.962  12.256  0.1083 -0.0081  0.6175
  737TMC3    O210954   3.816   2.583  12.516  0.1390  0.3259  0.1814
  738MPD2     C10955   3.560   1.370  15.344  0.2189 -0.1429  0.5167
  738MPD2    C110956   3.633   1.273  15.413  0.1519  0.8371  0.1334
  738MPD2    C210957   3.765   1.301  15.446  0.2039 -0.2288  0.8541
  738MPD2    C310958   3.829   1.416  15.394  0.2542 -0.2444  0.1413
  738MPD2    C410959   3.755   1.502  15.316  0.4756  0.1083  0.8067
  738MPD2    C510960   3.622   1.476  15.294 -0.3153 -0.4346 -0.0545
  738MPD2     H10961   3.818   1.242  15.520 -0.0908 -0.1741  1.1075
  738MPD2    H110962   3.794   1.591  15.269 -1.6199  0.9343  0.6468
  738MPD2    H210963   3.457   1.356  15.313  0.7905  0.8931 -1.8224
  738MPD2    H310964   3.576   1.545  15.225  2.0993  1.3444  0.1078
  738MPD2     N10965   3.967   1.449  15.414  0.1200  0.1699 -0.2769
  738MPD2    H510966   4.012   1.523  15.361  1.2516 -0.0052  0.4367
  738MPD2    N110967   3.591   1.137  15.437 -0.1586  0.5131  0.6014
  738MPD2    H710968   3.658   1.073  15.479 -2.3468 -0.2293  2.9303
  739TMC3    C110969   4.190   1.438  15.462 -0.2691  0.6231 -0.6395
  739TMC3    C210970   4.197   1.495  15.339 -0.0239 -0.6085 -0.1126
  739TMC3    C310971   4.298   1.587  15.319  0.3046  0.9827  0.0296
  739TMC3    C410972   4.284   1.456  15.557 -0.2896 -0.1121 -0.6971
  739TMC3    C510973   4.378   1.553  15.537  0.5388  0.1641 -0.1842
  739TMC3    C610974   4.390   1.620  15.420  0.0358  0.0278  0.1727
  739TMC3     C10975   4.059   1.376  15.487 -0.4566  0.2125 -0.0050
  739TMC3     O10976   4.040   1.313  15.591 -0.2221  0.2145  0.2545
  739TMC3     H10977   4.138   1.468  15.253  1.7350 -2.1210 -0.8549
  739TMC3    H110978   4.305   1.400  15.647  0.4468  1.3714  0.0712
  739TMC3    H210979   4.453   1.706  15.403  0.8936 -0.2046  2.1824
  739TMC3    C710980   4.476   1.587  15.635  0.3037 -0.3621 -0.2180
  739TMC3    C810981   4.301   1.638  15.184 -0.1610  0.0684 -0.1138
  739TMC3    O110982   4.568   1.665  15.601 -0.2249  0.3391  0.4031
  739TMC3    O210983   4.194   1.638  15.128 -0.2721 -0.2181  0.2508
  740TMC3    C110984   4.643   2.523  14.717  0.4552  0.1256 -0.3824
  740TMC3    C210985   4.674   2.421  14.806 -0.8429 -0.7889 -0.4417
  740TMC3    C310986   4.737   2.310  14.759  0.0674  0.3029  0.1788
  740TMC3    C410987   4.672   2.513  14.598  0.3157  0.3309 -0.3304
  740TMC3    C510988   0.004   2.404  14.557  0.1458 -0.1041 -0.6840
  740TMC3    C610989   0.048   2.302  14.636  0.8072  0.2286  0.2901
  740TMC3     C10990   4.542   2.615  14.755  0.0948  0.8477  0.2147
  740TMC3     O10991   4.565   2.730  14.715  0.0210  0.2605  0.1350
  740TMC3     H10992   4.657   2.438  14.912 -4.4729  0.7997 -1.2826
  740TMC3    H110993   4.615   2.576  14.531  0.0835 -1.7647 -2.1338
  740TMC3    H210994   0.101   2.214  14.602 -0.0886  0.3490 -1.3941
  740TMC3    C710995   0.027   2.380  14.410 -0.0481  0.0962 -0.5963
  740TMC3    C810996   0.034   2.204  14.848  0.0989  0.3848  0.3599
  740TMC3    O110997   0.091   2.277  14.372  0.1878 -0.9702 -0.0408
  740TMC3    O210998   0.107   2.117  14.806 -0.0897 -0.2694  0.3186
  741TMC3    C110999   4.213   2.148  14.901  0.5191 -0.2068  0.2766
  741TMC3    C211000   4.105   2.065  14.869 -0.0558 -0.1408 -0.4137
  741TMC3    C311001   4.073   1.964  14.962 -0.0255 -0.0514  0.2957
  741TMC3    C411002   4.267   2.141  15.023 -0.4982  0.4410 -0.5455
  741TMC3    C511003   4.227   2.043  15.115  0.0426  0.3134  0.4689
  741TMC3    C611004   4.140   1.939  15.077 -0.4132  0.1236 -0.0362
  741TMC3     C11005   4.299   2.203  14.794  0.0016 -0.6959  0.2444
  741TMC3     O11006   4.395   2.266  14.823 -0.4471  0.2136 -0.4271
  741TMC3     H11007   4.031   2.087  14.793  0.9275 -2.3932 -2.0261
  741TMC3    H111008   4.344   2.212  15.051 -0.0657  0.0954 -0.8679
  741TMC3    H211009   4.113   1.862  15.149  2.5074  0.3762  1.3437
  741TMC3    C711010   4.299   2.046  15.242 -0.7289 -0.0081  0.6545
  741TMC3    C811011   3.979   1.869  14.918 -0.1581 -0.6005  0.3537
  741TMC3    O111012   4.370   2.145  15.260  0.0669 -0.1735 -0.0091
  741TMC3    O211013   3.916   1.910  14.821 -0.2679 -0.8480  0.1983
  742TMC3    C111014   4.090   0.207  15.678 -0.5820  0.0492 -0.5640
  742TMC3    C211015   3.998   0.179  15.580 -0.8253 -0.2261 -0.2871
  742TMC3    C311016   4.036   0.224  15.457 -0.0290 -0.1209 -0.4876
  742TMC3    C411017   4.192   0.294  15.662 -0.3789 -0.3042  0.8863
  742TMC3    C511018   4.222   0.337  15.536 -0.0571  0.2221  0.7330
  742TMC3    C611019   4.147   0.298  15.434  0.0518  0.1502 -0.5079
  742TMC3     C11020   4.079   0.137  15.806 -0.0372 -0.3252 -0.1953
  742TMC3     O11021   4.129   0.191  15.908  0.4437 -0.1473 -0.1932
  742TMC3     H11022   3.927   0.099  15.600  0.4535 -0.8476  1.8008
  742TMC3    H111023   4.270   0.325  15.731 -0.8318  1.1373  0.7553
  742TMC3    H211024   4.167   0.325  15.331 -0.2355 -1.5523 -0.9938
  742TMC3    C711025   4.340   0.418  15.495  0.1487 -0.5475  0.2172
  742TMC3    C811026   3.951   0.191  15.347  0.2910 -0.2265 -0.0472
  742TMC3    O111027   4.349   0.449  15.379  0.6352 -0.4772  0.0317
  742TMC3    O211028   3.994   0.211  15.233 -0.2024  0.2548  0.2492
  743MPD2     C11029   1.540   1.230   2.292  0.1492 -0.5153  0.1412
  743MPD2    C111030   1.615   1.185   2.186  0.3208 -0.4248  0.3634
  743MPD2    C211031   1.748   1.221   2.185  0.1955  0.1688 -0.5747
  743MPD2    C311032   1.810   1.292   2.290  0.2767  0.2486  0.2245
  743MPD2    C411033   1.731   1.329   2.398 -0.3485  0.0519  0.1709
  743MPD2    C511034   1.604   1.285   2.403 -0.2833 -0.1056 -0.2330
  743MPD2     H11035   1.801   1.209   2.091 -0.4545 -1.3718 -0.7395
  743MPD2    H111036   1.773   1.385   2.481 -1.1951 -0.1545  0.7356
  743MPD2    H211037   1.436   1.202   2.290 -0.2686  1.0866 -0.7835
  743MPD2    H311038   1.543   1.302   2.491 -0.4162  0.0204 -0.3508
  743MPD2     N11039   1.954   1.303   2.280  0.3922 -0.3539  0.2432
  743MPD2    H511040   1.997   1.264   2.197 -0.3788 -1.6081  0.4278
  743MPD2    N111041   1.543   1.129   2.080 -0.1321  0.2261 -0.2609
  743MPD2    H711042   1.442   1.130   2.083 -0.2223 -1.4717 -3.1811
  744TMC3    C111043   1.533   1.015   1.867  0.0364 -0.2973  0.0531
  744TMC3    C211044   1.399   1.047   1.853  0.4492  0.0009  0.3141
  744TMC3    C311045   1.334   0.991   1.744 -0.1048  0.1406  1.4555
  744TMC3    C411046   1.595   0.934   1.778 -0.2230  0.1143  0.3417
  744TMC3    C511047   1.527   0.881   1.673  0.3775 -0.2021  0.0665
  744TMC3    C611048   1.397   0.913   1.653 -0.2070  0.1467  0.1467
  744TMC3     C11049   1.612   1.057   1.984  0.0146  0.4953  0.0686
  744TMC3     O11050   1.731   1.029   1.985  0.0102  0.1111  0.2294
  744TMC3     H11051   1.353   1.130   1.906  0.4553 -0.3837  0.9237
  744TMC3    H111052   1.701   0.914   1.786 -0.0994  0.1717 -1.2415
  744TMC3    H211053   1.348   0.882   1.562  0.5961 -2.5998  0.6472
  744TMC3    C711054   1.600   0.837   1.549  0.0525  0.8550 -0.2885
  744TMC3    C811055   1.208   1.057   1.698 -0.0182  0.2586  0.6572
  744TMC3    O111056   1.721   0.861   1.542 -0.3413  0.1985  0.6953
  744TMC3    O211057   1.183   1.044   1.577  0.1927  0.1927  0.3621
  745TMC3    C111058   4.683   0.089  13.449  0.2740  0.2045  0.5155
  745TMC3    C211059   4.580   0.007  13.497 -0.3403  0.8026  0.5304
  745TMC3    C311060   4.608   4.624  13.543 -0.4103  1.2273  0.6176
  745TMC3    C411061   0.069   0.035  13.428  0.1439  1.6146 -0.7317
  745TMC3    C511062   0.092   4.645  13.471 -0.0601 -0.1700  0.2907
  745TMC3    C611063   4.732   4.566  13.525  0.8900  0.2190 -0.3854
  745TMC3     C11064   4.677   0.231  13.482  0.3239 -0.3960  0.3103
  745TMC3     O11065   0.039   0.293  13.440 -0.1881  0.3559  0.1813
  745TMC3     H11066   4.478   0.044  13.496  0.3536  2.7090 -0.6983
  745TMC3    H111067   0.150   0.095  13.389  0.2724  1.8302 -0.1445
  745TMC3    H211068   0.019   4.477  13.581 -1.8269 -0.6316 -0.5367
  745TMC3    C711069   0.223   4.576  13.473  0.3374 -0.2961 -0.8258
  745TMC3    C811070   4.546   4.619  13.673 -0.4254 -0.0956 -0.4148
  745TMC3    O111071   0.224   4.452  13.490  0.2389  0.2148 -0.0119
  745TMC3    O211072   4.464   4.531  13.694  0.4966  0.1159  0.0903
  746TMC3    C111073   2.429   1.386  11.198 -1.1065 -0.4137 -0.2517
  746TMC3    C211074   2.446   1.399  11.061 -0.1419  0.2376 -0.2687
  746TMC3    C311075   2.435   1.279  10.992  0.1999 -0.0227 -0.3190
  746TMC3    C411076   2.412   1.262  11.262 -0.7442  0.1544  0.1383
  746TMC3    C511077   2.396   1.146  11.191  0.6340  0.3879  0.3240
  746TMC3    C611078   2.396   1.164  11.056 -0.0419  0.5595  0.3552
  746TMC3     C11079   2.395   1.502  11.279  0.0642  0.3815  0.3748
  746TMC3     O11080   2.369   1.482  11.397  0.5523 -0.3836 -0.9015
  746TMC3     H11081   2.490   1.492  11.027  0.9764  0.0052  0.5035
  746TMC3    H111082   2.372   1.254  11.362 -0.9620  1.3066  0.1347
  746TMC3    H211083   2.363   1.079  10.997  1.2796 -0.5408  1.1977
  746TMC3    C711084   2.291   1.060  11.239  0.0477 -0.1203  0.2549
  746TMC3    C811085   2.418   1.285  10.847 -0.0736 -0.6179  0.8778
  746TMC3    O111086   2.185   1.062  11.177 -0.0886 -0.3347  0.3198
  746TMC3    O211087   2.365   1.189  10.795  0.4576 -0.6006 -0.0818
  747TMC3    C111088   4.570   2.265  11.573 -0.3261 -0.4300 -0.1103
  747TMC3    C211089   4.481   2.161  11.595  0.1439 -0.2053  0.3879
  747TMC3    C311090   4.473   2.113  11.722 -0.1324  0.5108  0.4066
  747TMC3    C411091   4.636   2.325  11.672  0.2758 -0.2420  0.4421
  747TMC3    C511092   4.621   2.291  11.800  0.1929 -0.8575 -0.3263
  747TMC3    C611093   4.539   2.182  11.828 -0.2202 -0.0001 -0.1148
  747TMC3     C11094   4.586   2.325  11.443 -0.4652  0.0298 -0.4349
  747TMC3     O11095   4.688   2.391  11.428  0.0042  0.0640  0.4184
  747TMC3     H11096   4.435   2.106  11.514  2.4930 -0.6571 -0.6372
  747TMC3    H111097   4.693   2.415  11.651  0.1773 -0.4062 -0.5192
  747TMC3    H211098   4.541   2.137  11.926 -0.4543 -1.5922 -0.8374
  747TMC3    C711099   4.728   2.302  11.892 -0.1191  0.2446  0.1630
  747TMC3    C811100   4.364   2.034  11.753  0.3627 -0.1378 -0.3084
  747TMC3    O111101   0.005   2.215  11.978 -0.7742 -0.1753 -0.4068
  747TMC3    O211102   4.335   1.957  11.662  0.4624 -0.6739  0.0483
  748MPD2     C11103   1.048   2.025   1.133 -0.4724 -0.5428  0.4479
  748MPD2    C111104   1.100   2.056   1.007 -0.1326 -0.0211  0.5639
  748MPD2    C211105   1.229   2.108   1.008  0.0313  0.4816 -0.0407
  748MPD2    C311106   1.302   2.114   1.122 -0.4394 -0.2784 -0.4672
  748MPD2    C411107   1.249   2.074   1.243 -0.0939 -0.4955  0.5604
  748MPD2    C511108   1.120   2.025   1.246  0.0929  0.3187 -0.2652
  748MPD2     H11109   1.279   2.140   0.917  1.9227 -3.1572 -0.3056
  748MPD2    H111110   1.300   2.078   1.338 -0.8903 -0.1443  0.9720
  748MPD2    H211111   0.947   1.987   1.139 -0.2704 -1.6187 -2.4793
  748MPD2    H311112   1.072   1.975   1.330 -0.1411  1.6832  0.4056
  748MPD2     N11113   1.433   2.155   1.104 -0.5066 -0.0178 -0.0472
  748MPD2    H511114   1.464   2.192   1.014 -0.1418  1.3753  0.6563
  748MPD2    N111115   1.011   2.053   0.897  0.0324 -0.1337  0.4246
  748MPD2    H711116   0.913   2.036   0.917 -0.0791  1.0275  0.9202
  749TMC3    C111117   1.666   2.173   1.158  0.2072 -0.0700 -0.2390
  749TMC3    C211118   1.769   2.127   1.243 -0.4062  0.0186  0.7526
  749TMC3    C311119   1.893   2.186   1.231  0.1495 -0.5978 -0.2320
  749TMC3    C411120   1.692   2.278   1.075  0.2723  0.2656  0.5652
  749TMC3    C511121   1.816   2.334   1.071  0.4949 -0.3181  0.7249
  749TMC3    C611122   1.920   2.291   1.147 -0.6127  0.7536 -0.0810
  749TMC3     C11123   1.532   2.134   1.201  0.0424  0.1369  0.2340
  749TMC3     O11124   1.520   2.089   1.313 -0.1758 -0.1645  0.5474
  749TMC3     H11125   1.753   2.053   1.320 -0.2635 -2.7943 -1.9519
  749TMC3    H111126   1.608   2.320   1.021 -1.0005 -3.4931 -0.3997
  749TMC3    H211127   2.020   2.329   1.130  0.3111 -1.6949 -0.1641
  749TMC3    C711128   1.847   2.437   0.977  0.6047 -0.1286  0.6719
  749TMC3    C811129   1.996   2.132   1.311  0.3022  0.7107  0.1933
  749TMC3    O111130   1.952   2.503   0.991 -0.3202  0.1202 -0.6110
  749TMC3    O211131   1.985   2.009   1.338 -0.2876 -0.1873 -0.2139
  750MPD2     C11132   2.509   3.543  11.788  0.0554 -0.0450  0.1255
  750MPD2    C111133   2.419   3.462  11.852 -0.4404  0.0491  0.1401
  750MPD2    C211134   2.405   3.331  11.797 -0.6749  0.1537 -0.4462
  750MPD2    C311135   2.479   3.285  11.689 -0.0587  0.2643  0.0003
  750MPD2    C411136   2.568   3.374  11.634 -0.4675 -0.1669  0.5385
  750MPD2    C511137   2.587   3.503  11.683 -0.2163  0.0454 -0.9800
  750MPD2     H11138   2.330   3.268  11.844 -0.0063  0.2478  0.7392
  750MPD2    H111139   2.620   3.356  11.541 -2.2615 -1.9824 -0.1123
  750MPD2    H211140   2.533   3.643  11.822  1.1529 -0.0464 -0.6381
  750MPD2    H311141   2.641   3.585  11.636  1.0080 -1.1564 -1.6532
  750MPD2     N11142   2.476   3.149  11.641 -0.4472  0.2186  0.1585
  750MPD2    H511143   2.538   3.128  11.563  1.2982  0.9483  1.3335
  750MPD2    N111144   2.348   3.496  11.970 -0.3561  0.8436  0.6332
  750MPD2    H711145   2.269   3.434  11.987 -0.6883  0.7938 -1.1242
  751TMC3    C111146   2.446   2.923  11.636 -0.2408 -0.8003  0.2700
  751TMC3    C211147   2.428   2.811  11.714  0.3440 -0.6438 -0.4064
  751TMC3    C311148   2.482   2.698  11.663 -0.0973  0.1788 -0.3716
  751TMC3    C411149   2.524   2.927  11.521 -0.0975 -0.7877 -0.2473
  751TMC3    C511150   2.582   2.810  11.483 -0.0270 -0.1959 -1.0189
  751TMC3    C611151   2.568   2.695  11.555  0.5343 -0.6175  0.8755
  751TMC3     C11152   2.397   3.046  11.691  0.7921 -0.9906  1.0101
  751TMC3     O11153   2.316   3.046  11.784 -0.0270  0.4316  0.0093
  751TMC3     H11154   2.347   2.804  11.786  1.8754 -0.6295  1.3314
  751TMC3    H111155   2.510   3.007  11.449 -0.8096 -0.4051  0.3163
  751TMC3    H211156   2.620   2.602  11.534 -1.5221 -1.4201 -0.6785
  751TMC3    C711157   2.580   2.779  11.335 -0.4081 -0.1427 -0.3650
  751TMC3    C811158   2.389   2.585  11.644 -0.5912 -0.0614  1.1935
  751TMC3    O111159   2.622   2.854  11.248  0.0754 -0.0950 -0.2829
  751TMC3    O211160   2.416   2.527  11.541 -0.9160  0.7828  0.1144
  752TMC3    C111161   0.685   3.404  17.586  0.3743  0.8700  0.9098
  752TMC3    C211162   0.736   3.314  17.674 -0.0666 -0.6457 -0.4100
  752TMC3    C311163   0.680   3.293   0.046  0.4484  0.4647 -0.4682
  752TMC3    C411164   0.574   3.481  17.619  0.2298  0.1352  0.8755
  752TMC3    C511165   0.510   3.447  17.740  0.1982 -1.2456  0.5926
  752TMC3    C611166   0.567   3.365   0.077  0.3311  0.4995  0.1346
  752TMC3     C11167   0.741   3.416  17.456 -0.6577 -0.1462  0.0323
  752TMC3     O11168   0.847   3.357  17.443  0.1067  0.5240 -0.0020
  752TMC3     H11169   0.815   3.250  17.635  1.7515  0.7640  0.9571
  752TMC3    H111170   0.524   3.539  17.542 -0.4684 -0.7067  0.7040
  752TMC3    H211171   0.523   3.361   0.177  0.6680  0.3475  0.2777
  752TMC3    C711172   0.379   3.509   0.015 -0.0535 -0.4359  0.2538
  752TMC3    C811173   0.698   3.172   0.121  0.4574  0.0800  0.0804
  752TMC3    O111174   0.334   3.596  17.688 -0.1265  0.2277  0.4046
  752TMC3    O211175   0.664   3.173   0.235  0.2960  0.4916 -0.5490
  753TMC3    C111176   2.805   4.329  13.589  0.2454  0.8253 -0.3780
  753TMC3    C211177   2.820   4.377  13.720 -0.4514  0.4955  0.0947
  753TMC3    C311178   2.749   4.322  13.823  0.7126 -0.5864  0.4045
  753TMC3    C411179   2.709   4.234  13.561  0.5338 -0.8443 -0.2740
  753TMC3    C511180   2.634   4.191  13.669 -0.2281 -0.6085 -0.0802
  753TMC3    C611181   2.656   4.229  13.796 -0.2614 -0.2276 -0.6943
  753TMC3     C11182   2.902   4.358  13.480  0.6132  0.4835  0.9204
  753TMC3     O11183   2.912   4.278  13.388  0.2927 -0.1041 -0.6645
  753TMC3     H11184   2.897   4.448  13.748  0.1612 -0.7417  1.5625
  753TMC3    H111185   2.680   4.218  13.457 -0.6072  0.7648 -0.2038
  753TMC3    H211186   2.618   4.173  13.881  0.0829 -0.4339 -0.6751
  753TMC3    C711187   2.544   4.075  13.659  0.2605 -0.1192 -0.2568
  753TMC3    C811188   2.752   4.365  13.962  0.1611 -0.7340  0.3011
  753TMC3    O111189   2.482   4.038  13.760  0.7851 -0.4302  0.2214
  753TMC3    O211190   2.686   4.299  14.045 -0.3847 -0.2733 -0.0745
  754MPD2     C11191   2.276   3.416  13.158 -0.1089 -0.4476  0.1676
  754MPD2    C111192   2.265   3.303  13.235 -0.2358  0.0021 -0.0476
  754MPD2    C211193   2.138   3.264  13.275  0.1559  0.4638 -0.1143
  754MPD2    C311194   2.028   3.347  13.264  0.2095  0.4895 -0.2960
  754MPD2    C411195   2.045   3.470  13.202 -0.5304 -0.2719 -0.7731
  754MPD2    C511196   2.170   3.503  13.147 -0.1703 -0.8713  0.7035
  754MPD2     H11197   2.119   3.162  13.307 -1.7838  1.6332  2.5382
  754MPD2    H111198   1.961   3.528  13.168 -2.0696 -1.8879  0.2266
  754MPD2    H211199   2.369   3.441  13.109 -0.5300  0.4016 -0.2062
  754MPD2    H311200   2.184   3.592  13.087  1.6313 -0.5739  1.5790
  754MPD2     N11201   1.903   3.313  13.313 -0.2830 -0.3403 -0.1223
  754MPD2    H511202   1.827   3.376  13.291 -0.6143 -0.3468  1.0180
  754MPD2    N111203   2.380   3.218  13.233 -0.1308  0.1874 -0.4848
  754MPD2    H711204   2.463   3.246  13.183  0.0570  0.3558 -0.0763
  755MPD2     C11205   1.260   3.866  13.528 -0.6474 -0.4105 -0.1278
  755MPD2    C111206   1.220   3.750  13.594  0.8936  0.3927  0.0158
  755MPD2    C211207   1.293   3.637  13.583 -0.0916  0.3724  0.1351
  755MPD2    C311208   1.399   3.627  13.504  0.0951  0.2718 -0.9288
  755MPD2    C411209   1.444   3.738  13.433  0.7040 -0.5317  0.3434
  755MPD2    C511210   1.371   3.855  13.448  0.5197  0.8956  0.0508
  755MPD2     H11211   1.263   3.548  13.638 -1.5435 -0.0864 -1.3904
  755MPD2    H111212   1.524   3.739  13.360 -0.0965  0.2068 -0.5307
  755MPD2    H211213   1.198   3.954  13.517  0.1779  0.1349 -0.4464
  755MPD2    H311214   1.379   3.940  13.381  1.4998  0.3231 -0.5588
  755MPD2     N11215   1.471   3.508  13.478  0.6427 -0.4471  0.2159
  755MPD2    H511216   1.554   3.520  13.421  0.6571 -1.7088 -0.0155
  755MPD2    N111217   1.115   3.746  13.687  0.3556 -0.3729  0.6157
  755MPD2    H711218   1.099   3.664  13.744 -1.2000  1.6021  3.0257
  756MPD2     C11219   2.133   4.398  10.619  0.5276 -0.0623  0.0505
  756MPD2    C111220   2.085   4.324  10.513 -0.3027 -0.1536 -0.3747
  756MPD2    C211221   2.055   4.390  10.395 -0.1834 -0.2903 -0.2457
  756MPD2    C311222   2.065   4.528  10.389  0.2044  0.3505  1.1306
  756MPD2    C411223   2.125   4.596  10.490 -1.1065 -0.1349 -0.4081
  756MPD2    C511224   2.164   4.526  10.604 -0.1128  0.5744  0.8526
  756MPD2     H11225   2.015   4.348  10.303  0.8548  0.5835 -1.1011
  756MPD2    H111226   2.151   4.700  10.472  2.1935 -0.8150  0.3341
  756MPD2    H211227   2.156   4.351  10.714 -1.6157  0.2001  0.6945
  756MPD2    H311228   2.200   4.587  10.686 -2.5214  2.0436  0.8215
  756MPD2     N11229   2.024   4.582  10.270 -0.3727  0.4625 -0.0778
  756MPD2    H511230   1.980   4.521  10.202 -2.3594  0.9553  0.7663
  756MPD2    N111231   2.069   4.184  10.527 -0.0092  0.2645  0.3747
  756MPD2    H711232   2.084   4.149  10.621 -0.3600 -1.0829 -0.0761
  757MPD2     C11233   1.313   4.266   9.998 -0.4507 -0.4896  0.7116
  757MPD2    C111234   1.423   4.221  10.058  0.3313 -0.3170  0.0036
  757MPD2    C211235   1.539   4.298  10.044  0.1867  0.6080 -0.3881
  757MPD2    C311236   1.541   4.411   9.968  0.7418  0.1346 -0.2727
  757MPD2    C411237   1.433   4.438   9.889  0.5784 -0.2213 -0.2899
  757MPD2    C511238   1.322   4.370   9.912 -0.6967  0.2803  0.3976
  757MPD2     H11239   1.635   4.264  10.081 -0.7563 -2.8507 -1.1229
  757MPD2    H111240   1.429   4.526   9.825 -0.6566  0.4178  0.6749
  757MPD2    H211241   1.220   4.211   9.994 -0.4804 -0.3423 -0.7437
  757MPD2    H311242   1.228   4.391   9.862 -1.1901  1.9042  1.9947
  757MPD2     N11243   1.655   4.491   9.979  0.3267  0.4022 -0.5411
  757MPD2    H511244   1.725   4.452  10.040 -0.5630 -0.5129 -0.0976
  757MPD2    N111245   1.411   4.100  10.130  0.3319  0.1800  0.4847
  757MPD2    H711246   1.324   4.049  10.122  0.9426 -0.7587 -0.1778
  758MPD2     C11247   1.804   3.099  16.146  0.0937  0.0488 -0.5448
  758MPD2    C111248   1.826   2.984  16.218 -1.0608  0.4944  0.1679
  758MPD2    C211249   1.730   2.953  16.312  0.0161  0.0537  0.0645
  758MPD2    C311250   1.617   3.031  16.330 -0.1593  0.9612 -0.8165
  758MPD2    C411251   1.593   3.148  16.250  0.2323  0.6276 -0.1896
  758MPD2    C511252   1.692   3.175  16.160 -0.0370 -0.1886 -0.0104
  758MPD2     H11253   1.751   2.871  16.379  0.7031  1.1115  1.1322
  758MPD2    H111254   1.503   3.207  16.264 -1.0381 -0.8471 -1.9731
  758MPD2    H211255   1.875   3.120  16.067  1.1807 -0.3105  0.3365
  758MPD2    H311256   1.681   3.263  16.098 -0.2110  0.9473  1.6142
  758MPD2     N11257   1.523   3.023  16.439 -0.2566  0.0743 -0.3854
  758MPD2    H511258   1.453   3.096  16.451  1.0348  1.1101  0.7453
  758MPD2    N111259   1.947   2.916  16.198  0.5988 -0.5202  0.1483
  758MPD2    H711260   2.007   2.948  16.123  2.6567 -0.7861  1.7036
  759MPD2     C11261   0.925   1.837  10.428 -0.1416 -0.2537 -0.4165
  759MPD2    C111262   0.976   1.719  10.373  0.4783  0.7417  0.0029
  759MPD2    C211263   1.052   1.736  10.253  0.3932  0.4464 -0.1227
  759MPD2    C311264   1.067   1.861  10.194  0.2794  0.2816  0.0037
  759MPD2    C411265   1.011   1.972  10.248  0.1855 -0.1703 -0.1184
  759MPD2    C511266   0.937   1.957  10.364  0.1047  0.4305  0.2469
  759MPD2     H11267   1.091   1.649  10.202  0.0319  0.6504 -0.7420
  759MPD2    H111268   1.040   2.070  10.213 -0.0975  1.2845  3.7020
  759MPD2    H211269   0.877   1.837  10.525  0.9534 -1.0359  0.1285
  759MPD2    H311270   0.896   2.050  10.402 -0.9655  0.0809 -0.0494
  759MPD2     N11271   1.160   1.862  10.090  0.3535 -0.6536 -0.1243
  759MPD2    H511272   1.225   1.785  10.082  0.8841 -0.0471 -1.6583
  759MPD2    N111273   0.964   1.591  10.434 -0.6278 -0.7844 -0.2452
  759MPD2    H711274   0.919   1.588  10.525 -0.1603 -0.2416  0.0025
  760MPD2     C11275   0.290   3.801  12.186  0.9498  0.3892 -0.6957
  760MPD2    C111276   0.394   3.723  12.144 -0.1241 -0.5084 -0.4568
  760MPD2    C211277   0.430   3.609  12.213 -0.5396  0.3149  0.6084
  760MPD2    C311278   0.401   3.590  12.345 -0.2328 -0.5929  0.3303
  760MPD2    C411279   0.310   3.684  12.395 -0.6957  0.4479  0.4136
  760MPD2    C511280   0.260   3.789  12.320  0.2408 -0.2244 -0.1892
  760MPD2     H11281   0.514   3.561  12.164 -1.8902 -1.1516 -0.2570
  760MPD2    H111282   0.270   3.674  12.496  3.4352  3.6706  2.3604
  760MPD2    H211283   0.250   3.887  12.133 -1.7340  0.8096  1.9632
  760MPD2    H311284   0.193   3.861  12.366  0.4710 -0.0938 -0.0630
  760MPD2     N11285   0.460   3.483  12.408  0.9582 -0.0489  0.4347
  760MPD2    H511286   0.528   3.431  12.355  0.8117 -0.1691  0.3654
  760MPD2    N111287   0.469   3.760  12.033 -0.2245  0.0422  0.6403
  760MPD2    H711288   0.567   3.734  12.034 -0.5897 -1.1738  3.8513
  761MPD2     C11289   1.962   2.310  11.713  0.4870 -0.0571  0.1306
  761MPD2    C111290   2.034   2.339  11.601 -0.3707  0.0449 -0.2251
  761MPD2    C211291   2.147   2.420  11.610 -0.3404  0.5507 -0.5221
  761MPD2    C311292   2.191   2.474  11.729 -0.8123  1.5101 -0.0579
  761MPD2    C411293   2.120   2.448  11.838  0.1947  1.0210  0.1215
  761MPD2    C511294   2.001   2.382  11.826 -0.0970 -0.5516 -0.6170
  761MPD2     H11295   2.200   2.457  11.523  0.5650 -0.3655 -0.3549
  761MPD2    H111296   2.141   2.503  11.929  2.0102  1.1526 -0.3709
  761MPD2    H211297   1.870   2.252  11.715  0.8721 -0.7802 -2.9298
  761MPD2    H311298   1.937   2.381  11.914  1.0174  0.2154  0.2018
  761MPD2     N11299   2.297   2.564  11.751 -0.4293 -0.1173  0.0436
  761MPD2    H511300   2.317   2.606  11.841  0.1003  1.6919 -0.8966
  761MPD2    N111301   2.001   2.268  11.484  0.3747 -0.5709 -0.1715
  761MPD2    H711302   1.924   2.202  11.489  0.3248 -0.7663 -3.2354
  762MPD2     C11303   2.203   2.495  10.753  0.1407 -0.3094  0.2746
  762MPD2    C111304   2.188   2.360  10.768  0.1339  0.4321  0.3241
  762MPD2    C211305   2.264   2.280  10.679 -0.1606  0.0531 -0.7491
  762MPD2    C311306   2.351   2.336  10.585 -0.0568  0.0318 -0.2051
  762MPD2    C411307   2.361   2.474  10.576 -0.1153 -0.0423  0.0213
  762MPD2    C511308   2.281   2.551  10.658  0.6638  0.3873 -0.4727
  762MPD2     H11309   2.250   2.173  10.685  0.8933 -0.1810 -2.4891
  762MPD2    H111310   2.439   2.517  10.514 -0.0357  0.4580  0.4634
  762MPD2    H211311   2.146   2.563  10.814 -0.6081  0.3476 -1.1551
  762MPD2    H311312   2.288   2.658  10.649  1.1356  0.3918 -0.0062
  762MPD2     N11313   2.441   2.248  10.524  0.1793  0.5368 -0.5376
  762MPD2    H511314   2.447   2.148  10.540 -2.0067  0.4786 -0.1174
  762MPD2    N111315   2.095   2.314  10.855 -0.6533 -0.3155 -0.2912
  762MPD2    H711316   2.055   2.380  10.921 -0.2564 -1.3645  0.9869
  763MPD2     C11317   3.758   3.344  16.219  0.1168 -0.4887 -0.0129
  763MPD2    C111318   3.633   3.394  16.182  0.5279 -0.7482  0.0414
  763MPD2    C211319   3.605   3.526  16.199 -0.0376  0.0467  0.0446
  763MPD2    C311320   3.703   3.609  16.247  0.1469 -0.2891  0.2774
  763MPD2    C411321   3.829   3.555  16.272 -0.5595  0.5811  0.0489
  763MPD2    C511322   3.853   3.422  16.270  0.1544 -0.3838  0.1339
  763MPD2     H11323   3.510   3.559  16.160 -0.5218  1.2212  2.2472
  763MPD2    H111324   3.915   3.617  16.294  0.1047 -0.7963  1.3165
  763MPD2    H211325   3.781   3.239  16.208  0.6461 -0.1723 -1.9471
  763MPD2    H311326   3.953   3.391  16.299 -0.4131 -0.7674  1.7021
  763MPD2     N11327   3.673   3.747  16.260 -0.1936 -0.6329  0.0328
  763MPD2    H511328   3.747   3.815  16.270 -0.1371 -0.7939  0.6956
  763MPD2    N111329   3.538   3.309  16.121  0.2394  0.2621  0.2476
  763MPD2    H711330   3.448   3.352  16.104  0.7542  1.8172  1.4826
  764MPD2     C11331   1.222   3.914  17.341 -0.6634 -0.7560  0.2112
  764MPD2    C111332   1.251   4.040  17.380  0.3051 -0.5031  0.9133
  764MPD2    C211333   1.347   4.065  17.478  0.3834  0.0176 -0.4916
  764MPD2    C311334   1.410   3.957  17.544  0.0228 -0.1832  0.6671
  764MPD2    C411335   1.363   3.831  17.510 -0.3437 -0.2714  0.2791
  764MPD2    C511336   1.277   3.812  17.409  0.4893 -0.2499 -0.0732
  764MPD2     H11337   1.366   4.167  17.508  0.3759  0.3490 -1.6088
  764MPD2    H111338   1.409   3.743  17.553 -1.9991 -0.6559  1.2290
  764MPD2    H211339   1.150   3.897  17.262 -0.2420 -1.3593 -0.0468
  764MPD2    H311340   1.247   3.710  17.384  0.8706 -0.7062  1.3387
  764MPD2     N11341   1.492   3.988  17.655  0.2045  0.4599  0.5013
  764MPD2    H511342   1.505   4.086  17.680 -0.5555  0.3902  1.1610
  764MPD2    N111343   1.196   4.153  17.320  0.2906  0.4054 -0.5181
  764MPD2    H711344   1.235   4.244  17.340 -1.8108  1.0463  0.6902
  765MPD2     C11345   1.419   2.493  15.678  0.0925 -0.0699 -0.2597
  765MPD2    C111346   1.471   2.538  15.797 -0.6623  0.4044  0.2796
  765MPD2    C211347   1.582   2.483  15.846 -0.0388 -0.6987  0.0266
  765MPD2    C311348   1.660   2.397  15.767  0.3221  0.9070  0.4563
  765MPD2    C411349   1.622   2.376  15.639  0.6566  0.5352 -0.4364
  765MPD2    C511350   1.501   2.418  15.596  0.1646  0.3230 -0.5663
  765MPD2     H11351   1.618   2.517  15.943 -0.8631  0.0289  0.0775
  765MPD2    H111352   1.679   2.306  15.578  0.0678 -0.8628  0.6010
  765MPD2    H211353   1.321   2.511  15.636 -0.7503 -0.7800  1.4294
  765MPD2    H311354   1.461   2.391  15.499  3.0554 -4.6351 -0.3833
  765MPD2     N11355   1.775   2.346  15.829 -0.1221 -0.2979 -0.0926
  765MPD2    H511356   1.785   2.381  15.923  1.1553 -0.7969 -0.0417
  765MPD2    N111357   1.394   2.636  15.868 -0.2476  0.0866 -0.0513
  765MPD2    H711358   1.306   2.661  15.825 -1.2429 -2.5367  0.4811
  766MPD2     C11359   0.773   2.836  15.600  0.9779  0.2487  0.3871
  766MPD2    C111360   0.900   2.794  15.629 -0.1306 -0.6201 -0.4729
  766MPD2    C211361   0.970   2.715  15.537 -0.3029 -0.3643  0.1610
  766MPD2    C311362   0.906   2.666  15.423 -0.0279 -0.6033 -0.6170
  766MPD2    C411363   0.776   2.709  15.400  0.4293 -0.2913 -0.5499
  766MPD2    C511364   0.713   2.798  15.482  0.4815  0.6446 -0.4217
  766MPD2     H11365   1.074   2.690  15.556 -0.9158 -3.6498 -0.7578
  766MPD2    H111366   0.715   2.665  15.323  1.3945  0.5438 -1.8057
  766MPD2    H211367   0.716   2.892  15.673 -0.7149 -2.0003  0.7658
  766MPD2    H311368   0.609   2.818  15.459  0.4957 -0.1608 -1.1737
  766MPD2     N11369   0.964   2.579  15.328 -0.5430  0.3797  0.0525
  766MPD2    H511370   0.917   2.554  15.242 -1.6677  1.8193  0.2542
  766MPD2    N111371   0.962   2.834  15.747  0.2581  0.0050  0.1919
  766MPD2    H711372   0.910   2.905  15.798  0.4118  0.9295 -0.9622
  767MPD2     C11373   0.602   3.134  15.331  0.0617  0.3118 -0.0718
  767MPD2    C111374   0.716   3.067  15.282 -0.6077 -0.2781 -1.3927
  767MPD2    C211375   0.702   2.955  15.204  0.3564  0.2421  0.1607
  767MPD2    C311376   0.580   2.907  15.173  0.2714 -0.6179  0.1072
  767MPD2    C411377   0.470   2.973  15.214  0.8147  0.5835 -0.7589
  767MPD2    C511378   0.484   3.083  15.293 -1.4474  0.2456  0.2451
  767MPD2     H11379   0.792   2.910  15.163  1.7098  0.7405  2.6189
  767MPD2    H111380   0.370   2.935  15.193 -0.6156  3.1243  1.3863
  767MPD2    H211381   0.601   3.213  15.405 -0.8527  1.2401 -1.0705
  767MPD2    H311382   0.397   3.145  15.313 -3.2255 -1.7344 -1.1767
  767MPD2     N11383   0.572   2.800  15.084  0.6772  1.1094 -0.0169
  767MPD2    H511384   0.661   2.768  15.046 -0.1473  0.1160 -1.1070
  767MPD2    N111385   0.838   3.112  15.334  0.2786  0.9912 -0.8053
  767MPD2    H711386   0.833   3.181  15.408 -0.4277 -1.3346  1.3159
  768MPD2     C11387   2.059   0.845  10.938 -0.2192  0.4680  0.2297
  768MPD2    C111388   2.037   0.757  11.039  0.2782  0.2152  0.2100
  768MPD2    C211389   2.148   0.695  11.099  0.5488 -0.0061  0.2455
  768MPD2    C311390   2.280   0.727  11.062  0.5622  0.2747 -0.6746
  768MPD2    C411391   2.296   0.817  10.959  0.3303 -0.3672 -0.2693
  768MPD2    C511392   2.190   0.874  10.898 -0.8506  0.8685  0.4355
  768MPD2     H11393   2.130   0.637  11.189  0.2668  0.3735  0.4324
  768MPD2    H111394   2.387   0.832  10.902 -0.0514  0.5417 -0.6455
  768MPD2    H211395   1.974   0.898  10.897 -2.0795 -0.0577  3.4313
  768MPD2    H311396   2.209   0.941  10.814 -0.8264 -2.4462 -2.1795
  768MPD2     N11397   2.394   0.690  11.130 -0.0598 -0.6925  0.5073
  768MPD2    H511398   2.482   0.706  11.083 -1.5339  0.6657 -1.8048
  768MPD2    N111399   1.904   0.725  11.083 -0.1122 -0.1246 -0.1001
  768MPD2    H711400   1.904   0.652  11.154 -0.6891  0.3130  0.3577
  769MPD2     C11401   2.752   3.887  15.176  0.0173 -0.4533  0.5489
  769MPD2    C111402   2.664   3.992  15.161 -0.0908 -0.9432  0.4879
  769MPD2    C211403   2.682   4.104  15.239 -0.6442 -0.0171  0.7359
  769MPD2    C311404   2.782   4.104  15.335  0.1446  0.3140 -0.5407
  769MPD2    C411405   2.874   3.995  15.346  0.6635  0.0596  0.0337
  769MPD2    C511406   2.846   3.889  15.268  0.7071  0.0362 -0.2164
  769MPD2     H11407   2.617   4.190  15.232  0.5475  0.6880 -1.5881
  769MPD2    H111408   2.954   3.991  15.419  0.4699  2.0888  0.3558
  769MPD2    H211409   2.733   3.793  15.125 -1.3134  0.4362 -0.6010
  769MPD2    H311410   2.909   3.802  15.279 -1.3032 -1.7130 -2.4133
  769MPD2     N11411   2.788   4.215  15.427  0.1184 -0.0882  0.2783
  769MPD2    H511412   2.711   4.280  15.415  2.0051  1.8560 -1.1236
  769MPD2    N111413   2.555   3.977  15.067  0.2963 -0.0320 -0.1896
  769MPD2    H711414   2.558   3.896  15.006  3.3552  1.6630 -2.2873
  770MPD2     C11415   1.866   3.548  15.217  0.1308 -0.0053  0.7708
  770MPD2    C111416   1.984   3.518  15.154 -0.3321 -0.6038 -0.1279
  770MPD2    C211417   2.033   3.615  15.065 -0.1859 -0.7599 -0.1477
  770MPD2    C311418   1.971   3.742  15.058 -0.2593 -0.4784 -0.4823
  770MPD2    C411419   1.861   3.775  15.129  0.9636  0.2134  0.0617
  770MPD2    C511420   1.801   3.668  15.198  0.1333  0.2808 -0.1812
  770MPD2     H11421   2.133   3.601  15.027 -0.2646 -0.3596 -0.5081
  770MPD2    H111422   1.809   3.870  15.126 -0.4509 -0.4687  2.7659
  770MPD2    H211423   1.829   3.479  15.292 -0.9044 -0.2652  0.0248
  770MPD2    H311424   1.717   3.693  15.263 -1.1054 -0.2875 -1.5674
  770MPD2     N11425   2.041   3.838  14.985 -0.3981 -0.4276  0.8277
  770MPD2    H511426   2.130   3.811  14.946  0.2079  1.1608  1.1133
  770MPD2    N111427   2.052   3.403  15.189  0.7637 -0.2433  0.4177
  770MPD2    H711428   2.007   3.334  15.249  2.8093 -0.9670  1.1490
  771MPD2     C11429   3.360   1.680  13.875 -0.0481  0.5579 -0.4498
  771MPD2    C111430   3.323   1.799  13.821 -0.2080  0.3813  0.6279
  771MPD2    C211431   3.211   1.802  13.733  0.1986 -0.2163 -0.2360
  771MPD2    C311432   3.139   1.688  13.692  0.5461 -0.4343  0.4889
  771MPD2    C411433   3.193   1.567  13.742 -0.0640  0.1556 -0.2201
  771MPD2    C511434   3.290   1.571  13.837 -0.2406  0.3870 -0.2719
  771MPD2     H11435   3.171   1.895  13.695 -0.6058 -0.0762  0.9583
  771MPD2    H111436   3.155   1.472  13.707 -1.2338 -0.1166  1.7810
  771MPD2    H211437   3.440   1.664  13.946  0.7369 -0.0366 -1.4516
  771MPD2    H311438   3.323   1.476  13.877 -0.1733  0.0821 -1.0417
  771MPD2     N11439   3.048   1.700  13.592  0.5680  0.1332 -0.2191
  771MPD2    H511440   3.029   1.793  13.554  1.0176 -0.0211 -0.8250
  771MPD2    N111441   3.385   1.921  13.860  0.0842  0.4210  0.1558
  771MPD2    H711442   3.350   2.011  13.826 -0.7131 -0.6299 -1.7880
  772MPD2     C11443   3.150   2.579  14.072  0.0871 -1.0322 -0.3837
  772MPD2    C111444   3.150   2.447  14.108 -0.6754  0.2958  0.2101
  772MPD2    C211445   3.038   2.390  14.164 -0.1261 -0.0534 -0.1774
  772MPD2    C311446   2.918   2.466  14.181  0.1984  0.2109  0.3272
  772MPD2    C411447   2.927   2.598  14.139 -0.2385  0.5298 -0.6784
  772MPD2    C511448   3.042   2.651  14.096 -0.1555 -1.0575  0.1188
  772MPD2     H11449   3.043   2.283  14.180 -0.0920 -0.2680 -1.6229
  772MPD2    H111450   2.847   2.666  14.165  1.4182  2.3871 -0.4343
  772MPD2    H211451   3.228   2.629  14.015  1.7325 -1.4342  1.5142
  772MPD2    H311452   3.046   2.757  14.072  0.8418 -0.7663  1.5523
  772MPD2     N11453   2.798   2.412  14.221  0.0707 -0.1242  0.0247
  772MPD2    H511454   2.715   2.469  14.214  0.9548  1.1987  0.3858
  772MPD2    N111455   3.264   2.370  14.092 -0.4729  0.1965 -0.2820
  772MPD2    H711456   3.259   2.278  14.135 -0.1429  1.3333  2.1953
  773MPD2     C11457   2.140   3.884   0.030  0.2734  0.6467 -0.1107
  773MPD2    C111458   2.101   3.779  17.702  0.5215 -0.4561  0.1099
  773MPD2    C211459   2.188   3.673  17.690 -0.2036  0.1429 -0.0986
  773MPD2    C311460   2.301   3.655   0.018 -0.1947 -0.0159 -0.0278
  773MPD2    C411461   2.330   3.751   0.110 -0.1298 -0.7781  0.1610
  773MPD2    C511462   2.250   3.866   0.114 -0.0582  0.7146  0.1124
  773MPD2     H11463   2.160   3.602  17.614  1.1640 -0.5552  0.0471
  773MPD2    H111464   2.420   3.747   0.170  0.0302  1.0894  0.0738
  773MPD2    H211465   2.085   3.977   0.042 -0.0408  0.4491 -0.0028
  773MPD2    H311466   2.265   3.954   0.176 -0.8407 -1.0841  2.8943
  773MPD2     N11467   2.382   3.546  17.730  0.3386  0.2976 -0.3084
  773MPD2    H511468   2.352   3.490  17.651 -0.9116  1.2471 -0.5286
  773MPD2    N111469   1.984   3.780  17.622  0.4584 -0.4149 -0.5050
  773MPD2    H711470   1.968   3.701  17.560  0.9670 -0.3370 -0.7359
  774MPD2     C11471   1.890   2.376  13.661 -0.0917 -0.0240 -0.6802
  774MPD2    C111472   1.892   2.474  13.761 -0.1209 -0.3860 -0.7598
  774MPD2    C211473   1.978   2.576  13.745  0.2989 -0.5003  0.3329
  774MPD2    C311474   2.066   2.578  13.641 -0.5300 -0.1419 -0.0678
  774MPD2    C411475   2.072   2.474  13.544 -0.0619  0.4719  0.0266
  774MPD2    C511476   1.988   2.374  13.561  0.2562  0.1954 -0.7170
  774MPD2     H11477   1.981   2.654  13.820  2.1307  1.3625 -1.7000
  774MPD2    H111478   2.137   2.477  13.458  1.9309  0.6413  1.5538
  774MPD2    H211479   1.832   2.287  13.680  1.1757 -0.7109 -0.0379
  774MPD2    H311480   1.991   2.308  13.475  1.4607 -0.2947 -0.3013
  774MPD2     N11481   2.143   2.692  13.624  0.4630  0.5105  0.7538
  774MPD2    H511482   2.133   2.768  13.690  0.0576  1.7979 -0.7785
  774MPD2    N111483   1.809   2.460  13.874 -0.1173  0.2327  0.3683
  774MPD2    H711484   1.740   2.386  13.859  1.2334 -0.6797 -1.3617
  775MPD2     C11485   2.999   4.087  15.886 -0.0739  0.0135 -0.4791
  775MPD2    C111486   3.037   4.154  16.006 -0.3892  0.1320 -0.1321
  775MPD2    C211487   3.160   4.216  16.006 -0.2937 -0.2806 -0.0612
  775MPD2    C311488   3.240   4.219  15.897  0.2187  0.3188 -0.5892
  775MPD2    C411489   3.201   4.154  15.784  0.0548 -0.9022  0.0532
  775MPD2    C511490   3.080   4.096  15.778  0.4752 -0.5764  0.7662
  775MPD2     H11491   3.184   4.270  16.097 -0.2921  2.3243 -1.6025
  775MPD2    H111492   3.258   4.144  15.693  1.7334  2.3138  0.7450
  775MPD2    H211493   2.917   4.017  15.886  0.5001 -0.6519  1.8502
  775MPD2    H311494   3.055   4.043  15.687  2.2340 -0.4972  0.2280
  775MPD2     N11495   3.368   4.274  15.886 -0.1907  0.3449  0.4881
  775MPD2    H511496   3.400   4.282  15.789 -1.5911  0.6315  0.0539
  775MPD2    N111497   2.953   4.158  16.120  0.0246  0.0741  0.4282
  775MPD2    H711498   2.865   4.107  16.113  1.5305 -2.3723 -0.8675
  776MPD2     C11499   1.716   3.926  11.825  0.4086 -0.4457  0.2688
  776MPD2    C111500   1.839   3.968  11.878 -0.0707  0.4705  0.1712
  776MPD2    C211501   1.916   4.047  11.787  0.0518 -0.1025  0.4243
  776MPD2    C311502   1.879   4.071  11.658  0.0002  0.2564  1.0797
  776MPD2    C411503   1.759   4.017  11.604  0.3442  0.0306  0.1528
  776MPD2    C511504   1.679   3.953  11.694 -0.5215 -0.3426 -0.1070
  776MPD2     H11505   2.010   4.092  11.817 -0.6251  0.6548  1.3868
  776MPD2    H111506   1.717   4.029  11.505  0.8716 -0.1943 -0.0995
  776MPD2    H211507   1.654   3.863  11.887  0.1180 -0.5361 -0.1152
  776MPD2    H311508   1.592   3.899  11.658  0.1339 -0.6540 -1.1973
  776MPD2     N11509   1.959   4.142  11.566 -0.1419  0.3226  0.0301
  776MPD2    H511510   1.920   4.162  11.474 -2.4409 -0.7361  0.7570
  776MPD2    N111511   1.890   3.907  11.992  0.2897 -0.0595  0.2216
  776MPD2    H711512   1.838   3.827  12.029  0.0104 -1.6967 -3.7590
  777MPD2     C11513   2.763   1.135   1.264  0.4037 -0.1206 -0.1556
  777MPD2    C111514   2.639   1.186   1.301 -0.5155 -0.6675 -0.7124
  777MPD2    C211515   2.529   1.120   1.259  0.6208 -0.1096 -0.5894
  777MPD2    C311516   2.540   1.011   1.168 -0.8408  0.7989  0.2994
  777MPD2    C411517   2.662   0.952   1.135 -0.1033  0.1132  0.0529
  777MPD2    C511518   2.770   1.014   1.189 -0.1858 -0.3521 -0.9377
  777MPD2     H11519   2.432   1.165   1.277 -0.0681 -0.3346 -3.7955
  777MPD2    H111520   2.666   0.862   1.074  0.9119  0.7671 -0.8357
  777MPD2    H211521   2.852   1.179   1.307  0.1434  1.0402 -0.7986
  777MPD2    H311522   2.863   0.959   1.189  1.0030  1.6517  1.3269
  777MPD2     N11523   2.416   0.957   1.118 -0.2597 -0.1627  0.1722
  777MPD2    H511524   2.339   1.007   1.161  0.7000  2.6724 -1.3954
  777MPD2    N111525   2.628   1.294   1.387  0.3052 -0.2467 -0.5579
  777MPD2    H711526   2.720   1.322   1.420  0.3182 -1.3462  0.3144
  778MPD2     C11527   3.390   2.330  15.306 -0.5112  0.5373  0.4476
  778MPD2    C111528   3.395   2.223  15.220 -0.6476  0.3143  0.0828
  778MPD2    C211529   3.479   2.226  15.108 -0.3157  0.3716 -0.2424
  778MPD2    C311530   3.561   2.337  15.080 -0.5874 -0.1256 -0.4540
  778MPD2    C411531   3.552   2.448  15.162 -0.0614  0.8750  0.6946
  778MPD2    C511532   3.470   2.437  15.272  0.5544 -0.2131  0.1734
  778MPD2     H11533   3.485   2.135  15.049 -0.3204 -0.4390  1.0017
  778MPD2    H111534   3.612   2.537  15.155  2.3582 -0.6827  1.4555
  778MPD2    H211535   3.334   2.334  15.398 -1.6456  0.1135 -0.2253
  778MPD2    H311536   3.469   2.521  15.341 -0.1190  0.4508 -0.6371
  778MPD2     N11537   3.631   2.325  14.956 -0.5324  0.4181 -0.0194
  778MPD2    H511538   3.623   2.234  14.912 -1.4114 -0.0924  1.1854
  778MPD2    N111539   3.316   2.111  15.249 -0.0212 -0.7723 -0.2293
  778MPD2    H711540   3.322   2.042  15.175 -0.9799  1.2865 -2.2328
  779MPD2     C11541   3.221   0.854  14.070 -0.4748 -0.7131  0.1536
  779MPD2    C111542   3.254   0.847  14.204  0.1458  0.0653 -0.3738
  779MPD2    C211543   3.297   0.958  14.271 -0.2888 -0.4457 -0.2716
  779MPD2    C311544   3.291   1.088  14.224  0.3361 -0.7047  0.0430
  779MPD2    C411545   3.245   1.097  14.095  0.2984  0.1527 -0.3653
  779MPD2    C511546   3.220   0.983  14.022 -0.2453 -0.2724  0.6788
  779MPD2     H11547   3.319   0.957  14.377  1.8554  2.9316 -0.6730
  779MPD2    H111548   3.223   1.191  14.046 -1.6731  0.9771  2.1169
  779MPD2    H211549   3.202   0.774  13.998  4.6099 -1.6894 -0.0659
  779MPD2    H311550   3.202   0.988  13.915 -0.5123  0.5618  0.7595
  779MPD2     N11551   3.320   1.194  14.304 -1.0728 -0.9014 -0.0165
  779MPD2    H511552   3.359   1.168  14.394 -0.4153  1.3804  0.3665
  779MPD2    N111553   3.249   0.719  14.266 -0.1756 -0.8913  0.7702
  779MPD2    H711554   3.287   0.718  14.361  1.6100 -3.3982  0.0276
  780MPD2     C11555   2.800   0.288   1.510 -0.3908 -0.1842 -0.3824
  780MPD2    C111556   2.726   0.271   1.393 -0.2794 -0.4908  0.4437
  780MPD2    C211557   2.754   0.349   1.281 -0.5135 -0.1305  0.0052
  780MPD2    C311558   2.859   0.438   1.282 -0.6369 -0.5111 -0.4940
  780MPD2    C411559   2.930   0.450   1.400  1.3288  0.0299 -0.1741
  780MPD2    C511560   2.900   0.381   1.512 -0.3958  0.7863 -0.6492
  780MPD2     H11561   2.686   0.331   1.198 -0.0890 -1.7397 -0.0057
  780MPD2    H111562   3.014   0.516   1.410  0.2632  1.6808 -2.1029
  780MPD2    H211563   2.782   0.226   1.597  3.5975  1.3709  1.5634
  780MPD2    H311564   2.963   0.402   1.597 -1.3929  0.3875  0.1801
  780MPD2     N11565   2.894   0.510   1.164  0.8641 -0.9401  0.3195
  780MPD2    H511566   2.862   0.475   1.074  4.3151  1.1913 -1.7480
  780MPD2    N111567   2.616   0.180   1.399 -0.1426 -0.0367 -0.2111
  780MPD2    H711568   2.614   0.115   1.477  4.5181  1.4137  1.0707
  781MPD2     C11569   0.057   1.715  12.765  0.5764 -0.2070 -0.1940
  781MPD2    C111570   0.057   1.853  12.744  0.4216 -0.1702  0.7523
  781MPD2    C211571   0.172   1.915  12.681 -1.0501 -0.0530  0.7228
  781MPD2    C311572   0.277   1.836  12.645 -1.0428 -0.9804 -0.5309
  781MPD2    C411573   0.276   1.701  12.677 -0.5685  0.7850  0.1217
  781MPD2    C511574   0.168   1.642  12.731 -0.9611 -0.3448  0.6988
  781MPD2     H11575   0.171   2.022  12.662  0.0039 -0.2753 -0.5465
  781MPD2    H111576   0.358   1.643  12.638 -1.0870  0.6588 -0.7922
  781MPD2    H211577   4.708   1.671  12.811 -0.0156 -0.4261 -1.5139
  781MPD2    H311578   0.156   1.536  12.746  0.6299 -0.1514  3.2344
  781MPD2     N11579   0.384   1.881  12.554  0.5617 -0.8537  0.0075
  781MPD2    H511580   0.462   1.819  12.535  2.7781  2.1483 -0.7216
  781MPD2    N111581   4.693   1.941  12.803 -0.5426 -0.3598  0.3028
  781MPD2    H711582   4.611   1.888  12.832 -1.7155  0.0501 -2.2889
  782MPD2     C11583   2.432   3.029  10.663 -0.2744  0.0037  0.1519
  782MPD2    C111584   2.568   3.008  10.645 -1.1827 -0.0136  0.0244
  782MPD2    C211585   2.659   3.061  10.730 -0.2148 -0.9366  0.0349
  782MPD2    C311586   2.615   3.130  10.846  0.0824 -1.3724  0.2393
  782MPD2    C411587   2.480   3.156  10.861  0.1613 -0.5072  0.2364
  782MPD2    C511588   2.393   3.098  10.775  0.4815 -0.1589 -0.6899
  782MPD2     H11589   2.766   3.043  10.723  0.0141  1.1703 -2.0327
  782MPD2    H111590   2.446   3.225  10.937 -1.4969 -1.3152  0.2188
  782MPD2    H211591   2.354   2.979  10.606  0.7815 -0.1532 -1.1388
  782MPD2    H311592   2.290   3.116  10.802  0.9616  0.6483  0.6060
  782MPD2     N11593   2.715   3.185  10.924 -0.4562 -0.8203  0.5657
  782MPD2    H511594   2.808   3.156  10.894 -0.4023 -0.6660  0.5808
  782MPD2    N111595   2.610   2.924  10.545 -0.7479  0.2867 -0.7652
  782MPD2    H711596   2.539   2.869  10.497 -1.2270 -1.4451  1.9394
  783MPD2     C11597   2.413   2.485  11.187  0.1434  0.1056 -0.2301
  783MPD2    C111598   2.493   2.595  11.191  0.7688  1.0371  0.5530
  783MPD2    C211599   2.562   2.624  11.080  0.9676 -0.1915 -0.0854
  783MPD2    C311600   2.551   2.546  10.962  0.4430 -0.6035  0.0004
  783MPD2    C411601   2.473   2.430  10.967  0.5768 -0.5266 -0.1728
  783MPD2    C511602   2.395   2.409  11.079 -0.5981  0.4717  0.3368
  783MPD2     H11603   2.617   2.718  11.075  0.4783 -0.0190 -2.4549
  783MPD2    H111604   2.471   2.366  10.880  0.1515  1.1581 -1.4081
  783MPD2    H211605   2.359   2.453  11.276 -1.2162  0.9272 -0.7516
  783MPD2    H311606   2.330   2.322  11.083  0.7349 -0.7531 -3.7691
  783MPD2     N11607   2.638   2.575  10.853 -0.4590 -0.4994  0.0500
  783MPD2    H511608   2.675   2.669  10.856 -0.2477 -0.6307  1.8499
  783MPD2    N111609   2.524   2.656  11.319 -0.1073  0.0253 -0.1873
  783MPD2    H711610   2.479   2.609  11.397 -2.4340  1.3636 -0.7399
  784MPD2     C11611   0.102   3.283   0.958  0.2057  0.5104  0.2076
  784MPD2    C111612   0.073   3.336   1.081  1.0317 -0.1327  0.1777
  784MPD2    C211613   4.693   3.412   1.087  0.1430 -0.0065 -0.4120
  784MPD2    C311614   4.624   3.453   0.973 -0.0230 -0.7483  0.1628
  784MPD2    C411615   4.655   3.395   0.854  0.6495  0.2687  0.2079
  784MPD2    C511616   0.022   3.305   0.848  0.3369 -0.2928  0.4979
  784MPD2     H11617   4.669   3.463   1.180  0.2061 -1.4867  0.4146
  784MPD2    H111618   4.609   3.414   0.757 -0.3419 -0.1985  0.5844
  784MPD2    H211619   0.184   3.216   0.937  1.0619  1.5252  0.3471
  784MPD2    H311620   0.045   3.261   0.752 -1.7778  0.9566 -0.5979
  784MPD2     N11621   4.529   3.554   0.991  0.2377  0.1501  0.3396
  784MPD2    H511622   4.519   3.602   1.080  1.5563  1.5993 -0.2914
  784MPD2    N111623   0.149   3.310   1.199 -0.6947  0.5493 -0.2889
  784MPD2    H711624   0.118   3.342   1.290 -1.6040 -1.7406  0.2198
  785MPD2     C11625   1.205   1.987  10.840 -0.0542 -0.0859 -0.1926
  785MPD2    C111626   1.130   2.002  10.957 -0.0014 -0.5270  0.3270
  785MPD2    C211627   1.023   1.920  10.972 -0.1126 -0.7717  0.0875
  785MPD2    C311628   0.988   1.823  10.885  0.2008 -0.3597 -0.3157
  785MPD2    C411629   1.068   1.800  10.777  0.3721 -0.4338 -0.5928
  785MPD2    C511630   1.177   1.879  10.757 -0.8474 -0.1182 -0.1237
  785MPD2     H11631   0.953   1.925  11.054  0.8947  1.1999  0.8261
  785MPD2    H111632   1.067   1.712  10.713  0.6601 -0.8874  0.0278
  785MPD2    H211633   1.290   2.051  10.819  0.8413 -0.9773  0.7248
  785MPD2    H311634   1.235   1.859  10.668  2.3555  0.9480  1.7412
  785MPD2     N11635   0.868   1.758  10.911 -0.0265  0.4572 -0.3753
  785MPD2    H511636   0.824   1.788  10.997 -0.8397  0.1699 -0.6904
  785MPD2    N111637   1.172   2.108  11.039 -0.3486 -0.6323  0.1009
  785MPD2    H711638   1.257   2.160  11.020 -0.6096  0.0226  0.7304
  786MPD2     C11639   3.517   0.004  15.139 -0.1839 -0.3581 -0.1980
  786MPD2    C111640   3.650   0.008  15.097  0.3000  0.6023  0.2468
  786MPD2    C211641   3.748   0.059  15.177  0.2105  0.0321  0.0294
  786MPD2    C311642   3.721   0.106  15.304  0.2763  0.3329 -1.1123
  786MPD2    C411643   3.594   0.075  15.354  0.1435  0.1751 -0.1306
  786MPD2    C511644   3.493   0.038  15.269  0.1881  0.0407 -0.1345
  786MPD2     H11645   3.847   0.064  15.132 -0.5553 -1.3100 -1.8394
  786MPD2    H111646   3.568   0.105  15.454 -0.7043 -3.7089  0.8055
  786MPD2    H211647   3.437   4.694  15.084  2.3991 -1.2192 -3.1725
  786MPD2    H311648   3.390   0.023  15.297  0.3558  0.8699  0.9599
  786MPD2     N11649   3.826   0.163  15.388 -0.1672  0.6332 -0.6611
  786MPD2    H511650   3.803   0.175  15.486 -0.4279  0.8769 -0.7511
  786MPD2    N111651   3.679   4.733  14.962  0.7829 -0.1138 -0.9764
  786MPD2    H711652   3.773   0.020  14.934 -0.0542  1.5446 -2.3139
  787MPD2     C11653   4.189   4.416  14.950 -0.5962 -0.5842  0.4894
  787MPD2    C111654   4.147   4.403  14.817  0.4068  0.3264  0.3274
  787MPD2    C211655   4.198   4.293  14.747  0.4279  0.5853  0.3919
  787MPD2    C311656   4.294   4.207  14.801  0.5030 -0.0770 -0.2353
  787MPD2    C411657   4.343   4.228  14.927  0.3402  0.1167 -0.1410
  787MPD2    C511658   4.276   4.324  15.003  0.3328  0.2613  0.8032
  787MPD2     H11659   4.167   4.277  14.644 -1.0318  1.3842  0.7075
  787MPD2    H111660   4.429   4.181  14.971 -0.5751  0.3058  1.8680
  787MPD2    H211661   4.134   4.476  15.022 -0.7947  0.7767 -0.7928
  787MPD2    H311662   4.313   4.355  15.100  1.3704  0.3222  0.3887
  787MPD2     N11663   4.343   4.110  14.707  0.8051  0.8240 -0.1427
  787MPD2    H511664   4.302   4.113  14.614 -1.7854  0.1972  0.9756
  787MPD2    N111665   4.042   4.482  14.760  0.9274  0.0304  0.1373
  787MPD2    H711666   4.011   4.569  14.803 -1.6048 -2.3107  3.0802
  788MPD2     C11667   1.276   3.245   1.240  0.5054 -0.0406  0.0416
  788MPD2    C111668   1.269   3.185   1.119 -1.1706 -0.1059  0.0989
  788MPD2    C211669   1.257   3.263   1.000  0.0608 -0.2712 -0.0999
  788MPD2    C311670   1.259   3.403   1.013 -0.0893  0.5724 -0.5219
  788MPD2    C411671   1.278   3.462   1.136  0.0582 -0.2145  0.5209
  788MPD2    C511672   1.294   3.384   1.249  0.3984 -0.5804  0.2355
  788MPD2     H11673   1.248   3.213   0.904 -0.2508 -0.8430  0.2222
  788MPD2    H111674   1.293   3.569   1.141  1.1325 -0.2892 -1.2481
  788MPD2    H211675   1.302   3.188   1.328 -0.6067  1.6838  1.4930
  788MPD2    H311676   1.319   3.431   1.343  0.2222  1.8822 -0.9697
  788MPD2     N11677   1.243   3.494   0.904 -0.1045 -0.0357 -0.1441
  788MPD2    H511678   1.236   3.593   0.924  0.2562 -0.2872  1.1973
  788MPD2    N111679   1.244   3.043   1.115  0.3639  0.5685 -0.9105
  788MPD2    H711680   1.251   3.007   1.021 -1.6758  2.3326 -1.7452
  789MPD2     C11681   1.212   2.914  16.354 -0.9253 -0.3766 -0.0712
  789MPD2    C111682   1.156   2.859  16.468  0.3176 -0.0634  0.1891
  789MPD2    C211683   1.067   2.926  16.548 -0.1673 -0.3606  0.6903
  789MPD2    C311684   1.020   3.048  16.508 -0.2213  0.2722 -0.3398
  789MPD2    C411685   1.059   3.098  16.389 -0.7714 -0.2871 -0.3180
  789MPD2    C511686   1.163   3.037  16.318 -0.2865 -0.8669  0.2209
  789MPD2     H11687   1.022   2.879  16.635  0.3623 -1.8525  0.1523
  789MPD2    H111688   1.028   3.193  16.348  1.0544 -1.0799 -3.4971
  789MPD2    H211689   1.286   2.860  16.297 -0.5300  0.3884 -0.2867
  789MPD2    H311690   1.206   3.089  16.233 -1.5059 -1.9454 -1.0642
  789MPD2     N11691   0.923   3.128  16.574 -0.0409 -0.0266 -0.1858
  789MPD2    H511692   0.880   3.202  16.520  1.0929  1.4220  0.9042
  789MPD2    N111693   1.206   2.737  16.515  0.1349 -0.3037 -0.6083
  789MPD2    H711694   1.168   2.712  16.606 -0.7226  1.7184 -0.4015
  790MPD2     C11695   2.384   4.506  13.786 -0.0185  0.6170 -0.1150
  790MPD2    C111696   2.317   4.388  13.801  0.5540 -0.3125 -0.1687
  790MPD2    C211697   2.272   4.319  13.685 -1.2798 -0.2348  0.2933
  790MPD2    C311698   2.308   4.366  13.559 -0.2155 -0.4620 -0.4797
  790MPD2    C411699   2.374   4.486  13.550 -0.8082 -0.5725 -0.1631
  790MPD2    C511700   2.408   4.554  13.663 -0.3083  0.5237  0.3892
  790MPD2     H11701   2.222   4.224  13.699 -0.7525 -0.8145 -1.7156
  790MPD2    H111702   2.398   4.529  13.453 -0.5097  0.4573  0.3743
  790MPD2    H211703   2.424   4.560  13.871  1.7073  2.4318 -2.0941
  790MPD2    H311704   2.469   4.644  13.660  1.3994 -0.7144 -2.4579
  790MPD2     N11705   2.281   4.293  13.437  0.1988  0.3442 -0.1526
  790MPD2    H511706   2.226   4.208  13.446  1.0155  0.0753  2.2702
  790MPD2    N111707   2.308   4.328  13.930  0.3288  0.3106 -0.2033
  790MPD2    H711708   2.347   4.384  14.006  1.9540  0.3495 -1.0836
  791MPD2     C11709   1.776   4.235  13.054 -0.1081  0.3359  0.4400
  791MPD2    C111710   1.833   4.111  13.072  0.5413 -0.0887 -0.1368
  791MPD2    C211711   1.754   4.005  13.047 -0.4955 -0.0271 -0.2151
  791MPD2    C311712   1.621   4.025  12.999  0.5628  0.3634 -0.2435
  791MPD2    C411713   1.567   4.156  12.976 -0.0773 -0.5944  0.5473
  791MPD2    C511714   1.648   4.259  13.013  0.1211 -0.5961 -0.4136
  791MPD2     H11715   1.793   3.904  13.045  1.1157  0.6375 -2.2421
  791MPD2    H111716   1.470   4.181  12.934 -1.3306 -2.4136  2.3581
  791MPD2    H211717   1.837   4.323  13.073 -1.0064  0.7213  1.5311
  791MPD2    H311718   1.615   4.361  12.999 -2.5167 -1.1716  1.6879
  791MPD2     N11719   1.545   3.908  12.978 -0.7213 -0.0623  0.2037
  791MPD2    H511720   1.452   3.927  12.942 -0.6440 -1.2317 -0.6002
  791MPD2    N111721   1.973   4.100  13.104  0.2165  0.0626 -0.2413
  791MPD2    H711722   2.021   4.188  13.115 -0.7092  0.4388  0.8714
  792MPD2     C11723   2.727   4.022  11.538  0.3141 -0.0332  0.5035
  792MPD2    C111724   2.650   4.042  11.421  0.0916  0.1885  0.7583
  792MPD2    C211725   2.525   3.980  11.412  0.4395  0.1681 -0.6126
  792MPD2    C311726   2.477   3.898  11.509 -0.9286 -0.4295  0.2464
  792MPD2    C411727   2.563   3.879  11.620  0.2831 -0.1057  0.0865
  792MPD2    C511728   2.687   3.934  11.632 -0.1286 -0.5976  0.0039
  792MPD2     H11729   2.461   3.994  11.325  0.1602 -1.0314 -0.6104
  792MPD2    H111730   2.523   3.820  11.702  0.7078  1.1515  1.2149
  792MPD2    H211731   2.822   4.069  11.559  0.4482 -0.4229  0.7533
  792MPD2    H311732   2.746   3.910  11.719 -1.3854 -0.3327  0.9242
  792MPD2     N11733   2.345   3.841  11.523 -0.3905  0.0298  0.2769
  792MPD2    H511734   2.324   3.793  11.610  3.1896  0.0694  1.1609
  792MPD2    N111735   2.710   4.117  11.312 -0.6092 -0.1582 -0.3720
  792MPD2    H711736   2.799   4.158  11.337 -0.2520 -1.0998 -0.0892
  793MPD2     C11737   1.548   3.874  10.889 -0.0894  0.0766  0.4833
  793MPD2    C111738   1.683   3.889  10.868  0.1295  0.1592 -0.2588
  793MPD2    C211739   1.767   3.906  10.977 -0.8311 -0.2480  0.1003
  793MPD2    C311740   1.713   3.893  11.106 -0.4962  0.0965  0.0492
  793MPD2    C411741   1.578   3.885  11.122  0.0590 -0.0606  0.0232
  793MPD2    C511742   1.496   3.877  11.011 -1.0654  0.2278  0.4101
  793MPD2     H11743   1.872   3.917  10.954 -1.2135  0.5933 -1.2990
  793MPD2    H111744   1.528   3.896  11.217 -3.1796  1.4550 -1.8618
  793MPD2    H211745   1.469   3.869  10.815  1.1776 -1.6454 -0.7885
  793MPD2    H311746   1.390   3.857  11.029 -1.2603  0.1043 -0.8774
  793MPD2     N11747   1.809   3.884  11.206 -0.6342  0.4075 -0.0158
  793MPD2    H511748   1.903   3.914  11.180  0.2230 -0.6903  1.8421
  793MPD2    N111749   1.757   3.869  10.746 -0.0292 -0.3567  0.1029
  793MPD2    H711750   1.857   3.887  10.745  0.2193 -1.7402  0.7776
  794MPD2     C11751   1.424   4.121  17.069  0.3132 -0.7107 -0.0520
  794MPD2    C111752   1.489   4.000  17.040 -0.4538  0.6062 -0.1204
  794MPD2    C211753   1.455   3.944  16.915 -0.1406  0.5193 -0.8315
  794MPD2    C311754   1.361   4.001  16.825 -0.3582  0.8546  0.9681
  794MPD2    C411755   1.287   4.108  16.864 -0.1290 -0.4225 -0.3441
  794MPD2    C511756   1.318   4.169  16.982  0.6743  0.1026 -0.4952
  794MPD2     H11757   1.499   3.846  16.900 -3.0600 -1.0990  1.2100
  794MPD2    H111758   1.219   4.161  16.799 -0.0750 -0.6504 -0.5846
  794MPD2    H211759   1.434   4.176  17.162  3.2648  0.8835 -1.3312
  794MPD2    H311760   1.271   4.264  17.005  1.0522  0.0609  0.4608
  794MPD2     N11761   1.334   3.956  16.694 -0.4322 -0.0664 -0.0889
  794MPD2    H511762   1.266   4.012  16.643  0.5566 -0.0195 -1.3503
  794MPD2    N111763   1.567   3.926  17.129 -1.0127 -0.1441 -0.0664
  794MPD2    H711764   1.617   3.840  17.108 -1.3219 -0.2817 -0.2378
  795MPD2     C11765   4.347   1.450  13.919  0.7014 -0.2308 -0.2238
  795MPD2    C111766   4.307   1.322  13.879  0.5989 -0.4779  0.2804
  795MPD2    C211767   4.404   1.244  13.825  0.3673 -0.1885 -0.0719
  795MPD2    C311768   4.533   1.289  13.798  0.5688  0.3810 -0.0309
  795MPD2    C411769   4.560   1.420  13.816 -0.2619  0.2150 -0.2530
  795MPD2    C511770   4.464   1.503  13.871  0.5737  0.4286 -0.2724
  795MPD2     H11771   4.372   1.143  13.802  1.3712 -0.3140 -0.8838
  795MPD2    H111772   4.653   1.460  13.778  0.5904 -0.9508  0.5918
  795MPD2    H211773   4.281   1.523  13.963  2.5035  1.4568 -0.3031
  795MPD2    H311774   4.476   1.609  13.889  0.3494  0.2517  0.9403
  795MPD2     N11775   4.622   1.201  13.740  0.0861  0.6836  0.3254
  795MPD2    H511776   4.573   1.115  13.717 -1.1670  1.9608 -1.8561
  795MPD2    N111777   4.179   1.275  13.911  0.3960 -0.1558 -0.8985
  795MPD2    H711778   4.152   1.187  13.868 -0.4911 -0.6146  0.5974
  796MPD2     C11779   3.874   2.682  16.065  0.4833  0.1767  0.3318
  796MPD2    C111780   3.898   2.786  16.153  0.5544 -0.1677  0.4399
  796MPD2    C211781   3.920   2.916  16.106  0.1634 -0.1065  0.2420
  796MPD2    C311782   3.905   2.950  15.978  0.0969  1.0033  0.4722
  796MPD2    C411783   3.867   2.845  15.892 -0.2552 -0.4151 -0.1077
  796MPD2    C511784   3.859   2.714  15.933 -0.2010  0.2960  0.1543
  796MPD2     H11785   3.936   2.999  16.173 -0.7138  0.1532  0.1248
  796MPD2    H111786   3.846   2.854  15.787 -0.4932 -1.8738 -0.1897
  796MPD2    H211787   3.857   2.582  16.104  1.4816 -0.2239 -0.2474
  796MPD2    H311788   3.838   2.638  15.858  0.5481  1.7752 -1.5716
  796MPD2     N11789   3.923   3.080  15.927 -0.5520  0.9884 -0.2148
  796MPD2    H511790   3.888   3.091  15.833  1.1299  0.1546 -0.9359
  796MPD2    N111791   3.902   2.750  16.288 -0.1300 -0.8419  0.1299
  796MPD2    H711792   3.854   2.661  16.299  1.2816 -1.7147 -0.8514
  797MPD2     C11793   0.215   2.284   0.065  1.0710 -0.5468  0.5060
  797MPD2    C111794   0.267   2.342  17.699  0.0500  0.2868  0.2244
  797MPD2    C211795   0.189   2.434  17.637  0.9338  0.0074 -0.4593
  797MPD2    C311796   0.063   2.473  17.691 -0.1535 -0.6908 -0.0544
  797MPD2    C411797   0.021   2.427   0.065  0.1547 -0.4772  0.1291
  797MPD2    C511798   0.094   2.322   0.117  0.1053  0.2173  0.0310
  797MPD2     H11799   0.224   2.497  17.556  2.2930 -1.1059 -0.7432
  797MPD2    H111800   4.666   2.464   0.107  0.9203 -0.6444  1.9637
  797MPD2    H211801   0.276   2.211   0.118 -0.3232 -1.7823  0.4084
  797MPD2    H311802   0.056   2.269   0.204  2.2431 -0.5740  0.4758
  797MPD2     N11803   4.720   2.574  17.637  0.6050  1.0394  0.0508
  797MPD2    H511804   4.643   2.610  17.693  0.4051  0.9778 -0.1822
  797MPD2    N111805   0.405   2.326  17.664 -0.4206  0.0600  0.3682
  797MPD2    H711806   0.427   2.380  17.581  0.7263 -1.0883 -0.0622
  798MPD2     C11807   0.461   2.873  17.239 -0.6256 -0.2338  0.7362
  798MPD2    C111808   0.412   2.867  17.365 -0.0518  0.5308  0.2135
  798MPD2    C211809   0.489   2.800  17.463 -0.1914 -0.2460  0.1397
  798MPD2    C311810   0.606   2.731  17.427 -0.1355  0.1972  0.2602
  798MPD2    C411811   0.658   2.747  17.306 -0.1253 -0.9276  0.0105
  798MPD2    C511812   0.585   2.813  17.209 -0.0341  0.8795 -0.1147
  798MPD2     H11813   0.448   2.784  17.562 -1.3556  2.7498  0.1535
  798MPD2    H111814   0.750   2.698  17.277 -0.0133 -1.2366  0.8964
  798MPD2    H211815   0.407   2.913  17.154 -1.7742 -1.5114  0.8636
  798MPD2    H311816   0.611   2.808  17.104 -1.0005  0.3389 -0.3252
  798MPD2     N11817   0.670   2.653  17.526  0.0583 -0.5553 -0.2918
  798MPD2    H511818   0.628   2.641  17.618  1.8021 -2.6342  0.2503
  798MPD2    N111819   0.273   2.903  17.393  0.9034 -0.0175 -0.0674
  798MPD2    H711820   0.216   2.928  17.312  1.5350 -1.4213 -0.9335
  799MPD2     C11821   3.939   3.953  14.934 -0.0045  0.5561  0.2827
  799MPD2    C111822   3.855   3.869  14.855 -1.2155 -0.5654  0.4534
  799MPD2    C211823   3.780   3.930  14.756  0.1094 -0.0593  0.4601
  799MPD2    C311824   3.798   4.066  14.727 -0.8297 -0.1037  0.5507
  799MPD2    C411825   3.891   4.140  14.798  0.2676 -1.1665  0.0365
  799MPD2    C511826   3.959   4.089  14.900  0.0345 -0.3674 -0.2954
  799MPD2     H11827   3.714   3.870  14.694 -1.7218  1.1113  1.2734
  799MPD2    H111828   3.906   4.247  14.788 -0.0561 -1.1659 -0.4126
  799MPD2    H211829   3.994   3.914  15.018  2.3355  2.4780 -0.3567
  799MPD2    H311830   4.026   4.154  14.955  0.0107 -0.5097 -0.0955
  799MPD2     N11831   3.735   4.134  14.616  0.9391 -0.1138  0.6536
  799MPD2    H511832   3.762   4.230  14.598  3.4046 -1.0056 -0.4065
  799MPD2    N111833   3.849   3.726  14.875  0.4024 -0.4610 -0.2147
  799MPD2    H711834   3.776   3.672  14.830  0.3809 -1.5987  1.1679
  800MPD2     C11835   4.380   0.205  14.052 -0.2922 -0.0434 -0.3030
  800MPD2    C111836   4.503   0.242  14.013  0.3029 -0.4517  0.7479
  800MPD2    C211837   4.564   0.164  13.915  0.3511  0.2997 -0.5941
  800MPD2    C311838   4.503   0.060  13.851  0.2286  0.3553 -0.1110
  800MPD2    C411839   4.387   0.011  13.912 -0.4044  0.4711 -0.2493
  800MPD2    C511840   4.331   0.075  14.017  0.4332  0.3141 -0.0792
  800MPD2     H11841   4.665   0.190  13.885  0.2375 -0.1084 -1.3364
  800MPD2    H111842   4.334   4.666  13.867  0.3847 -0.6616  0.8924
  800MPD2    H211843   4.319   0.272  14.112  0.2022  1.4134 -1.4139
  800MPD2    H311844   4.233   0.046  14.052  0.6466  1.2763  1.3068
  800MPD2     N11845   4.574   4.737  13.742 -0.4147  0.5232 -0.4659
  800MPD2    H511846   4.662   0.044  13.717 -1.4062  3.1889  0.7891
  800MPD2    N111847   4.552   0.361  14.066 -0.1693 -0.0797  0.2709
  800MPD2    H711848   4.492   0.420  14.123 -1.0655  1.0546 -1.8730
  801MPD2     C11849   4.463   1.129  14.227 -0.0467  0.0490  0.2325
  801MPD2    C111850   4.452   1.045  14.339  0.5138  0.0369 -0.7952
  801MPD2    C211851   4.396   1.097  14.459  0.4018  1.2573  0.3057
  801MPD2    C311852   4.377   1.228  14.475 -0.2043 -0.6199  0.7063
  801MPD2    C411853   4.399   1.312  14.370  0.2702 -0.5824  0.0548
  801MPD2    C511854   4.433   1.265  14.247  0.4001 -0.5322  0.3925
  801MPD2     H11855   4.373   1.033  14.544 -1.0681  0.1715 -0.8983
  801MPD2    H111856   4.393   1.419  14.384  0.9719 -0.5942  0.4262
  801MPD2    H211857   4.509   1.112  14.130 -2.8973  1.6688 -1.4084
  801MPD2    H311858   4.462   1.340  14.175  0.2008 -1.4171 -0.6206
  801MPD2     N11859   4.332   1.286  14.597  0.1300 -0.4911  0.7222
  801MPD2    H511860   4.357   1.379  14.627  1.0744 -0.9874  1.4553
  801MPD2    N111861   4.507   0.915  14.332  0.5450 -0.1628 -0.3546
  801MPD2    H711862   4.517   0.863  14.419  0.2003  1.0413  0.4075
  802MPD2     C11863   4.200   0.911   0.692 -0.1737 -0.2371  0.0767
  802MPD2    C111864   4.107   0.968   0.612 -0.4400  0.3513 -0.2155
  802MPD2    C211865   4.101   0.919   0.483  0.1164  0.3651  0.6870
  802MPD2    C311866   4.179   0.816   0.445 -0.4493  0.7167 -0.0232
  802MPD2    C411867   4.249   0.746   0.535 -0.3169 -0.5153 -0.0660
  802MPD2    C511868   4.261   0.793   0.661  0.7396 -0.0737  0.2346
  802MPD2     H11869   4.039   0.966   0.408  1.5934  0.1237 -0.6932
  802MPD2    H111870   4.304   0.655   0.514 -0.3759 -0.7651  0.8539
  802MPD2    H211871   4.210   0.941   0.796 -3.7453  2.9572 -0.4949
  802MPD2    H311872   4.326   0.743   0.732  3.1741  3.7124  0.6597
  802MPD2     N11873   4.173   0.772   0.309  0.3224 -0.0970  0.1111
  802MPD2    H511874   4.112   0.824   0.247 -0.9540  0.1856  1.6030
  802MPD2    N111875   4.037   1.093   0.637 -0.2773  0.3589 -0.2279
  802MPD2    H711876   3.954   1.107   0.581 -0.2869 -0.9306 -0.5472
  803MPD2     C11877   0.352   4.352  11.730  0.0263  0.4948 -0.3087
  803MPD2    C111878   0.459   4.441  11.723  0.1315 -0.1082 -0.7790
  803MPD2    C211879   0.540   4.452  11.839 -0.4702 -0.0353 -0.1204
  803MPD2    C311880   0.514   4.368  11.950  0.4463 -0.0153 -0.3485
  803MPD2    C411881   0.407   4.284  11.956  0.1627  0.0859 -0.3025
  803MPD2    C511882   0.327   4.284  11.849 -0.4818  0.3297  0.3568
  803MPD2     H11883   0.626   4.517  11.844 -0.0745 -0.4184 -1.6962
  803MPD2    H111884   0.375   4.226  12.042  1.4020 -0.6265 -0.3158
  803MPD2    H211885   0.274   4.338  11.656  2.0592 -0.8148 -2.2150
  803MPD2    H311886   0.241   4.219  11.857 -0.3263 -0.0170 -0.7531
  803MPD2     N11887   0.598   4.362  12.070 -0.3295  0.0281 -0.1665
  803MPD2    H511888   0.563   4.305  12.145  0.7586 -0.4683 -0.0325
  803MPD2    N111889   0.498   4.521  11.616  0.5828 -0.5549 -0.1683
  803MPD2    H711890   0.587   4.568  11.632  0.7293 -1.0074  0.3855
  804MPD2     C11891   4.523   0.919  17.479  0.5631 -0.6078  0.9419
  804MPD2    C111892   4.633   0.907  17.564  0.3910  0.8540  0.0834
  804MPD2    C211893   4.698   1.020  17.616  0.2485  0.2314  0.1707
  804MPD2    C311894   4.651   1.141  17.584  0.2725 -0.4389  0.0059
  804MPD2    C411895   4.543   1.163  17.494 -0.0557 -0.1040 -0.0170
  804MPD2    C511896   4.487   1.046  17.439  0.2543  0.0125 -0.6512
  804MPD2     H11897   0.046   1.016  17.681 -0.5680 -0.3367  1.2053
  804MPD2    H111898   4.502   1.252  17.447  0.6324  1.3956  2.1980
  804MPD2    H211899   4.468   0.835  17.439  1.4232 -0.5448 -0.3910
  804MPD2    H311900   4.399   1.055  17.376 -0.9039 -0.1250  0.9346
  804MPD2     N11901   4.713   1.246  17.644  0.2076 -0.0052  0.3377
  804MPD2    H511902   0.063   1.225  17.692  1.1195  0.6870 -1.0513
  804MPD2    N111903   4.669   0.779  17.620 -0.6494  0.2765 -0.3912
  804MPD2    H711904   4.737   0.774  17.695  0.2719  2.5943 -1.0605
  805MPD2     C11905   3.449   3.857  15.472  0.6966 -0.2476 -0.0670
  805MPD2    C111906   3.477   3.994  15.458  0.1822  0.5138 -0.6761
  805MPD2    C211907   3.595   4.045  15.495 -0.2129 -0.1824  0.4486
  805MPD2    C311908   3.695   3.963  15.548  0.7412  0.1901  0.7828
  805MPD2    C411909   3.673   3.828  15.560 -0.0621  0.5678  0.8727
  805MPD2    C511910   3.551   3.782  15.514 -0.9866  0.4263 -0.6194
  805MPD2     H11911   3.625   4.148  15.477 -1.4249  0.2768  1.0051
  805MPD2    H111912   3.747   3.755  15.588  1.3988  1.8510  0.3748
  805MPD2    H211913   3.357   3.805  15.448  0.1505  0.5659  0.2679
  805MPD2    H311914   3.539   3.675  15.507  1.6753  0.0664  0.1693
  805MPD2     N11915   3.819   4.024  15.587 -0.0177  0.1267 -0.3310
  805MPD2    H511916   3.833   4.124  15.573 -0.9408  0.1329 -1.2355
  805MPD2    N111917   3.395   4.082  15.383  0.3755  0.7484  0.0723
  805MPD2    H711918   3.433   4.175  15.367  1.1920  0.2350 -0.9944
  806MPD2     C11919   4.051   3.509   0.444 -0.0651 -0.6128 -0.9069
  806MPD2    C111920   4.044   3.607   0.533 -0.2160 -0.0827  0.3225
  806MPD2    C211921   4.125   3.716   0.511  0.2895 -0.6012 -0.3819
  806MPD2    C311922   4.225   3.721   0.417 -0.2745  0.1351  0.4025
  806MPD2    C411923   4.217   3.620   0.316  0.5092 -0.7632 -0.3256
  806MPD2    C511924   4.140   3.506   0.336 -0.4130  1.2910 -0.3645
  806MPD2     H11925   4.115   3.786   0.594  1.8210 -0.6417 -0.1594
  806MPD2    H111926   4.280   3.624   0.228  3.4816 -2.3382  1.7068
  806MPD2    H211927   3.976   3.430   0.449  1.0708 -1.6549 -0.4633
  806MPD2    H311928   4.143   3.423   0.266  0.0525  0.4686  0.6324
  806MPD2     N11929   4.316   3.830   0.416  0.5365  0.3889 -0.1670
  806MPD2    H511930   4.304   3.908   0.480 -0.6466  0.9230 -1.0297
  806MPD2    N111931   3.944   3.598   0.631 -0.1338  0.3699 -1.2583
  806MPD2    H711932   3.878   3.522   0.633 -1.0713  1.2007 -0.6110
  807MPD2     C11933   3.404   3.167   0.757  0.4832  0.6248 -0.1485
  807MPD2    C111934   3.510   3.148   0.846 -0.7014  0.9961 -0.4183
  807MPD2    C211935   3.531   3.025   0.902 -0.2333 -0.5193 -0.0889
  807MPD2    C311936   3.449   2.915   0.869  0.5532  0.3810  0.3180
  807MPD2    C411937   3.348   2.932   0.779  0.1565 -0.7439  0.1066
  807MPD2    C511938   3.331   3.057   0.723  0.3173 -0.2857 -0.5537
  807MPD2     H11939   3.610   3.019   0.977 -1.5042  0.9786  1.3721
  807MPD2    H111940   3.279   2.855   0.747 -1.5231  0.4324  0.8726
  807MPD2    H211941   3.384   3.266   0.717  0.7380  1.2346  1.2305
  807MPD2    H311942   3.241   3.063   0.663 -1.4180  0.3049  2.1057
  807MPD2     N11943   3.464   2.797   0.948 -0.1433  0.3909 -0.1572
  807MPD2    H511944   3.533   2.804   1.023 -1.2065  1.5812  0.7162
  807MPD2    N111945   3.599   3.256   0.885 -0.1900  0.0205 -0.1068
  807MPD2    H711946   3.675   3.227   0.946  1.7697  4.7723 -0.3303
  808MPD2     C11947   0.039   0.519  10.837  0.6438 -0.4732 -0.0484
  808MPD2    C111948   4.729   0.588  10.724 -0.2886  0.3274 -0.0171
  808MPD2    C211949   4.680   0.715  10.740  0.2807  0.7176 -0.6334
  808MPD2    C311950   4.685   0.790  10.860 -0.1672  0.0071  0.5999
  808MPD2    C411951   4.723   0.716  10.973 -0.0640 -0.1355 -0.0511
  808MPD2    C511952   0.031   0.580  10.962  0.6438 -0.4001 -0.0811
  808MPD2     H11953   4.637   0.763  10.653 -2.9716  1.8062  1.5964
  808MPD2    H111954   4.725   0.755  11.074 -0.5080 -1.1754  0.3601
  808MPD2    H211955   0.090   0.423  10.835 -0.8379 -1.2013 -2.4916
  808MPD2    H311956   0.057   0.526  11.052 -2.7452 -0.5015  0.8737
  808MPD2     N11957   4.648   0.925  10.871 -0.9551 -0.1187  0.4551
  808MPD2    H511958   4.637   0.965  10.964 -3.1743 -0.9968  0.5865
  808MPD2    N111959   4.724   0.530  10.592  0.7163 -0.0947 -0.8406
  808MPD2    H711960   4.687   0.593  10.521 -1.3709 -2.1410 -1.5492
  809MPD2     C11961   4.567   1.898  10.359  0.6002 -0.0607 -0.1164
  809MPD2    C111962   4.500   1.782  10.332 -0.3348  0.0532  0.0359
  809MPD2    C211963   4.520   1.670  10.421 -0.4386  0.0556  0.5301
  809MPD2    C311964   4.583   1.690  10.545  0.7406 -0.1095 -0.3599
  809MPD2    C411965   4.635   1.815  10.573  0.0831 -0.4426  0.1766
  809MPD2    C511966   4.625   1.917  10.483  0.2979  0.1041  0.0592
  809MPD2     H11967   4.488   1.572  10.387  0.5037  0.9683 -2.8923
  809MPD2    H111968   4.689   1.843  10.663  1.4756  0.6750 -1.0028
  809MPD2    H211969   4.569   1.983  10.292 -1.3365  0.3458  0.3442
  809MPD2    H311970   4.678   2.009  10.506  1.2269 -0.7194  1.2607
  809MPD2     N11971   4.603   1.586  10.636  0.2471 -0.1698 -0.3028
  809MPD2    H511972   4.667   1.610  10.711 -0.7258 -0.8676  0.7527
  809MPD2    N111973   4.445   1.768  10.207  0.3302  0.2304 -0.1474
  809MPD2    H711974   4.465   1.839  10.137 -0.2577  1.6982  1.1620
  810MPD2     C11975   4.289   4.099  10.587  0.3939 -0.5513  0.0783
  810MPD2    C111976   4.155   4.102  10.538  0.3518 -0.3894 -0.5337
  810MPD2    C211977   4.120   4.223  10.477 -0.1581 -0.8293 -0.9776
  810MPD2    C311978   4.203   4.336  10.469 -0.3018  0.7535 -0.0567
  810MPD2    C411979   4.324   4.325  10.534 -0.2272 -0.0777 -0.0233
  810MPD2    C511980   4.370   4.205  10.581 -0.2431  0.1842  0.4633
  810MPD2     H11981   4.028   4.231  10.420  0.5267  1.2377 -1.8022
  810MPD2    H111982   4.396   4.405  10.522 -0.8937  0.4860 -0.2998
  810MPD2    H211983   4.323   4.012  10.642 -1.6039  0.3491  2.7044
  810MPD2    H311984   4.474   4.203  10.612 -0.4375  2.5736  1.2496
  810MPD2     N11985   4.167   4.457  10.417 -0.0119 -0.1503  0.3552
  810MPD2    H511986   4.229   4.534  10.442  0.6949 -0.8711  0.8207
  810MPD2    N111987   4.072   3.990  10.535 -0.3140  0.1441  0.5951
  810MPD2    H711988   3.992   3.992  10.473  1.6261  2.5112 -1.8158
  811MPD2     C11989   3.314   3.655  10.356  0.2877 -0.2238  0.0461
  811MPD2    C111990   3.417   3.742  10.359  0.0169  0.3340  0.2142
  811MPD2    C211991   3.410   3.857  10.285  0.3023  0.3192  0.2473
  811MPD2    C311992   3.302   3.884  10.205  0.0712 -0.2768 -0.5260
  811MPD2    C411993   3.206   3.789  10.200  0.2575 -1.0924  0.2511
  811MPD2    C511994   3.207   3.685  10.282 -0.0327 -0.8266  0.6438
  811MPD2     H11995   3.487   3.934  10.292 -0.9253  1.8019 -2.4982
  811MPD2    H111996   3.125   3.785  10.127  0.5427 -1.4601 -0.0429
  811MPD2    H211997   3.309   3.571  10.424  1.0045  2.0909  2.9589
  811MPD2    H311998   3.118   3.625  10.294 -1.1758  0.5523 -0.9463
  811MPD2     N11999   3.300   3.999  10.128  0.6587 -0.3445  0.1555
  811MPD2    H512000   3.385   4.053  10.136  1.4547 -1.5071 -0.5675
  811MPD2    N112001   3.530   3.719  10.439  0.3826  0.5201  0.6776
  811MPD2    H712002   3.524   3.640  10.502 -2.7243  0.2976  0.1269
  812MPD2     C12003   2.660   3.712  12.295  0.0089  0.3696  0.4697
  812MPD2    C112004   2.766   3.788  12.332  0.5679  0.4156  0.3898
  812MPD2    C212005   2.823   3.762  12.458 -0.0762  0.1898 -0.9515
  812MPD2    C312006   2.789   3.656  12.538  0.3411 -0.3110  0.8378
  812MPD2    C412007   2.692   3.567  12.492  0.0441 -0.2342  0.8349
  812MPD2    C512008   2.634   3.597  12.371 -0.1273 -0.3208 -0.0036
  812MPD2     H12009   2.891   3.833  12.503 -0.7203  1.6673 -2.2995
  812MPD2    H112010   2.655   3.481  12.548 -1.6237  0.3958  0.6925
  812MPD2    H212011   2.611   3.710  12.199 -0.5373 -0.6102  0.7582
  812MPD2    H312012   2.554   3.531  12.339  0.5857 -1.3034  0.2733
  812MPD2     N12013   2.852   3.653  12.664 -0.2501 -0.4212 -0.8867
  812MPD2    H512014   2.911   3.730  12.693 -3.3614  1.7056 -0.2522
  812MPD2    N112015   2.811   3.886  12.245  0.4129  1.0956 -0.4569
  812MPD2    H712016   2.768   3.894  12.154 -0.4278  1.3179 -0.0333
  813MPD2     C12017   1.934   1.132  13.001  0.3335 -0.4054 -0.1273
  813MPD2    C112018   1.930   1.153  13.136  0.0721  0.4456 -0.2197
  813MPD2    C212019   1.821   1.109  13.199 -0.6157  0.8094 -0.0215
  813MPD2    C312020   1.704   1.077  13.143 -0.2428  1.0449 -0.7234
  813MPD2    C412021   1.702   1.067  13.006 -0.2358 -0.4282 -0.5184
  813MPD2    C512022   1.820   1.096  12.936  0.2274  0.2276  0.2108
  813MPD2     H12023   1.811   1.132  13.305  0.5014  0.5071  0.1506
  813MPD2    H112024   1.620   1.018  12.953 -1.4897  0.7711  0.3136
  813MPD2    H212025   2.026   1.147  12.946 -0.2064  1.1219 -0.6264
  813MPD2    H312026   1.816   1.072  12.831  1.7094  0.0645  0.1923
  813MPD2     N12027   1.584   1.041  13.218  0.8042 -0.4783  0.5046
  813MPD2    H512028   1.590   1.055  13.318 -1.6015  3.8307  0.0524
  813MPD2    N112029   2.036   1.203  13.215 -0.5639 -0.6598 -0.0937
  813MPD2    H712030   2.024   1.208  13.316  1.0113 -1.5485  0.1363
  814MPD2     C12031   2.400   2.169  12.782  0.1701  0.1801  0.1189
  814MPD2    C112032   2.459   2.253  12.688  0.4644 -0.6435 -0.4067
  814MPD2    C212033   2.489   2.383  12.726 -1.1085 -1.0940  0.1258
  814MPD2    C312034   2.483   2.423  12.855  0.5991 -0.7712 -0.0448
  814MPD2    C412035   2.421   2.339  12.949 -0.0145 -0.4035  0.1092
  814MPD2    C512036   2.382   2.216  12.911 -0.4250 -0.3769 -0.0622
  814MPD2     H12037   2.530   2.444  12.646 -0.5991 -1.0372  0.4337
  814MPD2    H112038   2.397   2.379  13.046  0.7942  0.5552 -0.0869
  814MPD2    H212039   2.343   2.082  12.751 -0.7608  0.1255  2.0212
  814MPD2    H312040   2.320   2.155  12.977 -2.2851  1.5454 -0.0098
  814MPD2     N12041   2.521   2.545  12.901  0.6731 -0.1816  0.4513
  814MPD2    H512042   2.490   2.560  12.996  1.9571  1.6962  0.5711
  814MPD2    N112043   2.483   2.204  12.554  0.1167  0.2930  0.3621
  814MPD2    H712044   2.501   2.274  12.483 -3.0400  0.3303 -0.4189
  815MPD2     C12045   3.343   0.710  11.652 -0.7843 -0.6148 -0.3595
  815MPD2    C112046   3.388   0.590  11.602 -0.6439  0.1139 -0.4830
  815MPD2    C212047   3.390   0.480  11.686  0.2920 -0.3390 -0.4545
  815MPD2    C312048   3.383   0.496  11.819  0.5069  0.3337  0.0408
  815MPD2    C412049   3.371   0.622  11.871 -0.1654  0.1596 -0.6117
  815MPD2    C512050   3.339   0.731  11.789  0.5454 -0.4530  0.0715
  815MPD2     H12051   3.419   0.381  11.654 -1.0600 -1.3697  1.4589
  815MPD2    H112052   3.369   0.639  11.978 -1.2273  0.2188 -0.6395
  815MPD2    H212053   3.348   0.797  11.586 -0.6735 -0.0969  0.3355
  815MPD2    H312054   3.328   0.832  11.828 -1.0218 -0.9676  0.9892
  815MPD2     N12055   3.363   0.383  11.898 -0.4784  0.0046  0.0436
  815MPD2    H512056   3.354   0.294  11.850  0.6169 -0.4751  0.7330
  815MPD2    N112057   3.438   0.573  11.470  0.0239  0.7063 -0.4141
  815MPD2    H712058   3.478   0.482  11.449  2.2295  1.2150  1.4658
  816MPD2     C12059   2.667   0.241  17.748  0.0273 -0.2011 -0.1668
  816MPD2    C112060   2.768   0.319   0.049 -0.2447  0.0090 -0.4370
  816MPD2    C212061   2.890   0.306  17.737  0.8310  0.6119 -0.2480
  816MPD2    C312062   2.918   0.200  17.649  0.3151 -0.1129  0.0454
  816MPD2    C412063   2.816   0.118  17.610 -0.0682 -0.3584 -0.0692
  816MPD2    C512064   2.690   0.140  17.665 -0.6390 -0.4690  0.3303
  816MPD2     H12065   2.972   0.368   0.020  1.3178 -1.4348  2.4561
  816MPD2    H112066   2.827   0.038  17.539 -0.8797 -0.0770 -0.5072
  816MPD2    H212067   2.567   0.260   0.037 -1.1962 -2.4514 -2.2676
  816MPD2    H312068   2.612   0.067  17.649 -0.0448 -0.9842 -0.1988
  816MPD2     N12069   3.049   0.197  17.593  0.0373  0.1955  0.5967
  816MPD2    H512070   3.117   0.258  17.638 -0.0363  1.7389 -1.3633
  816MPD2    N112071   2.732   0.421   0.139 -0.0847 -0.0017 -0.0629
  816MPD2    H712072   2.633   0.441   0.150 -0.4741 -1.3217 -1.2394
  817MPD2     C12073   3.574   2.441  10.065 -0.0802  0.3780  0.4416
  817MPD2    C112074   3.467   2.420   9.984 -0.4191 -0.0993 -0.3222
  817MPD2    C212075   3.435   2.520   9.892  0.1629 -0.5817  0.5624
  817MPD2    C312076   3.525   2.624   9.873  0.7424 -0.3817  0.2974
  817MPD2    C412077   3.635   2.640   9.953 -0.1531 -0.4924  1.0517
  817MPD2    C512078   3.662   2.549  10.050 -0.2186  0.0974  0.1467
  817MPD2     H12079   3.357   2.500   9.819  0.7455 -2.4806  0.4536
  817MPD2    H112080   3.705   2.723   9.950 -1.3855  0.5759  1.8383
  817MPD2    H212081   3.601   2.374  10.145 -2.1406 -0.5118  0.3742
  817MPD2    H312082   3.743   2.572  10.119 -0.3413 -0.1702  0.3815
  817MPD2     N12083   3.489   2.729   9.788 -0.0070 -0.3343  0.5500
  817MPD2    H512084   3.390   2.732   9.766  0.8067 -0.9019 -3.2026
  817MPD2    N112085   3.379   2.310  10.001  1.0192 -0.0829 -0.0868
  817MPD2    H712086   3.287   2.326   9.962  0.3541 -1.3925  0.9567
  818MPD2     C12087   1.636   1.965  10.759  0.3518 -0.6523 -0.7510
  818MPD2    C112088   1.546   1.878  10.813  0.2533  0.9306 -0.0995
  818MPD2    C212089   1.501   1.777  10.727  0.2024 -0.3015  0.2665
  818MPD2    C312090   1.533   1.769  10.594  0.2860 -0.4709  0.2309
  818MPD2    C412091   1.600   1.874  10.541  0.3515 -0.2429 -1.0738
  818MPD2    C512092   1.653   1.972  10.621 -0.6259  0.1074  0.8688
  818MPD2     H12093   1.426   1.707  10.760  1.4704 -1.6763  0.2176
  818MPD2    H112094   1.619   1.871  10.435  1.3422 -3.7743 -0.7831
  818MPD2    H212095   1.690   2.040  10.815  1.2194 -1.7488 -0.1275
  818MPD2    H312096   1.702   2.058  10.577 -0.7830  0.2445  0.9656
  818MPD2     N12097   1.505   1.666  10.500 -0.0576 -0.0097 -1.1841
  818MPD2    H512098   1.551   1.671  10.410 -0.5380  3.1162 -1.2666
  818MPD2    N112099   1.515   1.874  10.954  0.3056  0.6368 -0.1138
  818MPD2    H712100   1.463   1.793  10.987 -0.6236  0.9590 -0.8011
  819MPD2     C12101   4.377   3.929  15.570 -0.5330  0.3513  1.1508
  819MPD2    C112102   4.382   3.795  15.600  0.8202 -0.0614 -0.1938
  819MPD2    C212103   4.487   3.752  15.685  0.1968 -0.4336 -0.5272
  819MPD2    C312104   4.589   3.833  15.718 -0.5302 -0.5053  0.0762
  819MPD2    C412105   4.580   3.965  15.687  0.0174 -0.1619  0.0875
  819MPD2    C512106   4.476   4.011  15.619  0.7703 -0.1144  0.2987
  819MPD2     H12107   4.489   3.649  15.719  0.3606  0.0563  0.9501
  819MPD2    H112108   4.652   4.038  15.723  1.3890 -1.0510 -0.8430
  819MPD2    H212109   4.287   3.966  15.522 -1.1800 -0.0586  2.0492
  819MPD2    H312110   4.472   4.118  15.602  0.8699 -0.2397 -0.5348
  819MPD2     N12111   4.705   3.780  15.783  1.0412  0.0936 -0.2978
  819MPD2    H512112   4.699   3.686  15.823  2.1249  0.5712  0.9767
  819MPD2    N112113   4.281   3.712  15.552 -0.3235  0.4974 -0.2532
  819MPD2    H712114   4.211   3.751  15.490 -0.6485 -1.9375 -1.4054
  820MPD2     C12115   3.429   3.535  15.077 -0.0088 -0.3193  1.0164
  820MPD2    C112116   3.509   3.642  15.102 -0.8010  0.1017  0.2584
  820MPD2    C212117   3.613   3.619  15.189  0.5306  0.7827 -0.0931
  820MPD2    C312118   3.634   3.501  15.245 -0.3113 -0.0236  0.4022
  820MPD2    C412119   3.543   3.396  15.221 -0.1533  0.8324  0.3392
  820MPD2    C512120   3.440   3.415  15.141  0.0420 -0.0331 -0.5303
  820MPD2     H12121   3.682   3.699  15.214 -0.3013  1.9653 -1.5647
  820MPD2    H112122   3.551   3.302  15.275 -1.8395 -0.0199 -0.8894
  820MPD2    H212123   3.347   3.547  15.007 -0.0781 -2.1245  0.7784
  820MPD2    H312124   3.366   3.335  15.136  0.3706 -0.4679  1.4127
  820MPD2     N12125   3.742   3.476  15.333 -0.4372  0.3292  0.2197
  820MPD2    H512126   3.736   3.382  15.370  0.0238 -0.6825 -2.2430
  820MPD2    N112127   3.472   3.765  15.042 -0.0800  0.5776 -0.4568
  820MPD2    H712128   3.382   3.758  14.996  1.0054  0.8632 -2.6066
  821MPD2     C12129   0.501   4.486  13.519 -0.2799  0.4079 -0.2279
  821MPD2    C112130   0.471   4.619  13.486  0.4541 -0.0901 -0.8382
  821MPD2    C212131   0.578   4.710  13.469  0.0701  0.2199 -0.4554
  821MPD2    C312132   0.709   4.666  13.462  0.5266 -0.7545 -0.3950
  821MPD2    C412133   0.729   4.535  13.491  1.7745  0.3946 -0.2137
  821MPD2    C512134   0.628   4.449  13.531  0.8518 -0.1445 -0.6029
  821MPD2     H12135   0.551   0.075  13.446 -0.0377 -0.2321 -2.3788
  821MPD2    H112136   0.827   4.490  13.490  1.0777 -1.1757  1.5523
  821MPD2    H212137   0.425   4.410  13.535 -1.6544  1.6722 -0.6677
  821MPD2    H312138   0.655   4.347  13.557 -1.0856 -0.7653 -1.0803
  821MPD2     N12139   0.825   0.005  13.437 -0.9170 -0.3453 -0.2146
  821MPD2    H512140   0.914   4.695  13.446  0.2498  2.0129  0.5952
  821MPD2    N112141   0.334   4.662  13.461 -0.8118  0.4567 -0.3608
  821MPD2    H712142   0.316   0.023  13.451 -0.7081  0.4445 -0.6665
  822MPD2     C12143   0.441   0.270  16.161 -0.0780 -0.0572  0.0665
  822MPD2    C112144   0.445   0.247  16.300 -0.1011  0.0329 -0.3989
  822MPD2    C212145   0.406   0.352  16.382 -0.0758 -0.3488  0.0778
  822MPD2    C312146   0.369   0.474  16.333  0.0666  0.1962  0.2167
  822MPD2    C412147   0.353   0.489  16.199 -0.0381  0.0231  0.2890
  822MPD2    C512148   0.392   0.389  16.117 -0.0525  0.1969 -0.2211
  822MPD2     H12149   0.401   0.340  16.490 -0.8696 -1.9796 -0.1400
  822MPD2    H112150   0.317   0.581  16.154  1.1230  0.5745  0.4910
  822MPD2    H212151   0.471   0.193  16.091 -0.9395  0.1637 -0.5538
  822MPD2    H312152   0.391   0.403  16.010 -1.6518 -2.2353 -0.5311
  822MPD2     N12153   0.334   0.573  16.422 -0.3257  0.6222  0.1208
  822MPD2    H512154   0.329   0.546  16.520 -1.2003  0.1796 -0.0442
  822MPD2    N112155   0.497   0.132  16.366 -0.3336  0.9827 -0.4479
  822MPD2    H712156   0.499   0.143  16.467  0.8351  0.1041 -0.3889
  823MPD2     C12157   0.148   0.753  17.224 -1.0964  0.4071 -0.3138
  823MPD2    C112158   0.153   0.671  17.110 -0.6685 -0.3458  0.0166
  823MPD2    C212159   0.157   0.533  17.137 -0.0557 -0.3208  0.3076
  823MPD2    C312160   0.159   0.479  17.270  0.1878 -0.1721  0.7651
  823MPD2    C412161   0.145   0.567  17.377  0.4191  0.5500  0.6638
  823MPD2    C512162   0.143   0.705  17.350 -0.4324  0.1349 -0.0859
  823MPD2     H12163   0.158   0.465  17.053 -0.5486 -1.0610  0.8934
  823MPD2    H112164   0.141   0.546  17.483 -2.1877  0.1468  0.4710
  823MPD2    H212165   0.151   0.860  17.207  0.5567  0.2208 -1.1865
  823MPD2    H312166   0.134   0.776  17.431 -0.0684 -0.2592  0.2965
  823MPD2     N12167   0.185   0.342  17.306  0.3150  0.6422  0.0382
  823MPD2    H512168   0.158   0.312  17.399 -2.3143 -1.0486 -1.2685
  823MPD2    N112169   0.153   0.727  16.977 -0.0170  0.3045 -0.0179
  823MPD2    H712170   0.157   0.828  16.979 -0.2632  0.3135 -0.0008
  824MPD2     C12171   0.760   4.055  16.325 -0.4072 -0.3684  0.2648
  824MPD2    C112172   0.816   4.169  16.276  0.3690 -0.7756 -0.8633
  824MPD2    C212173   0.912   4.168  16.180  0.1001 -0.4705  0.1592
  824MPD2    C312174   0.966   4.045  16.135 -0.2641  0.6348  0.1938
  824MPD2    C412175   0.894   3.931  16.174  0.1722 -0.3446 -0.2805
  824MPD2    C512176   0.798   3.934  16.272  0.0862  0.1669  0.7166
  824MPD2     H12177   0.957   4.261  16.147  1.2531 -1.5167 -1.2051
  824MPD2    H112178   0.922   3.837  16.127 -0.6367 -0.5059 -0.4380
  824MPD2    H212179   0.679   4.057  16.397 -0.4565  1.0235  0.1795
  824MPD2    H312180   0.747   3.844  16.305  0.7384 -0.4840 -0.0444
  824MPD2     N12181   1.084   4.043  16.053 -0.4716 -0.2110 -0.3586
  824MPD2    H512182   1.124   4.132  16.026 -1.5080  0.1831 -0.6068
  824MPD2    N112183   0.772   4.295  16.325 -0.3506  0.2955  0.3955
  824MPD2    H712184   0.782   4.378  16.267  0.2352 -2.0731 -2.9121
  825MPD2     C12185   1.628   4.391  16.080  0.6376  0.4002 -0.3227
  825MPD2    C112186   1.577   4.376  15.952 -0.6071  0.2541 -0.7480
  825MPD2    C212187   1.591   4.478  15.859  0.1188 -0.7403 -0.5299
  825MPD2    C312188   1.642   4.603  15.903  0.4534 -0.0078 -0.4248
  825MPD2    C412189   1.694   4.609  16.031  0.1679  0.0119 -0.2383
  825MPD2    C512190   1.687   4.508  16.119  0.6521 -0.1709  0.2056
  825MPD2     H12191   1.546   4.468  15.761 -0.0035 -0.2871 -0.5215
  825MPD2    H112192   1.737   4.700  16.071  0.3801 -0.2936  0.2268
  825MPD2    H212193   1.604   4.318  16.156 -2.0404  2.2672  0.6432
  825MPD2    H312194   1.714   4.509  16.224 -2.6401 -0.6318  1.0570
  825MPD2     N12195   1.652   4.715  15.824  1.2242 -0.0341  0.3457
  825MPD2    H512196   1.708   0.051  15.865  1.5673 -0.7814  1.2207
  825MPD2    N112197   1.506   4.253  15.923  0.8056  0.2715  0.4424
  825MPD2    H712198   1.469   4.196  15.998 -0.1761  0.8031  0.3542
  826MPD2     C12199   1.346   3.842  14.017  0.5240 -0.2109  0.0959
  826MPD2    C112200   1.361   3.931  13.912 -0.4760 -0.2060 -0.6980
  826MPD2    C212201   1.257   4.020  13.888 -0.7638  0.2050 -0.2831
  826MPD2    C312202   1.147   4.027  13.968 -0.0285  0.0472  1.2319
  826MPD2    C412203   1.138   3.944  14.074 -0.5005  0.7111 -0.2043
  826MPD2    C512204   1.230   3.849  14.088 -0.2269  0.1668 -0.8432
  826MPD2     H12205   1.253   4.077  13.795  0.5485 -0.6943 -0.8903
  826MPD2    H112206   1.057   3.936  14.146  1.1887  2.2977  1.8432
  826MPD2    H212207   1.423   3.771  14.044  1.3772  1.6992  2.6193
  826MPD2    H312208   1.199   3.780  14.166  0.9327 -0.0943 -0.6118
  826MPD2     N12209   1.042   4.121  13.961 -0.7081  0.1823 -0.0032
  826MPD2    H512210   0.969   4.113  14.031 -1.9842 -0.3262 -1.3743
  826MPD2    N112211   1.472   3.926  13.833  0.1256 -0.4818  0.2307
  826MPD2    H712212   1.546   3.861  13.857  0.0631 -0.1021  1.4092
  827MPD2     C12213   1.857   1.013  10.259 -0.2921  0.1915 -0.6300
  827MPD2    C112214   1.799   0.895  10.294  0.5151 -0.5511 -0.1237
  827MPD2    C212215   1.681   0.851  10.235  0.0320  0.1933 -0.1430
  827MPD2    C312216   1.626   0.931  10.135  0.1199 -0.6491 -0.2048
  827MPD2    C412217   1.678   1.056  10.111 -0.1680 -0.3597  0.7955
  827MPD2    C512218   1.799   1.091  10.168  0.1143  0.1233  0.1954
  827MPD2     H12219   1.634   0.757  10.261 -0.8878  0.6168 -0.2788
  827MPD2    H112220   1.642   1.135  10.046 -1.7938 -0.2475  1.8499
  827MPD2    H212221   1.952   1.040  10.304 -0.9798  0.3290  0.7279
  827MPD2    H312222   1.854   1.183  10.148  0.4169  0.6847  3.6663
  827MPD2     N12223   1.503   0.891  10.070 -0.0678 -0.0590 -0.1669
  827MPD2    H512224   1.460   0.809  10.112  0.4970 -0.0513  0.4381
  827MPD2    N112225   1.868   0.822  10.395 -0.3659 -0.1161 -0.3486
  827MPD2    H712226   1.952   0.859  10.438 -1.8747  0.8908  1.7186
  828MPD2     C12227   0.369   0.674  12.311  0.2263  0.4740 -0.1222
  828MPD2    C112228   0.376   0.597  12.197 -0.2593  0.2720 -0.1492
  828MPD2    C212229   0.430   0.638  12.082 -0.3105  0.1753  0.0100
  828MPD2    C312230   0.488   0.758  12.069  0.0993 -0.7970 -0.5121
  828MPD2    C412231   0.468   0.848  12.176 -0.3355  0.3237  0.5307
  828MPD2    C512232   0.415   0.803  12.294 -0.7862 -0.1760  0.0954
  828MPD2     H12233   0.445   0.567  12.001  1.1041 -1.1045  1.3897
  828MPD2    H112234   0.500   0.951  12.164  1.1176 -0.1675  0.1869
  828MPD2    H212235   0.329   0.646  12.408 -1.1924  0.5043 -0.6973
  828MPD2    H312236   0.393   0.863  12.381 -3.7876  1.4093 -1.7438
  828MPD2     N12237   0.543   0.806  11.945  0.2701  0.0845  0.0125
  828MPD2    H512238   0.589   0.897  11.946 -1.9491  1.2159 -0.0202
  828MPD2    N112239   0.318   0.467  12.197 -0.6960  0.2065 -0.7275
  828MPD2    H712240   0.336   0.418  12.110  1.1803 -0.4476  0.0512
  829MPD2     C12241   4.338   0.281  11.625  0.3595  0.4321 -0.4597
  829MPD2    C112242   4.467   0.249  11.612 -0.1882 -0.0222 -0.5777
  829MPD2    C212243   4.543   0.249  11.725  0.1633  0.2087 -0.8158
  829MPD2    C312244   4.489   0.278  11.846 -0.0854  0.1250  0.4736
  829MPD2    C412245   4.353   0.304  11.860 -0.4535 -0.4001  0.9873
  829MPD2    C512246   4.279   0.325  11.747 -0.3753  0.2162 -0.1251
  829MPD2     H12247   4.648   0.224  11.721  0.3629  0.7486  1.2279
  829MPD2    H112248   4.303   0.315  11.955 -1.6835 -0.1129  0.3002
  829MPD2    H212249   4.274   0.279  11.538 -0.2197  0.8002 -0.0390
  829MPD2    H312250   4.171   0.327  11.758 -0.5445 -1.7953 -1.3240
  829MPD2     N12251   4.559   0.255  11.965  0.0746 -0.0787 -0.1946
  829MPD2    H512252   4.506   0.265  12.051  1.5918  0.7895  0.6163
  829MPD2    N112253   4.516   0.205  11.488  0.8007 -0.0200  0.1710
  829MPD2    H712254   4.451   0.218  11.411 -0.3456 -2.0293  0.7957
  830MPD2     C12255   0.769   3.598  15.552  0.0071 -0.2728  0.5865
  830MPD2    C112256   0.671   3.693  15.555 -0.4665  0.0461  0.1165
  830MPD2    C212257   0.675   3.791  15.452 -0.2535  0.1763  0.6292
  830MPD2    C312258   0.791   3.800  15.370 -0.1234  0.4365  0.3544
  830MPD2    C412259   0.887   3.698  15.384 -0.7567 -0.1863 -0.0332
  830MPD2    C512260   0.871   3.594  15.471  0.2122  0.1201 -0.9080
  830MPD2     H12261   0.587   3.853  15.445  0.7530  1.3615 -1.5028
  830MPD2    H112262   0.970   3.697  15.315 -0.4848 -0.7275  0.3030
  830MPD2    H212263   0.765   3.519  15.627  0.9305 -1.7763 -0.9517
  830MPD2    H312264   0.946   3.517  15.488  0.7801  1.1020  1.0427
  830MPD2     N12265   0.811   3.893  15.266  0.1917  0.0778  0.3001
  830MPD2    H512266   0.904   3.900  15.227  0.9099 -1.1336  1.8124
  830MPD2    N112267   0.562   3.687  15.639  0.1327  0.3022  0.4264
  830MPD2    H712268   0.488   3.750  15.609  0.4069  1.2093  1.6825
  831MPD2     C12269   0.641   0.645  16.611 -0.0177  0.2006  0.1655
  831MPD2    C112270   0.664   0.507  16.587 -0.2803  0.0798  0.6276
  831MPD2    C212271   0.591   0.421  16.666  0.5355  0.1557  0.5853
  831MPD2    C312272   0.495   0.460  16.748 -0.1157 -0.4170 -0.2510
  831MPD2    C412273   0.490   0.595  16.778  0.0158 -0.3298 -0.0435
  831MPD2    C512274   0.557   0.689  16.707 -0.3150 -0.5550  0.3297
  831MPD2     H12275   0.593   0.316  16.639  0.8784  0.5378 -0.8807
  831MPD2    H112276   0.422   0.624  16.857 -0.3283  1.0911 -0.8697
  831MPD2    H212277   0.693   0.720  16.552 -1.7958  0.9381 -0.4481
  831MPD2    H312278   0.534   0.794  16.728 -1.6766 -0.3797 -2.0092
  831MPD2     N12279   0.374   0.386  16.774  0.8003 -0.6074  0.6192
  831MPD2    H512280   0.302   0.439  16.820  0.1660 -0.0572 -1.0081
  831MPD2    N112281   0.736   0.469  16.471 -0.0309 -0.1380 -0.0699
  831MPD2    H712282   0.743   0.543  16.402 -1.0913  0.2233  0.2084
  832MPD2     C12283   3.683   1.234   0.096 -0.1600 -1.0243  0.4143
  832MPD2    C112284   3.688   1.356   0.043  0.1589 -0.4661 -0.4011
  832MPD2    C212285   3.597   1.396  17.695  0.5941 -0.6987 -0.7805
  832MPD2    C312286   3.482   1.313  17.673  0.2723  0.6321 -0.1163
  832MPD2    C412287   3.481   1.190  17.729  0.1891  0.1559 -0.1950
  832MPD2    C512288   3.584   1.149   0.064  0.1146  0.0081  0.0044
  832MPD2     H12289   3.588   1.500  17.666 -1.8451 -0.5368  0.5995
  832MPD2    H112290   3.394   1.130  17.707  0.0842 -0.0076  0.6561
  832MPD2    H212291   3.742   1.207   0.182 -0.5034 -0.1552  0.9220
  832MPD2    H312292   3.578   1.051   0.109  1.4673 -0.4346 -0.7830
  832MPD2     N12293   3.367   1.341  17.592 -0.5979 -0.0863  0.3346
  832MPD2    H512294   3.301   1.265  17.581 -0.5899  0.0932 -0.9649
  832MPD2    N112295   3.799   1.432   0.089 -0.3351  0.5587 -0.2643
  832MPD2    H712296   3.857   1.386   0.158  1.5967  0.7136 -1.7847
  833MPD2     C12297   0.666   3.295  13.421 -0.4924  0.2726  0.4809
  833MPD2    C112298   0.708   3.370  13.312  0.2909  0.1860 -0.1140
  833MPD2    C212299   0.818   3.333  13.234  0.8330 -0.0868  0.1513
  833MPD2    C312300   0.883   3.213  13.255 -0.3218 -0.1477  0.2219
  833MPD2    C412301   0.854   3.148  13.372 -0.7781  0.1875  0.2960
  833MPD2    C512302   0.755   3.195  13.457 -0.0979  0.3740  0.2166
  833MPD2     H12303   0.823   3.389  13.141 -1.8145 -1.9324 -1.1236
  833MPD2    H112304   0.913   3.068  13.416 -0.8759  0.9702  1.8515
  833MPD2    H212305   0.590   3.316  13.495 -1.0151  1.9749 -0.5523
  833MPD2    H312306   0.748   3.137  13.548 -0.2201 -1.4622 -0.9526
  833MPD2     N12307   0.985   3.161  13.168 -0.1276  0.2655  0.6259
  833MPD2    H512308   1.027   3.071  13.188 -0.9290 -1.0049 -3.4647
  833MPD2    N112309   0.628   3.480  13.261  0.8062 -0.3202  0.2230
  833MPD2    H712310   0.664   3.532  13.183 -0.1660  0.4190  0.2646
  834MPD2     C12311   1.098   2.472  12.422 -0.0905 -0.4606 -0.2814
  834MPD2    C112312   1.063   2.587  12.359 -0.2969  0.2850  0.2232
  834MPD2    C212313   1.064   2.712  12.427  0.6449  0.8145  0.0397
  834MPD2    C312314   1.096   2.716  12.559  0.1943  0.3129  0.1459
  834MPD2    C412315   1.139   2.597  12.619  0.4583 -0.5924 -0.1904
  834MPD2    C512316   1.142   2.484  12.545  0.4999 -0.5042  0.2765
  834MPD2     H12317   1.043   2.800  12.367 -3.0192 -1.7848 -2.5365
  834MPD2    H112318   1.174   2.575  12.719  0.0552  0.7510  0.2424
  834MPD2    H212319   1.093   2.374  12.377  0.7984 -1.4497  1.7370
  834MPD2    H312320   1.182   2.397  12.596  0.6477  0.7352  2.2840
  834MPD2     N12321   1.081   2.838  12.634  0.3656  0.1642 -0.0771
  834MPD2    H512322   1.048   2.915  12.577 -2.0204  0.0678  1.1821
  834MPD2    N112323   1.029   2.560  12.222  0.2345 -0.0863 -0.0604
  834MPD2    H712324   1.049   2.466  12.189 -1.9458 -0.8101  0.6669
  835MPD2     C12325   1.592   4.736  11.466 -0.0120 -0.4579 -0.3082
  835MPD2    C112326   1.531   0.120  11.437  0.4265  0.6574 -1.0523
  835MPD2    C212327   1.560   0.229  11.511  0.4066  0.0909  0.6584
  835MPD2    C312328   1.655   0.215  11.616  0.6019  0.7732  0.1738
  835MPD2    C412329   1.707   0.089  11.647 -0.8067  0.6278 -0.1602
  835MPD2    C512330   1.682   4.723  11.566 -0.4724 -0.0088 -0.1240
  835MPD2     H12331   1.533   0.326  11.470  1.5579 -0.0929 -0.5343
  835MPD2    H112332   1.777   0.086  11.730  1.0558  4.1109 -1.6224
  835MPD2    H212333   1.569   4.650  11.404  0.9003 -1.2319  0.4042
  835MPD2    H312334   1.729   4.627  11.584  0.7960  0.6016 -0.1464
  835MPD2     N12335   1.714   0.325  11.684  0.3674  0.2359 -0.3962
  835MPD2    H512336   1.789   0.308  11.750  1.7851  1.2023 -1.7598
  835MPD2    N112337   1.441   0.146  11.333 -0.3497  0.0753 -0.6762
  835MPD2    H712338   1.400   0.239  11.328 -1.0820 -0.0231  3.1798
  836MPD2     C12339   1.451   1.056  11.774 -0.2078  0.5043  0.1461
  836MPD2    C112340   1.499   0.966  11.866  0.0475  0.0616  0.1293
  836MPD2    C212341   1.452   0.959  11.999 -0.5343 -0.4593  0.6019
  836MPD2    C312342   1.337   1.028  12.037  0.1444 -0.0460  0.5713
  836MPD2    C412343   1.285   1.108  11.937  0.3420  1.2188  0.4363
  836MPD2    C512344   1.346   1.123  11.816 -0.8907 -0.4252 -0.6723
  836MPD2     H12345   1.511   0.906  12.073  0.2135  1.8847  1.6740
  836MPD2    H112346   1.196   1.166  11.959 -0.0992  0.3038  1.0268
  836MPD2    H212347   1.492   1.080  11.677 -0.9856 -1.2059 -0.5928
  836MPD2    H312348   1.312   1.199  11.745 -0.1457 -1.0442 -1.6908
  836MPD2     N12349   1.266   1.015  12.159  0.6414 -0.4085  0.3013
  836MPD2    H512350   1.189   1.082  12.158  0.5338 -0.4954  2.1984
  836MPD2    N112351   1.620   0.906  11.832  0.3782 -0.3005 -0.1313
  836MPD2    H712352   1.644   0.889  11.735  2.0609  0.5037  0.1590
  837MPD2     C12353   3.774   4.544   9.968  0.6353  0.4616  0.2082
  837MPD2    C112354   3.639   4.589   9.942  0.2573 -0.5121 -0.4592
  837MPD2    C212355   3.624   4.728   9.933 -0.3549 -0.7788 -0.1404
  837MPD2    C312356   3.728   0.082   9.963 -0.3181  0.1940  0.0089
  837MPD2    C412357   3.855   0.029   9.983 -0.0677 -0.7882  0.4198
  837MPD2    C512358   3.876   4.632   9.984 -0.5272 -0.2846  0.3731
  837MPD2     H12359   3.523   0.030   9.931 -0.4837 -1.1765 -2.1295
  837MPD2    H112360   3.938   0.088  10.020 -0.8492  0.1199  0.7009
  837MPD2    H212361   3.797   4.439   9.978  1.6858  0.5463 -1.2769
  837MPD2    H312362   3.975   4.586   9.985  0.8804  2.7399 -1.2933
  837MPD2     N12363   3.692   0.213   9.982 -0.6396  0.0842 -0.2106
  837MPD2    H512364   3.599   0.232   9.945 -0.9011  0.5508  0.6836
  837MPD2    N112365   3.524   4.508   9.924 -0.3509 -0.2941  0.0577
  837MPD2    H712366   3.435   4.549   9.898 -0.7709 -0.9159  0.4865
  838MPD2     C12367   1.944   3.206  12.069  0.2625 -1.0335  0.6269
  838MPD2    C112368   1.975   3.100  12.155 -0.5356 -0.0123  0.4602
  838MPD2    C212369   1.869   3.038  12.217  0.3877 -0.4213  0.2068
  838MPD2    C312370   1.733   3.078  12.193  0.3925  0.6144 -0.1219
  838MPD2    C412371   1.715   3.195  12.114  0.1277 -0.1119 -0.4145
  838MPD2    C512372   1.823   3.259  12.064  0.1528  0.3262 -0.0037
  838MPD2     H12373   1.887   2.946  12.272 -2.3309 -1.2304 -0.2507
  838MPD2    H112374   1.617   3.239  12.097  0.9995  1.7526 -0.6476
  838MPD2    H212375   2.009   3.255  11.998  0.9052 -2.6540  0.0908
  838MPD2    H312376   1.796   3.352  12.015 -1.7976 -0.2405 -0.0273
  838MPD2     N12377   1.623   3.013  12.260  0.0439  0.6394 -0.0811
  838MPD2    H512378   1.646   2.940  12.327  0.4271  0.2743 -0.6100
  838MPD2    N112379   2.106   3.061  12.180  0.3640  0.3505  0.3902
  838MPD2    H712380   2.117   2.975  12.233 -1.5558 -0.0127  0.2223
  839MPD2     C12381   2.199   2.280  12.315 -0.9807 -0.0566 -0.0482
  839MPD2    C112382   2.222   2.303  12.177  1.0849 -0.0082  0.3539
  839MPD2    C212383   2.278   2.426  12.147  0.1278  0.4127 -0.0239
  839MPD2    C312384   2.308   2.517  12.249  0.1273 -0.1798 -0.7487
  839MPD2    C412385   2.289   2.483  12.380 -0.4281  0.1208 -0.6174
  839MPD2    C512386   2.240   2.362  12.411  0.7216  0.5939 -0.2743
  839MPD2     H12387   2.302   2.448  12.043  3.2289  2.6819  1.1723
  839MPD2    H112388   2.329   2.550  12.454 -0.7907  0.5465 -0.8035
  839MPD2    H212389   2.146   2.190  12.344  0.8622 -0.8261  0.9475
  839MPD2    H312390   2.228   2.339  12.517  0.9186  0.2477 -0.3271
  839MPD2     N12391   2.357   2.648  12.230 -0.8998 -0.0440  0.6892
  839MPD2    H512392   2.367   2.703  12.315 -0.0647 -1.7122  1.6606
  839MPD2    N112393   2.180   2.223  12.068 -0.6718  0.3507 -0.3656
  839MPD2    H712394   2.211   2.261  11.980  1.4832  0.6728  0.5420
  840MPD2     C12395   2.414   0.957  10.495  0.0001 -1.0417 -0.0017
  840MPD2    C112396   2.415   0.855  10.587  0.2222 -0.3890  0.5804
  840MPD2    C212397   2.515   0.841  10.683 -0.0078 -0.2815  0.2202
  840MPD2    C312398   2.613   0.939  10.692 -0.3791 -0.9119 -0.5752
  840MPD2    C412399   2.614   1.037  10.595 -0.4601  0.1760 -0.9082
  840MPD2    C512400   2.511   1.052  10.500 -0.1203  0.8968 -0.9272
  840MPD2     H12401   2.518   0.763  10.758 -2.3053 -0.4922  0.0904
  840MPD2    H112402   2.684   1.120  10.598  0.2566 -0.4324 -1.1384
  840MPD2    H212403   2.332   0.954  10.424  0.7370 -0.9597 -0.8533
  840MPD2    H312404   2.523   1.129  10.425 -0.3794  1.3705 -0.4740
  840MPD2     N12405   2.701   0.948  10.803 -0.2550 -0.0101 -0.5053
  840MPD2    H512406   2.786   1.000  10.784 -0.2912  0.2587  0.0839
  840MPD2    N112407   2.296   0.776  10.581  0.0547  0.1462 -0.2006
  840MPD2    H712408   2.220   0.808  10.522  0.8072 -0.8340 -1.6858
  841MPD2     C12409   1.614   1.041  14.735  0.6103  0.3616  0.0837
  841MPD2    C112410   1.690   0.940  14.795  0.4935  0.8397  0.0242
  841MPD2    C212411   1.787   0.976  14.881 -0.5801  0.4152  0.6259
  841MPD2    C312412   1.826   1.108  14.903 -0.4083 -0.1837 -0.7501
  841MPD2    C412413   1.742   1.205  14.840  0.2765 -0.2273  0.4129
  841MPD2    C512414   1.644   1.171  14.750 -0.2347  0.1208  0.7333
  841MPD2     H12415   1.841   0.899  14.934 -0.5236  2.0779  3.0150
  841MPD2    H112416   1.762   1.311  14.851  0.9746 -0.3374  0.1796
  841MPD2    H212417   1.535   1.008  14.669 -0.9741  2.3095  1.0049
  841MPD2    H312418   1.589   1.247  14.696  0.6549 -1.6096 -2.6193
  841MPD2     N12419   1.935   1.136  14.988  0.3469  0.1320  0.0153
  841MPD2    H512420   1.983   1.055  15.027 -1.1721  0.5761  2.7769
  841MPD2    N112421   1.669   0.805  14.767 -0.1113  0.7984 -0.1174
  841MPD2    H712422   1.731   0.741  14.816 -0.0929 -1.0335 -2.5371
  842MPD2     C12423   2.799   1.722  17.478 -0.4367 -0.3694 -0.1227
  842MPD2    C112424   2.688   1.651  17.488 -0.3029  0.3069 -0.2526
  842MPD2    C212425   2.659   1.590  17.611  0.8544  0.0947 -0.0622
  842MPD2    C312426   2.755   1.590  17.709  0.0983 -0.4050 -1.0329
  842MPD2    C412427   2.865   1.666  17.700 -0.4875  0.3260 -0.1009
  842MPD2    C512428   2.882   1.737  17.581  0.7137  0.1132 -0.1948
  842MPD2     H12429   2.576   1.520  17.612  0.0723  1.0131 -1.6526
  842MPD2    H112430   2.940   1.674   0.029  0.0256  1.2596 -0.6850
  842MPD2    H212431   2.815   1.775  17.385 -0.6529 -1.0930 -0.5738
  842MPD2    H312432   2.970   1.797  17.560  1.1997 -1.0167 -1.3650
  842MPD2     N12433   2.748   1.504   0.070  0.2558 -0.0831 -0.6341
  842MPD2    H512434   2.834   1.484   0.119 -0.8949 -3.1316  0.1745
  842MPD2    N112435   2.600   1.659  17.381  0.2692 -0.1897  0.6448
  842MPD2    H712436   2.635   1.714  17.303 -0.1324 -1.2623 -0.2905
  843MPD2     C12437   4.492   2.913   0.049  0.2514  0.0117  0.7193
  843MPD2    C112438   4.510   2.819   0.145  0.5494  0.3584 -0.2455
  843MPD2    C212439   4.615   2.830   0.229 -0.5620 -0.0846 -0.5005
  843MPD2    C312440   4.720   2.921   0.212  0.0273 -0.2624 -0.0848
  843MPD2    C412441   4.696   3.016   0.112  0.6372  0.5733  0.4315
  843MPD2    C512442   4.584   3.011   0.032  0.6072  0.6467 -0.7143
  843MPD2     H12443   4.618   2.769   0.319  3.5217 -1.3727 -1.4870
  843MPD2    H112444   0.030   3.096   0.098 -0.8508  1.9675  0.7971
  843MPD2    H212445   4.414   2.915  17.723  1.9140  3.9565 -0.9210
  843MPD2    H312446   4.572   3.080  17.698 -2.7779 -0.3156 -1.0548
  843MPD2     N12447   0.094   2.938   0.288  0.0565 -0.3426  0.5424
  843MPD2    H512448   0.167   2.998   0.250 -1.2738  1.2140  0.4463
  843MPD2    N112449   4.405   2.725   0.155 -0.1016  0.2203 -0.0028
  843MPD2    H712450   4.328   2.727   0.089 -2.0728  0.2188  2.2834
  844MPD2     C12451   3.380   0.570  17.028 -1.3366  0.4680  0.0186
  844MPD2    C112452   3.451   0.668  16.957 -0.3410 -0.3685 -0.2340
  844MPD2    C212453   3.454   0.803  17.004  0.0339 -0.2197 -0.2205
  844MPD2    C312454   3.391   0.842  17.125  0.9926  0.7215 -0.2879
  844MPD2    C412455   3.318   0.743  17.187 -0.4513  0.3780 -0.4035
  844MPD2    C512456   3.311   0.619  17.137 -0.1617  0.5049 -0.5052
  844MPD2     H12457   3.497   0.880  16.941 -0.7833 -0.3246 -0.9057
  844MPD2    H112458   3.265   0.756  17.281 -0.0369 -1.1188  0.0278
  844MPD2    H212459   3.387   0.465  17.002  1.7370 -0.0091  2.6439
  844MPD2    H312460   3.233   0.558  17.180 -0.4543  0.0774 -1.6488
  844MPD2     N12461   3.422   0.966  17.182 -0.0217  0.3692 -0.3049
  844MPD2    H512462   3.482   1.023  17.123 -1.3068  0.9626 -1.0269
  844MPD2    N112463   3.502   0.646  16.827 -1.2916 -0.5038 -0.1727
  844MPD2    H712464   3.522   0.729  16.771 -0.4397 -1.4553 -1.2535
  845MPD2     C12465   3.471   1.956  17.099  0.5347  0.3986  0.2832
  845MPD2    C112466   3.522   1.923  17.224 -0.2026 -0.0014  0.4924
  845MPD2    C212467   3.521   1.791  17.265 -0.0667 -0.8205 -0.2262
  845MPD2    C312468   3.478   1.689  17.176  0.5315 -1.5040 -0.5443
  845MPD2    C412469   3.437   1.726  17.050  0.3769  0.1362 -0.3827
  845MPD2    C512470   3.441   1.860  17.011 -0.2377 -0.2290 -0.2278
  845MPD2     H12471   3.564   1.758  17.359 -0.8280  0.5975  0.6117
  845MPD2    H112472   3.413   1.653  16.973  0.1036 -0.6144  0.4188
  845MPD2    H212473   3.456   2.059  17.070  1.9153  0.8195  1.0851
  845MPD2    H312474   3.426   1.895  16.910 -0.4757 -2.1019 -0.8298
  845MPD2     N12475   3.500   1.556  17.221 -0.2261 -0.2896 -0.1293
  845MPD2    H512476   3.534   1.537  17.315  0.4422 -2.3904 -0.7902
  845MPD2    N112477   3.557   2.032  17.312 -0.2796 -0.0108  0.2955
  845MPD2    H712478   3.541   2.124  17.272 -0.9528  0.7791  2.3530
  846MPD2     C12479   0.014   2.509  13.910  0.1919 -1.0905 -0.7885
  846MPD2    C112480   4.721   2.617  13.985 -0.0571  1.0680  0.3662
  846MPD2    C212481   4.710   2.609  14.126 -0.7970  0.1064  0.4078
  846MPD2    C312482   0.000   2.492  14.187 -0.3595  0.2216  0.4403
  846MPD2    C412483   0.029   2.382  14.106  0.6833 -0.0458 -0.6140
  846MPD2    C512484   0.032   2.392  13.969  0.0417 -0.7428  0.0802
  846MPD2     H12485   4.683   2.698  14.182  1.1536  2.0330 -1.7344
  846MPD2    H112486   0.038   2.283  14.150 -2.0629 -1.0156 -2.2656
  846MPD2    H212487   0.028   2.519  13.803  0.8890  0.3368 -0.5615
  846MPD2    H312488   0.052   2.297  13.921  1.2465 -0.5535  0.2079
  846MPD2     N12489   4.728   2.493  14.330  0.0043  0.2687  0.1578
  846MPD2    H512490   4.694   2.577  14.376  1.5144  0.4136  1.0171
  846MPD2    N112491   4.685   2.739  13.924 -0.2419 -0.2166 -0.4706
  846MPD2    H712492   4.674   2.820  13.984  1.9793 -0.6702  0.5587
  847MPD2     C12493   0.959   4.228  14.642 -0.2151 -0.0092 -0.6470
  847MPD2    C112494   0.965   4.347  14.703 -0.4766 -0.2981 -0.4493
  847MPD2    C212495   1.031   4.360  14.821 -0.2411  0.0673 -0.1751
  847MPD2    C312496   1.098   4.250  14.879  0.1212  0.9384  0.6893
  847MPD2    C412497   1.090   4.125  14.815  0.5220 -0.6569  0.1737
  847MPD2    C512498   1.011   4.119  14.704  0.6546  0.2939  0.2568
  847MPD2     H12499   1.034   4.459  14.864  1.4423 -0.4683  0.9444
  847MPD2    H112500   1.143   4.035  14.842  0.8843  0.0369  1.7557
  847MPD2    H212501   0.912   4.209  14.546 -0.6337 -1.0863 -0.2280
  847MPD2    H312502   1.006   4.020  14.661  0.3564 -0.4061  1.8866
  847MPD2     N12503   1.163   4.277  15.007  0.1124 -0.3877  0.1207
  847MPD2    H512504   1.138   4.367  15.046  0.3783  0.3951 -1.5367
  847MPD2    N112505   0.906   4.470  14.651 -0.4761 -0.0177  0.0758
  847MPD2    H712506   0.919   4.553  14.709 -0.4745 -0.7479  1.1258
  848MPD2     C12507   3.044   1.490  16.857 -0.1737  0.2226 -0.1889
  848MPD2    C112508   3.065   1.596  16.944 -0.0643 -0.6022  0.5958
  848MPD2    C212509   3.085   1.724  16.892  0.5572  0.1092 -0.3990
  848MPD2    C312510   3.075   1.748  16.751 -0.7961 -0.6946 -0.0818
  848MPD2    C412511   3.033   1.644  16.673 -0.5030  0.1835  0.3967
  848MPD2    C512512   3.024   1.519  16.726 -0.5682  0.0716  0.5560
  848MPD2     H12513   3.114   1.806  16.957  0.9049  0.4262 -0.9394
  848MPD2    H112514   3.023   1.660  16.566 -1.5942  2.4122  0.8232
  848MPD2    H212515   3.034   1.391  16.899  0.3135 -0.2639 -1.2298
  848MPD2    H312516   3.000   1.445  16.651  0.3921 -0.6260  0.9447
  848MPD2     N12517   3.076   1.877  16.691  0.4221  0.0910  0.7700
  848MPD2    H512518   3.049   1.887  16.594 -1.1471  2.0059  1.4159
  848MPD2    N112519   3.079   1.580  17.077 -0.5549 -0.0529  0.3964
  848MPD2    H712520   3.105   1.664  17.128 -0.3519 -0.7670  1.4641
  849MPD2     C12521   2.592   1.295  14.824  0.1275  0.0927 -1.1063
  849MPD2    C112522   2.631   1.301  14.689 -0.1448  0.5446  0.0666
  849MPD2    C212523   2.728   1.388  14.649 -0.6809  0.0160 -0.4987
  849MPD2    C312524   2.779   1.473  14.746  0.0170  0.3246  0.4314
  849MPD2    C412525   2.738   1.461  14.873  0.0307  1.1579 -0.5442
  849MPD2    C512526   2.650   1.372  14.918 -0.7108 -0.7661 -0.2603
  849MPD2     H12527   2.761   1.376  14.547  1.1532  0.3405  0.0601
  849MPD2    H112528   2.805   1.491  14.952 -0.3118  0.2497  0.1008
  849MPD2    H212529   2.516   1.227  14.860  0.7088  0.1311  0.1997
  849MPD2    H312530   2.634   1.359  15.024  2.6909  1.9907  0.5849
  849MPD2     N12531   2.881   1.573  14.726 -0.1199  0.1180 -0.0170
  849MPD2    H512532   2.937   1.609  14.802  0.8533 -0.7723 -0.3197
  849MPD2    N112533   2.571   1.215  14.592  0.3097 -0.3979  0.0790
  849MPD2    H712534   2.615   1.226  14.502  1.4864  2.9242  1.0497
  850MPD2     C12535   0.707   0.336  14.664 -0.4502  0.0429 -0.0872
  850MPD2    C112536   0.693   0.373  14.792 -0.0576  0.5692  0.4833
  850MPD2    C212537   0.803   0.375  14.879 -0.6446  0.1590 -0.2058
  850MPD2    C312538   0.930   0.325  14.844  0.1499 -0.5110 -0.4550
  850MPD2    C412539   0.936   0.277  14.718  0.0539 -0.1757 -0.4804
  850MPD2    C512540   0.829   0.277  14.630 -0.3929 -0.4485 -0.4091
  850MPD2     H12541   0.786   0.411  14.980  0.0794  0.3944 -0.1674
  850MPD2    H112542   1.028   0.244  14.671  1.1654  0.7708  1.0368
  850MPD2    H212543   0.626   0.336  14.592 -1.2872 -0.6008  0.8375
  850MPD2    H312544   0.844   0.250  14.526 -0.9444 -0.8041 -0.4003
  850MPD2     N12545   1.052   0.321  14.927  0.3993  0.5409 -0.1472
  850MPD2    H512546   1.141   0.287  14.891 -0.0685  0.3834 -1.1473
  850MPD2    N112547   0.559   0.390  14.844 -0.3915 -0.2275 -0.3120
  850MPD2    H712548   0.488   0.354  14.782 -1.1403  2.7568 -1.1944
  851MPD2     C12549   0.450   0.009  15.457  0.4792 -0.8458  0.2550
  851MPD2    C112550   0.426   4.730  15.316 -0.3246 -0.7966 -0.2904
  851MPD2    C212551   0.487   4.622  15.252 -1.0658  0.0308  0.1846
  851MPD2    C312552   0.570   4.536  15.319  0.3837 -0.1021 -0.0805
  851MPD2    C412553   0.598   4.554  15.452 -0.4907 -0.1271 -0.8527
  851MPD2    C512554   0.534   4.655  15.522  0.0261 -0.2814 -0.5172
  851MPD2     H12555   0.475   4.602  15.146  2.0861 -1.7895  0.1867
  851MPD2    H112556   0.681   4.506  15.503 -0.2030  1.0242 -0.2367
  851MPD2    H212557   0.408   0.093  15.513 -0.8856 -0.5836 -1.1627
  851MPD2    H312558   0.559   4.670  15.626  1.0605 -0.3654 -0.7576
  851MPD2     N12559   0.643   4.440  15.241 -0.8766 -0.4752  0.2437
  851MPD2    H512560   0.625   4.443  15.141  0.3355 -1.1570  0.0092
  851MPD2    N112561   0.339   0.080  15.253 -0.2878 -0.5137  0.0441
  851MPD2    H712562   0.290   0.135  15.322  0.6022 -0.1931  0.4221
  852MPD2     C12563   0.586   2.118  10.358 -0.2401  0.2612  0.4944
  852MPD2    C112564   0.620   2.165  10.487 -0.7465 -0.3603  0.2689
  852MPD2    C212565   0.635   2.300  10.507  0.9015  0.0549 -0.7147
  852MPD2    C312566   0.620   2.391  10.398  0.2241 -0.0132  0.3468
  852MPD2    C412567   0.591   2.343  10.272 -0.2739  0.2138 -0.1156
  852MPD2    C512568   0.585   2.208  10.258  0.4940 -0.0916  0.9849
  852MPD2     H12569   0.674   2.325  10.605 -0.8692  1.1466 -0.2899
  852MPD2    H112570   0.583   2.399  10.180 -0.4239  1.2196  0.5111
  852MPD2    H212571   0.576   2.013  10.333  2.3495  0.2649 -0.5793
  852MPD2    H312572   0.562   2.169  10.159 -1.6026 -0.2124  1.5287
  852MPD2     N12573   0.650   2.529  10.420  0.2769 -0.3162  0.4397
  852MPD2    H512574   0.679   2.554  10.514  3.7724 -1.3853 -0.3651
  852MPD2    N112575   0.608   2.082  10.600  0.2506 -0.4801 -0.0072
  852MPD2    H712576   0.625   2.120  10.692  0.1223  2.0823 -1.0288
  853MPD2     C12577   2.569   1.653  12.516  0.0359  0.5288  0.2619
  853MPD2    C112578   2.433   1.615  12.497  0.2389 -0.1744 -0.4664
  853MPD2    C212579   2.408   1.561  12.371 -0.4683  0.0795 -0.1485
  853MPD2    C312580   2.507   1.511  12.282 -0.1030  0.3837 -0.1315
  853MPD2    C412581   2.643   1.531  12.313 -0.3650 -0.0941 -0.3383
  853MPD2    C512582   2.665   1.607  12.427  0.1319  0.5658 -0.3993
  853MPD2     H12583   2.307   1.556  12.332 -0.2594 -2.8066 -0.3076
  853MPD2    H112584   2.724   1.491  12.254 -0.8498 -1.8242  0.1786
  853MPD2    H212585   2.606   1.704  12.605  0.4090 -1.6006  1.3273
  853MPD2    H312586   2.768   1.637  12.443  0.0570 -0.2912  1.7530
  853MPD2     N12587   2.480   1.461  12.152 -0.0959 -0.1262  0.2942
  853MPD2    H512588   2.555   1.434  12.088  0.1963 -0.3391  0.7315
  853MPD2    N112589   2.337   1.651  12.595  0.0383  0.4156 -0.0252
  853MPD2    H712590   2.360   1.718  12.668 -2.1375  0.0253  1.0428
  854MPD2     C12591   3.490   2.285  13.540  0.0312 -0.2168 -0.2052
  854MPD2    C112592   3.494   2.254  13.407 -0.1301 -0.7238 -0.7100
  854MPD2    C212593   3.546   2.130  13.372  0.5857 -0.1328 -0.2507
  854MPD2    C312594   3.596   2.044  13.468  0.7718  0.4637  0.5402
  854MPD2    C412595   3.587   2.075  13.596 -0.4226  0.0382 -0.0382
  854MPD2    C512596   3.537   2.199  13.633  0.3338 -0.0023  0.1112
  854MPD2     H12597   3.564   2.097  13.271  0.9783 -0.5811 -0.0362
  854MPD2    H112598   3.625   2.014  13.677  0.9081  0.7351 -0.1284
  854MPD2    H212599   3.440   2.372  13.582 -0.0498 -1.5158  2.4395
  854MPD2    H312600   3.539   2.224  13.739 -0.4094  0.6862 -0.0384
  854MPD2     N12601   3.664   1.924  13.445  0.4982  0.6508 -0.0244
  854MPD2    H512602   3.699   1.880  13.530 -0.2343 -0.1074 -0.1119
  854MPD2    N112603   3.446   2.352  13.319  0.1773 -0.7652 -0.4341
  854MPD2    H712604   3.404   2.430  13.369  3.0426 -0.2088  1.0812
  855MPD2     C12605   4.239   1.899  13.915  0.5406  0.2263  0.2259
  855MPD2    C112606   4.182   1.772  13.926 -0.4343 -0.3002  0.1185
  855MPD2    C212607   4.129   1.699  13.821 -0.4883 -0.4792 -0.0594
  855MPD2    C312608   4.124   1.764  13.698  0.4363  0.4613  0.2065
  855MPD2    C412609   4.170   1.891  13.688  0.0308 -0.3473  0.2432
  855MPD2    C512610   4.225   1.963  13.796  0.4477 -1.3819  0.6460
  855MPD2     H12611   4.080   1.604  13.836 -0.3449 -0.8120 -1.6511
  855MPD2    H112612   4.156   1.933  13.589 -1.0508 -0.7320  0.2328
  855MPD2    H212613   4.275   1.961  13.995 -0.1315 -1.2520  1.6696
  855MPD2    H312614   4.264   2.063  13.782 -1.9384 -0.4533  0.6293
  855MPD2     N12615   4.051   1.718  13.582  0.0221 -0.2231  0.1231
  855MPD2    H512616   4.029   1.778  13.503  0.3614  0.3122  0.4343
  855MPD2    N112617   4.165   1.715  14.057 -0.5013  0.0989  0.1385
  855MPD2    H712618   4.109   1.631  14.066  1.5010 -1.5452 -2.6993
  856MPD2     C12619   1.437   2.354  14.611  0.3809 -0.1420  0.1199
  856MPD2    C112620   1.424   2.477  14.539 -0.9658 -0.4039 -1.3680
  856MPD2    C212621   1.315   2.504  14.472  0.4969  0.5358  0.4037
  856MPD2    C312622   1.218   2.407  14.457  0.1534  0.1671 -0.7527
  856MPD2    C412623   1.227   2.286  14.524 -0.3084  0.1726  0.2858
  856MPD2    C512624   1.341   2.260  14.599  0.9189 -0.5623  0.0757
  856MPD2     H12625   1.311   2.601  14.425 -2.0464  0.6111  0.8011
  856MPD2    H112626   1.141   2.220  14.528 -0.3075  0.1039 -0.7099
  856MPD2    H212627   1.526   2.322  14.664  0.8799  1.6280  0.3301
  856MPD2    H312628   1.354   2.160  14.640 -1.1998 -1.6988 -2.0052
  856MPD2     N12629   1.100   2.442  14.392 -0.3098 -0.1092  0.7241
  856MPD2    H512630   1.014   2.390  14.411  1.2266 -2.1213  2.1658
  856MPD2    N112631   1.527   2.574  14.532 -0.3552 -0.3367  0.1190
  856MPD2    H712632   1.516   2.649  14.464  2.0911 -1.1599 -1.2193
  857MPD2     C12633   2.937   4.672  13.113 -0.1351 -1.0203  0.3976
  857MPD2    C112634   3.060   4.695  13.058 -0.5618  0.3974 -0.1592
  857MPD2    C212635   3.116   0.084  13.074  0.0487 -0.0812  0.7969
  857MPD2    C312636   3.042   0.182  13.137  0.2814  0.0073  0.3724
  857MPD2    C412637   2.929   0.149  13.211 -0.3490  0.1739 -0.5947
  857MPD2    C512638   2.877   0.027  13.200 -0.6321 -0.3032 -0.1896
  857MPD2     H12639   3.213   0.113  13.036  0.2679 -1.4663  0.2932
  857MPD2    H112640   2.884   0.231  13.265  0.5013 -0.5796  1.2802
  857MPD2    H212641   2.883   4.578  13.116  0.4298 -1.3612 -0.1115
  857MPD2    H312642   2.783   4.736  13.247  0.0253  0.9435  1.8921
  857MPD2     N12643   3.096   0.316  13.134  0.6399 -0.5276  0.0542
  857MPD2    H512644   3.186   0.327  13.088  0.5303 -1.1755 -0.3260
  857MPD2    N112645   3.126   4.588  12.997 -0.1571  0.0365 -0.1567
  857MPD2    H712646   3.064   4.509  12.981 -2.2266  1.6281 -0.0657
  858MPD2     C12647   3.591   4.516  16.689  0.3796 -0.3697 -0.0895
  858MPD2    C112648   3.605   4.379  16.691  0.3964 -0.0887  0.4178
  858MPD2    C212649   3.614   4.319  16.816 -0.0597  0.3772  0.0117
  858MPD2    C312650   3.619   4.384  16.935  0.2274 -0.1229 -0.0382
  858MPD2    C412651   3.614   4.522  16.930 -0.0583  0.3990 -0.1153
  858MPD2    C512652   3.589   4.579  16.812  0.7840 -0.1261 -0.2200
  858MPD2     H12653   3.621   4.211  16.821 -1.0006  0.3005 -0.2545
  858MPD2    H112654   3.616   4.574  17.025 -1.2973 -1.3330  0.8598
  858MPD2    H212655   3.568   4.574  16.601 -0.3122 -0.5271 -0.0112
  858MPD2    H312656   3.568   4.685  16.813  1.5843  0.0214  0.6590
  858MPD2     N12657   3.634   4.310  17.063 -0.2329 -0.5574 -0.1709
  858MPD2    H512658   3.620   4.366  17.146 -0.1789  0.5012 -0.8789
  858MPD2    N112659   3.596   4.301  16.567 -0.0216 -0.0285 -0.6087
  858MPD2    H712660   3.541   4.345  16.494 -2.5329 -1.8430  0.1709
  859MPD2     C12661   2.235   1.729  16.171 -0.7363 -0.4321  0.2806
  859MPD2    C112662   2.218   1.646  16.067 -0.5138 -0.4019  0.2041
  859MPD2    C212663   2.165   1.516  16.084 -0.2173 -0.2353  0.9273
  859MPD2    C312664   2.121   1.481  16.213 -0.0514  0.4375 -0.4280
  859MPD2    C412665   2.156   1.560  16.318 -0.0408 -0.0698  0.5178
  859MPD2    C512666   2.215   1.679  16.297  0.0624  0.1024 -0.1891
  859MPD2     H12667   2.152   1.438  16.011 -0.6939  0.5234  0.2109
  859MPD2    H112668   2.133   1.536  16.421  0.6476  3.0501  1.3917
  859MPD2    H212669   2.289   1.823  16.162 -0.3441 -0.5667  1.3257
  859MPD2    H312670   2.244   1.738  16.384 -2.0435 -0.1979  0.7368
  859MPD2     N12671   2.063   1.360  16.238 -0.0615  0.3434  0.4475
  859MPD2    H512672   2.065   1.334  16.336 -0.7496  0.6947  0.5571
  859MPD2    N112673   2.257   1.694  15.941 -0.2640  0.0457  0.5441
  859MPD2    H712674   2.304   1.784  15.933  0.2821 -0.3106 -0.2891
  860MPD2     C12675   4.464   1.708  11.876 -0.1105  0.4005 -0.1478
  860MPD2    C112676   4.473   1.740  12.011  0.2961 -0.0208 -0.7652
  860MPD2    C212677   4.373   1.716  12.097 -0.2777  0.2153 -0.4734
  860MPD2    C312678   4.253   1.669  12.048  0.2249 -0.5602 -0.1196
  860MPD2    C412679   4.237   1.640  11.913  0.1325 -0.0745 -0.7111
  860MPD2    C512680   4.341   1.650  11.831 -0.1684  0.6026  0.8865
  860MPD2     H12681   4.383   1.719  12.205 -2.1777  1.9808 -0.3488
  860MPD2    H112682   4.148   1.589  11.877  2.4606 -4.0592 -0.7721
  860MPD2    H212683   4.549   1.723  11.812 -0.0054  2.9880  0.6116
  860MPD2    H312684   4.325   1.630  11.725  2.7376  0.4578  0.4781
  860MPD2     N12685   4.156   1.647  12.143  0.0691  0.7589  0.6466
  860MPD2    H512686   4.163   1.690  12.234 -2.3564  0.6636  0.8771
  860MPD2    N112687   4.589   1.799  12.071 -0.8465  0.1182  0.5263
  860MPD2    H712688   4.598   1.798  12.172  0.8360 -0.5676  0.3746
  861MPD2     C12689   3.792   4.062  10.949 -0.2149 -0.0028 -0.4168
  861MPD2    C112690   3.785   4.198  10.967  0.5783  0.2879  1.3022
  861MPD2    C212691   3.706   4.277  10.885 -0.0757  0.1601 -0.3133
  861MPD2    C312692   3.631   4.214  10.790  0.3554 -0.7747 -0.0512
  861MPD2    C412693   3.639   4.082  10.768  0.1231 -0.2207 -0.4536
  861MPD2    C512694   3.724   4.008  10.843 -0.5949 -0.1861 -0.1348
  861MPD2     H12695   3.690   4.383  10.905  0.3099 -0.3040  2.4612
  861MPD2    H112696   3.575   4.043  10.689 -1.1629  0.7967  0.0921
  861MPD2    H212697   3.853   3.994  11.008 -0.2732  0.3970  0.1006
  861MPD2    H312698   3.736   3.904  10.815 -0.0478 -0.1333 -0.0995
  861MPD2     N12699   3.530   4.284  10.721  0.4179  0.0461  0.1665
  861MPD2    H512700   3.457   4.235  10.670 -0.5171 -0.5492  2.0708
  861MPD2    N112701   3.845   4.271  11.077  0.2962  0.0833 -0.1935
  861MPD2    H712702   3.838   4.372  11.071  1.5655  0.1566 -0.4004
  862MPD2     C12703   2.796   4.241  10.720  0.6461  0.0176  0.1154
  862MPD2    C112704   2.913   4.216  10.790  0.1486  0.2336  1.0338
  862MPD2    C212705   2.916   4.101  10.868  0.7575 -0.8382 -0.8541
  862MPD2    C312706   2.815   4.011  10.866 -0.1802  0.0760 -0.0314
  862MPD2    C412707   2.703   4.033  10.796  0.6905  0.5560  0.4801
  862MPD2    C512708   2.695   4.153  10.725  0.2232  0.3170  0.1843
  862MPD2     H12709   3.000   4.093  10.936 -0.4624 -1.5801  0.5309
  862MPD2    H112710   2.618   3.965  10.801  1.0811 -0.0723 -1.2226
  862MPD2    H212711   2.774   4.327  10.658  1.4607  0.6053  0.6452
  862MPD2    H312712   2.604   4.186  10.676 -0.2960 -0.4380  0.6383
  862MPD2     N12713   2.826   3.903  10.956 -0.4967  0.4530  0.4114
  862MPD2    H512714   2.901   3.906  11.025  0.7170  0.7439 -0.9054
  862MPD2    N112715   3.033   4.286  10.766  0.2323  0.1979 -0.3676
  862MPD2    H712716   3.115   4.256  10.817 -0.5616 -1.0636  0.1826
  863MPD2     C12717   1.978   3.008  16.598 -0.4437  0.4245  1.1982
  863MPD2    C112718   1.933   2.953  16.715 -0.1908 -0.7399  0.5135
  863MPD2    C212719   2.018   2.882  16.802 -0.1364  0.2007 -0.4344
  863MPD2    C312720   2.154   2.887  16.770  0.3883  0.2997 -0.6655
  863MPD2    C412721   2.197   2.938  16.653  0.2898  0.3023 -0.8099
  863MPD2    C512722   2.105   2.987  16.558 -0.1350 -0.2090 -0.5387
  863MPD2     H12723   1.985   2.845  16.898 -1.1556 -0.1341 -0.9188
  863MPD2    H112724   2.298   2.940  16.615  0.4964  2.0445 -0.1414
  863MPD2    H212725   1.912   3.052  16.524  0.7814  0.0560 -0.1131
  863MPD2    H312726   2.139   3.026  16.463 -0.7603  0.7832 -0.3457
  863MPD2     N12727   2.257   2.840  16.851 -0.3273 -0.2445 -0.1371
  863MPD2    H512728   2.353   2.858  16.821  0.2480 -2.2198  0.5762
  863MPD2    N112729   1.796   2.976  16.743 -0.1191  0.5820  0.1436
  863MPD2    H712730   1.744   3.017  16.666 -0.4937  2.3029  1.3079
  864MPD2     C12731   2.364   3.768  17.403 -0.1665 -0.0230 -0.0534
  864MPD2    C112732   2.430   3.726  17.296  0.0957 -0.8077 -0.2151
  864MPD2    C212733   2.527   3.810  17.236 -0.4849 -0.3249  0.2017
  864MPD2    C312734   2.554   3.934  17.295  0.5380 -0.1834 -0.0380
  864MPD2    C412735   2.483   3.971  17.405  0.1107 -0.6676 -0.6081
  864MPD2    C512736   2.392   3.884  17.453  0.0975 -0.4037 -0.5682
  864MPD2     H12737   2.575   3.781  17.143 -0.4509  1.2624 -0.2764
  864MPD2    H112738   2.503   4.059  17.466  2.2132 -0.6903 -1.2402
  864MPD2    H212739   2.293   3.708  17.459 -1.0946  0.5701 -0.5879
  864MPD2    H312740   2.341   3.901  17.548  2.5611  0.8755  0.5239
  864MPD2     N12741   2.647   4.027  17.242 -0.7000 -0.3993  0.0885
  864MPD2    H512742   2.648   4.112  17.297 -0.4237  1.3436 -2.6672
  864MPD2    N112743   2.409   3.592  17.251 -0.1204  0.1339  0.0330
  864MPD2    H712744   2.342   3.532  17.298  0.3778 -0.4531  0.0009
  865MPD2     C12745   2.373   4.148  16.829  0.2077  0.1911 -0.1380
  865MPD2    C112746   2.484   4.215  16.788 -0.1535  0.4118 -0.6588
  865MPD2    C212747   2.522   4.327  16.855  0.2756  0.2902  0.1185
  865MPD2    C312748   2.461   4.371  16.974 -0.1429 -0.9346  1.0748
  865MPD2    C412749   2.341   4.315  17.003  0.7474  0.3467  0.2628
  865MPD2    C512750   2.300   4.204  16.928 -0.7478 -0.2690 -0.3590
  865MPD2     H12751   2.608   4.384  16.820  1.8012 -1.4748  0.9937
  865MPD2    H112752   2.288   4.339  17.094 -1.8893  0.4009 -1.2932
  865MPD2    H212753   2.328   4.055  16.798  0.2559  0.2336 -0.3343
  865MPD2    H312754   2.214   4.147  16.963  0.2641 -2.2507 -1.0728
  865MPD2     N12755   2.513   4.466  17.062 -0.5441 -0.6702  0.1639
  865MPD2    H512756   2.443   4.529  17.101 -2.8121 -1.7630 -2.1640
  865MPD2    N112757   2.552   4.170  16.674 -0.3857  0.2557 -0.4480
  865MPD2    H712758   2.527   4.074  16.651  0.4008 -0.2406  0.7902
  866MPD2     C12759   4.547   4.531  10.796 -0.1584  0.4802  0.0915
  866MPD2    C112760   4.504   4.602  10.688 -0.0205 -0.2281  0.1654
  866MPD2    C212761   4.377   4.656  10.684  0.0867 -0.1416  0.5211
  866MPD2    C312762   4.285   4.625  10.780 -0.6694  0.2187 -0.2629
  866MPD2    C412763   4.322   4.546  10.888 -0.3687 -0.4957  0.2608
  866MPD2    C512764   4.455   4.506  10.898 -0.2687  0.4325 -0.2649
  866MPD2     H12765   4.345   4.712  10.597  1.5255  0.6667  0.5054
  866MPD2    H112766   4.260   4.518  10.972 -1.4101 -2.6227 -1.2004
  866MPD2    H212767   4.643   4.480  10.792  0.1472  1.0040  0.6970
  866MPD2    H312768   4.490   4.443  10.978  0.0236 -0.2205 -0.9090
  866MPD2     N12769   4.148   4.660  10.765 -0.6767 -0.0339  0.0270
  866MPD2    H512770   4.089   4.624  10.840 -0.9347 -0.1585 -0.2363
  866MPD2    N112771   4.588   4.618  10.575  0.1029 -0.3540  0.5956
  866MPD2    H712772   4.682   4.584  10.586  0.3274  0.4651  1.1808
  867MPD2     C12773   1.081   4.493  16.390 -0.4619 -0.0827 -0.3068
  867MPD2    C112774   1.092   4.373  16.466  0.0345  0.4618  0.4035
  867MPD2    C212775   1.056   4.381  16.600  0.2781 -0.1601  0.0937
  867MPD2    C312776   1.023   4.508  16.658  0.0484 -0.3152  0.8727
  867MPD2    C412777   1.030   4.620  16.579 -0.0129  0.7489  0.9345
  867MPD2    C512778   1.051   4.610  16.446  0.2489  0.1965  0.1774
  867MPD2     H12779   1.060   4.291  16.662 -2.1671  0.1763  0.7494
  867MPD2    H112780   1.012   4.714  16.629 -0.4538  0.9379  0.4111
  867MPD2    H212781   1.109   4.503  16.286 -1.8382  0.5094 -0.6230
  867MPD2    H312782   1.051   4.698  16.384 -0.2500  0.2515  0.2531
  867MPD2     N12783   0.990   4.518  16.795 -0.0114 -0.3955  0.7079
  867MPD2    H512784   0.997   4.612  16.833  2.3063 -0.3563  0.1877
  867MPD2    N112785   1.142   4.252  16.405 -0.3373 -0.1540 -0.4534
  867MPD2    H712786   1.168   4.258  16.307  3.9464 -1.9117  0.5951
  868MPD2     C12787   3.303   3.565  13.466 -0.0575 -0.0689  0.5885
  868MPD2    C112788   3.323   3.468  13.560 -0.7752 -0.0216  0.0875
  868MPD2    C212789   3.264   3.478  13.684  0.8946  0.6469 -0.8262
  868MPD2    C312790   3.167   3.568  13.709 -0.2803  0.2641  0.9521
  868MPD2    C412791   3.140   3.661  13.614  0.3289 -0.0092 -0.8197
  868MPD2    C512792   3.209   3.663  13.499  0.1573  1.0499  0.1849
  868MPD2     H12793   3.284   3.397  13.754 -1.1430  0.2070 -0.7565
  868MPD2    H112794   3.059   3.733  13.617  0.9583  0.6758 -0.2198
  868MPD2    H212795   3.333   3.548  13.363 -0.0784  1.3623  0.3457
  868MPD2    H312796   3.179   3.728  13.418  0.2479  0.0578 -0.6515
  868MPD2     N12797   3.106   3.565  13.833  0.4353  0.2434  1.1056
  868MPD2    H512798   3.140   3.493  13.896 -0.8732 -0.9997  0.3875
  868MPD2    N112799   3.415   3.363  13.524  0.3005  0.3677 -0.3594
  868MPD2    H712800   3.457   3.380  13.433  2.2334 -0.7964  0.3079
  869MPD2     C12801   3.914   1.245   1.296 -0.0971 -0.6877 -0.2336
  869MPD2    C112802   4.005   1.203   1.196 -0.1135  0.3311 -0.3613
  869MPD2    C212803   4.110   1.288   1.174 -0.3810 -0.4969  0.3465
  869MPD2    C312804   4.133   1.406   1.241 -0.1508 -0.0112  0.0114
  869MPD2    C412805   4.048   1.439   1.342 -0.0572 -0.2319 -0.6693
  869MPD2    C512806   3.935   1.366   1.363  0.5014  0.0903 -0.5132
  869MPD2     H12807   4.193   1.242   1.121 -2.2796 -0.0884 -3.0424
  869MPD2    H112808   4.058   1.535   1.391 -0.5150 -1.1206  1.1881
  869MPD2    H212809   3.826   1.194   1.333 -1.2008 -0.0379 -1.9757
  869MPD2    H312810   3.853   1.390   1.430  2.9002 -1.7022  3.1085
  869MPD2     N12811   4.242   1.497   1.206 -0.0892  0.3423 -0.1017
  869MPD2    H512812   4.258   1.576   1.268 -3.4898  0.8138  0.1477
  869MPD2    N112813   3.988   1.079   1.135  0.1989  0.1072 -0.3565
  869MPD2    H712814   3.905   1.036   1.176  1.6298 -0.7594  1.6483
  870MPD2     C12815   3.850   4.235   1.913 -0.8211  0.0865  0.3121
  870MPD2    C112816   3.970   4.310   1.919 -0.6548  0.7392  0.0857
  870MPD2    C212817   3.963   4.451   1.935  0.0611 -0.9155  0.0845
  870MPD2    C312818   3.836   4.511   1.929  0.3394  0.0323  0.3189
  870MPD2    C412819   3.723   4.434   1.939 -0.0560  0.0033 -0.3685
  870MPD2    C512820   3.732   4.295   1.931 -0.0122  0.0019  0.3753
  870MPD2     H12821   4.053   4.511   1.927  0.2794 -1.0331  1.6747
  870MPD2    H112822   3.626   4.474   1.964 -0.3817 -0.6466 -0.5817
  870MPD2    H212823   3.857   4.129   1.891  0.8506 -0.7413  4.7604
  870MPD2    H312824   3.643   4.232   1.928 -0.0889  0.0304  1.9145
  870MPD2     N12825   3.832   4.653   1.916  0.1287  0.5319 -0.2116
  870MPD2    H512826   3.916   4.710   1.912  0.3299  0.3336  1.3618
  870MPD2    N112827   4.086   4.236   1.914 -0.1216  0.0135 -0.6722
  870MPD2    H712828   4.069   4.135   1.911 -1.0646  0.2154 -3.0160
  871MPD2     C12829   0.324   4.552  16.753 -0.2831  1.1784 -0.4507
  871MPD2    C112830   0.302   4.472  16.859  0.2289 -0.1380  0.2969
  871MPD2    C212831   0.293   4.339  16.852 -0.8740  0.4422  0.2284
  871MPD2    C312832   0.310   4.282  16.723 -0.5164  1.0324  0.6530
  871MPD2    C412833   0.332   4.357  16.610  0.1607 -0.1056  0.3659
  871MPD2    C512834   0.335   4.496  16.626  0.3093  0.4452  0.1157
  871MPD2     H12835   0.261   4.278  16.936  0.1469  2.6466  2.2049
  871MPD2    H112836   0.344   4.318  16.510 -1.3787  1.3788 -0.3881
  871MPD2    H212837   0.334   4.659  16.769 -0.2420  1.0731  0.2325
  871MPD2    H312838   0.348   4.559  16.538 -0.7698  1.0847  0.4103
  871MPD2     N12839   0.320   4.142  16.730  1.0975 -0.2395  0.5002
  871MPD2    H512840   0.302   4.095  16.818 -0.1638  3.1930  2.0434
  871MPD2    N112841   0.282   4.550  16.981 -0.0780  0.1322 -0.8754
  871MPD2    H712842   0.284   4.649  16.958  2.1806  0.1677 -0.5129
  872MPD2     C12843   1.089   2.309  13.937 -0.0618 -0.0726 -0.0846
  872MPD2    C112844   1.131   2.272  14.060  0.2134 -0.0164  0.0608
  872MPD2    C212845   1.042   2.206  14.145 -0.0525  0.3203 -0.9331
  872MPD2    C312846   0.916   2.173  14.111 -0.1151  0.2716 -0.3927
  872MPD2    C412847   0.876   2.206  13.986 -0.2334 -0.6130  0.5093
  872MPD2    C512848   0.961   2.271  13.901  0.2717  0.4734 -0.5725
  872MPD2     H12849   1.080   2.178  14.242 -0.9210  0.9045 -0.4311
  872MPD2    H112850   0.778   2.185  13.945 -0.0843 -2.8620  1.2871
  872MPD2    H212851   1.159   2.354  13.867 -0.3455 -0.6837 -0.7704
  872MPD2    H312852   0.918   2.285  13.802  1.8279 -0.0327 -1.3330
  872MPD2     N12853   0.836   2.094  14.202 -0.3420 -0.2095 -0.0081
  872MPD2    H512854   0.877   2.061  14.289  1.0889  0.7850 -0.3079
  872MPD2    N112855   1.266   2.302  14.107  0.0540  0.2883 -0.7680
  872MPD2    H712856   1.292   2.251  14.190 -0.2233  1.0180 -0.2279
  873MPD2     C12857   3.273   1.159   1.413  0.9622  0.2057 -0.4705
  873MPD2    C112858   3.151   1.197   1.455  0.0309 -0.7563 -0.3036
  873MPD2    C212859   3.057   1.103   1.469 -0.3163  0.2229  0.3371
  873MPD2    C312860   3.070   0.972   1.434 -0.4214  0.1722 -0.2182
  873MPD2    C412861   3.181   0.940   1.361 -0.0462  0.2117  0.1628
  873MPD2    C512862   3.290   1.023   1.369 -0.3835  0.6982  0.6376
  873MPD2     H12863   2.962   1.137   1.511 -0.3140 -1.6009  1.7870
  873MPD2    H112864   3.202   0.838   1.331 -1.9650  0.2235 -1.1770
  873MPD2    H212865   3.353   1.233   1.414  1.4208 -0.3143  2.6424
  873MPD2    H312866   3.390   0.990   1.345 -0.5738  0.4349  0.2098
  873MPD2     N12867   2.964   0.877   1.449 -0.9531 -0.3123 -0.2446
  873MPD2    H512868   2.973   0.799   1.384 -1.4012  0.7949 -1.6309
  873MPD2    N112869   3.132   1.335   1.477 -0.4353  0.4392 -0.3304
  873MPD2    H712870   3.217   1.390   1.483 -2.6705  3.9474 -0.4521
  874MPD2     C12871   2.352   2.119  16.687  0.3017  0.0383 -0.2760
  874MPD2    C112872   2.439   2.072  16.776  0.3416 -0.0598 -0.3902
  874MPD2    C212873   2.571   2.096  16.748  0.1273 -0.6461  0.1768
  874MPD2    C312874   2.615   2.156  16.628  0.8950  0.8593  0.3238
  874MPD2    C412875   2.519   2.203  16.539  0.1769  0.2202  0.4127
  874MPD2    C512876   2.387   2.193  16.576 -0.5466 -0.0892  0.2696
  874MPD2     H12877   2.645   2.054  16.816 -0.2469  0.7094  1.4334
  874MPD2    H112878   2.551   2.246  16.446  0.0902 -0.5744  0.0120
  874MPD2    H212879   2.248   2.099  16.708  0.1482 -0.5729 -1.6470
  874MPD2    H312880   2.313   2.243  16.515  1.3885  0.2207 -1.8032
  874MPD2     N12881   2.751   2.157  16.606 -0.1005 -0.2518  0.0910
  874MPD2    H512882   2.815   2.114  16.672 -0.4518 -1.1422 -0.1470
  874MPD2    N112883   2.398   1.990  16.887 -0.0243  0.6304 -0.6549
  874MPD2    H712884   2.299   1.993  16.911  0.7225  1.5910  2.4167
  875MPD2     C12885   3.560   0.342  14.849  1.0984  0.0304  0.5209
  875MPD2    C112886   3.471   0.442  14.811  0.1686  0.5172  0.1353
  875MPD2    C212887   3.426   0.525  14.917 -0.2811 -0.0639 -0.4385
  875MPD2    C312888   3.494   0.516  15.035  0.2815 -0.0593  0.0039
  875MPD2    C412889   3.583   0.413  15.065  0.1936 -0.1776 -0.1832
  875MPD2    C512890   3.611   0.322  14.971  0.7022  0.3308  0.1849
  875MPD2     H12891   3.344   0.594  14.903 -1.1584 -0.8139  0.9637
  875MPD2    H112892   3.642   0.404  15.155  1.9342 -2.0660 -1.5170
  875MPD2    H212893   3.587   0.261  14.782 -1.5264  0.4980 -1.1017
  875MPD2    H312894   3.690   0.250  14.988  1.4677  1.6148  2.0740
  875MPD2     N12895   3.483   0.612  15.142  0.1868  0.0238  0.3573
  875MPD2    H512896   3.554   0.604  15.214  2.1801 -0.5799 -1.6689
  875MPD2    N112897   3.410   0.443  14.684 -0.9570 -0.1592  0.1650
  875MPD2    H712898   3.342   0.514  14.659 -1.4714 -0.3476  1.0165
  876MPD2     C12899   2.516   1.754  16.509 -0.1737  0.4418  0.5657
  876MPD2    C112900   2.607   1.707  16.422  0.3605 -0.6974 -0.1352
  876MPD2    C212901   2.682   1.597  16.460  0.0533  0.2010 -0.0031
  876MPD2    C312902   2.652   1.529  16.578 -0.0281  0.0451  0.1390
  876MPD2    C412903   2.552   1.570  16.663  0.8934 -0.4113  0.0222
  876MPD2    C512904   2.497   1.686  16.624 -0.1301  0.7235  0.5457
  876MPD2     H12905   2.768   1.562  16.403 -1.0538  1.1054 -2.2108
  876MPD2    H112906   2.522   1.520  16.754  2.4631 -0.0713  0.7396
  876MPD2    H212907   2.453   1.841  16.491  0.4230  0.5997 -0.7446
  876MPD2    H312908   2.422   1.734  16.686  1.1841 -0.1345  2.7962
  876MPD2     N12909   2.730   1.410  16.608 -0.1071  0.1447 -0.3934
  876MPD2    H512910   2.787   1.374  16.532 -1.3965  0.2670 -1.4195
  876MPD2    N112911   2.628   1.772  16.302 -0.2985 -0.3909  0.0013
  876MPD2    H712912   2.565   1.849  16.282 -1.4630 -0.9557  1.4443
  877MPD2     C12913   2.250   2.103  15.720 -0.4340 -0.4111  0.1390
  877MPD2    C112914   2.389   2.133  15.717  0.0051  0.2933 -0.8832
  877MPD2    C212915   2.440   2.202  15.604 -0.2474  0.8562 -0.1019
  877MPD2    C312916   2.355   2.234  15.495 -0.2534 -0.6978 -0.1480
  877MPD2    C412917   2.221   2.192  15.507 -0.0239  0.0134 -0.0890
  877MPD2    C512918   2.169   2.133  15.616 -0.0255 -0.4728 -0.0865
  877MPD2     H12919   2.546   2.224  15.596  0.6222 -2.4607  2.0346
  877MPD2    H112920   2.144   2.223  15.437  0.0084 -1.8186 -0.9535
  877MPD2    H212921   2.195   2.065  15.805 -2.3176  0.5751 -0.6620
  877MPD2    H312922   2.065   2.099  15.612 -0.0839 -0.3367  0.2788
  877MPD2     N12923   2.393   2.277  15.368  0.3375 -0.4675 -0.1356
  877MPD2    H512924   2.321   2.277  15.296  1.9466  1.6649 -1.7116
  877MPD2    N112925   2.478   2.098  15.817 -0.0028  0.3472  0.5502
  877MPD2    H712926   2.574   2.127  15.800 -0.1716 -0.6016 -2.0793
  878MPD2     C12927   1.925   1.169  13.789  0.7129 -0.5385 -0.4473
  878MPD2    C112928   2.038   1.254  13.783 -0.5658 -0.0244  0.0213
  878MPD2    C212929   2.113   1.267  13.900  0.6044 -0.6935 -0.1563
  878MPD2    C312930   2.079   1.196  14.011  0.3245 -1.2360 -0.2924
  878MPD2    C412931   1.970   1.114  14.013  0.9472 -0.0891  0.6536
  878MPD2    C512932   1.889   1.108  13.908 -0.6786 -0.0154  0.0315
  878MPD2     H12933   2.206   1.324  13.906 -0.0754  0.4346 -0.3948
  878MPD2    H112934   1.925   1.083  14.106  0.1100 -1.6047 -0.2657
  878MPD2    H212935   1.863   1.146  13.703 -0.1501  0.8841 -0.2083
  878MPD2    H312936   1.801   1.046  13.914  0.8461 -2.2812 -1.0786
  878MPD2     N12937   2.170   1.203  14.118  0.0586 -0.0826 -0.1759
  878MPD2    H512938   2.232   1.283  14.108  1.0439 -1.1149 -2.2108
  878MPD2    N112939   2.079   1.309  13.661 -0.0343 -0.1866 -0.5308
  878MPD2    H712940   2.017   1.280  13.585 -0.3739  1.9137 -1.0587
  879MPD2     C12941   3.010   2.269  17.712 -0.6842  0.3238  0.7914
  879MPD2    C112942   3.020   2.344  17.602 -0.7032  0.6112  0.0359
  879MPD2    C212943   2.945   2.306  17.492  0.3356  0.0926  0.6005
  879MPD2    C312944   2.855   2.200  17.498  0.0437  0.3897 -0.4276
  879MPD2    C412945   2.834   2.132  17.621  0.0167 -0.3526 -0.2446
  879MPD2    C512946   2.912   2.172  17.728 -1.7570  0.2092 -0.8587
  879MPD2     H12947   2.965   2.356  17.398 -2.1466  0.9705  0.5500
  879MPD2    H112948   2.762   2.052  17.631  1.2191 -1.1577  1.9388
  879MPD2    H212949   3.081   2.284   0.044  0.1130 -0.9571  0.3369
  879MPD2    H312950   2.898   2.114   0.070  1.1816  0.5227 -0.2041
  879MPD2     N12951   2.765   2.177  17.387  0.2495 -0.5129 -0.2670
  879MPD2    H512952   2.700   2.100  17.404 -0.7941  0.4929  0.3103
  879MPD2    N112953   3.123   2.446  17.592 -0.6363  0.5809  0.5894
  879MPD2    H712954   3.169   2.466  17.680  0.1132 -0.6700  0.4752
  880MPD2     C12955   4.138   4.505   0.640 -0.1884 -0.2346  0.1347
  880MPD2    C112956   4.211   4.502   0.756 -0.4381 -0.7645  0.0269
  880MPD2    C212957   4.249   4.383   0.809 -1.0469  0.2294 -0.5244
  880MPD2    C312958   4.209   4.265   0.752  0.0016 -0.1482 -0.4334
  880MPD2    C412959   4.143   4.267   0.633  0.1872  0.1630 -0.3194
  880MPD2    C512960   4.102   4.390   0.579 -0.1793  0.7500 -0.9161
  880MPD2     H12961   4.309   4.376   0.899  0.2500 -1.7438 -1.5240
  880MPD2    H112962   4.100   4.175   0.593 -1.4730  0.9884 -0.4307
  880MPD2    H212963   4.104   4.595   0.591  1.0010 -0.1680 -0.5630
  880MPD2    H312964   4.040   4.391   0.490 -2.0849 -1.1478  0.4151
  880MPD2     N12965   4.249   4.139   0.815  0.1067 -0.5946 -0.6852
  880MPD2    H512966   4.278   4.138   0.912 -2.2234  2.3772  0.0251
  880MPD2    N112967   4.251   4.629   0.804  0.3775 -0.1409 -0.0128
  880MPD2    H712968   4.227   4.713   0.753 -1.6802 -0.7546 -0.0524
  881MPD2     C12969   4.620   0.730   0.528  0.1893 -0.7760  0.5900
  881MPD2    C112970   4.609   0.604   0.477 -0.6312 -0.0687 -0.4482
  881MPD2    C212971   4.561   0.509   0.566 -0.0008 -0.0104 -0.3363
  881MPD2    C312972   4.538   0.539   0.701  0.0902  0.1433  0.5731
  881MPD2    C412973   4.563   0.664   0.751 -0.8362 -0.3334  0.2418
  881MPD2    C512974   4.600   0.760   0.665  0.7026 -0.3766  0.5743
  881MPD2     H12975   4.530   0.415   0.520  0.9122  0.0867 -1.1797
  881MPD2    H112976   4.544   0.687   0.855 -0.4511  1.9993 -0.2228
  881MPD2    H212977   4.651   0.810   0.462  1.7834 -0.5439  1.6392
  881MPD2    H312978   4.613   0.865   0.687 -3.4567  0.1885  0.3388
  881MPD2     N12979   4.479   0.450   0.786 -0.3812  0.9319 -0.1135
  881MPD2    H512980   4.442   0.482   0.874  1.1258 -0.2918  0.9699
  881MPD2    N112981   4.603   0.581   0.339  0.3714  0.2410  0.4862
  881MPD2    H712982   4.604   0.664   0.280  0.1880  0.6801  1.1068
  882MPD2     C12983   2.599   2.061  14.623 -0.2836 -0.2139  0.5925
  882MPD2    C112984   2.493   2.103  14.700 -0.1942  0.3200  0.5934
  882MPD2    C212985   2.379   2.029  14.687  0.4788 -0.3221 -0.5205
  882MPD2    C312986   2.367   1.922  14.606 -0.1486 -0.7502  0.8091
  882MPD2    C412987   2.475   1.874  14.536 -0.6765  1.4590  0.2042
  882MPD2    C512988   2.591   1.950  14.545 -0.4103  0.4181 -0.1353
  882MPD2     H12989   2.288   2.054  14.740  0.8214  2.6403 -1.2929
  882MPD2    H112990   2.461   1.786  14.474  1.3632 -0.1576  2.0325
  882MPD2    H212991   2.688   2.123  14.634  0.2573 -0.8307 -0.2855
  882MPD2    H312992   2.669   1.917  14.478 -0.4950  2.3508 -1.1875
  882MPD2     N12993   2.238   1.858  14.604  0.1989 -0.5252  0.0266
  882MPD2    H512994   2.176   1.877  14.683 -1.4506 -1.6293 -1.0067
  882MPD2    N112995   2.510   2.211  14.793  0.4873  0.1093  0.1060
  882MPD2    H712996   2.599   2.261  14.789 -0.1004  1.0342 -1.3918
  883MPD2     C12997   4.222   2.399  16.378  0.3837 -0.2976  0.4715
  883MPD2    C112998   4.308   2.386  16.277 -0.2874 -0.3383  0.0362
  883MPD2    C212999   4.445   2.407  16.305  0.4038 -0.6309  0.0010
  883MPD2    C313000   4.487   2.437  16.426  0.3164  0.3657  0.3601
  883MPD2    C413001   4.398   2.440  16.536 -0.4704 -0.2474  0.9747
  883MPD2    C513002   4.263   2.425  16.503  0.1954 -0.2815  0.2439
  883MPD2     H13003   4.519   2.411  16.227  2.0440  2.5843  1.7178
  883MPD2    H113004   4.432   2.456  16.638 -2.1856 -1.2859  1.6987
  883MPD2    H213005   4.114   2.402  16.363  0.2919  0.6276  1.3243
  883MPD2    H313006   4.184   2.431  16.577 -1.1832  4.0796 -1.5886
  883MPD2     N13007   4.626   2.458  16.438  0.3465 -0.4968 -0.0575
  883MPD2    H513008   4.680   2.462  16.353  1.0560 -1.4344  0.3423
  883MPD2    N113009   4.270   2.367  16.141  0.2030  0.6473  0.5948
  883MPD2    H713010   4.345   2.375  16.072 -0.3186 -1.4453 -0.1921
  884MPD2     C13011   1.841   2.805  15.496  0.5328 -0.4739 -0.3104
  884MPD2    C113012   1.836   2.927  15.441  0.1018  0.2561 -0.1910
  884MPD2    C213013   1.720   3.004  15.453 -0.4867  0.4818  0.0653
  884MPD2    C313014   1.609   2.951  15.515  0.6219 -0.0747 -0.5291
  884MPD2    C413015   1.614   2.823  15.561  0.0606 -0.5290  0.0304
  884MPD2    C513016   1.732   2.751  15.564 -1.0023 -1.1406  0.0713
  884MPD2     H13017   1.721   3.109  15.426 -3.8224  1.0256  1.9978
  884MPD2    H113018   1.534   2.778  15.618  0.3681  0.4967  1.2700
  884MPD2    H213019   1.930   2.745  15.514 -0.7192 -1.8125  1.4660
  884MPD2    H313020   1.741   2.655  15.614 -1.3391 -0.6402  1.1104
  884MPD2     N13021   1.494   3.034  15.530 -0.1001  0.0718 -0.2002
  884MPD2    H513022   1.511   3.125  15.490 -2.1632  0.6890  0.3282
  884MPD2    N113023   1.936   2.979  15.352 -0.8530  0.3688  0.1978
  884MPD2    H713024   1.925   3.076  15.325 -0.8696  0.5910  1.0100
  885MPD2     C13025   4.289   3.053   0.446  0.5247  0.3573  0.4074
  885MPD2    C113026   4.421   3.078   0.463 -0.5743  0.0471 -0.2932
  885MPD2    C213027   4.481   3.162   0.369 -0.8638  0.2268  0.5333
  885MPD2    C313028   4.411   3.229   0.263 -0.0074 -0.1609  0.4330
  885MPD2    C413029   4.278   3.201   0.258  0.2743 -0.0379 -0.2620
  885MPD2    C513030   4.224   3.115   0.349 -0.4131 -0.0192  0.3103
  885MPD2     H13031   4.589   3.164   0.378 -0.6964 -0.1681 -1.3760
  885MPD2    H113032   4.210   3.243   0.186  0.8153 -1.9307 -1.8697
  885MPD2    H213033   4.236   2.975   0.500 -0.1825 -0.5269 -1.5683
  885MPD2    H313034   4.118   3.092   0.347  0.2377 -2.8537 -1.8344
  885MPD2     N13035   4.484   3.316   0.179  0.0433 -0.2326 -0.0739
  885MPD2    H513036   4.583   3.332   0.197 -0.6407  0.6974  2.8635
  885MPD2    N113037   4.488   3.016   0.572 -0.4282 -1.0824 -0.2558
  885MPD2    H713038   4.425   2.956   0.623 -0.7984 -0.5549 -0.0999
  886MPD2     C13039   1.269   1.285  15.619  0.1253 -0.0654 -0.4567
  886MPD2    C113040   1.330   1.353  15.721  0.5488 -0.0366 -0.3901
  886MPD2    C213041   1.290   1.490  15.727 -0.1148 -0.3702  0.4120
  886MPD2    C313042   1.211   1.553  15.632  0.3505 -0.8428  0.2561
  886MPD2    C413043   1.172   1.479  15.523  0.4466 -0.9936  0.0887
  886MPD2    C513044   1.195   1.345  15.523  0.1665 -0.0083  0.8596
  886MPD2     H13045   1.341   1.549  15.802 -0.4187 -1.3468  1.3670
  886MPD2    H113046   1.109   1.525  15.449  2.3214 -1.8833 -2.0533
  886MPD2    H213047   1.296   1.184  15.590 -1.8607  0.1410 -3.0065
  886MPD2    H313048   1.147   1.279  15.452 -1.2453  1.7061  0.2338
  886MPD2     N13049   1.177   1.691  15.629  0.2763  0.0029  0.0915
  886MPD2    H513050   1.124   1.728  15.550  0.4789 -1.1645 -0.5870
  886MPD2    N113051   1.406   1.296  15.824  0.0139 -0.3000 -0.0315
  886MPD2    H713052   1.447   1.363  15.887 -1.1724  1.5811 -1.2647
  887MPD2     C13053   1.741   1.531  16.412  0.5206  0.3238 -0.2538
  887MPD2    C113054   1.740   1.522  16.272 -0.9353  0.7345 -0.2551
  887MPD2    C213055   1.805   1.612  16.188 -0.3776  0.5525  0.2488
  887MPD2    C313056   1.864   1.726  16.244  0.6114 -0.1674  0.0772
  887MPD2    C413057   1.873   1.731  16.385  0.1644 -0.5972  0.5652
  887MPD2    C513058   1.798   1.644  16.459  0.1794  0.3818  0.2051
  887MPD2     H13059   1.776   1.609  16.084 -0.6335 -2.5049  0.3879
  887MPD2    H113060   1.922   1.815  16.434  2.7943 -0.8659 -1.5861
  887MPD2    H213061   1.677   1.470  16.475 -1.2362  1.8946 -0.5198
  887MPD2    H313062   1.786   1.667  16.564 -1.1297  1.5665 -0.1990
  887MPD2     N13063   1.921   1.837  16.176  0.3762 -0.4067 -0.3221
  887MPD2    H513064   1.981   1.899  16.230  1.0286 -0.0595 -1.4361
  887MPD2    N113065   1.676   1.414  16.207 -0.6114 -0.7890 -0.0221
  887MPD2    H713066   1.667   1.436  16.108 -0.2932  1.0971  0.3648
  888MPD2     C13067   3.387   1.697  15.224  0.0044  0.0781  0.7191
  888MPD2    C113068   3.414   1.726  15.354 -0.6264 -0.7350 -0.4026
  888MPD2    C213069   3.500   1.832  15.389  0.0355  0.0362 -0.2449
  888MPD2    C313070   3.569   1.893  15.283 -0.5631 -1.5155  0.2871
  888MPD2    C413071   3.528   1.866  15.152 -0.1231  0.0741 -0.7728
  888MPD2    C513072   3.431   1.782  15.127 -0.3054  0.4680 -0.2333
  888MPD2     H13073   3.520   1.851  15.494 -0.0703  2.1822 -0.6034
  888MPD2    H113074   3.566   1.926  15.070 -1.2167  0.1098 -1.2547
  888MPD2    H213075   3.308   1.630  15.192 -1.4955  1.7996  0.8493
  888MPD2    H313076   3.379   1.779  15.032  0.0163 -1.5786 -0.3451
  888MPD2     N13077   3.668   1.992  15.320 -0.4175 -0.0610  0.3537
  888MPD2    H513078   3.664   2.027  15.415 -2.5137 -2.1109  1.0163
  888MPD2    N113079   3.355   1.659  15.466  0.0558  0.8264  0.6299
  888MPD2    H713080   3.381   1.693  15.558  2.1884  0.4068  0.1904
  889MPD2     C13081   2.883   1.045  12.856 -0.4276 -0.3220  1.0417
  889MPD2    C113082   2.961   1.050  12.976  0.4358 -0.0910 -0.2206
  889MPD2    C213083   2.950   1.159  13.061  0.2580 -0.0159 -0.6667
  889MPD2    C313084   2.864   1.263  13.035 -0.0271 -0.3676  0.5042
  889MPD2    C413085   2.788   1.254  12.921 -0.3337 -0.1735 -0.0804
  889MPD2    C513086   2.795   1.145  12.837 -0.7817 -0.5869 -0.4559
  889MPD2     H13087   2.995   1.156  13.160  0.7630 -0.7840 -0.9282
  889MPD2    H113088   2.719   1.324  12.875 -0.0213  0.5123  0.5114
  889MPD2    H213089   2.872   0.949  12.808  2.1052 -0.7509  1.3417
  889MPD2    H313090   2.731   1.137  12.750  0.2480 -0.0640 -1.2641
  889MPD2     N13091   2.859   1.375  13.123 -1.0316 -0.3879  0.3151
  889MPD2    H513092   2.929   1.372  13.196  1.6167  0.0534 -2.2434
  889MPD2    N113093   3.012   0.929  13.016 -0.4658 -0.3611  0.2003
  889MPD2    H713094   2.994   0.852  12.951  0.3481 -1.3951  1.2092
  890MPD2     C13095   2.307   2.779  14.918  0.2703 -0.1008 -0.0111
  890MPD2    C113096   2.450   2.797  14.913  0.1571 -0.2975 -0.0099
  890MPD2    C213097   2.522   2.783  15.028  0.3051 -0.1105 -0.7311
  890MPD2    C313098   2.458   2.749  15.149 -0.4011  0.3002 -0.3739
  890MPD2    C413099   2.322   2.725  15.154  0.5659  0.0835  0.3962
  890MPD2    C513100   2.251   2.742  15.039 -0.0833  0.3517  0.1301
  890MPD2     H13101   2.625   2.815  15.040 -0.0731  1.2039 -1.1021
  890MPD2    H113102   2.261   2.716  15.244  0.7712 -2.7301  0.2547
  890MPD2    H213103   2.250   2.767  14.827 -3.6379 -1.3827  2.6361
  890MPD2    H313104   2.144   2.730  15.052  0.1322 -0.7525  0.8652
  890MPD2     N13105   2.547   2.745  15.254  0.3274 -0.0573 -0.3150
  890MPD2    H513106   2.645   2.763  15.237  0.2661 -0.5912 -1.2240
  890MPD2    N113107   2.508   2.869  14.806  0.2398  0.2797  0.3277
  890MPD2    H713108   2.451   2.900  14.728  2.5722  1.5832 -0.8866
  891MPD2     C13109   0.911   1.755  16.793 -0.2930 -0.1301  0.4038
  891MPD2    C113110   0.848   1.776  16.917  0.1070  0.1093  0.7812
  891MPD2    C213111   0.895   1.708  17.024 -0.5584 -0.1412  0.3011
  891MPD2    C313112   1.015   1.638  17.017 -1.2456 -0.7120  0.3416
  891MPD2    C413113   1.079   1.624  16.896 -0.1932 -0.5333 -0.6461
  891MPD2    C513114   1.025   1.682  16.781  0.3053 -0.2980  0.2425
  891MPD2     H13115   0.848   1.722  17.121 -0.0294  1.0700  0.3802
  891MPD2    H113116   1.174   1.572  16.892  0.6690  0.9673  0.3338
  891MPD2    H213117   0.862   1.792  16.704  2.0806 -0.5425 -1.0676
  891MPD2    H313118   1.084   1.672  16.691 -0.7984  0.9131 -0.6160
  891MPD2     N13119   1.067   1.583  17.139  0.0110 -0.5325 -0.2557
  891MPD2    H513120   1.030   1.628  17.223  1.4792 -1.5482  0.9336
  891MPD2    N113121   0.734   1.852  16.911 -0.2024 -0.0272 -0.1301
  891MPD2    H713122   0.704   1.870  16.815  0.4104  1.1659 -0.0914
  892MPD2     C13123   1.766   2.300  15.096  0.3799 -0.2560 -1.1603
  892MPD2    C113124   1.669   2.260  15.015  0.7859  0.0057 -0.2010
  892MPD2    C213125   1.692   2.187  14.902 -0.1945  0.5731 -0.2995
  892MPD2    C313126   1.825   2.153  14.875 -0.3232 -0.1847 -0.1771
  892MPD2    C413127   1.928   2.197  14.953 -0.3272  0.1133  0.3793
  892MPD2    C513128   1.899   2.272  15.064  1.8006  0.1441  0.2773
  892MPD2     H13129   1.607   2.163  14.839  1.7022 -1.8126 -1.9593
  892MPD2    H113130   2.029   2.163  14.935 -0.6175 -1.6688  2.1327
  892MPD2    H213131   1.753   2.355  15.189 -3.2228 -1.9796 -0.6316
  892MPD2    H313132   1.979   2.290  15.134  1.7487 -2.8889  1.1218
  892MPD2     N13133   1.865   2.071  14.772 -0.3447 -0.0478 -0.3072
  892MPD2    H513134   1.962   2.039  14.773  0.0465  0.9936 -3.1617
  892MPD2    N113135   1.534   2.284  15.027 -0.2464 -0.5701 -0.4094
  892MPD2    H713136   1.483   2.269  14.941  1.3716  2.6499 -1.9540
  893MPD2     C13137   2.971   0.553   1.853  0.5055  0.3100  0.0195
  893MPD2    C113138   2.987   0.683   1.884  0.5415  0.6527 -0.0415
  893MPD2    C213139   2.901   0.746   1.971 -0.9064  0.1443 -0.2702
  893MPD2    C313140   2.798   0.661   2.028  0.6512 -0.7420  0.2415
  893MPD2    C413141   2.782   0.530   1.984  0.4787 -0.1196  0.2110
  893MPD2    C513142   2.866   0.481   1.895  0.2206 -0.1158 -0.2519
  893MPD2     H13143   2.913   0.851   1.994  0.5614 -0.0770 -0.0178
  893MPD2    H113144   2.702   0.467   2.022  1.4662 -1.5070 -0.0442
  893MPD2    H213145   3.052   0.512   1.794 -0.2038 -0.2345 -0.5805
  893MPD2    H313146   2.848   0.379   1.864  1.1805 -0.7032  1.1063
  893MPD2     N13147   2.728   0.711   2.142  0.2829  0.7960  0.2827
  893MPD2    H513148   2.667   0.642   2.185 -1.4288  0.1846 -3.1497
  893MPD2    N113149   3.109   0.740   1.841 -0.3062  0.0316  0.0615
  893MPD2    H713150   3.154   0.689   1.766 -0.1471  2.0952 -1.2556
  894MPD2     C13151   1.512   2.726   0.974 -0.5202  0.9167  0.2404
  894MPD2    C113152   1.511   2.754   1.109 -0.3459 -0.2017 -1.2846
  894MPD2    C213153   1.566   2.875   1.149 -0.4410 -0.1770  0.1678
  894MPD2    C313154   1.613   2.975   1.065 -0.1762  0.4521 -0.3848
  894MPD2    C413155   1.611   2.939   0.926  0.0952 -0.1590  0.4314
  894MPD2    C513156   1.560   2.817   0.889 -0.1465 -0.0275  0.0734
  894MPD2     H13157   1.563   2.905   1.253  0.3894  2.9133 -0.7049
  894MPD2    H113158   1.638   3.006   0.846 -1.6731 -0.5478 -0.5010
  894MPD2    H213159   1.474   2.636   0.927 -1.3767  1.5499 -0.2746
  894MPD2    H313160   1.556   2.791   0.784 -0.0690 -0.5137  0.1953
  894MPD2     N13161   1.655   3.101   1.110 -0.9999 -0.1935 -0.2424
  894MPD2    H513162   1.638   3.121   1.208 -1.8938 -0.2889 -0.3849
  894MPD2    N113163   1.448   2.666   1.202 -0.4162 -0.6299  0.2905
  894MPD2    H713164   1.444   2.699   1.298  0.3179 -2.4584  0.9405
  895MPD2     C13165   0.546   1.614  14.187 -0.2123  0.6689 -0.2500
  895MPD2    C113166   0.613   1.669  14.077  0.4389  0.0174  0.0214
  895MPD2    C213167   0.742   1.623  14.062 -0.2695 -0.3514 -0.3554
  895MPD2    C313168   0.790   1.512  14.135  0.2330  0.6154 -0.6017
  895MPD2    C413169   0.718   1.475  14.240  0.5731  0.0528 -0.3446
  895MPD2    C513170   0.605   1.528  14.270 -0.6787 -0.8799  0.4275
  895MPD2     H13171   0.794   1.662  13.975  0.0722 -0.5672 -0.2490
  895MPD2    H113172   0.741   1.385  14.298  1.4989  0.1649 -0.5320
  895MPD2    H213173   0.442   1.640  14.202 -0.8194 -1.9361  0.1542
  895MPD2    H313174   0.544   1.487  14.350 -1.2057  1.2452  1.1123
  895MPD2     N13175   0.911   1.447  14.090  0.5001  0.1097  0.6589
  895MPD2    H513176   0.915   1.347  14.107 -1.7525  0.0470  0.8387
  895MPD2    N113177   0.561   1.748  13.973  0.3716  0.7450  0.3120
  895MPD2    H713178   0.625   1.748  13.894  0.2819 -0.2602  0.2398
  896MPD2     C13179   3.252   3.701   1.800 -0.9441 -0.1293  0.6897
  896MPD2    C113180   3.244   3.672   1.666  0.3582  0.5264 -0.0572
  896MPD2    C213181   3.124   3.623   1.613  0.1195 -0.1877 -0.1595
  896MPD2    C313182   3.014   3.620   1.690 -0.3894 -0.0265 -0.4240
  896MPD2    C413183   3.023   3.654   1.831  0.8779  0.5522 -0.5823
  896MPD2    C513184   3.144   3.694   1.881  0.7611  0.6178  0.1705
  896MPD2     H13185   3.119   3.597   1.508 -1.3063 -0.7636  0.0513
  896MPD2    H113186   2.944   3.657   1.906  1.0962  2.3915 -0.4133
  896MPD2    H213187   3.346   3.731   1.846 -0.9300  1.1735 -0.2031
  896MPD2    H313188   3.154   3.735   1.981 -1.6771  0.3463  0.5062
  896MPD2     N13189   2.886   3.600   1.628 -0.1505 -0.0187  0.6285
  896MPD2    H513190   2.883   3.570   1.531 -2.8986 -0.3188  0.8021
  896MPD2    N113191   3.361   3.695   1.591 -0.7162 -0.1090  0.0752
  896MPD2    H713192   3.444   3.722   1.643 -1.1582  0.9742  0.2129
  897MPD2     C13193   4.423   1.573  11.045 -0.3899 -0.2549  1.3469
  897MPD2    C113194   4.325   1.586  10.950  0.4124 -0.5271 -0.3072
  897MPD2    C213195   4.235   1.481  10.931  1.0426 -0.4982  0.3224
  897MPD2    C313196   4.267   1.353  10.984  0.2227  0.5236 -0.0865
  897MPD2    C413197   4.363   1.342  11.087 -0.5611  0.8585 -0.6415
  897MPD2    C513198   4.436   1.456  11.114  0.4871  0.3317 -0.0778
  897MPD2     H13199   4.155   1.490  10.859  1.0412 -2.3311  0.0946
  897MPD2    H113200   4.390   1.257  11.149 -1.5139  1.0158 -0.0021
  897MPD2    H213201   4.485   1.657  11.074 -0.6841  0.5928 -0.5064
  897MPD2    H313202   4.505   1.439  11.195  0.8587 -1.3184 -0.7376
  897MPD2     N13203   4.198   1.240  10.936 -0.4221 -0.1679  0.6122
  897MPD2    H513204   4.120   1.255  10.873 -0.2567  0.1217  0.4780
  897MPD2    N113205   4.328   1.703  10.868  0.3717 -0.8154 -0.0094
  897MPD2    H713206   4.391   1.778  10.895 -0.1139 -0.9185  1.4147
  898MPD2     C13207   1.638   1.670   0.523  0.0686  0.1651  0.0923
  898MPD2    C113208   1.715   1.712   0.413 -0.2147 -0.3662  0.4186
  898MPD2    C213209   1.665   1.797   0.323 -0.3080  0.2836 -0.3173
  898MPD2    C313210   1.537   1.857   0.347  0.6388  0.1677  0.4592
  898MPD2    C413211   1.462   1.810   0.455  0.2969  0.6791 -0.1429
  898MPD2    C513212   1.513   1.711   0.545 -0.0185  0.3595 -0.2918
  898MPD2     H13213   1.730   1.827   0.242 -0.6437 -0.1265 -0.7375
  898MPD2    H113214   1.363   1.849   0.477 -0.5299 -1.3143 -0.3111
  898MPD2    H213215   1.690   1.621   0.604  0.3614 -2.5310 -1.7297
  898MPD2    H313216   1.459   1.679   0.633  0.5470 -1.9785 -0.8039
  898MPD2     N13217   1.495   1.950   0.251  0.0666 -0.2291 -0.2216
  898MPD2    H513218   1.552   1.971   0.169 -0.9330 -0.3417 -0.9474
  898MPD2    N113219   1.850   1.669   0.387  0.0706 -0.2440 -0.4167
  898MPD2    H713220   1.890   1.693   0.296 -0.3681  0.1001 -0.5192
  899MPD2     C13221   2.624   2.464  17.620  0.2516  0.0527  0.0996
  899MPD2    C113222   2.511   2.503  17.554  0.8780  0.8579  0.0584
  899MPD2    C213223   2.400   2.544  17.620  0.6222  0.7796 -0.9456
  899MPD2    C313224   2.398   2.537   0.011 -0.1563  0.0912  0.6887
  899MPD2    C413225   2.510   2.491   0.075  0.1667 -0.1391 -0.0402
  899MPD2    C513226   2.620   2.457   0.002  0.6464  0.1560  0.1558
  899MPD2     H13227   2.318   2.589  17.565  0.0305  1.9059  0.8534
  899MPD2    H113228   2.511   2.498   0.183  1.8584  1.7848 -0.1608
  899MPD2    H213229   2.708   2.423  17.565 -0.7052 -0.4857 -0.9732
  899MPD2    H313230   2.708   2.418   0.051  0.1918 -3.1019 -1.6504
  899MPD2     N13231   2.286   2.596   0.090 -0.5552  0.2849 -0.1259
  899MPD2    H513232   2.309   2.629   0.183  0.8011  1.1788 -0.7765
  899MPD2    N113233   2.523   2.524  17.418  0.1185 -0.7457  0.0057
  899MPD2    H713234   2.621   2.524  17.392  0.6189 -0.6560  1.8763
  900MPD2     C13235   2.060   4.042  12.804 -0.1410 -0.1756  0.3253
  900MPD2    C113236   1.967   3.960  12.739 -0.7414 -0.1128 -0.7004
  900MPD2    C213237   1.886   4.021  12.648 -0.5353 -0.0102 -0.4195
  900MPD2    C313238   1.873   4.159  12.630 -0.8001 -0.3828  0.4024
  900MPD2    C413239   1.957   4.236  12.707  1.1776  0.0614  0.0698
  900MPD2    C513240   2.058   4.175  12.779 -0.3683  0.1840 -0.2447
  900MPD2     H13241   1.820   3.962  12.586 -1.3450  0.3037  0.1480
  900MPD2    H113242   1.961   4.345  12.711 -2.3937  0.1153  2.3468
  900MPD2    H213243   2.145   3.998  12.853  0.1000  1.3721  1.2989
  900MPD2    H313244   2.132   4.246  12.815  0.2798 -0.7053  0.1859
  900MPD2     N13245   1.784   4.212  12.535  0.0063  0.1134  0.0571
  900MPD2    H513246   1.724   4.143  12.490 -1.4056  1.6229 -0.3718
  900MPD2    N113247   1.978   3.821  12.751 -0.5977  0.6420 -0.4820
  900MPD2    H713248   2.067   3.781  12.777 -0.8452  1.7060  1.9762
  901MPD2     C13249   1.468   2.886  13.080 -0.5705 -0.0135 -0.0280
  901MPD2    C113250   1.607   2.861  13.059  0.1505  0.2569  0.0188
  901MPD2    C213251   1.687   2.963  13.007 -0.0306 -0.1627 -0.0783
  901MPD2    C313252   1.631   3.085  12.986 -0.4051 -0.8048 -0.0160
  901MPD2    C413253   1.496   3.108  13.002 -0.2639 -0.0670 -0.9005
  901MPD2    C513254   1.416   3.013  13.052 -0.2056  0.0728  0.3710
  901MPD2     H13255   1.792   2.941  12.991  0.7239 -0.3522  4.8911
  901MPD2    H113256   1.451   3.205  12.986 -0.7043  0.3545  2.8347
  901MPD2    H213257   1.399   2.813  13.120 -0.9293  1.3294  1.7938
  901MPD2    H313258   1.313   3.034  13.079 -1.0321 -1.0806 -1.9170
  901MPD2     N13259   1.725   3.189  12.938 -0.0583  0.3705  0.1914
  901MPD2    H513260   1.821   3.156  12.927  0.4702  2.0618 -0.3184
  901MPD2    N113261   1.651   2.723  13.082  0.5566  0.3216  0.1433
  901MPD2    H713262   1.584   2.656  13.120 -1.0938  1.3844 -0.8759
  902MPD2     C13263   0.599   1.924  13.068  0.5621  0.6180 -0.1308
  902MPD2    C113264   0.723   1.978  13.035 -0.0005  0.2536  0.0887
  902MPD2    C213265   0.789   1.942  12.915  0.3693 -0.5990  0.0280
  902MPD2    C313266   0.749   1.822  12.853 -0.4985 -0.0770 -0.1535
  902MPD2    C413267   0.629   1.769  12.896 -0.2419 -0.5559 -0.1719
  902MPD2    C513268   0.542   1.831  12.985  0.0472  0.7340  0.4150
  902MPD2     H13269   0.873   1.998  12.875 -0.4473  1.8957  1.8276
  902MPD2    H113270   0.582   1.687  12.843 -3.6869  0.7616  0.8109
  902MPD2    H213271   0.540   1.961  13.151  1.2220  0.0457  0.5984
  902MPD2    H313272   0.443   1.791  13.003  0.5976 -1.2638 -1.0096
  902MPD2     N13273   0.803   1.769  12.737 -0.5460 -0.0115 -0.1081
  902MPD2    H513274   0.755   1.687  12.703 -1.7653  0.3809  0.6569
  902MPD2    N113275   0.757   2.091  13.111 -0.2129  0.3717 -0.2697
  902MPD2    H713276   0.693   2.129  13.181 -1.9467  0.1576 -1.7365
  903MPD2     C13277   0.927   2.072  12.084 -0.1939  0.1028 -0.0612
  903MPD2    C113278   0.904   1.938  12.119  0.6750 -0.7828  0.6615
  903MPD2    C213279   0.777   1.877  12.100  0.0272 -0.5074 -0.8434
  903MPD2    C313280   0.672   1.949  12.053 -0.7726 -0.7769 -0.2096
  903MPD2    C413281   0.692   2.072  12.011  0.0325  0.2524 -0.4868
  903MPD2    C513282   0.813   2.132  12.031 -0.6998  0.9442 -0.3014
  903MPD2     H13283   0.759   1.775  12.134  1.5715 -0.2087  0.8434
  903MPD2    H113284   0.617   2.129  11.957 -0.6954  1.0190  1.3236
  903MPD2    H213285   1.021   2.124  12.099 -0.3000  0.4244 -0.5281
  903MPD2    H313286   0.815   2.235  11.996 -0.9078  0.8132 -0.6967
  903MPD2     N13287   0.541   1.887  12.030 -0.0846 -0.0073 -0.5631
  903MPD2    H513288   0.537   1.786  12.043  3.8193 -0.1008 -0.3276
  903MPD2    N113289   1.005   1.874  12.196  0.3222  0.1572  0.0575
  903MPD2    H713290   1.083   1.924  12.240 -0.4263  1.3121  0.0690
  904MPD2     C13291   0.180   0.678  13.910 -0.3445 -0.3148  1.2887
  904MPD2    C113292   0.270   0.759  13.977 -0.3531  0.4590 -0.2955
  904MPD2    C213293   0.399   0.716  13.986  0.6115  0.3390 -0.0149
  904MPD2    C313294   0.438   0.594  13.932 -0.3791 -0.3312  0.2318
  904MPD2    C413295   0.357   0.518  13.859 -0.3586 -0.2898  0.4657
  904MPD2    C513296   0.225   0.557  13.855 -0.0553 -0.0460  0.1357
  904MPD2     H13297   0.460   0.768  14.059  1.9416  0.0821 -0.9540
  904MPD2    H113298   0.379   0.415  13.830 -1.2314 -0.8033  1.6169
  904MPD2    H213299   0.076   0.704  13.899 -0.2347 -0.6257 -0.5070
  904MPD2    H313300   0.157   0.481  13.818  0.7737 -1.8452  2.3155
  904MPD2     N13301   0.569   0.553  13.961 -0.1958  0.2798 -0.0703
  904MPD2    H513302   0.627   0.617  14.015 -1.0985  0.3798  0.7599
  904MPD2    N113303   0.241   0.876  14.054 -0.2967  0.0046 -0.4638
  904MPD2    H713304   0.311   0.914  14.117 -0.6687  0.5609 -0.3890
  905MPD2     C13305   0.386   1.452  13.721 -0.7050 -0.0210  0.1219
  905MPD2    C113306   0.451   1.398  13.827 -0.1743  0.4874  0.0397
  905MPD2    C213307   0.585   1.392  13.829 -0.2819 -0.1986  0.3179
  905MPD2    C313308   0.657   1.435  13.723  0.0389 -0.9175 -0.0204
  905MPD2    C413309   0.589   1.481  13.607 -0.1352 -0.0459  0.9514
  905MPD2    C513310   0.451   1.497  13.616 -0.5485 -0.3055  0.1093
  905MPD2     H13311   0.643   1.359  13.914 -0.1454 -1.0501 -0.1095
  905MPD2    H113312   0.629   1.516  13.513  0.6899 -1.2297  0.8677
  905MPD2    H213313   0.278   1.455  13.727 -0.7419  0.3061 -0.6840
  905MPD2    H313314   0.393   1.530  13.531  1.1644 -2.1547 -1.7720
  905MPD2     N13315   0.791   1.417  13.730  0.4701 -0.7583 -0.6976
  905MPD2    H513316   0.821   1.373  13.817  0.3936 -2.3477 -1.4642
  905MPD2    N113317   0.369   1.337  13.926 -0.0554 -0.0613  0.8441
  905MPD2    H713318   0.269   1.349  13.914  0.0348 -0.8346 -0.7595
  906MPD2     C13319   3.125   0.388  11.320 -0.4069  0.1293  0.4284
  906MPD2    C113320   3.003   0.404  11.251 -0.2490  0.0249 -0.0364
  906MPD2    C213321   2.905   0.307  11.266  0.0840  0.1801 -0.4628
  906MPD2    C313322   2.918   0.205  11.361 -0.6620  0.3002  0.1176
  906MPD2    C413323   3.031   0.204  11.444 -0.2312  0.3719 -0.7515
  906MPD2    C513324   3.136   0.293  11.425 -0.7522  0.3020 -0.5848
  906MPD2     H13325   2.813   0.325  11.211  0.8658 -0.3536 -1.9214
  906MPD2    H113326   3.053   0.125  11.515  0.1625 -0.9209 -2.3370
  906MPD2    H213327   3.217   0.444  11.300 -0.6019  0.4243  0.3515
  906MPD2    H313328   3.228   0.283  11.482 -1.5320  1.0183  0.7843
  906MPD2     N13329   2.825   0.093  11.370  0.3389 -0.2469 -0.4100
  906MPD2    H513330   2.816   0.043  11.458 -0.8786  2.1286  0.8135
  906MPD2    N113331   2.980   0.515  11.163  0.1388 -0.3771 -0.2987
  906MPD2    H713332   2.903   0.510  11.097 -0.6798  2.6689  0.4397
  907MPD2     C13333   1.450   0.523  16.161 -0.0380  0.0900  0.2052
  907MPD2    C113334   1.520   0.413  16.127 -0.2878 -0.3057  0.2472
  907MPD2    C213335   1.605   0.346  16.217  0.0002  0.3306 -0.0047
  907MPD2    C313336   1.610   0.383  16.350 -0.2309 -0.2284  0.1920
  907MPD2    C413337   1.526   0.486  16.391  0.5687 -0.1944  0.5459
  907MPD2    C513338   1.464   0.559  16.295 -0.4429  0.0714  0.2086
  907MPD2     H13339   1.662   0.260  16.186  2.3038  2.8211 -2.7091
  907MPD2    H113340   1.518   0.517  16.495  2.0644  2.7983 -0.2372
  907MPD2    H213341   1.407   0.582  16.081  2.4956  1.6621  0.0257
  907MPD2    H313342   1.401   0.643  16.320  0.0715  1.1995 -2.1902
  907MPD2     N13343   1.684   0.294  16.433  0.7904  0.1315 -0.3669
  907MPD2    H513344   1.738   0.223  16.384  0.4721 -0.5296  0.2319
  907MPD2    N113345   1.534   0.369  15.991 -0.0033  0.3311 -0.4704
  907MPD2    H713346   1.597   0.292  15.972 -0.4169 -0.1086 -0.0665
  908MPD2     C13347   3.981   1.853   9.933 -0.3827 -0.3896 -0.1905
  908MPD2    C113348   3.939   1.770  10.030  1.3602 -0.2879  0.6077
  908MPD2    C213349   3.988   1.785  10.155  0.3279 -0.3804  0.4998
  908MPD2    C313350   4.077   1.888  10.185 -0.1486  0.4317 -0.3724
  908MPD2    C413351   4.125   1.970  10.084 -0.4220 -0.0093 -0.4652
  908MPD2    C513352   4.072   1.950   9.959  0.1357 -0.0954 -0.6745
  908MPD2     H13353   3.943   1.721  10.229 -0.6833  0.9899  1.0700
  908MPD2    H113354   4.179   2.063  10.093  2.6409 -1.7591 -0.6084
  908MPD2    H213355   3.936   1.847   9.834 -0.9307 -1.7147  0.1404
  908MPD2    H313356   4.103   2.015   9.878 -0.0349  1.4760  0.5174
  908MPD2     N13357   4.122   1.912  10.313 -0.3352  0.1221  0.2895
  908MPD2    H513358   4.077   1.859  10.387 -2.1974  0.6252 -0.4748
  908MPD2    N113359   3.836   1.673   9.998 -0.6709  0.2497 -0.1312
  908MPD2    H713360   3.790   1.678   9.907  2.1450  1.0555 -1.4964
  909MPD2     C13361   4.079   3.632  11.663  0.3192 -1.0183 -0.1122
  909MPD2    C113362   4.196   3.650  11.737  0.0612  0.1675 -0.1176
  909MPD2    C213363   4.190   3.675  11.873 -0.0765  0.5959 -0.0624
  909MPD2    C313364   4.064   3.690  11.926  0.1785  1.1521 -0.2478
  909MPD2    C413365   3.947   3.671  11.856 -0.2438 -0.2304 -0.1925
  909MPD2    C513366   3.958   3.631  11.725 -0.0503 -0.2314  0.2905
  909MPD2     H13367   4.281   3.701  11.926  0.7446  0.4831 -1.4076
  909MPD2    H113368   3.848   3.673  11.898  0.2347 -0.5526  0.9650
  909MPD2    H213369   4.081   3.606  11.558 -2.1502 -1.1163 -0.1295
  909MPD2    H313370   3.864   3.604  11.678  0.6044 -1.6835 -0.1664
  909MPD2     N13371   4.057   3.750  12.054  0.7020 -0.4238  0.6315
  909MPD2    H513372   4.148   3.774  12.093  1.3825 -0.6742 -0.8133
  909MPD2    N113373   4.324   3.653  11.680 -0.2846 -0.0461 -0.6042
  909MPD2    H713374   4.405   3.669  11.740  0.4344 -1.9328 -1.0725
  910MPD2     C13375   0.830   0.999  16.529  0.7927  0.5492 -0.0539
  910MPD2    C113376   0.893   0.913  16.440  0.8764  0.3870  0.1977
  910MPD2    C213377   0.848   0.909  16.307  0.0564 -0.5083  0.5278
  910MPD2    C313378   0.743   0.996  16.270 -0.4331  0.3155  0.3417
  910MPD2    C413379   0.692   1.093  16.356  0.2574  0.4451 -0.2460
  910MPD2    C513380   0.737   1.096  16.481 -0.0417  0.1436  0.1973
  910MPD2     H13381   0.888   0.828  16.249  0.0719  0.2814 -0.5648
  910MPD2    H113382   0.619   1.165  16.320 -0.0333  1.5016  2.4052
  910MPD2    H213383   0.849   1.009  16.635  3.8565 -3.5133 -0.2406
  910MPD2    H313384   0.696   1.162  16.556 -1.5196 -2.9389  2.1263
  910MPD2     N13385   0.686   0.992  16.143  0.5493  0.6281 -0.0370
  910MPD2    H513386   0.623   1.067  16.120 -1.5454 -0.1876  3.1321
  910MPD2    N113387   0.982   0.809  16.482 -0.8180 -0.2362  0.3661
  910MPD2    H713388   0.984   0.731  16.417 -0.6272 -0.9058  1.1883
  911MPD2     C13389   3.878   1.066  17.093 -0.0399  0.0157  0.7679
  911MPD2    C113390   3.916   1.196  17.068 -0.2131 -0.9571 -0.3304
  911MPD2    C213391   3.831   1.277  16.998 -0.3163 -0.8853  0.5244
  911MPD2    C313392   3.703   1.234  16.958 -0.0124  0.2101 -0.2362
  911MPD2    C413393   3.666   1.110  16.988  0.5240 -0.3048  0.2435
  911MPD2    C513394   3.753   1.025  17.058  0.4447  0.4478  0.5551
  911MPD2     H13395   3.856   1.379  16.976 -2.6587 -0.3358  0.3575
  911MPD2    H113396   3.566   1.078  16.961  0.6614 -0.3587 -0.1976
  911MPD2    H213397   3.947   1.000  17.143  0.8629  0.3185 -0.0937
  911MPD2    H313398   3.712   0.929  17.087  1.5643  0.3124  1.6798
  911MPD2     N13399   3.616   1.315  16.887  0.2475 -0.0166  0.2178
  911MPD2    H513400   3.533   1.265  16.859 -0.1023  1.2908 -1.0840
  911MPD2    N113401   4.044   1.235  17.100 -0.3267 -0.1903 -0.1466
  911MPD2    H713402   4.096   1.173  17.161  1.6979  1.9048  0.2544
  912MPD2     C13403   3.283   1.203  16.227 -0.4487 -0.5043  0.1580
  912MPD2    C113404   3.287   1.186  16.365 -0.2033 -0.1179 -0.2301
  912MPD2    C213405   3.311   1.059  16.413  0.4741 -0.5625 -0.0695
  912MPD2    C313406   3.319   0.945  16.338 -0.4054 -0.1631  0.7601
  912MPD2    C413407   3.315   0.958  16.204 -0.4069 -0.2731 -0.3710
  912MPD2    C513408   3.288   1.085  16.153 -0.5341  0.1009 -0.5764
  912MPD2     H13409   3.323   1.047  16.520 -0.8021 -1.3839 -0.0142
  912MPD2    H113410   3.333   0.875  16.136  1.2755  0.5829 -0.9824
  912MPD2    H213411   3.276   1.301  16.181  2.0025 -0.0176  0.8049
  912MPD2    H313412   3.304   1.094  16.046  2.2296  1.7752 -0.0385
  912MPD2     N13413   3.339   0.827  16.403 -0.9040  0.1302  0.0912
  912MPD2    H513414   3.333   0.833  16.504  2.2615 -0.3188  0.2970
  912MPD2    N113415   3.269   1.300  16.451 -0.7234 -0.3043 -0.3123
  912MPD2    H713416   3.253   1.386  16.398 -0.2358 -0.2579 -0.3872
  913MPD2     C13417   3.619   2.149  11.348 -1.0609 -0.5691  0.1486
  913MPD2    C113418   3.750   2.161  11.386 -0.9944  0.3996 -0.4729
  913MPD2    C213419   3.842   2.196  11.290  0.6212  0.8034  0.0828
  913MPD2    C313420   3.810   2.228  11.161  0.4319  0.0340 -0.0254
  913MPD2    C413421   3.683   2.203  11.122 -0.4633  0.2300  0.1913
  913MPD2    C513422   3.587   2.162  11.215 -0.0688 -0.1645  0.3601
  913MPD2     H13423   3.944   2.220  11.319  0.1800  0.9367  1.5343
  913MPD2    H113424   3.647   2.232  11.024 -1.5608 -1.1441  0.1979
  913MPD2    H213425   3.537   2.127  11.415 -1.7727 -2.2115 -1.2750
  913MPD2    H313426   3.481   2.155  11.196  0.0589  1.9214 -1.0895
  913MPD2     N13427   3.896   2.276  11.057  0.2598  0.4728  0.5507
  913MPD2    H513428   3.852   2.292  10.967  1.0405  0.6329  0.2008
  913MPD2    N113429   3.785   2.144  11.527 -0.2538  0.1371 -0.3825
  913MPD2    H713430   3.712   2.149  11.597  0.8609  1.3287  0.6936
  914MPD2     C13431   1.528   2.409  12.473  0.5344  0.3578  0.2929
  914MPD2    C113432   1.500   2.507  12.566 -0.1647  0.0434 -1.1641
  914MPD2    C213433   1.519   2.472  12.692  0.1232  0.2171  0.8735
  914MPD2    C313434   1.575   2.351  12.733  0.1121  0.4393  0.5322
  914MPD2    C413435   1.602   2.250  12.647  0.3515 -0.3509 -0.3657
  914MPD2    C513436   1.575   2.285  12.515 -0.0988 -1.0288 -0.3435
  914MPD2     H13437   1.506   2.546  12.770 -1.3820 -0.6367  1.4188
  914MPD2    H113438   1.657   2.161  12.674  0.9768 -0.0723 -0.7392
  914MPD2    H213439   1.536   2.431  12.367  2.2159 -1.3822  0.0496
  914MPD2    H313440   1.589   2.210  12.438 -1.3901 -0.6778 -0.9124
  914MPD2     N13441   1.601   2.346  12.874 -0.9850 -0.0525  1.1141
  914MPD2    H513442   1.576   2.428  12.928 -0.2982 -0.5396  2.1812
  914MPD2    N113443   1.468   2.634  12.521  0.4998  0.7237 -0.1671
  914MPD2    H713444   1.457   2.650  12.422 -0.3138  0.8134 -0.0687
  915MPD2     C13445   0.394   2.982  15.765 -0.3909 -0.2320  0.4162
  915MPD2    C113446   0.283   3.026  15.700  0.2344 -0.7740 -0.0617
  915MPD2    C213447   0.191   3.105  15.779 -0.5998 -0.2856  0.1789
  915MPD2    C313448   0.207   3.104  15.916 -0.8848 -0.6605  0.5099
  915MPD2    C413449   0.323   3.049  15.974 -0.5030  0.0050 -0.3970
  915MPD2    C513450   0.414   2.992  15.897 -0.2374  0.1207 -0.0414
  915MPD2     H13451   0.096   3.135  15.736  0.3959  0.9706 -1.1437
  915MPD2    H113452   0.329   3.058  16.082  0.2838  1.5477 -0.5768
  915MPD2    H213453   0.471   2.930  15.710 -1.4367 -2.4851  1.0879
  915MPD2    H313454   0.508   2.963  15.944 -0.7489 -0.1342  0.8297
  915MPD2     N13455   0.100   3.169  15.994  0.4200 -0.3720 -0.3375
  915MPD2    H513456   0.029   3.216  15.940 -0.2478 -1.2699 -0.2356
  915MPD2    N113457   0.257   2.992  15.564  0.5799  0.6799 -0.0954
  915MPD2    H713458   0.316   2.919  15.525  0.4353  0.9088 -0.7382
  916MPD2     C13459   2.793   0.988  16.183  0.2518  0.9053  0.2384
  916MPD2    C113460   2.886   0.948  16.275 -0.4860  0.4750 -0.5227
  916MPD2    C213461   2.988   0.858  16.235 -0.1788  0.7838 -0.2487
  916MPD2    C313462   2.992   0.814  16.101  0.4251 -0.1467 -0.6187
  916MPD2    C413463   2.889   0.854  16.015 -0.1496 -0.1864  0.6409
  916MPD2    C513464   2.795   0.948  16.057  0.2813  0.4448  0.2951
  916MPD2     H13465   3.068   0.820  16.298  0.2883  0.0751 -1.2707
  916MPD2    H113466   2.888   0.825  15.911  1.0499 -2.9523  1.4190
  916MPD2    H213467   2.717   1.065  16.199  0.4908  0.8476  1.6097
  916MPD2    H313468   2.714   0.969  15.987 -0.3988  3.7360  2.0903
  916MPD2     N13469   3.097   0.726  16.062 -0.4212  0.0911  0.0154
  916MPD2    H513470   3.183   0.716  16.115 -0.2508 -2.5708 -0.7572
  916MPD2    N113471   2.879   0.997  16.404  0.2905  0.4718 -0.0816
  916MPD2    H713472   2.808   1.069  16.411  0.5208  0.6158  0.8120
  917MPD2     C13473   3.099   2.965  11.441 -0.6695  0.8047 -0.4510
  917MPD2    C113474   3.170   3.033  11.541 -0.4982  0.3943 -0.2914
  917MPD2    C213475   3.274   3.114  11.498  0.5837 -0.2334  0.0401
  917MPD2    C313476   3.309   3.134  11.366  0.8676  0.1037 -1.0260
  917MPD2    C413477   3.235   3.058  11.278  0.4181 -0.3128  0.1093
  917MPD2    C513478   3.135   2.974  11.310 -0.4801 -0.6968  0.2137
  917MPD2     H13479   3.335   3.165  11.572 -2.5155  2.6201  0.5810
  917MPD2    H113480   3.251   3.070  11.172 -1.7846  2.7034  0.1061
  917MPD2    H213481   3.015   2.903  11.467  2.0187 -1.5600  2.5814
  917MPD2    H313482   3.079   2.919  11.236  0.8354 -1.2822 -0.3505
  917MPD2     N13483   3.403   3.227  11.338 -0.6556  1.5193 -0.7514
  917MPD2    H513484   3.431   3.293  11.410 -1.2558 -0.2199  1.0685
  917MPD2    N113485   3.121   3.007  11.672  0.3891 -0.5854 -0.3211
  917MPD2    H713486   3.039   2.948  11.680 -0.8559  1.1496 -0.3318
  918MPD2     C13487   3.257   3.571  12.474  0.2161  0.5022 -0.9875
  918MPD2    C113488   3.349   3.473  12.454 -0.5028  0.0514  0.5979
  918MPD2    C213489   3.308   3.358  12.386 -0.6411  0.7597  0.8120
  918MPD2    C313490   3.179   3.340  12.352 -0.2340  0.8699 -0.0237
  918MPD2    C413491   3.082   3.434  12.391  0.7091 -0.0264 -0.6517
  918MPD2    C513492   3.124   3.547  12.447  0.4040 -0.4675 -0.6724
  918MPD2     H13493   3.382   3.285  12.356 -0.4249  1.3316 -0.0404
  918MPD2    H113494   2.977   3.415  12.367 -0.3569  1.0931  3.1327
  918MPD2    H213495   3.274   3.671  12.514 -0.6788 -0.0959  0.8844
  918MPD2    H313496   3.052   3.625  12.471  0.6366 -0.7719  1.0118
  918MPD2     N13497   3.155   3.229  12.273 -0.7721  0.0996 -0.1272
  918MPD2    H513498   3.232   3.171  12.243 -0.9549 -0.3690  0.3044
  918MPD2    N113499   3.487   3.486  12.488 -0.5810 -0.0500 -0.1998
  918MPD2    H713500   3.542   3.402  12.476  0.6402  0.5995  0.8859
  919MPD2     C13501   3.870   2.714  12.255  0.5101 -0.2698 -0.4525
  919MPD2    C113502   3.796   2.604  12.211 -0.2794  0.3304 -0.1313
  919MPD2    C213503   3.750   2.594  12.080  0.3347 -0.6466  0.1865
  919MPD2    C313504   3.798   2.683  11.981 -0.6209  0.1605  0.0610
  919MPD2    C413505   3.866   2.794  12.022  1.2851  0.3449 -0.0233
  919MPD2    C513506   3.903   2.802  12.158  0.8419  0.3815  0.7943
  919MPD2     H13507   3.701   2.500  12.057 -0.5266 -0.2079  0.2562
  919MPD2    H113508   3.894   2.874  11.955  0.1601 -0.7310 -1.8019
  919MPD2    H213509   3.910   2.726  12.354  1.4476  0.5322 -0.9363
  919MPD2    H313510   3.978   2.876  12.184  0.4465  1.3480 -0.8151
  919MPD2     N13511   3.777   2.666  11.842  0.4490  0.2215  0.4668
  919MPD2    H513512   3.813   2.740  11.784  1.5049 -0.7145 -0.0731
  919MPD2    N113513   3.781   2.497  12.300  0.6490  0.1201 -0.1755
  919MPD2    H713514   3.729   2.420  12.259 -0.3165  0.2187  0.8530
  920MPD2     C13515   3.975   2.738  10.880 -0.0349 -0.2630 -0.0918
  920MPD2    C113516   3.868   2.654  10.878  0.1972  0.4066  0.2754
  920MPD2    C213517   3.825   2.599  10.995 -0.1120 -0.1450 -0.8252
  920MPD2    C313518   3.893   2.613  11.114  0.5815  0.0427  0.7163
  920MPD2    C413519   4.005   2.693  11.110 -0.3142  0.0629  0.0717
  920MPD2    C513520   4.046   2.754  10.996 -0.1060  0.0872  0.3375
  920MPD2     H13521   3.737   2.535  10.997 -0.3948  0.2797  0.7420
  920MPD2    H113522   4.053   2.722  11.203 -3.0238  0.9617  1.1872
  920MPD2    H213523   4.016   2.783  10.791  1.2175 -0.7067  0.2615
  920MPD2    H313524   4.130   2.822  11.005 -0.5093  0.4155  1.6034
  920MPD2     N13525   3.836   2.558  11.226  0.4174 -0.0716 -0.7702
  920MPD2    H513526   3.752   2.500  11.222 -0.0950  0.6920 -1.2547
  920MPD2    N113527   3.792   2.627  10.760  0.1971 -0.0797  0.2726
  920MPD2    H713528   3.707   2.573  10.772 -0.6184  1.6299  2.2842
  921MPD2     C13529   4.584   2.102  17.066  0.3194  0.1891 -0.9865
  921MPD2    C113530   4.676   2.000  17.066  0.2916  0.6611 -0.3682
  921MPD2    C213531   4.628   1.874  17.098  0.0404  0.3575 -0.3024
  921MPD2    C313532   4.494   1.852  17.140 -0.2296 -0.0774 -0.0992
  921MPD2    C413533   4.415   1.966  17.151  0.4488  0.1605 -0.0917
  921MPD2    C513534   4.455   2.082  17.102 -0.0670  0.5253 -0.8867
  921MPD2     H13535   4.697   1.791  17.089 -1.2736 -0.6803 -0.7617
  921MPD2    H113536   4.312   1.955  17.184 -0.0069  1.5993 -1.0542
  921MPD2    H213537   4.610   2.206  17.046 -0.1349  0.9443  2.3846
  921MPD2    H313538   4.387   2.166  17.115  2.6506  2.8041 -1.3652
  921MPD2     N13539   4.439   1.725  17.169 -0.3660 -0.2042  0.5790
  921MPD2    H513540   4.348   1.728  17.213 -1.4736 -1.3622 -1.6121
  921MPD2    N113541   0.072   2.033  17.046  0.0478 -0.3789  0.2708
  921MPD2    H713542   0.091   2.126  17.011  2.5697 -1.2650 -0.7929
  922MPD2     C13543   0.917   4.204  17.543  0.1683  0.3101  0.6513
  922MPD2    C113544   0.802   4.274  17.577  0.2242 -0.0786  0.3823
  922MPD2    C213545   0.681   4.205  17.592  0.5737  0.7402 -0.4457
  922MPD2    C313546   0.678   4.062  17.581 -0.3465  0.3874 -0.2420
  922MPD2    C413547   0.796   3.996  17.553  0.5949 -0.3877 -0.1911
  922MPD2    C513548   0.913   4.066  17.532 -0.1632  0.8596 -0.4699
  922MPD2     H13549   0.591   4.265  17.607  0.2232  0.0357  0.3104
  922MPD2    H113550   0.791   3.888  17.542 -2.2735 -0.0862 -1.8940
  922MPD2    H213551   1.011   4.248  17.513  1.0502 -1.1677  1.2735
  922MPD2    H313552   1.005   4.009  17.520 -0.2443  0.9205 -1.4456
  922MPD2     N13553   0.550   3.992  17.593  0.0498  0.7789  0.3061
  922MPD2    H513554   0.470   4.043  17.628 -0.8858 -0.7688  0.4117
  922MPD2    N113555   0.810   4.420  17.586  0.6084  0.6541  0.1256
  922MPD2    H713556   0.726   4.471  17.612  0.6378  1.6400 -1.7052
  923MPD2     C13557   2.466   0.942  10.002  0.5463 -0.1397  0.2022
  923MPD2    C113558   2.466   1.073   9.949 -0.4548  0.5795  0.0791
  923MPD2    C213559   2.548   1.173  10.013 -0.3917  0.4923 -0.2928
  923MPD2    C313560   2.617   1.145  10.126 -0.0114  0.9738  0.0229
  923MPD2    C413561   2.616   1.016  10.170  0.3029  0.1740 -0.7553
  923MPD2    C513562   2.543   0.914  10.111  0.1427  0.1820  0.3520
  923MPD2     H13563   2.544   1.274   9.973 -1.0727  0.6141  0.0778
  923MPD2    H113564   2.669   0.997  10.262 -0.4609 -1.1669 -0.5827
  923MPD2    H213565   2.411   0.861   9.954  0.4921 -1.5156  2.5722
  923MPD2    H313566   2.552   0.814  10.152 -0.0069  0.1338  0.2684
  923MPD2     N13567   2.697   1.237  10.199  0.0446  0.0052  0.3454
  923MPD2    H513568   2.753   1.209  10.279  0.4368 -0.0405  0.0582
  923MPD2    N113569   2.392   1.107   9.829 -0.1630  0.2480 -0.4058
  923MPD2    H713570   2.322   1.040   9.799  0.3595 -1.5302  2.3108
  924MPD2     C13571   1.968   4.240  16.209  0.7473 -0.1862  0.1184
  924MPD2    C113572   1.896   4.238  16.326 -0.0066  0.5714 -0.0388
  924MPD2    C213573   1.887   4.352  16.401  0.2557  0.7864 -0.3104
  924MPD2    C313574   1.945   4.468  16.358  0.4753  0.2587  0.2025
  924MPD2    C413575   2.008   4.477  16.238 -0.0170  0.3066 -0.0394
  924MPD2    C513576   2.018   4.360  16.165 -0.1454 -0.0358  0.1387
  924MPD2     H13577   1.839   4.347  16.498 -0.8114 -1.4434 -0.9575
  924MPD2    H113578   2.063   4.564  16.206  2.8541 -1.4601  0.0617
  924MPD2    H213579   1.966   4.156  16.142 -0.3489 -1.5497  1.8573
  924MPD2    H313580   2.071   4.371  16.071  1.1942 -1.3947  0.7254
  924MPD2     N13581   1.936   4.586  16.432 -0.0311 -0.3985  0.5564
  924MPD2    H513582   1.956   4.672  16.382  0.7801 -0.5741  0.5711
  924MPD2    N113583   1.858   4.112  16.371  0.1925 -0.6196  0.0219
  924MPD2    H713584   1.902   4.031  16.330  1.0959 -1.0343  1.7984
  925MPD2     C13585   0.811   1.929  14.922  0.2565 -0.1660  0.0094
  925MPD2    C113586   0.692   1.989  14.899 -0.3107  0.2491  0.0626
  925MPD2    C213587   0.611   2.033  15.003  0.0861  0.1681 -0.3570
  925MPD2    C313588   0.663   2.033  15.126  0.3050  0.6055  0.1042
  925MPD2    C413589   0.792   1.987  15.154  0.2755  0.1974 -1.0145
  925MPD2    C513590   0.861   1.923  15.055 -0.2835  0.7448 -0.1813
  925MPD2     H13591   0.512   2.072  14.980 -0.6330 -0.6349  1.4203
  925MPD2    H113592   0.837   2.000  15.252 -0.7937 -2.9514 -0.1337
  925MPD2    H213593   0.877   1.900  14.841  0.4711  0.7564 -0.1526
  925MPD2    H313594   0.965   1.897  15.067 -0.5778  0.4457  1.7602
  925MPD2     N13595   0.592   2.081  15.236 -0.7093 -0.1611 -0.4956
  925MPD2    H513596   0.636   2.063  15.326 -1.2856 -0.2709 -0.2375
  925MPD2    N113597   0.642   1.992  14.765  0.2329 -0.3354 -0.4162
  925MPD2    H713598   0.544   2.017  14.757  0.3810 -0.3211 -2.3700
  926MPD2     C13599   3.989   0.314  13.823  0.5491  0.0973 -0.6156
  926MPD2    C113600   3.975   0.450  13.839 -0.3763  0.3226 -0.3548
  926MPD2    C213601   4.042   0.539  13.760  0.4924 -0.2211  0.4188
  926MPD2    C313602   4.105   0.495  13.645  0.5560 -0.3375  0.0925
  926MPD2    C413603   4.121   0.359  13.628  0.0946  0.0818  0.2501
  926MPD2    C513604   4.070   0.270  13.726 -0.0249 -0.2112 -0.3252
  926MPD2     H13605   4.026   0.644  13.784  3.7227  0.6186 -1.0641
  926MPD2    H113606   4.177   0.325  13.542 -0.0680  1.1884 -0.2943
  926MPD2    H213607   3.944   0.232  13.880  0.0668  0.6207 -0.2419
  926MPD2    H313608   4.080   0.163  13.714 -1.0170 -0.3434  0.0112
  926MPD2     N13609   4.167   0.579  13.538  0.1357 -0.2193 -0.3678
  926MPD2    H513610   4.209   0.532  13.458  2.7111  1.9059 -0.2964
  926MPD2    N113611   3.877   0.512  13.920 -0.3998  0.2558  0.0142
  926MPD2    H713612   3.870   0.613  13.918  0.5392  0.3220 -0.0720
  927MPD2     C13613   3.548   2.876   0.214  0.3274 -0.2022 -0.0348
  927MPD2    C113614   3.543   2.747   0.171 -0.3091  0.2606  0.4150
  927MPD2    C213615   3.640   2.710   0.078  0.9454  0.3383 -0.4820
  927MPD2    C313616   3.737   2.792   0.028  0.4169  0.2631 -0.6908
  927MPD2    C413617   3.729   2.929   0.067 -0.1445 -0.3250 -0.0551
  927MPD2    C513618   3.633   2.968   0.161  0.0598 -0.6199  0.0585
  927MPD2     H13619   3.654   2.606   0.053  0.5483  0.6094 -1.8471
  927MPD2    H113620   3.795   3.005   0.026  1.3554 -1.3101  0.5223
  927MPD2    H213621   3.488   2.906   0.299 -0.6949  0.2646 -0.9203
  927MPD2    H313622   3.613   3.071   0.188  1.9299 -0.2649  0.0652
  927MPD2     N13623   3.837   2.739  17.686 -0.3020 -0.7054 -0.4016
  927MPD2    H513624   3.833   2.638  17.674 -0.1567 -0.7178 -0.3491
  927MPD2    N113625   3.453   2.654   0.232  0.0114 -0.2287  0.0272
  927MPD2    H713626   3.376   2.693   0.286  2.3504  0.5058  2.8346
  928MPD2     C13627   1.471   0.611   1.284  0.8952 -0.1820  0.3107
  928MPD2    C113628   1.554   0.714   1.339 -0.1625 -1.3612 -0.1848
  928MPD2    C213629   1.670   0.741   1.271 -0.0975 -0.3996 -0.5991
  928MPD2    C313630   1.711   0.673   1.160 -0.0218  0.4899 -0.5403
  928MPD2    C413631   1.618   0.595   1.092  0.6077 -0.0938 -0.5194
  928MPD2    C513632   1.498   0.556   1.163 -0.0733  0.1573 -0.1667
  928MPD2     H13633   1.737   0.816   1.313  0.5470 -1.2949 -0.0436
  928MPD2    H113634   1.649   0.547   1.000  1.1599  1.3052 -1.0662
  928MPD2    H213635   1.381   0.578   1.334  1.7892 -0.0638  1.9755
  928MPD2    H313636   1.423   0.488   1.124  0.2610 -0.7394  0.7353
  928MPD2     N13637   1.837   0.701   1.103  0.3636 -0.1298  0.6544
  928MPD2    H513638   1.844   0.663   1.009  1.9288 -2.7752  1.8449
  928MPD2    N113639   1.519   0.771   1.461 -0.0772  0.4152  0.3879
  928MPD2    H713640   1.434   0.726   1.495  1.6969 -0.3060  3.8507
  929MPD2     C13641   1.491   0.677  10.622  0.4625 -0.0618 -1.1355
  929MPD2    C113642   1.442   0.687  10.493  0.1791  0.2444 -0.4695
  929MPD2    C213643   1.415   0.814  10.438  0.3924  0.6121 -0.4237
  929MPD2    C313644   1.469   0.925  10.501  0.0078  0.4118  0.6066
  929MPD2    C413645   1.541   0.906  10.618 -0.3872  0.0685 -1.0053
  929MPD2    C513646   1.537   0.785  10.685  0.3999 -0.7544  0.1414
  929MPD2     H13647   1.368   0.831  10.342 -0.6512  2.2151  0.3580
  929MPD2    H113648   1.592   0.992  10.660  0.8257 -0.8283 -0.6726
  929MPD2    H213649   1.503   0.576  10.660 -4.8441 -0.0105  0.7324
  929MPD2    H313650   1.586   0.777  10.781 -0.9703  0.9990  0.9939
  929MPD2     N13651   1.466   1.061  10.456 -0.2790 -0.3027 -0.0928
  929MPD2    H513652   1.522   1.128  10.509 -1.6637  0.6431  0.1836
  929MPD2    N113653   1.417   0.563  10.421 -0.2214 -0.0125 -0.1577
  929MPD2    H713654   1.403   0.473  10.467  0.9460  0.0275  0.2583
  930MPD2     C13655   3.506   3.338  14.426  0.2765  0.3067 -0.1525
  930MPD2    C113656   3.643   3.358  14.423  0.3347  0.1379 -0.0350
  930MPD2    C213657   3.720   3.287  14.332  0.6966  0.1172 -0.7172
  930MPD2    C313658   3.654   3.206  14.239 -0.3930 -0.3427 -0.1907
  930MPD2    C413659   3.526   3.177  14.261  0.6937 -1.0564  0.8062
  930MPD2    C513660   3.450   3.233  14.356  0.4167 -0.1671  0.1299
  930MPD2     H13661   3.820   3.316  14.304  1.0198  0.0442  0.3661
  930MPD2    H113662   3.482   3.108  14.190 -0.7023 -0.1680  0.8270
  930MPD2    H213663   3.446   3.392  14.498  1.5625  1.2918  0.1919
  930MPD2    H313664   3.346   3.204  14.367  0.0153  1.2213 -0.0805
  930MPD2     N13665   3.715   3.164  14.117  0.5338  0.2540 -0.0161
  930MPD2    H513666   3.653   3.124  14.046 -0.2007 -0.1097  0.8362
  930MPD2    N113667   3.693   3.469  14.492  0.2849 -0.2239 -0.0144
  930MPD2    H713668   3.623   3.530  14.534 -1.1374 -0.2790 -2.2989
  931MPD2     C13669   3.778   2.676   0.720 -0.1185  0.8291  0.3655
  931MPD2    C113670   3.710   2.569   0.766 -0.2871 -0.5948  0.2037
  931MPD2    C213671   3.734   2.528   0.896  0.5105  0.3489 -0.5473
  931MPD2    C313672   3.856   2.571   0.959 -0.7246  0.1455 -0.8020
  931MPD2    C413673   3.924   2.678   0.898 -0.1574 -0.5543 -0.7776
  931MPD2    C513674   3.889   2.728   0.777  0.3895 -0.3544  0.3553
  931MPD2     H13675   3.685   2.441   0.939  0.6247  0.6244  0.1549
  931MPD2    H113676   4.011   2.721   0.946 -1.5335 -0.7106  1.8188
  931MPD2    H213677   3.737   2.717   0.628  2.1086  4.3638  0.9364
  931MPD2    H313678   3.936   2.818   0.738 -0.6975  0.3565  0.6592
  931MPD2     N13679   3.899   2.537   1.088  0.4055  0.0762 -0.0776
  931MPD2    H513680   3.974   2.602   1.110  2.6223 -1.8910 -1.7619
  931MPD2    N113681   3.587   2.533   0.703 -0.9675 -0.2768  0.0990
  931MPD2    H713682   3.555   2.599   0.633 -1.4093  0.8615  1.3905
  932MPD2     C13683   0.415   2.405  11.684 -0.7531  0.4146  0.7626
  932MPD2    C113684   0.518   2.319  11.711 -0.0534 -0.4989  0.2544
  932MPD2    C213685   0.508   2.182  11.701 -0.5005 -0.3430  1.3007
  932MPD2    C313686   0.382   2.133  11.662  0.1977 -0.3124  0.1664
  932MPD2    C413687   0.280   2.225  11.642 -0.0954 -0.3790  0.1752
  932MPD2    C513688   0.294   2.359  11.638 -0.6077 -0.0172  0.6594
  932MPD2     H13689   0.586   2.119  11.742 -0.8385 -0.8463  1.1691
  932MPD2    H113690   0.182   2.183  11.626  0.6685 -1.3526 -1.9433
  932MPD2    H213691   0.429   2.512  11.684  0.4399  0.2554  1.5243
  932MPD2    H313692   0.213   2.425  11.608  0.2285  0.4074 -0.6442
  932MPD2     N13693   0.354   1.997  11.664 -0.0832 -0.0619 -0.4174
  932MPD2    H513694   0.255   1.978  11.648 -0.4564  1.7071 -0.1720
  932MPD2    N113695   0.641   2.373  11.759 -0.9286  0.1382 -0.3901
  932MPD2    H713696   0.706   2.295  11.773 -1.1902 -0.0576 -0.2647
  933MPD2     C13697   0.936   1.231   1.859  0.3958  0.0270  0.3764
  933MPD2    C113698   1.033   1.207   1.764  0.2826  0.1164 -0.7121
  933MPD2    C213699   1.036   1.285   1.649 -0.1912  0.4297 -0.2046
  933MPD2    C313700   0.942   1.379   1.623 -0.1825  0.3911  0.1071
  933MPD2    C413701   0.851   1.407   1.716 -0.1508  0.0338  0.0759
  933MPD2    C513702   0.839   1.330   1.829 -0.1405  0.1631 -0.1614
  933MPD2     H13703   1.112   1.263   1.574  0.5735  2.6720 -0.0618
  933MPD2    H113704   0.773   1.481   1.702 -0.0330 -0.2232 -1.8404
  933MPD2    H213705   0.935   1.182   1.955 -5.6622 -1.6519 -0.5870
  933MPD2    H313706   0.772   1.359   1.909  0.9011  3.0732 -0.3199
  933MPD2     N13707   0.945   1.454   1.502  0.5910  0.2729  0.6211
  933MPD2    H513708   1.023   1.437   1.439 -0.2442  0.7354 -0.5350
  933MPD2    N113709   1.132   1.114   1.798  0.1489 -0.2566  0.1011
  933MPD2    H713710   1.136   1.085   1.895 -1.5655  1.6207  0.7282
  934MPD2     C13711   2.954   3.496   2.246  0.6698  0.3944 -0.2379
  934MPD2    C113712   3.030   3.441   2.143 -0.4469 -0.4830  0.1305
  934MPD2    C213713   2.959   3.380   2.042  0.0974 -0.0686  0.0430
  934MPD2    C313714   2.821   3.370   2.045  0.3582  0.8082  0.0938
  934MPD2    C413715   2.750   3.418   2.151 -0.3869 -0.3976 -0.2436
  934MPD2    C513716   2.822   3.470   2.258 -0.0166  0.5200 -0.1063
  934MPD2     H13717   3.019   3.353   1.956 -2.6067  1.6340 -2.3775
  934MPD2    H113718   2.643   3.408   2.166 -0.5079 -0.8422 -1.4389
  934MPD2    H213719   2.998   3.555   2.326 -0.6318  1.2046 -0.1298
  934MPD2    H313720   2.772   3.514   2.343  2.4652 -1.1689  2.2302
  934MPD2     N13721   2.741   3.313   1.945 -0.2670  0.2581 -0.2944
  934MPD2    H513722   2.640   3.309   1.957 -0.3542 -0.2784 -1.2256
  934MPD2    N113723   3.173   3.449   2.136  0.3040  0.6808 -0.0938
  934MPD2    H713724   3.220   3.423   2.050  0.1958 -2.6075  0.8746
  935MPD2     C13725   3.063   2.595   1.327 -0.6031 -0.1956  0.4659
  935MPD2    C113726   2.952   2.646   1.257  0.1121 -0.1252  0.9939
  935MPD2    C213727   2.872   2.742   1.322  0.4544  0.3913  1.6503
  935MPD2    C313728   2.905   2.782   1.452 -0.5293 -0.1441  0.6976
  935MPD2    C413729   3.017   2.744   1.508  0.0146 -0.1920 -0.2078
  935MPD2    C513730   3.098   2.653   1.444 -0.2742 -0.1897 -0.7668
  935MPD2     H13731   2.783   2.778   1.272  0.9947 -0.3474  0.1636
  935MPD2    H113732   3.049   2.777   1.606 -0.4385 -2.5946  0.7431
  935MPD2    H213733   3.121   2.511   1.291 -1.8277 -0.3596 -1.1572
  935MPD2    H313734   3.184   2.617   1.499 -0.8715 -0.7418 -0.1898
  935MPD2     N13735   2.834   2.875   1.531  0.4858 -0.3519  0.3272
  935MPD2    H513736   2.877   2.905   1.618  1.9783  1.0208 -0.8962
  935MPD2    N113737   2.909   2.604   1.129  0.2581 -0.3108 -0.0327
  935MPD2    H713738   2.823   2.645   1.096 -0.2450 -0.2727  1.3301
  936MPD2     C13739   2.071   4.544  13.179  0.4202  0.1125 -0.5430
  936MPD2    C113740   2.054   4.683  13.189  0.1260 -0.6484  0.2051
  936MPD2    C213741   2.043   0.028  13.079  0.5144 -0.2522  0.6200
  936MPD2    C313742   2.055   4.709  12.954  0.2312  0.6600 -0.0027
  936MPD2    C413743   2.055   4.573  12.942 -0.0370 -0.0476 -1.0253
  936MPD2    C513744   2.062   4.489  13.052  0.3709 -0.1796 -0.0314
  936MPD2     H13745   2.040   0.136  13.088 -2.5581  0.0004 -3.2734
  936MPD2    H113746   2.029   4.534  12.844 -0.4337 -0.6217 -0.6876
  936MPD2    H213747   2.098   4.479  13.261  0.7218 -0.4895 -1.1167
  936MPD2    H313748   2.075   4.383  13.038  2.2619 -0.0270  0.5936
  936MPD2     N13749   2.061   0.063  12.847  0.1128 -0.4958 -0.0253
  936MPD2    H513750   2.054   0.163  12.863  0.1034 -0.2033 -1.8966
  936MPD2    N113751   2.052   0.007  13.318 -0.1197 -0.0036 -0.3375
  936MPD2    H713752   2.033   0.107  13.321  0.9784  0.2507 -2.3126
  937MPD2     C13753   3.947   1.915  12.028 -0.1251 -0.3002  0.0110
  937MPD2    C113754   4.028   1.997  12.103 -0.1046  0.2634  0.5527
  937MPD2    C213755   4.138   2.044  12.037 -0.6763 -0.8047 -0.1543
  937MPD2    C313756   4.181   2.011  11.911 -0.3366 -0.7196  0.6673
  937MPD2    C413757   4.098   1.932  11.838  0.7288  0.2575  0.3877
  937MPD2    C513758   3.988   1.880  11.896 -0.1823  0.0296 -0.4064
  937MPD2     H13759   4.201   2.112  12.094 -1.1401 -2.5809  2.4323
  937MPD2    H113760   4.123   1.910  11.735 -0.7770 -1.4950  0.4015
  937MPD2    H213761   3.851   1.878  12.062  0.1046 -1.1620 -0.2674
  937MPD2    H313762   3.928   1.807  11.842 -2.3724  1.2764  0.3134
  937MPD2     N13763   4.296   2.077  11.863  0.4145 -0.5995 -0.1467
  937MPD2    H513764   4.341   2.141  11.929 -0.1470  0.2565 -0.5978
  937MPD2    N113765   3.976   2.070  12.214 -0.1505  0.1909  0.6728
  937MPD2    H713766   4.036   2.141  12.255  2.2851 -0.5786 -1.5332
  938MPD2     C13767   1.784   2.688   0.562  0.5276 -0.5681  0.2043
  938MPD2    C113768   1.823   2.738   0.679  0.7659  0.3375 -0.2163
  938MPD2    C213769   1.832   2.649   0.787  0.1525 -0.4992 -0.0024
  938MPD2    C313770   1.790   2.522   0.762 -0.0115 -0.5492 -0.1670
  938MPD2    C413771   1.748   2.472   0.642 -0.4146 -0.6408 -0.1767
  938MPD2    C513772   1.757   2.557   0.540  0.0672  0.5495  0.0452
  938MPD2     H13773   1.853   2.702   0.879  1.3813 -1.1049  0.0626
  938MPD2    H113774   1.705   2.373   0.633  2.8513 -1.9988 -0.8018
  938MPD2    H213775   1.763   2.751   0.476  1.4526  0.2538  0.5871
  938MPD2    H313776   1.713   2.526   0.446 -1.8170  1.7835  0.5236
  938MPD2     N13777   1.770   2.432   0.863 -0.4374  0.5114  0.0421
  938MPD2    H513778   1.714   2.351   0.839 -0.3457  0.6717 -0.6876
  938MPD2    N113779   1.841   2.880   0.702 -0.6568  0.6486 -0.3126
  938MPD2    H713780   1.890   2.908   0.787  1.3341 -1.5089 -0.7430
  939MPD2     C13781   3.285   3.701   1.047 -0.2445 -0.4631 -0.4182
  939MPD2    C113782   3.170   3.773   1.047  0.6012  0.4095 -0.3957
  939MPD2    C213783   3.109   3.797   0.918 -0.5214 -0.1210  0.4975
  939MPD2    C313784   3.164   3.756   0.801 -0.8663 -0.4222 -0.2519
  939MPD2    C413785   3.291   3.697   0.811 -0.2485 -1.1997  0.1536
  939MPD2    C513786   3.344   3.668   0.930  0.3824 -0.2722 -0.7180
  939MPD2     H13787   3.015   3.851   0.918 -2.4611 -3.4779 -0.0073
  939MPD2    H113788   3.343   3.654   0.726  1.6108  1.0270  0.1741
  939MPD2    H213789   3.335   3.672   1.139  1.3736  0.8841 -0.8634
  939MPD2    H313790   3.432   3.606   0.939  0.5996  0.1959  0.4233
  939MPD2     N13791   3.086   3.764   0.685  0.7448 -0.9496  0.0574
  939MPD2    H513792   3.000   3.815   0.703 -0.4355 -2.4691 -1.1899
  939MPD2    N113793   3.120   3.808   1.167 -0.0918  0.2078 -0.1752
  939MPD2    H713794   3.179   3.789   1.247  1.1155  0.8811 -0.9054
  940MPD2     C13795   2.811   0.354  13.928 -0.5108 -0.9029 -0.0026
  940MPD2    C113796   2.704   0.266  13.915  0.7651 -0.1095  0.2850
  940MPD2    C213797   2.665   0.235  13.785  0.3862  0.6457  0.5999
  940MPD2    C313798   2.732   0.289  13.679 -0.2333 -0.2196 -0.1310
  940MPD2    C413799   2.841   0.374  13.697  0.0365  0.4381  0.0482
  940MPD2    C513800   2.872   0.417  13.823  1.1180 -0.4656  0.7409
  940MPD2     H13801   2.584   0.165  13.773  1.3187 -0.5833  1.4085
  940MPD2    H113802   2.886   0.427  13.614  0.8426 -1.3552 -0.6593
  940MPD2    H213803   2.841   0.384  14.028 -0.4876  0.9564 -0.5748
  940MPD2    H313804   2.953   0.489  13.831  1.8187 -0.9802 -1.6263
  940MPD2     N13805   2.699   0.272  13.539 -0.1783  0.4402  0.1000
  940MPD2    H513806   2.751   0.325  13.470 -0.1694 -0.4120 -0.5478
  940MPD2    N113807   2.641   0.198  14.024  0.5973 -0.7494 -0.5818
  940MPD2    H713808   2.559   0.144  13.997  0.1912  0.3976 -1.6231
  941MPD2     C13809   1.112   3.969  10.591 -0.2825  0.1475  0.0957
  941MPD2    C113810   1.248   3.947  10.591  0.2044 -0.1804  0.0474
  941MPD2    C213811   1.301   3.814  10.612 -0.9212  0.0534  0.4980
  941MPD2    C313812   1.210   3.709  10.630 -0.3393  0.1491  0.5732
  941MPD2    C413813   1.076   3.730  10.616  0.8117  0.2375  0.9833
  941MPD2    C513814   1.028   3.856  10.597 -0.0659  0.3811  0.4884
  941MPD2     H13815   1.408   3.802  10.618 -0.7494  1.6438  0.6086
  941MPD2    H113816   1.004   3.650  10.620 -1.0286  1.8289 -0.8158
  941MPD2    H213817   1.069   4.068  10.575  0.4229  0.3590 -0.5226
  941MPD2    H313818   0.921   3.861  10.584 -0.0048  0.9349  0.2185
  941MPD2     N13819   1.255   3.579  10.647 -0.4111 -0.0455  0.3244
  941MPD2    H513820   1.174   3.517  10.650 -1.0514  0.7749  0.0362
  941MPD2    N113821   1.348   4.049  10.579 -0.2454  0.5110  0.3572
  941MPD2    H713822   1.445   4.017  10.584  0.3521  2.0692 -1.1876
  942MPD2     C13823   0.956   1.851   9.239  0.6153 -0.8916  0.5758
  942MPD2    C113824   0.910   1.742   9.311  0.4655  0.2994 -0.1245
  942MPD2    C213825   0.983   1.619   9.321 -0.4246  1.2148  0.3299
  942MPD2    C313826   1.109   1.611   9.289 -0.2981 -0.4425 -0.1887
  942MPD2    C413827   1.168   1.728   9.248 -0.7661 -0.3916 -1.0965
  942MPD2    C513828   1.091   1.839   9.228  0.4846 -0.2333 -0.6618
  942MPD2     H13829   0.937   1.536   9.374  1.0166  1.1826  1.5411
  942MPD2    H113830   1.273   1.729   9.220 -0.5952  0.0839 -0.4297
  942MPD2    H213831   0.907   1.947   9.228  0.0506 -1.2442 -0.0600
  942MPD2    H313832   1.147   1.922   9.188  3.8573 -1.6851  1.0112
  942MPD2     N13833   1.189   1.496   9.319  0.8337 -0.2049 -0.6697
  942MPD2    H513834   1.289   1.504   9.305  0.5491  4.0564 -0.1700
  942MPD2    N113835   0.773   1.736   9.359 -0.9326  0.2741 -0.4112
  942MPD2    H713836   0.746   1.663   9.424  1.6412  0.0029  0.3474
  943MPD2     C13837   4.241   3.413  10.475  0.2146  0.0472  0.2754
  943MPD2    C113838   4.343   3.499  10.513  0.3246  0.3930  0.6402
  943MPD2    C213839   4.348   3.624  10.454 -0.4230 -0.0331  0.1389
  943MPD2    C313840   4.254   3.666  10.362 -0.4378 -0.2540 -0.3314
  943MPD2    C413841   4.147   3.583  10.333 -0.3393  0.2775  0.3243
  943MPD2    C513842   4.141   3.454  10.382  0.3690  1.0746  0.4361
  943MPD2     H13843   4.434   3.688  10.472 -1.0175  1.0143 -0.7226
  943MPD2    H113844   4.074   3.629  10.267  2.7947 -0.6351 -3.7608
  943MPD2    H213845   4.229   3.324  10.536  0.3077 -0.6837 -0.7730
  943MPD2    H313846   4.051   3.396  10.364 -0.2073  1.7890  1.0288
  943MPD2     N13847   4.259   3.793  10.295  0.2792  0.2415 -0.1590
  943MPD2    H513848   4.189   3.811  10.225 -0.4124  0.2329  0.5296
  943MPD2    N113849   4.438   3.451  10.608  0.3922 -0.4215  0.6382
  943MPD2    H713850   4.406   3.368  10.657  0.3643 -1.0008 -0.3739
  944MPD2     C13851   0.039   3.257  11.309  0.8449 -0.4770 -0.4754
  944MPD2    C113852   0.022   3.191  11.430  0.5865  0.5140 -0.0758
  944MPD2    C213853   4.632   3.207  11.485  0.3302  0.3156 -0.3533
  944MPD2    C313854   4.527   3.275  11.422 -0.0239  0.6255  0.4830
  944MPD2    C413855   4.557   3.340  11.304 -0.2791  0.0677  0.7339
  944MPD2    C513856   4.681   3.326  11.246  0.0161  0.5378  0.5628
  944MPD2     H13857   4.600   3.138  11.563 -0.7756  1.5190  0.2617
  944MPD2    H113858   4.486   3.394  11.243  0.8741  0.0029 -0.6639
  944MPD2    H213859   0.135   3.237  11.262  0.0957  0.2788 -2.3388
  944MPD2    H313860   4.700   3.387  11.157  3.4300 -0.9200  0.3097
  944MPD2     N13861   4.396   3.271  11.471 -0.8448 -0.3865  0.5004
  944MPD2    H513862   4.388   3.239  11.567 -0.5703 -0.6967  0.4187
  944MPD2    N113863   0.116   3.096  11.474 -0.3203 -0.4128  0.1761
  944MPD2    H713864   0.186   3.062  11.408 -0.3070  0.0763 -0.0592
    1TMC1    C113865   2.607   1.045  15.647  0.1490 -0.1328  0.3956
    1TMC1    C213866   2.632   0.922  15.596 -0.1912  0.5679  0.1206
    1TMC1    C313867   2.580   0.813  15.654  0.9421  0.8906 -0.3840
    1TMC1    C413868   2.514   1.068  15.749  0.0377  0.5579 -0.4671
    1TMC1    C513869   2.471   0.954  15.810 -0.6898  0.2714  0.2820
    1TMC1    C613870   2.502   0.829  15.767 -0.3124  0.4813 -0.7037
    1TMC1     C13871   2.658   1.164  15.568 -0.5821 -0.4888  0.0427
    1TMC1     O13872   2.650   1.273  15.631  0.0415  0.1272 -0.2217
    1TMC1     H13873   2.699   0.901  15.513 -0.8023 -0.3212 -0.1498
    1TMC1    H113874   2.498   1.166  15.792 -1.0778  0.4303 -0.5952
    1TMC1    H213875   2.454   0.750  15.824 -0.5909  2.4874  1.8444
    1TMC1    C713876   2.398   0.967  15.939  0.3356  0.5156 -0.4030
    1TMC1    C813877   2.570   0.684  15.582  0.2212  0.4410  0.4257
    1TMC1    O113878   2.379   0.872  16.012  0.2457 -0.0795 -0.2468
    1TMC1    O213879   2.600   0.668  15.466  0.4560  0.3567 -0.0667
    1TMC1    O313880   2.337   1.091  15.953 -0.4588  0.6448 -1.3216
    1TMC1    H313881   2.335   1.155  15.879 -0.5565  0.3880 -1.5430
    1TMC1    O513882   2.604   0.600  15.679  0.2671 -0.1239 -0.2957
    1TMC1    H513883   2.617   0.635  15.770  0.2853 -2.5050  0.6309
    2MPD2     C13884   2.944   1.384  15.204 -0.3352  0.2289 -0.5230
    2MPD2    C113885   2.881   1.264  15.151  0.0058  0.0032  0.1632
    2MPD2    C213886   2.804   1.186  15.230 -0.4983 -0.4717 -0.0791
    2MPD2    C313887   2.787   1.214  15.364 -0.2131  0.1386  0.4472
    2MPD2    C413888   2.841   1.335  15.415 -0.6986  0.0817  0.4572
    2MPD2    C513889   2.926   1.412  15.337 -0.7640  0.2487 -0.0554
    2MPD2     H13890   2.760   1.098  15.185  1.3294 -1.3914 -0.0394
    2MPD2    H113891   2.846   1.358  15.521  0.5369 -1.5249  0.7364
    2MPD2    H213892   3.008   1.438  15.135  1.4258  0.4426  1.3034
    2MPD2    H313893   2.964   1.503  15.383 -1.7427  0.8777 -0.5034
    2MPD2     N13894   2.704   1.129  15.445  0.0464  0.2570  0.0746
    2MPD2    H513895   2.661   1.048  15.402  0.2856  0.0919  0.1427
    2MPD2    N113896   2.924   1.233  15.017  0.5678 -0.4245  0.0713
    2MPD2    H713897   3.001   1.290  14.982 -0.3372  0.5850 -0.2632
    3TMC2    C113898   2.953   1.124  14.812  0.9684  0.8433 -0.0788
    3TMC2    C213899   3.035   1.224  14.777 -0.0115  0.0295 -0.4027
    3TMC2    C313900   3.098   1.206  14.655  0.8328  0.0340 -0.2258
    3TMC2    C413901   2.927   1.017  14.733  0.0725  0.1081 -0.3799
    3TMC2    C513902   2.989   1.008  14.618 -0.6836 -1.0039 -0.2456
    3TMC2    C613903   3.075   1.107  14.569  0.5254  0.1322 -0.4920
    3TMC2     C13904   2.882   1.131  14.938 -0.8489  0.5876  0.9185
    3TMC2     O13905   2.795   1.048  14.962  0.7022 -0.1057  0.2458
    3TMC2     H13906   3.049   1.319  14.826  2.2367 -0.4582 -0.0855
    3TMC2    H113907   2.885   0.928  14.779 -0.2120 -0.6733 -2.1579
    3TMC2    H213908   3.147   1.096  14.488 -0.4602 -1.0524 -1.2181
    3TMC2    C713909   2.967   0.887  14.541  0.0290 -0.0616 -0.3340
    3TMC2    C813910   3.165   1.318  14.613  0.1282  0.6486 -0.2688
    3TMC2    O113911   2.911   0.795  14.604  0.1958  0.5059 -1.0139
    3TMC2    O213912   3.207   1.404  14.691  0.7054  0.1451  0.1401
    3TMC2    O513913   3.122   1.345  14.493 -0.5890  0.2779  0.0292
    3TMC2    H513914   3.063   1.279  14.451 -0.7446 -1.2587  2.7036
    4TMC2    C113915   2.592   0.991  13.609  0.5458 -0.4751  0.3593
    4TMC2    C213916   2.619   0.888  13.527 -0.3940 -0.2334  0.0921
    4TMC2    C313917   2.716   0.800  13.558 -0.6735 -0.4083  0.1796
    4TMC2    C413918   2.677   1.019  13.716  0.0260  0.5563 -0.4569
    4TMC2    C513919   2.777   0.927  13.746  0.4283  0.1731 -0.0095
    4TMC2    C613920   2.796   0.818  13.666 -0.7338  0.4429 -0.7281
    4TMC2     C13921   2.457   1.039  13.623  0.6582  0.0418  0.8871
    4TMC2     O13922   2.432   1.079  13.735  0.0618  0.2014  0.5858
    4TMC2     H13923   2.560   0.865  13.439  0.8104  0.6422 -0.9474
    4TMC2    H113924   2.651   1.094  13.790 -1.6154  0.8751 -1.3412
    4TMC2    H213925   2.875   0.748  13.691 -1.0667 -0.2649 -1.6415
    4TMC2    C713926   2.830   0.936  13.880  0.0620 -0.0620 -0.7683
    4TMC2    C813927   2.682   0.665  13.516  0.5848 -0.2176 -0.0432
    4TMC2    O113928   2.868   1.046  13.920 -0.1543 -0.4027 -0.0012
    4TMC2    O213929   2.573   0.630  13.483  0.3706  0.0680  0.6912
    4TMC2    O513930   2.797   0.597  13.475  0.6587 -0.0107  0.0959
    4TMC2    H513931   2.878   0.651  13.482 -0.4846  1.8609 -0.9813
    5MPD2     C13932   1.971   0.873  13.538 -0.9660 -0.2693 -0.5540
    5MPD2    C113933   2.036   0.875  13.418  0.1901  0.3816 -0.4182
    5MPD2    C213934   2.171   0.930  13.414 -0.3853  0.2760 -0.5224
    5MPD2    C313935   2.237   0.967  13.530  0.1448 -0.1969  0.1160
    5MPD2    C413936   2.176   0.945  13.650  0.2475 -0.8059 -0.2728
    5MPD2    C513937   2.044   0.913  13.650 -0.0564 -0.0144 -0.0935
    5MPD2     H13938   2.226   0.932  13.321 -0.3898 -0.1049 -0.5304
    5MPD2    H113939   2.221   0.970  13.745  1.2864 -1.8286 -0.4986
    5MPD2    H213940   1.865   0.856  13.554 -0.8087 -1.5443 -0.8987
    5MPD2    H313941   1.991   0.908  13.745 -1.1750  1.3552 -0.6634
    5MPD2     N13942   2.371   1.000  13.516 -0.2296  1.3861  0.0093
    5MPD2    H513943   2.413   0.977  13.427 -0.4779  1.7069 -0.1870
    5MPD2    N113944   1.970   0.816  13.307 -0.1379 -0.1044  0.1720
    5MPD2    H713945   1.881   0.769  13.322 -1.9085  2.2025 -3.1064
    6MPD1     C13946   1.321   1.726  13.367  0.9546 -0.1269  0.0835
    6MPD1    C113947   1.203   1.668  13.415  0.9864  0.3897 -0.2946
    6MPD1    C213948   1.158   1.546  13.346  0.0621  0.0360  0.0092
    6MPD1    C313949   1.222   1.500  13.232  0.0998 -0.6671 -0.6835
    6MPD1    C413950   1.339   1.556  13.197  0.5302 -0.3826  0.1832
    6MPD1    C513951   1.388   1.663  13.265  0.2174 -0.3210  0.0123
    6MPD1     H13952   1.065   1.495  13.371  0.6067 -0.5278  0.8541
    6MPD1    H113953   1.403   1.508  13.124  2.9283 -0.7733  2.5094
    6MPD1    H213954   1.362   1.821  13.398 -0.6429  0.9073 -0.9254
    6MPD1    H313955   1.479   1.696  13.215 -0.0222  1.3064  0.6569
    6MPD1     N13956   1.173   1.401  13.148  0.4010 -0.2462  0.5511
    6MPD1    H513957   1.223   1.386  13.061  1.8969  0.1735  1.3255
    6MPD1    N113958   1.130   1.719  13.517  0.0993 -0.3245 -0.0050
    6MPD1    H613959   1.141   1.820  13.524  0.9419 -0.3174 -1.3461
    6MPD1    H713960   1.029   1.707  13.521  0.0579 -0.6362 -2.2615
    7MPD2     C13961   1.167   0.703  13.294 -0.4101 -0.3426  0.1826
    7MPD2    C113962   1.212   0.740  13.168 -0.2656 -0.1810  0.8481
    7MPD2    C213963   1.329   0.688  13.126 -0.1968 -0.0461  0.2290
    7MPD2    C313964   1.417   0.623  13.210  0.3151  0.5573 -0.1547
    7MPD2    C413965   1.375   0.606  13.338 -0.2175 -0.0955  0.0479
    7MPD2    C513966   1.249   0.638  13.380 -0.1887 -0.4697  0.7703
    7MPD2     H13967   1.365   0.690  13.024 -0.6768  1.3443  0.0896
    7MPD2    H113968   1.431   0.553  13.414  0.4391  0.5216  0.0003
    7MPD2    H213969   1.066   0.723  13.327 -0.3976 -0.0966  0.0779
    7MPD2    H313970   1.218   0.608  13.479  1.2078  1.6006  1.8117
    7MPD2     N13971   1.555   0.600  13.174 -0.2036 -0.2602  0.4702
    7MPD2    H513972   1.624   0.581  13.245 -0.7558 -0.2263  1.0179
    7MPD2    N113973   1.142   0.822  13.078 -0.4468  0.7431  0.4352
    7MPD2    H713974   1.193   0.838  12.992 -0.2403 -2.3892 -0.0143
    8TMC3    C113975   1.749   0.599  13.025 -0.2296  0.1245 -0.1700
    8TMC3    C213976   1.827   0.656  13.123  0.4222  0.0021  0.2779
    8TMC3    C313977   1.941   0.725  13.084 -0.2516  0.2503  0.0013
    8TMC3    C413978   1.784   0.600  12.897  0.2062  0.4918  0.5164
    8TMC3    C513979   1.892   0.674  12.861 -0.4968  0.8760 -0.5925
    8TMC3    C613980   1.977   0.730  12.950 -0.0906  0.4658  0.0460
    8TMC3     C13981   1.605   0.610  13.042  0.1728  0.0946 -0.3928
    8TMC3     O13982   1.548   0.632  12.934 -0.1062 -0.3286  0.2738
    8TMC3     H13983   1.803   0.646  13.228 -0.7553  0.5074  0.0601
    8TMC3    H113984   1.716   0.545  12.833  1.0283  0.9026 -0.7035
    8TMC3    H213985   2.059   0.792  12.917 -0.5916  1.2094  0.1889
    8TMC3    C713986   1.860   0.761  12.750 -0.4039 -0.5716 -0.2520
    8TMC3    C813987   2.016   0.809  13.175  0.3786 -0.2221 -0.4252
    8TMC3    O113988   1.947   0.832  12.698 -0.3878 -0.2041  0.5534
    8TMC3    O213989   2.113   0.864  13.127  0.0993  0.0838 -0.1852
    9TMC3    C113990   1.039   1.223  13.055  0.7157 -0.8234  0.4512
    9TMC3    C213991   1.105   1.231  12.935  0.6363 -0.1321 -0.1674
    9TMC3    C313992   1.118   1.113  12.862  0.2724 -0.1734 -0.2127
    9TMC3    C413993   0.971   1.113  13.092 -0.0417 -0.5223 -0.6341
    9TMC3    C513994   1.005   0.996  13.022 -0.0607 -0.6659 -0.7522
    9TMC3    C613995   1.079   0.992  12.906  0.2855 -0.2052 -0.5109
    9TMC3     C13996   1.065   1.314  13.166 -0.3565 -0.1793 -0.4788
    9TMC3     O13997   1.002   1.293  13.270 -0.5152 -0.3195  0.1378
    9TMC3     H13998   1.126   1.325  12.886 -3.1000 -0.1142 -1.7606
    9TMC3    H113999   0.912   1.108  13.183  1.8128 -3.3341  0.4179
    9TMC3    H214000   1.102   0.898  12.857  2.4185  0.3253 -0.5372
    9TMC3    C714001   1.031   0.882  13.104  0.6142  0.0264  0.2777
    9TMC3    C814002   1.226   1.109  12.756 -0.4179 -0.5116 -0.2652
    9TMC3    O114003   0.964   0.874  13.205 -0.2496 -0.2535 -0.0711
    9TMC3    O214004   1.201   1.146  12.646 -0.5206 -0.4333  0.3474
   10MPD2     C14005   1.688   0.970  12.592  0.3022 -0.4813  0.2798
   10MPD2    C114006   1.654   0.886  12.697 -0.0478 -0.0490  0.5579
   10MPD2    C214007   1.534   0.911  12.760  0.9960  0.3732  0.7727
   10MPD2    C314008   1.439   0.998  12.713  0.4949 -0.1680 -0.2925
   10MPD2    C414009   1.477   1.069  12.601  0.4883 -0.0215 -0.4287
   10MPD2    C514010   1.595   1.060  12.541 -0.7367  0.1604 -0.5866
   10MPD2     H14011   1.510   0.838  12.837 -0.2862 -2.7128 -2.5526
   10MPD2    H114012   1.414   1.150  12.566  0.9390  1.2108  1.6463
   10MPD2    H214013   1.780   0.954  12.537  1.0089 -0.3673  1.4191
   10MPD2    H314014   1.615   1.118  12.451  3.3680 -1.2066 -0.5735
   10MPD2     N14015   1.328   1.022  12.797 -0.3797  0.4047  0.3996
   10MPD2    H514016   1.337   0.995  12.894 -0.3709 -1.9244 -0.2600
   10MPD2    N114017   1.731   0.784  12.756 -0.0999 -0.2125  0.4282
   10MPD2    H714018   1.682   0.730  12.828  3.9750 -2.3090  1.6211
   11MPD2     C14019   2.859   0.702  14.346  0.0947 -0.3104  0.0551
   11MPD2    C114020   2.906   0.827  14.308 -1.0686  0.5286 -0.4877
   11MPD2    C214021   2.893   0.870  14.173  0.3858 -0.2656  0.3890
   11MPD2    C314022   2.840   0.784  14.087 -0.2453 -0.4452  0.2789
   11MPD2    C414023   2.798   0.662  14.128 -0.1957 -0.2463 -0.7919
   11MPD2    C514024   2.797   0.622  14.258  0.4324 -0.3126  0.0187
   11MPD2     H14025   2.923   0.969  14.140  0.8898  0.3063  2.5031
   11MPD2    H114026   2.749   0.593  14.060 -1.7491  1.3415 -1.2933
   11MPD2    H214027   2.869   0.656  14.443 -0.5523 -2.7932 -1.0597
   11MPD2    H314028   2.758   0.526  14.290  1.3357 -0.5133  0.5236
   11MPD2     N14029   2.816   0.816  13.946  0.5034 -0.4343  0.1629
   11MPD2    H514030   2.773   0.741  13.892  3.1559 -1.4996 -0.4363
   11MPD2    N114031   2.968   0.909  14.405 -0.5227 -0.4048  0.6472
   11MPD2    H714032   2.978   1.002  14.365 -1.1640 -0.1163  1.1571
    1MPD1     C14033   0.291   1.262  17.160  1.0098 -0.0793  0.7225
    1MPD1    C114034   0.222   1.262  17.279 -0.1514  0.6461  0.1985
    1MPD1    C214035   0.156   1.378  17.317 -0.4676 -0.2121  0.2283
    1MPD1    C314036   0.171   1.498  17.253 -0.1704 -0.0872  0.7882
    1MPD1    C414037   0.250   1.498  17.143 -0.3997 -0.4406 -0.9896
    1MPD1    C514038   0.309   1.383  17.094  0.3612  0.4609  0.4435
    1MPD1     H14039   0.091   1.371  17.404  1.9222  4.3839  2.4152
    1MPD1    H114040   0.254   1.587  17.081  0.4084  0.6002  0.5399
    1MPD1    H214041   0.336   1.178  17.108  1.4215  0.5359  0.0802
    1MPD1    H314042   0.358   1.390  16.997  0.5017 -0.6870  0.4241
    1MPD1     N14043   0.113   1.622  17.284  0.0535  0.5340 -0.3754
    1MPD1    H514044   0.135   1.703  17.226  2.3823  1.2173  1.4589
    1MPD1    N114045   0.184   1.134  17.328  0.4088 -0.2048 -0.2517
    1MPD1    H614046   0.259   1.066  17.318 -0.9325 -1.1458 -4.0893
    1MPD1    H714047   0.134   1.131  17.417 -1.4136 -1.9758 -1.3263
    2MPD1     C14048   3.996   2.203  17.392  0.2408  0.3091  0.0046
    2MPD1    C114049   4.106   2.269  17.346  0.1318 -0.7559 -0.0532
    2MPD1    C214050   4.231   2.213  17.374  0.0745 -0.3798  0.9368
    2MPD1    C314051   4.240   2.090  17.439  0.6347  0.4053  0.3089
    2MPD1    C414052   4.129   2.024  17.481  0.0885  0.0562  0.7586
    2MPD1    C514053   4.011   2.076  17.460 -0.0344  0.6448 -0.4775
    2MPD1     H14054   4.314   2.277  17.346 -0.8524 -0.2644 -1.5290
    2MPD1    H114055   4.140   1.932  17.537  0.8733 -0.7406 -0.7253
    2MPD1    H214056   3.895   2.241  17.385  0.0381 -0.2304 -0.0281
    2MPD1    H314057   3.916   2.034  17.493  0.1234  1.1131  0.5877
    2MPD1     N14058   4.376   2.047  17.460  0.2061 -0.2675 -0.2390
    2MPD1    H514059   4.450   2.106  17.424 -0.8201  1.4001  0.4223
    2MPD1    N114060   4.101   2.406  17.308 -0.0143  0.1584  0.0387
    2MPD1    H614061   4.184   2.427  17.253 -1.0052  1.8262 -0.8253
    2MPD1    H714062   4.018   2.429  17.253 -0.8282  0.2963  1.3215
    3TMC3    C114063   4.554   1.905  17.514 -0.5528 -0.0204  0.4750
    3TMC3    C214064   4.632   2.018  17.488  0.3736 -0.3736  0.1719
    3TMC3    C314065   0.027   1.986  17.453 -0.4783 -0.6231  0.3908
    3TMC3    C414066   4.597   1.775  17.502  0.4143  0.4627 -0.0985
    3TMC3    C514067   4.717   1.753  17.430  0.1520 -0.0547 -0.2561
    3TMC3    C614068   0.067   1.859  17.416 -0.1719  0.1391 -0.6549
    3TMC3     C14069   4.414   1.928  17.523  0.0460  0.6251  0.4920
    3TMC3     O14070   4.351   1.845  17.581  0.9431 -0.3904  0.2710
    3TMC3     H14071   4.608   2.123  17.501  0.3231 -0.3867  0.1839
    3TMC3    H114072   4.527   1.693  17.508 -0.6936  1.4242  0.0599
    3TMC3    H214073   0.172   1.844  17.392 -0.5380  0.8292 -2.7103
    3TMC3    C714074   0.008   1.627  17.368 -0.0426  0.5302  0.0598
    3TMC3    C814075   0.100   2.096  17.397  0.1372 -0.6136 -0.1594
    3TMC3    O114076   4.662   1.543  17.403  0.4986 -0.7429  0.7003
    3TMC3    O214077   0.037   2.196  17.369 -0.0932  0.2476  0.1614
    4MPD1     C14078   0.523   2.349  17.269  0.1228 -0.6261 -0.2381
    4MPD1    C114079   0.560   2.231  17.338  0.6477  0.2574  0.0421
    4MPD1    C214080   0.459   2.156  17.390 -0.0396  0.3552 -0.5905
    4MPD1    C314081   0.326   2.166  17.349  0.0105 -0.2223 -0.2741
    4MPD1    C414082   0.294   2.270  17.263 -0.7729  0.4873 -0.1049
    4MPD1    C514083   0.391   2.362  17.232  0.2943  0.4518  0.4865
    4MPD1     H14084   0.488   2.066  17.444 -3.7855 -1.4890 -1.6409
    4MPD1    H114085   0.194   2.288  17.225 -1.4162  1.2840  1.9450
    4MPD1    H214086   0.586   2.428  17.229 -1.0215  0.4984  0.1734
    4MPD1    H314087   0.361   2.454  17.184 -0.0581  0.0448 -0.0758
    4MPD1     N14088   0.232   2.075  17.399  0.2475 -0.6519  0.1926
    4MPD1    H514089   0.271   1.996  17.448  2.1587  0.8523  1.1064
    4MPD1    N114090   0.692   2.219  17.385  0.7266 -0.2598  0.2947
    4MPD1    H614091   0.767   2.255  17.327 -0.1110  2.5076  0.9295
    4MPD1    H714092   0.709   2.120  17.401  0.4914 -0.4490 -0.6520
    1TCq1    O114093   0.730   1.421  11.725  0.4579  0.0465  0.1917
    1TCq1    C114094   0.836   1.503  11.735 -0.2794  0.2749 -0.9888
    1TCq1    O214095   0.840   1.614  11.682 -0.6434 -0.1437  0.1130
    1TCq1    C214096   0.934   1.455  11.830 -0.7042 -0.0107  0.0951
    1TCq1    C314097   0.911   1.345  11.910 -0.0326 -0.0224  0.2120
    1TCq1    C414098   0.985   1.329  12.026 -0.6745  0.4921 -0.1957
    1TCq1    C514099   1.108   1.395  12.040  0.0390  1.0836 -0.3985
    1TCq1    C614100   1.127   1.498  11.950 -0.3234 -0.0234  0.3746
    1TCq1    C714101   1.036   1.535  11.850 -0.4939  0.0668  0.4947
    1TCq1    C814102   1.227   1.599  11.975 -0.0539  0.3380  0.1813
    1TCq1    O414103   1.241   1.690  11.892 -0.0760 -0.6996 -0.6779
    1TCq1    C914104   0.978   1.202  12.100  0.5087  0.4613 -0.4976
    1TCq1    O514105   1.053   1.191  12.202 -0.5226 -0.5761 -0.0053
    1TCq1    O614106   0.924   1.103  12.050 -0.1048  0.2466 -0.2931
    1TCq1    H114107   0.740   1.327  11.753  1.9037  0.7548  2.0167
    1TCq1    H214108   0.816   1.295  11.896  0.7387 -1.1578 -0.9578
    1TCq1    H314109   1.177   1.374  12.120  0.3723  1.4086 -0.6005
    1TCq1    H414110   1.048   1.617  11.780  2.3670  0.1615  1.1030
    2MPD1     C14111   1.455   1.875  12.323  0.2372  0.0923  0.7491
    2MPD1    C114112   1.476   1.745  12.366  0.2491  0.3077 -0.2440
    2MPD1    C214113   1.417   1.648  12.284 -0.0171  0.1328  0.3284
    2MPD1    C314114   1.350   1.686  12.164 -0.3246  0.2920  0.5277
    2MPD1    C414115   1.338   1.817  12.123 -0.5037 -0.1750 -0.3831
    2MPD1    C514116   1.382   1.912  12.212  0.1278  0.1041  0.3861
    2MPD1     H14117   1.427   1.544  12.314  0.4832  0.2929  0.7020
    2MPD1    H114118   1.280   1.850  12.038 -0.1348 -0.0092 -0.5712
    2MPD1    H214119   1.491   1.956  12.386  2.2371 -1.0566  1.0573
    2MPD1    H314120   1.370   2.016  12.186  1.7202 -0.0309 -0.8770
    2MPD1     N14121   1.283   1.585  12.097 -0.6186  0.6687  1.0497
    2MPD1    H514122   1.293   1.491  12.133  0.4857  1.3263  2.4568
    2MPD1    N114123   1.530   1.709  12.491  0.0410  0.4473  0.4523
    2MPD1    H614124   1.547   1.608  12.494  0.8753  0.5590 -0.6568
    2MPD1    H714125   1.456   1.711  12.561  2.2035 -0.6326  2.7940
    1TMC1    C114126   3.807   2.042   0.874  0.1550  0.4039 -0.1314
    1TMC1    C214127   3.727   1.952   0.812  0.0079  0.0298  0.0923
    1TMC1    C314128   3.636   1.888   0.889  0.6984 -0.3494 -0.0964
    1TMC1    C414129   3.791   2.069   1.009 -0.3373  0.6071  0.2098
    1TMC1    C514130   3.687   2.012   1.077 -0.4750 -0.4702  0.2090
    1TMC1    C614131   3.622   1.908   1.021 -0.1324  0.5020  0.3688
    1TMC1     C14132   3.880   2.143   0.800 -0.3840 -0.0380 -0.2168
    1TMC1     O14133   3.823   2.186   0.700 -0.1286  0.3203  0.0834
    1TMC1     H14134   3.739   1.937   0.705  2.4523 -0.9175  0.4938
    1TMC1    H114135   3.843   2.154   1.052 -1.5821  0.8378  1.2580
    1TMC1    H214136   3.545   1.851   1.072 -0.7273 -0.3433 -1.4932
    1TMC1    C714137   3.655   2.036   1.219  0.4367 -0.1094 -0.5414
    1TMC1    C814138   3.550   1.780   0.842 -0.6834 -0.8670 -0.1049
    1TMC1    O114139   3.592   1.945   1.278  0.0077  0.2951  0.0680
    1TMC1    O214140   3.508   1.683   0.900 -0.0996 -0.3286 -0.1359
    1TMC1    O314141   3.648   2.165   1.246  0.3276 -0.5011  0.4204
    1TMC1    H314142   3.702   2.218   1.183 -1.5450  1.3861  0.4441
    1TMC1    O514143   3.534   1.804   0.714 -0.5226 -0.4587 -0.4833
    1TMC1    H514144   3.530   1.900   0.697 -0.2479 -0.2523  0.6415
    2MPD1     C14145   4.249   2.488   0.714 -0.1256  0.0548  0.4617
    2MPD1    C114146   4.284   2.408   0.821 -0.6876 -0.2444  0.8430
    2MPD1    C214147   4.202   2.310   0.864 -0.2814  0.0181 -0.0556
    2MPD1    C314148   4.080   2.287   0.798  0.1222 -0.5341 -0.3481
    2MPD1    C414149   4.042   2.368   0.696  0.4126  0.5964  0.2140
    2MPD1    C514150   4.127   2.466   0.652  0.2902 -0.0135  0.4406
    2MPD1     H14151   4.230   2.246   0.947 -1.5004 -2.3165 -1.4229
    2MPD1    H114152   3.953   2.363   0.635  1.1269  3.0735 -1.0201
    2MPD1    H214153   4.312   2.573   0.694  0.3260 -0.3278  0.2619
    2MPD1    H314154   4.102   2.530   0.568  1.9297  2.4778  1.8687
    2MPD1     N14155   4.001   2.181   0.854 -0.4145 -0.3338 -0.0140
    2MPD1    H514156   4.042   2.129   0.930 -0.0783  0.2916  0.2317
    2MPD1    N114157   4.412   2.411   0.873 -0.2692  0.3185 -0.1460
    2MPD1    H614158   4.415   2.387   0.972  0.7773  2.9966  0.4806
    2MPD1    H714159   4.462   2.499   0.861 -0.1528  0.2697 -0.0161
    1MPD1     C14160   2.841   4.459  12.700 -0.2515 -0.5607 -0.3791
    1MPD1    C114161   2.872   4.581  12.750  1.0028  0.7256  0.3736
    1MPD1    C214162   2.981   4.651  12.702 -0.3705  0.3379  0.1021
    1MPD1    C314163   3.059   4.598  12.597 -0.0466  0.1043 -0.3030
    1MPD1    C414164   3.023   4.482  12.537 -0.3360 -0.9749  0.3317
    1MPD1    C514165   2.915   4.414  12.592  0.2238  0.1631  0.2780
    1MPD1     H14166   3.012   4.737  12.760  0.8066  0.3180 -0.4894
    1MPD1    H114167   3.070   4.425  12.458 -1.6400 -1.9109  0.2334
    1MPD1    H214168   2.755   4.397  12.724 -1.3420  0.3727 -1.8212
    1MPD1    H314169   2.890   4.314  12.558  3.6644 -0.4790 -0.4154
    1MPD1     N14170   3.172   4.676  12.559  0.3292 -0.0398  0.2822
    1MPD1    H514171   3.180   0.027  12.608 -2.6283  0.6641 -0.4807
    1MPD1    N114172   2.801   4.619  12.863  0.4512  0.1310 -0.3625
    1MPD1    H614173   2.704   4.590  12.868  1.1154 -1.6424  2.2195
    1MPD1    H714174   2.813   4.719  12.875  0.9027  0.1767 -1.1865
    2MPD1     C14175   2.611   1.826  11.785 -0.0235  0.0650 -0.0963
    2MPD1    C114176   2.751   1.817  11.812 -0.0856  0.3451 -0.0081
    2MPD1    C214177   2.822   1.711  11.763  0.2785 -0.3639  0.1247
    2MPD1    C314178   2.766   1.629  11.673 -0.5600  0.4478  0.3029
    2MPD1    C414179   2.636   1.634  11.646  1.4769 -0.2671 -0.3153
    2MPD1    C514180   2.553   1.732  11.703  0.3077  0.6096  0.0610
    2MPD1     H14181   2.924   1.698  11.796  0.7797  0.7710 -1.0110
    2MPD1    H114182   2.589   1.557  11.587 -2.8051  1.1541  1.2595
    2MPD1    H214183   2.554   1.903  11.836  0.7935 -0.6794  1.9390
    2MPD1    H314184   2.448   1.720  11.682  0.4029 -0.5953  0.2816
    2MPD1     N14185   2.843   1.533  11.601 -0.1319 -0.1575  0.0183
    2MPD1    H514186   2.795   1.493  11.521 -1.3461  1.6612 -0.1406
    2MPD1    N114187   2.795   1.913  11.903  0.6095 -0.5641 -0.6212
    2MPD1    H614188   2.884   1.953  11.872  0.2462 -0.2436 -1.2426
    2MPD1    H714189   2.737   1.996  11.908  2.2983  0.4172  2.6985
    3MPD1     C14190   3.044   1.972  10.924  0.3303 -0.3789  0.2674
    3MPD1    C114191   3.050   2.012  11.055  0.0461  0.1508 -0.0005
    3MPD1    C214192   3.058   1.902  11.145 -0.2956 -0.1454 -0.8497
    3MPD1    C314193   3.072   1.774  11.100  0.0810 -0.4627  0.0913
    3MPD1    C414194   3.074   1.746  10.962  0.7870 -0.3587  0.3927
    3MPD1    C514195   3.067   1.847  10.873  0.7281  0.2745 -0.9515
    3MPD1     H14196   3.042   1.919  11.251 -0.5017 -0.8514 -0.7716
    3MPD1    H114197   3.061   1.646  10.921 -2.0057 -1.4010  3.8362
    3MPD1    H214198   3.022   2.049  10.851  0.1214  0.4948  1.2564
    3MPD1    H314199   3.035   1.829  10.771  0.8096  3.5260 -1.5439
    3MPD1     N14200   3.074   1.665  11.191  0.1514  0.0458  0.1582
    3MPD1    H514201   3.048   1.690  11.286 -0.5610 -0.6542  0.1435
    3MPD1    N114202   3.017   2.137  11.104  0.1864 -0.0639 -0.0614
    3MPD1    H614203   3.032   2.219  11.045 -0.3523  0.4787  0.5607
    3MPD1    H714204   3.060   2.155  11.195  0.6043 -1.1130 -0.0520
    4MPD2     C14205   3.574   0.576  12.557 -0.0304 -0.6782  0.2710
    4MPD2    C114206   3.592   0.482  12.456 -0.1752 -0.2258  0.5267
    4MPD2    C214207   3.624   0.530  12.328 -0.2540 -0.3918 -0.5244
    4MPD2    C314208   3.637   0.660  12.292  1.1567  0.2595 -1.2902
    4MPD2    C414209   3.615   0.752  12.392  0.1530 -0.5695 -0.5912
    4MPD2    C514210   3.581   0.708  12.522 -0.1518 -0.6886 -0.4474
    4MPD2     H14211   3.641   0.449  12.259  0.6351  0.5723 -1.4481
    4MPD2    H114212   3.608   0.857  12.366  0.5623  0.1724  2.2764
    4MPD2    H214213   3.538   0.542  12.653 -1.5148 -3.0009 -1.0882
    4MPD2    H314214   3.548   0.785  12.591  0.7652  0.0797 -0.8696
    4MPD2     N14215   3.678   0.709  12.160 -0.2358 -0.0348  0.1290
    4MPD2    H514216   3.671   0.806  12.131  2.1196  0.2310  0.4539
    4MPD2    N114217   3.589   0.342  12.475  0.4920  0.1016  0.9605
    4MPD2    H714218   3.635   0.286  12.403 -0.3989 -1.2446  1.4343
    5TMC3    C114219   3.545   0.130  12.571 -0.0966 -0.3326  0.7489
    5TMC3    C214220   3.419   0.069  12.578 -0.5472  0.3102 -0.2989
    5TMC3    C314221   3.388   4.726  12.473  0.5960 -0.0385  0.6077
    5TMC3    C414222   3.639   0.084  12.486  0.3891 -0.2725  0.9232
    5TMC3    C514223   3.604   0.012  12.376  0.1214 -1.3936 -0.9840
    5TMC3    C614224   3.477   4.700  12.368  0.1760  0.1933  0.1397
    5TMC3     C14225   3.544   0.282  12.590  0.4510 -0.3928  1.0204
    5TMC3     O14226   3.467   0.322  12.681  0.4999  0.1094  0.2363
    5TMC3     H14227   3.338   0.106  12.640  0.1920  0.9023  0.3216
    5TMC3    H114228   3.738   0.130  12.492  0.7059 -0.4619 -2.6878
    5TMC3    H214229   3.448   4.633  12.287 -1.2713  1.8292 -0.6782
    5TMC3    C714230   3.657   0.066  12.252  0.5214  0.0407 -1.0082
    5TMC3    C814231   3.264   4.642  12.464 -0.4947 -0.0720  0.4555
    5TMC3    O114232   3.696   0.181  12.264  0.0045  0.0339 -0.1021
    5TMC3    O214233   3.252   4.545  12.391 -0.1030 -0.0946  0.7594
    6TMC3    C114234   3.035   1.431  11.508 -0.0084  0.2525  0.2196
    6TMC3    C214235   3.020   1.496  11.387 -0.4552 -0.3492  0.3378
    6TMC3    C314236   3.105   1.457  11.281  0.5191  0.6053  0.2680
    6TMC3    C414237   3.146   1.354  11.531 -0.1831  0.3367  0.6593
    6TMC3    C514238   3.226   1.322  11.429 -1.0797 -1.2305  0.5904
    6TMC3    C614239   3.207   1.362  11.297 -0.7933 -0.2081  0.6768
    6TMC3     C14240   2.975   1.491  11.625  0.1071  0.4660  0.3963
    6TMC3     O14241   3.028   1.501  11.734 -0.2845  0.3079  0.0439
    6TMC3     H14242   2.933   1.558  11.372 -1.8463 -2.2244  0.6664
    6TMC3    H114243   3.169   1.336  11.635  0.0726 -2.1089  0.1913
    6TMC3    H214244   3.275   1.336  11.217  0.4992 -0.4258  1.8369
    6TMC3    C714245   3.345   1.249  11.466  0.6525 -0.0915 -0.5977
    6TMC3    C814246   3.115   1.537  11.167  0.8383  0.5781  0.4780
    6TMC3    O114247   3.364   1.206  11.577 -0.3272  0.1599 -0.3322
    6TMC3    O214248   3.166   1.494  11.069  0.3875  0.2156  0.1530
    7MPD2     C14249   3.660   0.129  11.756 -0.0820 -0.0945 -0.2834
    7MPD2    C114250   3.696   0.215  11.851 -0.0766  0.0849  0.5283
    7MPD2    C214251   3.698   0.172  11.981 -0.3494  0.6404  0.1890
    7MPD2    C314252   3.661   0.041  12.008 -0.3773 -0.1162 -0.2920
    7MPD2    C414253   3.655   4.686  11.900 -0.2742  0.3645  0.0547
    7MPD2    C514254   3.636   0.001  11.780  0.4143  0.2405 -0.5518
    7MPD2     H14255   3.728   0.246  12.055  2.2075 -0.0917 -0.0934
    7MPD2    H114256   3.618   4.585  11.914  0.1060  0.1891 -0.1763
    7MPD2    H214257   3.671   0.148  11.649 -0.7520  1.6290 -0.0549
    7MPD2    H314258   3.618   4.676  11.693 -0.5418 -0.4684  0.1600
    7MPD2     N14259   3.646   4.728  12.140  0.4016  0.1667 -0.0478
    7MPD2    H514260   3.612   4.632  12.150  1.0692 -0.1835 -1.1562
    7MPD2    N114261   3.742   0.347  11.825  0.5940 -0.9796  0.3703
    7MPD2    H714262   3.765   0.404  11.906  1.6488  0.0098 -0.6282
    8TMC3    C114263   3.796   0.554  11.738  0.7070  0.2399 -0.3236
    8TMC3    C214264   3.730   0.649  11.665  0.3060  0.1340 -0.3419
    8TMC3    C314265   3.689   0.760  11.736 -0.4989 -0.1992  0.7040
    8TMC3    C414266   3.828   0.570  11.863  0.2582 -0.2180  0.2821
    8TMC3    C514267   3.776   0.671  11.936  0.1464  0.2376 -0.0160
    8TMC3    C614268   3.695   0.759  11.871  0.2454  0.1430 -0.2569
    8TMC3     C14269   3.751   0.417  11.708 -0.0458 -0.4250 -0.3039
    8TMC3     O14270   3.745   0.384  11.593  0.3538 -0.3849 -0.5764
    8TMC3     H14271   3.710   0.641  11.559 -2.0711  2.5457 -0.0880
    8TMC3    H114272   3.900   0.501  11.906  2.2125  1.4259 -0.3665
    8TMC3    H214273   3.649   0.844  11.919  0.7891  0.4510 -0.2735
    8TMC3    C714274   3.715   0.619  12.058 -0.1143  0.0223  0.7097
    8TMC3    C814275   3.642   0.880  11.664 -0.3478  0.0752 -0.1809
    8TMC3    O114276   3.719   0.497  12.062 -0.3115  0.2699  0.4798
    8TMC3    O214277   3.581   0.963  11.726  0.0099 -0.1999  0.4890
    9MPD2     C14278   3.780   1.016  11.345  0.9476 -0.6021 -0.0424
    9MPD2    C114279   3.687   0.997  11.452 -0.2584  0.2938  0.4945
    9MPD2    C214280   3.579   1.072  11.454 -0.0350 -0.1827 -0.2379
    9MPD2    C314281   3.565   1.177  11.367  0.0217  0.2785  0.5584
    9MPD2    C414282   3.656   1.202  11.268  0.3167  0.2173 -0.5123
    9MPD2    C514283   3.753   1.107  11.252  0.0152 -0.2281 -1.0306
    9MPD2     H14284   3.504   1.042  11.527  0.9751 -1.6351  0.2017
    9MPD2    H114285   3.647   1.268  11.182  0.1858 -0.6547 -1.1649
    9MPD2    H214286   3.869   0.955  11.337  0.3441 -1.5080  0.1624
    9MPD2    H314287   3.827   1.114  11.172 -1.9197 -0.7834 -2.8597
    9MPD2     N14288   3.436   1.244  11.358 -0.4652 -0.1585  0.3113
    9MPD2    H514289   3.423   1.316  11.288  0.9505  0.0725  0.2720
    9MPD2    N114290   3.710   0.892  11.544  0.4081 -0.1029  0.5815
    9MPD2    H714291   3.779   0.822  11.518  0.4385 -0.2249  0.9866
    1MPD1     C14292   3.075   0.363  17.225  0.5552  0.4928  0.3197
    1MPD1    C114293   2.955   0.429  17.230 -0.1481  0.8310  0.3319
    1MPD1    C214294   2.902   0.479  17.114 -0.7137 -0.3861  0.4148
    1MPD1    C314295   2.952   0.453  16.988 -0.6314  0.3701  0.0129
    1MPD1    C414296   3.063   0.382  16.981  0.3845  0.0760  0.6540
    1MPD1    C514297   3.123   0.342  17.099 -0.4351  0.6682  0.5107
    1MPD1     H14298   2.808   0.532  17.112 -1.0758 -1.0485  0.0210
    1MPD1    H114299   3.106   0.350  16.886 -2.1885 -0.3971 -0.3365
    1MPD1    H214300   3.140   0.349  17.310 -0.8948 -2.1201  0.9930
    1MPD1    H314301   3.213   0.282  17.094 -0.8762  0.1444 -1.1934
    1MPD1     N14302   2.884   0.488  16.868 -0.1468  0.2737  0.0816
    1MPD1    H514303   2.942   0.485  16.785 -1.3819  1.6585 -0.8207
    1MPD1    N114304   2.895   0.449  17.356  0.3690  0.3500 -0.0610
    1MPD1    H614305   2.917   0.373  17.419 -1.6989 -1.6418 -1.7851
    1MPD1    H714306   2.795   0.460  17.347  0.5766 -0.6706 -3.8907
    2TMC2    C114307   2.617   0.755  16.594  0.4900  0.2062  0.2475
    2TMC2    C214308   2.685   0.720  16.479  0.0624  0.7804 -0.2583
    2TMC2    C314309   2.775   0.622  16.499  0.2582 -0.3169 -0.0068
    2TMC2    C414310   2.636   0.696  16.712  0.9909  0.3566  0.1310
    2TMC2    C514311   2.735   0.600  16.723  0.0255  0.4423  0.8206
    2TMC2    C614312   2.798   0.552  16.614 -0.5288 -0.2877 -0.1905
    2TMC2     C14313   2.552   0.887  16.614 -0.4489 -0.5122  0.1700
    2TMC2     O14314   2.560   0.942  16.720  0.6708  0.0372 -0.0722
    2TMC2     H14315   2.676   0.780  16.389 -1.7491  1.3656  0.3051
    2TMC2    H114316   2.594   0.736  16.803  1.4836 -0.5414  0.7526
    2TMC2    H214317   2.861   0.465  16.605 -3.2157 -2.3911  1.3312
    2TMC2    C714318   2.759   0.544  16.853  0.1719 -0.1371  0.4472
    2TMC2    C814319   2.858   0.600  16.384  0.0803  0.9338  0.2795
    2TMC2    O114320   2.668   0.525  16.933 -0.0430 -0.2892 -0.3570
    2TMC2    O214321   2.811   0.582  16.273 -0.6408 -0.0107  0.0430
    2TMC2    O514322   2.970   0.534  16.426  0.2729 -0.2723 -0.4289
    2TMC2    H514323   3.001   0.568  16.512 -1.6199 -0.5037  0.3469
    3MPD1     C14324   2.370   1.329  16.418  0.0887 -0.3101  0.1769
    3MPD1    C114325   2.383   1.241  16.317 -0.4657 -0.1209  0.7780
    3MPD1    C214326   2.418   1.108  16.349 -0.5616 -0.4661 -0.3016
    3MPD1    C314327   2.444   1.068  16.474 -0.2570  0.0668 -0.4228
    3MPD1    C414328   2.412   1.155  16.579  0.6000  1.0393  0.2854
    3MPD1    C514329   2.375   1.282  16.546  0.3733  0.0230 -0.0780
    3MPD1     H14330   2.431   1.041  16.265  3.2795  0.2928 -0.3129
    3MPD1    H114331   2.426   1.128  16.683 -0.6534  2.0395  0.7026
    3MPD1    H214332   2.364   1.437  16.406 -0.9171 -0.3227  0.6474
    3MPD1    H314333   2.363   1.356  16.625 -1.8172 -1.3094  0.8128
    3MPD1     N14334   2.496   0.937  16.490  0.0734  0.2750 -0.3952
    3MPD1    H514335   2.511   0.881  16.407  2.9287 -0.9327  0.9547
    3MPD1    N114336   2.382   1.283  16.181  0.4348 -0.3053 -0.4087
    3MPD1    H614337   2.324   1.362  16.153 -0.4668 -0.5116  0.9180
    3MPD1    H714338   2.373   1.208  16.112  0.0733 -2.1101  1.6307
    1TMC1    C114339   1.501   4.578  13.450  0.6029 -0.2650  0.2859
    1TMC1    C214340   1.383   4.528  13.488 -0.1861 -1.0737 -0.0182
    1TMC1    C314341   1.281   4.547  13.401 -0.2433  0.1145 -0.0691
    1TMC1    C414342   1.525   4.650  13.332 -0.6966 -0.1516 -1.1280
    1TMC1    C514343   1.414   4.666  13.248  0.2050 -0.0681 -0.0326
    1TMC1    C614344   1.290   4.620  13.284 -0.9472 -0.0654  0.3079
    1TMC1     C14345   1.623   4.541  13.523  0.2350  0.1416  0.1066
    1TMC1     O14346   1.724   4.577  13.476  0.1843  0.0569 -0.0646
    1TMC1     H14347   1.373   4.475  13.582 -1.3975 -1.6154 -0.4473
    1TMC1    H114348   1.626   4.685  13.312 -0.4430  0.0527  0.5836
    1TMC1    H214349   1.203   4.645  13.224 -1.2169 -1.8570 -0.0506
    1TMC1    C714350   1.408   0.045  13.168  0.1756  0.0674  0.2555
    1TMC1    C814351   1.152   4.530  13.458  0.2794  0.5299 -0.8311
    1TMC1    O114352   1.303   0.099  13.137 -0.2348 -0.0076  0.3356
    1TMC1    O214353   1.074   4.626  13.467 -0.4069 -0.4208  0.1354
    1TMC1    O314354   1.523   0.070  13.107 -0.2111 -0.3198  0.1514
    1TMC1    H314355   1.584   4.737  13.138  0.0883 -0.3349 -0.4880
    1TMC1    O514356   1.163   4.422  13.540 -0.1363  0.0795 -0.4497
    1TMC1    H514357   1.219   4.353  13.498 -1.3342 -0.2445 -1.5343
    2MPD2     C14358   1.842   4.440  13.689 -0.4944  0.0363  0.4505
    2MPD2    C114359   1.706   4.438  13.731  0.7129 -0.2497 -0.3828
    2MPD2    C214360   1.673   4.388  13.857 -0.7077 -0.4098  0.5001
    2MPD2    C314361   1.771   4.343  13.950  0.0648  0.2771  0.6705
    2MPD2    C414362   1.904   4.348  13.909  0.2537 -0.3678  0.4357
    2MPD2    C514363   1.938   4.390  13.781 -0.2778 -0.0570 -0.5022
    2MPD2     H14364   1.571   4.389  13.894 -0.6400  0.8554  0.6685
    2MPD2    H114365   1.976   4.308  13.980  2.2260  2.0790 -0.1772
    2MPD2    H214366   1.874   4.471  13.590 -0.4295 -0.4941  0.3084
    2MPD2    H314367   2.043   4.373  13.757 -0.3221  0.3060 -0.9473
    2MPD2     N14368   1.724   4.302  14.079  0.5838  0.1301  0.3667
    2MPD2    H514369   1.628   4.277  14.099  0.4875  1.7797  1.9901
    2MPD2    N114370   1.605   4.487  13.645  0.5763  0.5298  0.1578
    2MPD2    H714371   1.507   4.478  13.673  0.3916  0.0487 -0.6442
    3TCq1    O114372   1.840   4.086  14.701  0.4264  0.1200  0.7044
    3TCq1    C114373   1.774   4.191  14.656  0.3448 -0.9577 -0.2549
    3TCq1    O214374   1.797   4.306  14.692  0.9696 -0.3903  0.3695
    3TCq1    C214375   1.721   4.162  14.524  0.2672  0.2146  0.1496
    3TCq1    C314376   1.644   4.047  14.497  0.2245  0.4754  0.1257
    3TCq1    C414377   1.630   4.016  14.361  0.0318  0.1758  0.6419
    3TCq1    C514378   1.681   4.097  14.253 -0.2403 -0.0615 -0.0036
    3TCq1    C614379   1.761   4.206  14.295 -0.1647  0.0611  0.0301
    3TCq1    C714380   1.771   4.246  14.429  0.4464 -0.5986 -0.0133
    3TCq1    C814381   1.810   4.289  14.188 -0.2923  0.7007  0.3522
    3TCq1    O414382   1.921   4.332  14.203 -0.2189 -0.0250  0.5008
    3TCq1    C914383   1.556   3.892  14.330  0.1541 -0.4624  0.6667
    3TCq1    O514384   1.598   3.837  14.228  0.0161  0.3300  0.1437
    3TCq1    O614385   1.485   3.850  14.425  0.0022  0.4621 -0.1812
    3TCq1    H114386   1.836   4.022  14.627 -0.9350  1.0897 -0.0625
    3TCq1    H214387   1.597   3.993  14.578 -0.9776 -1.9450 -2.1457
    3TCq1    H314388   1.653   4.074  14.151 -0.9510  1.3696 -0.1362
    3TCq1    H414389   1.835   4.333  14.445 -0.5954 -0.0882  1.3411
    1MPD2     C14390   0.133   1.263  15.518 -0.3389 -0.3312  0.0079
    1MPD2    C114391   0.039   1.207  15.437 -0.3088  0.0924 -0.1685
    1MPD2    C214392   4.646   1.185  15.481  0.4144  0.7221 -0.1325
    1MPD2    C314393   4.612   1.201  15.614  0.3740  0.0157 -0.1184
    1MPD2    C414394   4.706   1.254  15.699  0.3406  0.5351 -0.2308
    1MPD2    C514395   0.093   1.295  15.651  0.0547 -0.1307 -0.1553
    1MPD2     H14396   4.567   1.141  15.421 -0.2112 -0.6705  1.6747
    1MPD2    H114397   4.680   1.281  15.801 -0.7610  0.2726 -0.4387
    1MPD2    H214398   0.230   1.288  15.479 -0.5818 -1.2010 -1.1414
    1MPD2    H314399   0.158   1.346  15.721  1.6491  0.0673 -1.7780
    1MPD2     N14400   4.502   1.145  15.677  0.0184  0.1890  0.6410
    1MPD2    H514401   4.497   1.163  15.777  0.0475 -1.1343  0.8842
    1MPD2    N114402   0.079   1.178  15.304  0.0194  0.1671  0.0463
    1MPD2    H714403   0.168   1.203  15.262  0.2176 -1.1973 -0.3167
    2TMC3    C114404   0.066   1.061  15.090 -0.7218 -0.0057  0.2112
    2TMC3    C214405   4.714   0.971  15.034 -0.3504 -0.1191 -0.0725
    2TMC3    C314406   4.651   1.002  14.919  0.5364 -0.1650 -0.7031
    2TMC3    C414407   0.095   1.173  15.013  0.6989 -1.0854  0.2343
    2TMC3    C514408   0.042   1.191  14.890 -0.4049 -0.1762  0.1974
    2TMC3    C614409   4.680   1.114  14.840 -0.1069 -0.1737  0.0611
    2TMC3     C14410   0.007   1.096  15.218 -0.6148 -1.4403 -0.7008
    2TMC3     O14411   4.639   1.040  15.234  0.2669 -0.0606  0.2679
    2TMC3     H14412   4.700   0.875  15.083 -1.2644  0.1391  0.1879
    2TMC3    H114413   0.153   1.256  15.050 -1.1470 -1.3221  3.6230
    2TMC3    H214414   4.622   1.147  14.755  1.9420 -1.6047 -1.8970
    2TMC3    C714415   0.078   1.310  14.814 -0.2420 -0.2531  0.0110
    2TMC3    C814416   4.509   0.961  14.915  0.4013  0.2069 -0.3650
    2TMC3    O114417   0.007   1.348  14.718 -0.7646 -0.4419 -0.3258
    2TMC3    O214418   4.446   0.951  14.805 -0.3847 -0.7535 -0.0748
    3TCq1    O114419   1.227   1.641  14.580 -0.2698 -0.7942  0.3590
    3TCq1    C114420   1.234   1.657  14.715 -0.8037 -0.0464  0.1845
    3TCq1    O214421   1.334   1.699  14.781 -0.1372 -0.1877 -0.3507
    3TCq1    C214422   1.109   1.640  14.781 -0.7426 -0.8011  0.4932
    3TCq1    C314423   1.116   1.626  14.914  0.3444 -0.1138 -0.4644
    3TCq1    C414424   0.999   1.611  14.981  0.9954  0.1204 -0.5334
    3TCq1    C514425   0.881   1.594  14.914  0.4079  0.4289  0.1455
    3TCq1    C614426   0.879   1.592  14.780 -0.0550  0.9898 -0.3053
    3TCq1    C714427   0.992   1.630  14.713  0.0849 -0.6084 -0.0993
    3TCq1    C814428   0.750   1.585  14.708  0.0317 -0.1065 -0.2897
    3TCq1    O414429   0.753   1.642  14.595 -0.3599  0.4374  0.0934
    3TCq1    C914430   0.999   1.578  15.120 -0.4483 -0.2429 -0.5116
    3TCq1    O514431   1.111   1.583  15.181  0.3781  0.5692  0.9916
    3TCq1    O614432   0.889   1.566  15.176  0.4549  0.2576  0.2482
    3TCq1    H114433   1.152   1.586  14.548 -1.0627  0.9548 -0.7944
    3TCq1    H214434   1.214   1.637  14.959  0.2201  0.2217 -0.2787
    3TCq1    H314435   0.789   1.586  14.970 -1.7486 -2.0683 -3.7732
    3TCq1    H414436   0.992   1.657  14.608 -2.2073  3.8413  1.0464
    4MPD2     C14437   0.469   1.571  14.618 -0.3998 -0.4528 -0.0019
    4MPD2    C114438   0.515   1.504  14.727  0.0704 -0.0833  0.4498
    4MPD2    C214439   0.426   1.423  14.792  0.2315  0.3612  0.7390
    4MPD2    C314440   0.295   1.407  14.749 -0.1704 -0.0003 -0.1426
    4MPD2    C414441   0.250   1.467  14.628 -0.4267  0.1508 -0.2398
    4MPD2    C514442   0.342   1.554  14.562  0.2235 -0.5171 -0.2850
    4MPD2     H14443   0.456   1.373  14.884  0.1315 -0.8637  0.1084
    4MPD2    H114444   0.156   1.446  14.579  0.6321 -2.7529 -1.0607
    4MPD2    H214445   0.531   1.633  14.554 -0.2223 -1.1111 -0.4676
    4MPD2    H314446   0.326   1.590  14.461  0.0237  2.7792  0.9496
    4MPD2     N14447   0.212   1.326  14.830  0.3463 -0.2827  0.6842
    4MPD2    H514448   0.262   1.279  14.905  0.3517 -2.3696 -0.6457
    4MPD2    N114449   0.649   1.514  14.779  0.0718 -0.2685  0.0875
    4MPD2    H714450   0.676   1.464  14.862 -1.8467 -0.3224  0.6891
    5TMC2    C114451   4.189   0.815  15.662 -0.5583  0.0672 -1.0026
    5TMC2    C214452   4.088   0.883  15.723  0.5016 -0.1832  0.6922
    5TMC2    C314453   4.116   1.007  15.772 -0.2077  0.6335  0.1962
    5TMC2    C414454   4.317   0.855  15.679  0.1088 -0.3373 -0.4188
    5TMC2    C514455   4.336   0.986  15.712  0.1628 -0.0325  0.3412
    5TMC2    C614456   4.237   1.070  15.761 -0.5672 -0.3877  0.5177
    5TMC2     C14457   4.148   0.774  15.521  0.3167  0.2164 -0.4430
    5TMC2     O14458   4.037   0.733  15.504  0.3477 -0.5221  0.3213
    5TMC2     H14459   3.984   0.854  15.713  0.3535  1.2327 -1.7581
    5TMC2    H114460   4.396   0.801  15.628  0.0886 -0.5703 -0.2043
    5TMC2    H214461   4.251   1.175  15.784 -3.0851 -0.4310  2.1985
    5TMC2    C714462   4.425   1.050  15.619  0.2601 -0.4698  0.0177
    5TMC2    C814463   4.005   1.054  15.845  0.4624  0.1878 -0.1702
    5TMC2    O114464   4.412   1.019  15.502  0.6166  0.1477  0.1865
    5TMC2    O214465   3.953   0.986  15.932  0.1768  0.3890 -0.4370
    5TMC2    O514466   3.996   1.184  15.825 -0.5805  0.2970 -0.5164
    5TMC2    H514467   4.033   1.217  15.740  2.3846  2.1041  1.4746
    6MPD2     C14468   4.247   0.839  15.013 -0.5189  0.7970 -0.1272
    6MPD2    C114469   4.347   0.899  15.089 -0.0491 -0.1527 -0.6721
    6MPD2    C214470   4.332   0.893  15.224  0.4507 -0.4066 -0.5631
    6MPD2    C314471   4.229   0.828  15.288  1.0732  0.1063 -1.2620
    6MPD2    C414472   4.137   0.759  15.212  0.1460  0.2483  1.0428
    6MPD2    C514473   4.147   0.775  15.080  0.1823  0.3377 -0.5945
    6MPD2     H14474   4.403   0.944  15.288 -0.9200 -2.0702  2.2744
    6MPD2    H114475   4.050   0.711  15.255  0.1815 -0.4985  0.2954
    6MPD2    H214476   4.246   0.848  14.905  1.1293  2.4868  0.0002
    6MPD2    H314477   4.061   0.747  15.021 -0.0269 -0.9764  0.3498
    6MPD2     N14478   4.232   0.836  15.429 -0.4388 -0.1380  0.8384
    6MPD2    H514479   4.308   0.898  15.456  0.1675 -0.2780 -0.5709
    6MPD2    N114480   4.471   0.946  15.044 -0.3237 -0.3129  0.2641
    6MPD2    H714481   4.539   0.976  15.114  0.7501  3.2786 -2.3176
  945NH4     N114482   4.458   0.556  15.151  0.3067 -0.2809  0.2197
  945NH4     H214483   4.388   0.510  15.213 -0.8003  0.2351 -0.6341
  945NH4     H314484   4.525   0.482  15.121  0.3954  0.3711 -1.1995
  945NH4     H414485   4.508   0.639  15.188  0.3763 -0.2634  0.0870
  945NH4     H514486   4.408   0.581  15.063  1.0922  0.4472 -0.0193
  946SOD     NA14487   3.747   2.510   7.887 -0.0190 -0.1770  0.0247
  947SOD     NA14488   1.962   2.499  16.755  0.1663  0.0179 -0.2769
  948SOD     NA14489   0.462   0.007  10.679  0.0661  0.3065  0.2738
  949SOD     NA14490   1.097   2.268  17.323 -0.7177  0.0513 -0.6661
  950SOD     NA14491   4.414   0.287   7.470  0.3713  0.2503  0.3811
  951SOD     NA14492   2.508   1.354   6.866  0.5585 -0.1410 -0.5607
  952SOD     NA14493   1.540   3.867  12.429 -0.3620  0.6327  0.0443
  953SOL     OW14494   4.494   2.352  15.967  0.0385 -0.4820  0.1371
  953SOL    HW114495   4.543   2.283  16.012  1.2006  0.0292 -0.3140
  953SOL    HW214496   4.494   2.330  15.874  2.5696  0.4333 -0.0819
  954SOL     OW14497   2.559   0.762  14.368  0.2080  0.2963  1.0038
  954SOL    HW114498   2.466   0.767  14.347  0.4197 -0.3518 -0.1021
  954SOL    HW214499   2.600   0.730  14.287 -0.7869 -0.9805  1.0048
  955SOL     OW14500   2.426   0.225   5.081  0.3481 -0.1406  0.2879
  955SOL    HW114501   2.465   0.152   5.032  0.9493 -0.9111  1.9018
  955SOL    HW214502   2.351   0.188   5.128 -0.6615  0.0621 -1.1619
  956SOL     OW14503   2.435   2.356   9.471 -0.0709 -0.3661 -0.6900
  956SOL    HW114504   2.511   2.414   9.464 -0.6506  0.7463  2.3890
  956SOL    HW214505   2.432   2.308   9.388 -1.5835 -1.7251  0.1513
  957SOL     OW14506   1.126   2.852   8.501 -0.1193  0.0388 -0.0431
  957SOL    HW114507   1.109   2.942   8.472 -1.5742 -0.6905 -1.3762
  957SOL    HW214508   1.053   2.849   8.563 -0.5992  0.0362 -0.6100
  958SOL     OW14509   1.624   3.443   5.761 -0.1080  0.1544  0.9163
  958SOL    HW114510   1.651   3.360   5.721  0.2612  0.8536 -0.2534
  958SOL    HW214511   1.590   3.484   5.682 -3.0142 -1.2500  1.4430
  959SOL     OW14512   1.513   4.087   7.758 -0.5194  0.0175 -0.3966
  959SOL    HW114513   1.601   4.089   7.795 -2.0799  1.1113  3.2987
  959SOL    HW214514   1.524   4.088   7.663  2.2305 -0.0401 -0.0666
  960SOL     OW14515   0.794   1.156   3.458 -0.0374 -0.5728 -0.2018
  960SOL    HW114516   0.716   1.199   3.423  1.2608  1.3423 -0.7471
  960SOL    HW214517   0.843   1.166   3.376 -2.8321  1.9013 -1.5759
  961SOL     OW14518   0.130   1.617   3.961 -0.3832 -0.2677 -0.0814
  961SOL    HW114519   0.205   1.674   3.945  1.3729 -1.6725  3.0966
  961SOL    HW214520   0.070   1.654   3.897 -1.7028 -1.9604  0.1766
  962SOL     OW14521   4.171   2.888   8.712 -0.2235  0.0717  0.1244
  962SOL    HW114522   4.231   2.962   8.710 -0.5450  0.3542  0.9293
  962SOL    HW214523   4.215   2.824   8.767 -0.4303  0.1943  0.4307
  963SOL     OW14524   0.921   2.377   7.650  0.1210 -0.0011  0.2374
  963SOL    HW114525   0.869   2.323   7.710 -0.8866  0.7588  0.0472
  963SOL    HW214526   0.943   2.451   7.706  1.3639 -0.2620  0.0881
  964SOL     OW14527   1.665   0.972  15.561  1.0250  0.3900 -0.4663
  964SOL    HW114528   1.603   1.023  15.510 -1.1707  0.0188  1.8577
  964SOL    HW214529   1.687   1.032  15.632 -0.1251 -1.6435  1.5909
  965SOL     OW14530   4.558   2.659   6.918 -0.0838  0.3524 -0.2331
  965SOL    HW114531   4.521   2.744   6.944 -0.8944  0.5806 -2.1557
  965SOL    HW214532   4.565   2.611   7.000  0.1543  1.0315  0.1480
  966SOL     OW14533   3.326   2.264   5.673 -0.3622  0.6821 -0.5198
  966SOL    HW114534   3.277   2.184   5.693 -1.1263  1.1833 -0.3917
  966SOL    HW214535   3.369   2.269   5.759 -1.8097 -2.6504  0.4131
  967SOL     OW14536   1.572   1.560   9.685  0.6031 -0.0964  0.4630
  967SOL    HW114537   1.593   1.485   9.629 -0.0571 -0.6566  0.9595
  967SOL    HW214538   1.559   1.510   9.766 -0.8687  1.6759  1.3170
  968SOL     OW14539   1.995   3.284   8.341 -0.1408  0.3701 -0.0298
  968SOL    HW114540   2.058   3.229   8.386  0.6467  1.6981  0.5083
  968SOL    HW214541   2.045   3.313   8.265 -1.2138  0.0290 -0.8600
  969SOL     OW14542   0.442   0.405   2.313  0.2831  0.5682 -0.5114
  969SOL    HW114543   0.472   0.321   2.277 -0.9911 -0.2778  0.4352
  969SOL    HW214544   0.405   0.388   2.399  0.1338  1.3047 -0.4354
  970SOL     OW14545   4.024   4.073   6.696 -0.1657  0.1405  0.1829
  970SOL    HW114546   3.993   4.002   6.753  0.7322 -0.6252 -0.2885
  970SOL    HW214547   3.964   4.059   6.623 -1.6837  0.6204  1.3413
  971SOL     OW14548   2.466   2.464   8.495 -0.2709  0.4121  0.2285
  971SOL    HW114549   2.545   2.436   8.542 -1.1728 -0.5471  1.1807
  971SOL    HW214550   2.420   2.524   8.555  1.3032  0.8545  0.9917
  972SOL     OW14551   3.143   4.694   9.432  0.2134 -0.3434 -0.1838
  972SOL    HW114552   3.075   0.022   9.443 -0.5262 -1.4851  2.1533
  972SOL    HW214553   3.122   4.642   9.510 -0.9810 -0.0459 -0.3124
  973SOL     OW14554   0.063   3.613   5.683  0.0575  0.2544  0.4726
  973SOL    HW114555   0.044   3.603   5.590  2.5628  0.2866 -0.0490
  973SOL    HW214556   0.076   3.520   5.706  1.4273  0.6366  1.2423
  974SOL     OW14557   0.898   4.183   9.021 -0.6863  0.4518  0.6482
  974SOL    HW114558   0.890   4.099   9.066 -0.0879  0.0885  0.0835
  974SOL    HW214559   0.809   4.215   9.034 -0.8398  1.6926 -3.4859
  975SOL     OW14560   0.993   1.152   8.150 -0.3744  0.4185 -0.4482
  975SOL    HW114561   0.917   1.189   8.194  1.8511  1.5928  2.3722
  975SOL    HW214562   0.969   1.193   8.067  1.5907  1.8793 -0.3155
  976SOL     OW14563   2.962   2.609  10.968 -0.0735  0.5731 -0.0151
  976SOL    HW114564   2.902   2.650  11.030 -2.1641 -0.6785 -1.2156
  976SOL    HW214565   2.954   2.517  10.993  0.8384  0.8111  1.1325
  977SOL     OW14566   0.231   0.639   7.016  0.2272  0.0733 -0.0910
  977SOL    HW114567   0.234   0.579   6.941  1.3940  0.9552 -0.7456
  977SOL    HW214568   0.324   0.657   7.003 -0.2655  3.5127  1.1455
  978SOL     OW14569   2.079   0.982  10.506 -0.0571  0.2652  0.0926
  978SOL    HW114570   2.082   1.015  10.596 -0.5759  2.7391 -0.8083
  978SOL    HW214571   2.103   1.061  10.458 -0.4173  1.8633  2.4932
  979SOL     OW14572   2.989   3.039   2.212 -0.2149  0.3030  0.1666
  979SOL    HW114573   2.933   3.042   2.134 -2.1849  1.5701  1.6180
  979SOL    HW214574   2.945   2.966   2.256  0.7035 -0.0717  0.4571
  980SOL     OW14575   4.471   3.766  10.896 -0.0170 -0.0154  0.4473
  980SOL    HW114576   4.424   3.845  10.870  1.2061  0.9677  1.2470
  980SOL    HW214577   4.503   3.782  10.985  0.0037  0.5964  0.3231
  981SOL     OW14578   3.888   3.586   7.920 -0.4323  0.6269  0.0979
  981SOL    HW114579   3.819   3.636   7.876 -0.9023 -1.3713 -1.4004
  981SOL    HW214580   3.965   3.639   7.897  1.6735 -2.7999 -0.8029
  982SOL     OW14581   2.124   0.161   0.691 -0.0426 -0.3667  0.1311
  982SOL    HW114582   2.109   0.169   0.785 -2.3858 -0.0979 -0.2622
  982SOL    HW214583   2.040   0.174   0.647 -0.2847  1.7296  1.2390
  983SOL     OW14584   0.275   2.242   2.339 -0.1611 -0.2341 -0.0511
  983SOL    HW114585   0.200   2.183   2.334 -0.4868  0.1641  0.1621
  983SOL    HW214586   0.310   2.259   2.252 -0.2155  3.3697  0.6374
  984SOL     OW14587   1.994   4.485   3.301 -0.1445 -0.2212 -0.7235
  984SOL    HW114588   2.031   4.573   3.295  1.5231 -0.9551 -1.4342
  984SOL    HW214589   1.946   4.490   3.384  1.2255 -3.1460  0.2752
  985SOL     OW14590   2.650   4.007   4.840 -0.2134 -0.0466 -0.2520
  985SOL    HW114591   2.556   3.999   4.822 -0.3932 -0.9296  1.0854
  985SOL    HW214592   2.682   3.932   4.789  0.6954  0.8084 -0.9340
  986SOL     OW14593   4.601   3.919  10.625 -0.0066  0.3493  0.1201
  986SOL    HW114594   4.542   3.888  10.556 -1.1684  1.7632  0.4759
  986SOL    HW214595   4.573   3.856  10.691 -4.4378 -0.6194 -2.6949
  987SOL     OW14596   2.191   2.274   9.059  0.2778 -0.3984 -0.0243
  987SOL    HW114597   2.101   2.268   9.090 -0.5357 -1.3857 -2.6308
  987SOL    HW214598   2.190   2.351   9.001 -1.3112  0.5505  1.2608
  988SOL     OW14599   1.265   2.985   0.811 -0.0266  0.5977 -0.1971
  988SOL    HW114600   1.192   3.023   0.762 -0.6172  0.2191  0.3840
  988SOL    HW214601   1.344   3.023   0.772 -0.4746  0.4984 -1.2060
  989SOL     OW14602   4.151   2.714   4.135  0.8963  0.2140 -0.3243
  989SOL    HW114603   4.195   2.668   4.064  0.2433  0.6516 -1.0125
  989SOL    HW214604   4.218   2.782   4.148  1.5020 -0.5034  0.3528
  990SOL     OW14605   1.055   1.808   2.759  0.1228  0.3377 -0.1964
  990SOL    HW114606   0.983   1.759   2.720 -0.4575  1.3945 -0.4387
  990SOL    HW214607   1.078   1.862   2.683 -1.6974  0.5943 -0.5703
  991SOL     OW14608   0.911   1.771   2.162  0.1777  0.3118 -0.3917
  991SOL    HW114609   0.873   1.742   2.079 -0.9888  1.4952 -0.2906
  991SOL    HW214610   1.002   1.750   2.142  0.0911  0.5281 -0.9990
  992SOL     OW14611   2.658   2.528   9.433 -0.2078 -0.0831  0.1319
  992SOL    HW114612   2.748   2.521   9.400  0.2861 -1.7293  1.8297
  992SOL    HW214613   2.677   2.572   9.515  1.1247 -0.6197  0.1235
  993SOL     OW14614   2.221   3.544   1.225  0.0952  0.2929 -0.2419
  993SOL    HW114615   2.246   3.626   1.182 -2.4046 -0.0361 -2.2924
  993SOL    HW214616   2.157   3.505   1.166  0.8416 -0.7146 -0.3760
  994SOL     OW14617   3.128   2.231   8.494 -0.7386  0.0801  0.3240
  994SOL    HW114618   3.150   2.196   8.580 -1.6056 -0.0481  0.4929
  994SOL    HW214619   3.201   2.213   8.435 -1.8060  2.4314 -1.6875
  995SOL     OW14620   4.311   3.857   6.548 -0.2971 -0.2251 -0.0490
  995SOL    HW114621   4.380   3.896   6.494  0.2100  0.3698  1.0212
  995SOL    HW214622   4.295   3.925   6.614 -1.2513 -1.1204  0.6435
  996SOL     OW14623   1.213   4.394  12.048  0.1139  0.2044 -0.0055
  996SOL    HW114624   1.137   4.391  11.990  0.1606  2.0618 -0.1416
  996SOL    HW214625   1.251   4.479  12.028  1.5775  0.0863  2.2629
  997SOL     OW14626   1.810   2.926   3.013  0.2206  0.2193 -0.6692
  997SOL    HW114627   1.868   2.849   3.011  1.6566  1.2375  2.2517
  997SOL    HW214628   1.867   2.995   2.980  2.0248 -0.0949  1.8138
  998SOL     OW14629   2.550   2.530   7.225 -0.1765 -0.2044  0.0355
  998SOL    HW114630   2.550   2.508   7.318  2.1552 -1.8016 -0.3605
  998SOL    HW214631   2.511   2.616   7.238 -0.7033 -0.4308 -0.0049
  999SOL     OW14632   1.679   4.452   4.350  0.7141 -0.0695  0.1754
  999SOL    HW114633   1.630   4.503   4.285 -1.5825 -0.9187  1.2197
  999SOL    HW214634   1.681   4.513   4.423 -1.4575 -1.8288  1.7297
 1000SOL     OW14635   2.018   4.218   5.559  0.0506 -0.2071  0.4696
 1000SOL    HW114636   1.968   4.203   5.479  0.4522  0.7645  0.0391
 1000SOL    HW214637   1.952   4.255   5.619  1.3617  1.3154  0.9868
 1001SOL     OW14638   2.891   2.007   3.191 -0.6177  0.1112  0.2184
 1001SOL    HW114639   2.938   1.925   3.206  0.4500  0.5856 -0.5219
 1001SOL    HW214640   2.802   1.974   3.203 -0.9028  1.0966  0.7638
 1002SOL     OW14641   0.719   0.720   9.058  0.2384  0.4360 -0.2364
 1002SOL    HW114642   0.684   0.809   9.056 -0.5199  0.1334 -0.3026
 1002SOL    HW214643   0.647   0.658   9.060 -0.3103  0.9895 -2.5244
 1003SOL     OW14644   4.675   0.879  10.143 -0.2953  0.5495  0.2884
 1003SOL    HW114645   4.716   0.932  10.211  1.0670 -0.6334  0.3762
 1003SOL    HW214646   4.594   0.928  10.127  0.6825  2.0983  0.1590
 1004SOL     OW14647   3.494   4.381   5.645  0.0184 -0.1538 -0.1594
 1004SOL    HW114648   3.549   4.359   5.570 -1.6392  3.5964 -2.4966
 1004SOL    HW214649   3.406   4.384   5.607 -0.5597  0.2980  1.2256
 1005SOL     OW14650   1.638   3.812   9.010 -0.9094  0.4027  0.6154
 1005SOL    HW114651   1.548   3.812   9.045 -1.4344 -0.3194 -0.7244
 1005SOL    HW214652   1.618   3.843   8.922  4.5422  3.7933  0.6085
 1006SOL     OW14653   4.100   0.489  14.906  0.3923  0.5059 -0.3169
 1006SOL    HW114654   4.160   0.436  14.853 -0.3832 -1.6649  0.9807
 1006SOL    HW214655   4.063   0.553  14.847  0.4301  0.9629  0.1555
 1007SOL     OW14656   3.260   4.058   3.492 -0.0556 -0.1218  0.0025
 1007SOL    HW114657   3.259   4.154   3.484  1.6564 -0.0740  0.2208
 1007SOL    HW214658   3.206   4.033   3.567 -1.9686  0.7493 -1.0995
 1008SOL     OW14659   4.412   2.689   3.143  0.2357 -0.5226  0.6928
 1008SOL    HW114660   4.328   2.726   3.169  0.3811  1.3511 -1.4774
 1008SOL    HW214661   4.397   2.594   3.143  2.6467 -0.9187  0.4986
 1009SOL     OW14662   3.880   0.915   9.323  0.2638 -0.2728  0.7297
 1009SOL    HW114663   3.918   0.908   9.236  0.8441  1.2259  0.8595
 1009SOL    HW214664   3.943   0.975   9.364  0.7750 -0.1593 -0.2140
 1010SOL     OW14665   3.588   0.343   4.959 -0.2376  0.2234 -0.0276
 1010SOL    HW114666   3.565   0.319   4.869  0.4598  0.1401 -0.1803
 1010SOL    HW214667   3.607   0.437   4.954  0.4685  0.1758  1.9324
 1011SOL     OW14668   4.446   1.028   0.075 -0.8301 -0.2578 -0.1317
 1011SOL    HW114669   4.479   1.009   0.163 -0.6745  1.1004  0.0961
 1011SOL    HW214670   4.528   1.016   0.027  0.2167 -0.1193  1.6190
 1012SOL     OW14671   1.791   2.204   5.744  0.0816  0.2997 -0.2321
 1012SOL    HW114672   1.709   2.193   5.791  0.0755  2.3455  0.2660
 1012SOL    HW214673   1.761   2.223   5.655 -0.2909  1.6688  0.1754
 1013SOL     OW14674   2.617   2.266   6.914 -0.2816  0.1592 -0.1176
 1013SOL    HW114675   2.605   2.221   6.830  0.8498 -0.3395 -0.0078
 1013SOL    HW214676   2.712   2.273   6.923 -0.2681 -0.2597  0.0620
 1014SOL     OW14677   3.769   3.979   8.756  0.9537 -0.2553  0.4760
 1014SOL    HW114678   3.733   4.003   8.841 -0.3085  0.1243 -0.1833
 1014SOL    HW214679   3.722   3.897   8.740 -0.1295  0.4863 -0.1034
 1015SOL     OW14680   3.899   0.674  11.015  0.5109  0.3445  0.5182
 1015SOL    HW114681   3.990   0.702  11.004  1.0551 -1.3579  0.6902
 1015SOL    HW214682   3.855   0.735  10.956 -2.1878 -0.7689  1.3788
 1016SOL     OW14683   4.641   3.176   9.300 -0.2869  0.1719  0.3297
 1016SOL    HW114684   4.725   3.164   9.344  0.3165  0.8862 -0.6319
 1016SOL    HW214685   4.665   3.235   9.228 -1.3928  0.5498  0.2599
 1017SOL     OW14686   0.439   4.630   4.534  0.5585 -0.2459  0.6743
 1017SOL    HW114687   0.481   4.716   4.542 -0.5070  0.3721 -0.3455
 1017SOL    HW214688   0.358   4.650   4.580  0.9067  0.8889  0.7864
 1018SOL     OW14689   3.839   0.438  16.893 -0.3760  0.9495 -0.9481
 1018SOL    HW114690   3.884   0.499  16.950  1.9728 -0.8236 -0.8929
 1018SOL    HW214691   3.769   0.411  16.952  1.2839 -1.9420 -0.2919
 1019SOL     OW14692   2.531   1.489   6.681 -0.3744 -0.2959 -0.3006
 1019SOL    HW114693   2.462   1.516   6.621 -1.2166  1.4538  1.4295
 1019SOL    HW214694   2.527   1.571   6.731 -1.3762  0.1326 -1.0917
 1020SOL     OW14695   3.572   0.942   6.462  0.2320  0.1201  0.2491
 1020SOL    HW114696   3.529   0.904   6.539 -0.2218 -0.1323 -0.1270
 1020SOL    HW214697   3.661   0.949   6.495  0.2257  1.1156  0.0535
 1021SOL     OW14698   4.102   0.687   6.079 -0.3107  0.0031 -0.1319
 1021SOL    HW114699   4.092   0.769   6.126  1.7186 -0.6782  1.5087
 1021SOL    HW214700   4.065   0.718   5.997  0.3956  2.4103  0.4711
 1022SOL     OW14701   1.685   0.724   6.154  0.4571  0.1639 -0.0156
 1022SOL    HW114702   1.665   0.807   6.112 -1.0759 -0.2846 -0.1697
 1022SOL    HW214703   1.602   0.703   6.197  0.6405  0.8760  0.6889
 1023SOL     OW14704   2.472   1.003   9.216  0.5879  0.2445 -0.1811
 1023SOL    HW114705   2.411   0.966   9.152  0.0067 -0.2762  0.6703
 1023SOL    HW214706   2.553   0.967   9.181  0.2655  0.5193 -1.1854
 1024SOL     OW14707   1.621   0.996   5.160  0.0030 -0.0284 -0.3810
 1024SOL    HW114708   1.542   0.946   5.179 -0.2167  1.0780  1.6191
 1024SOL    HW214709   1.676   0.986   5.238 -0.3695  0.0265 -0.1121
 1025SOL     OW14710   3.886   4.711   3.829  0.1713  0.0203  0.4126
 1025SOL    HW114711   3.944   4.669   3.892  1.8505 -0.6203 -1.5536
 1025SOL    HW214712   3.810   4.653   3.835 -0.5378  1.1925  2.8610
 1026SOL     OW14713   3.704   3.871  11.577 -0.1575 -0.0718  0.1311
 1026SOL    HW114714   3.794   3.897  11.594  0.1769 -1.0523 -0.1344
 1026SOL    HW214715   3.702   3.862  11.482  2.5187  1.4476 -0.0692
 1027SOL     OW14716   3.209   1.680   0.154 -0.0876 -0.1380 -0.4381
 1027SOL    HW114717   3.270   1.727   0.097 -1.8929  1.3851 -1.1176
 1027SOL    HW214718   3.254   1.596   0.144  1.4707  0.4802  1.3804
 1028SOL     OW14719   3.160   2.813   5.636  0.5805  0.3205  0.0870
 1028SOL    HW114720   3.211   2.779   5.710 -3.3448 -2.1429  1.6755
 1028SOL    HW214721   3.229   2.833   5.573 -0.5568  0.0441 -1.2284
 1029SOL     OW14722   0.305   4.151   1.470  0.1486 -0.0014  0.1343
 1029SOL    HW114723   0.401   4.143   1.476  0.1306  1.3000  2.1668
 1029SOL    HW214724   0.286   4.063   1.439  1.1080  0.4386 -1.7478
 1030SOL     OW14725   0.631   2.400  16.011  0.3572 -0.0343  0.6363
 1030SOL    HW114726   0.549   2.428  16.053 -0.0702 -0.7333  0.2686
 1030SOL    HW214727   0.674   2.351  16.081 -1.4631  0.2572  1.9472
 1031SOL     OW14728   0.325   1.737  15.434 -0.7821  0.5732  0.4223
 1031SOL    HW114729   0.247   1.698  15.474 -1.0972  0.1744 -0.5624
 1031SOL    HW214730   0.365   1.794  15.499  0.9483 -0.0367 -0.0985
 1032SOL     OW14731   2.315   3.308   3.880  0.6057  0.0815  0.3118
 1032SOL    HW114732   2.270   3.386   3.847 -1.5826 -1.6682 -0.8763
 1032SOL    HW214733   2.276   3.313   3.967  2.8428  1.4295  1.2467
 1033SOL     OW14734   1.558   4.210   4.332 -0.1372  0.2860  0.1904
 1033SOL    HW114735   1.609   4.291   4.338 -1.2609  0.7813  3.0221
 1033SOL    HW214736   1.629   4.157   4.366 -0.5247 -1.1234 -1.2157
 1034SOL     OW14737   2.958   0.303   4.355 -0.0541  0.3433  0.2691
 1034SOL    HW114738   2.924   0.384   4.318  1.9168  0.4287 -1.3549
 1034SOL    HW214739   2.997   0.262   4.278 -0.4873  0.2399  0.1069
 1035SOL     OW14740   2.919   1.012   8.173  0.4262 -0.4708 -0.0737
 1035SOL    HW114741   2.965   0.959   8.238  2.9100 -0.0653 -1.5141
 1035SOL    HW214742   2.958   1.096   8.196 -0.0074 -0.1304 -0.5746
 1036SOL     OW14743   1.222   2.664   7.731 -0.1046 -0.1831  0.4043
 1036SOL    HW114744   1.190   2.587   7.777  0.1832 -0.2132  0.5583
 1036SOL    HW214745   1.306   2.670   7.777 -0.2829 -0.0889  0.7163
 1037SOL     OW14746   0.941   0.521  15.483  0.6950 -0.1360  0.6303
 1037SOL    HW114747   0.883   0.504  15.408 -0.0790 -0.2600  1.2563
 1037SOL    HW214748   1.011   0.571  15.440 -1.2466  1.2360 -0.9518
 1038SOL     OW14749   0.379   1.776  14.831  0.3463 -0.0906  0.3855
 1038SOL    HW114750   0.367   1.683  14.812 -0.2394  0.1751 -0.5500
 1038SOL    HW214751   0.294   1.811  14.807 -0.5030  0.3094  4.0045
 1039SOL     OW14752   2.845   1.499   8.939  0.5884  0.0348  0.0065
 1039SOL    HW114753   2.917   1.553   8.972 -0.1991  0.6073  0.7934
 1039SOL    HW214754   2.888   1.427   8.894  1.0072  1.4302 -1.8213
 1040SOL     OW14755   3.231   3.181  10.946  0.3312 -0.0837  0.1652
 1040SOL    HW114756   3.296   3.190  11.015 -0.6313  1.4574  0.8762
 1040SOL    HW214757   3.261   3.249  10.885  1.7345 -2.0738 -1.3524
 1041SOL     OW14758   4.268   0.424   4.918 -0.3478 -0.5095 -0.2050
 1041SOL    HW114759   4.219   0.413   4.836 -1.3438  1.1499  0.1761
 1041SOL    HW214760   4.350   0.446   4.874 -0.0873 -1.6243 -0.2952
 1042SOL     OW14761   0.696   2.580   4.289  0.7507  0.2543  0.0112
 1042SOL    HW114762   0.620   2.585   4.231  0.5563 -4.2957 -0.1438
 1042SOL    HW214763   0.661   2.528   4.361  1.5175  0.1920  0.3415
 1043SOL     OW14764   1.243   4.302   4.576 -0.4140 -0.1151  0.1649
 1043SOL    HW114765   1.318   4.244   4.586 -0.3867 -0.3291 -1.2958
 1043SOL    HW214766   1.195   4.306   4.659 -0.3142  0.5683  0.1895
 1044SOL     OW14767   3.337   0.947   0.526  0.1878  0.5667  0.2152
 1044SOL    HW114768   3.298   1.033   0.542  0.1689  0.5723  0.1390
 1044SOL    HW214769   3.344   0.917   0.616 -1.2529  0.3255  0.2398
 1045SOL     OW14770   4.112   2.722   2.755  0.0708 -0.3313  0.5099
 1045SOL    HW114771   4.080   2.811   2.743 -0.6722 -0.3318  2.3937
 1045SOL    HW214772   4.082   2.711   2.845 -2.0318 -0.9804 -0.2874
 1046SOL     OW14773   2.172   0.488   5.425 -0.8272 -0.2062  0.1694
 1046SOL    HW114774   2.206   0.574   5.450 -2.4908  0.3631  0.4307
 1046SOL    HW214775   2.099   0.483   5.487 -2.0008  2.9901 -0.9789
 1047SOL     OW14776   0.447   3.100  14.118 -0.4097  0.2079  0.1828
 1047SOL    HW114777   0.444   3.059  14.031  1.7609  0.8065 -0.1775
 1047SOL    HW214778   0.488   3.186  14.117 -0.6336  0.3314  1.9185
 1048SOL     OW14779   1.979   2.948   4.177 -0.1524 -0.1679  0.0094
 1048SOL    HW114780   1.984   3.035   4.137 -1.0237  0.1228  0.5399
 1048SOL    HW214781   2.020   2.901   4.104  0.3413 -1.2560  0.9973
 1049SOL     OW14782   3.857   3.387   5.000 -0.0325 -0.0870 -0.0964
 1049SOL    HW114783   3.948   3.374   4.975 -0.3253 -0.3126 -1.0840
 1049SOL    HW214784   3.853   3.342   5.084  0.2769 -0.0443 -0.0613
 1050SOL     OW14785   1.048   4.701   3.940 -0.1547 -0.1947 -0.3345
 1050SOL    HW114786   1.063   0.055   3.966  0.2497 -0.4004  0.1533
 1050SOL    HW214787   1.117   4.683   3.876  0.9126 -1.3714  1.1539
 1051SOL     OW14788   0.654   3.087   9.169 -0.2849 -0.3280  0.0142
 1051SOL    HW114789   0.705   3.071   9.248  0.0991 -1.1693 -0.4117
 1051SOL    HW214790   0.715   3.053   9.104 -1.8529 -1.6604 -0.7691
 1052SOL     OW14791   1.108   2.397  15.662 -0.1038  0.1204 -0.8016
 1052SOL    HW114792   1.155   2.403  15.578  3.3341 -0.2267  1.0846
 1052SOL    HW214793   1.088   2.491  15.668 -0.3255 -0.1493  2.7643
 1053SOL     OW14794   3.538   0.182   1.518  0.6454  0.3544  0.8508
 1053SOL    HW114795   3.614   0.124   1.516  0.2537 -0.0595 -3.2948
 1053SOL    HW214796   3.478   0.117   1.482  1.7166  0.5241 -1.2646
 1054SOL     OW14797   1.675   3.754   2.640 -0.0469  0.0176 -0.4586
 1054SOL    HW114798   1.627   3.724   2.716  0.9326 -0.9475 -0.2158
 1054SOL    HW214799   1.712   3.835   2.674 -0.2347 -0.0634 -0.0640
 1055SOL     OW14800   2.296   2.805   4.735 -0.2483 -0.7604  0.6085
 1055SOL    HW114801   2.260   2.782   4.650  1.1693  0.2140 -0.2483
 1055SOL    HW214802   2.242   2.752   4.794  0.0354 -1.2359  0.4373
 1056SOL     OW14803   2.083   1.126  14.676  0.1705 -0.1302  0.0845
 1056SOL    HW114804   2.022   1.200  14.681 -0.8090 -0.8980 -0.4621
 1056SOL    HW214805   2.136   1.138  14.754  0.4175 -0.1264 -0.0851
 1057SOL     OW14806   0.399   1.749   6.324  0.4068  0.6613 -0.0582
 1057SOL    HW114807   0.425   1.673   6.377  0.8343  0.5309 -0.4598
 1057SOL    HW214808   0.391   1.703   6.241  1.3029  1.7561 -0.7464
 1058SOL     OW14809   1.900   0.689   3.528  0.4375  0.3714  0.0351
 1058SOL    HW114810   1.870   0.615   3.474  1.1018  1.9926 -2.5834
 1058SOL    HW214811   1.934   0.638   3.601 -2.9081 -2.7800 -0.6008
 1059SOL     OW14812   0.759   3.430   8.084 -0.2380  0.0730 -0.1669
 1059SOL    HW114813   0.804   3.508   8.051 -1.3568  0.5048 -0.7016
 1059SOL    HW214814   0.683   3.416   8.028 -0.0042  1.4323 -0.8268
 1060SOL     OW14815   1.239   0.898   3.262  0.1578  0.0581 -0.5552
 1060SOL    HW114816   1.164   0.902   3.204 -0.4056  0.9336  0.2311
 1060SOL    HW214817   1.208   0.834   3.326  0.0015 -0.8890 -1.5836
 1061SOL     OW14818   0.844   3.249  13.782 -0.0228 -0.2137 -0.0236
 1061SOL    HW114819   0.788   3.305  13.729 -1.7555 -2.0176 -0.0787
 1061SOL    HW214820   0.812   3.260  13.872  0.1701 -0.6775  0.1058
 1062SOL     OW14821   2.085   0.163  11.705  0.0131 -0.6735 -0.1549
 1062SOL    HW114822   2.056   0.144  11.794  1.5472 -0.2989  0.4186
 1062SOL    HW214823   2.102   0.074  11.672 -0.0935 -0.8795  0.3404
 1063SOL     OW14824   2.965   2.764   3.439 -0.1754 -0.5284  0.3183
 1063SOL    HW114825   2.951   2.751   3.533 -0.1880  0.1896  0.4152
 1063SOL    HW214826   3.028   2.694   3.424  0.7636  0.4486 -0.2860
 1064SOL     OW14827   2.241   0.614  14.507 -0.5370 -0.0999 -0.2916
 1064SOL    HW114828   2.173   0.592  14.569  1.9280 -2.8461  1.4054
 1064SOL    HW214829   2.286   0.672  14.569 -2.3686  1.3168 -0.2841
 1065SOL     OW14830   4.264   2.289   3.917  0.0736  0.1101  0.3541
 1065SOL    HW114831   4.337   2.320   3.863 -1.7391  0.2271 -2.0589
 1065SOL    HW214832   4.289   2.315   4.005  0.0788 -3.4478  1.3873
 1066SOL     OW14833   0.112   3.883  16.223 -0.2631  0.3340 -0.6636
 1066SOL    HW114834   0.093   3.945  16.153  1.2047  0.5732 -0.8437
 1066SOL    HW214835   0.053   3.925  16.286 -0.2814 -1.7946  0.7490
 1067SOL     OW14836   2.726   0.310   8.291 -0.4902  0.1811 -0.1473
 1067SOL    HW114837   2.685   0.241   8.238 -0.5587 -0.5700  0.8789
 1067SOL    HW214838   2.672   0.312   8.370 -1.7365 -2.1916 -0.9288
 1068SOL     OW14839   3.333   1.275   2.991 -0.6794  0.3837 -0.0465
 1068SOL    HW114840   3.306   1.295   3.080 -1.4190 -3.2391  0.5464
 1068SOL    HW214841   3.421   1.242   3.005 -0.2169  0.1011 -3.4190
 1069SOL     OW14842   4.097   3.625  16.571 -0.5109  0.2612  0.0852
 1069SOL    HW114843   4.014   3.669  16.551  0.1862  0.0104 -3.3108
 1069SOL    HW214844   4.164   3.693  16.564 -2.0368  1.6996 -0.7071
 1070SOL     OW14845   4.444   0.530   7.344 -0.2075  0.4453  0.2950
 1070SOL    HW114846   4.444   0.599   7.410  0.7163 -0.0152  0.7684
 1070SOL    HW214847   4.475   0.578   7.267 -0.8402 -0.7842 -0.7285
 1071SOL     OW14848   3.073   4.604  13.809 -0.1477 -0.6170  0.2928
 1071SOL    HW114849   3.038   4.689  13.784 -0.7060 -0.7446  0.6405
 1071SOL    HW214850   3.154   4.643  13.840 -0.3738  0.9648 -1.1410
 1072SOL     OW14851   1.383   2.968  17.151  0.2223 -0.2783  0.4364
 1072SOL    HW114852   1.420   2.884  17.121 -0.7160 -0.5035 -0.0667
 1072SOL    HW214853   1.292   2.953  17.127  1.0885 -4.1018 -0.5327
 1073SOL     OW14854   4.372   3.691   5.589 -0.5953  0.3420  0.1431
 1073SOL    HW114855   4.421   3.701   5.670 -0.5883 -2.4224  0.4683
 1073SOL    HW214856   4.394   3.606   5.551  1.3346  1.5894 -1.5757
 1074SOL     OW14857   1.418   0.144   8.764  0.3347  0.0681  0.0717
 1074SOL    HW114858   1.463   0.138   8.680 -2.0006 -1.2648 -1.0808
 1074SOL    HW214859   1.331   0.175   8.737  0.4630 -0.1589 -0.5984
 1075SOL     OW14860   3.469   1.750   8.868 -0.0872  0.9086 -0.2225
 1075SOL    HW114861   3.392   1.694   8.857  0.9129  0.3735 -4.4268
 1075SOL    HW214862   3.433   1.808   8.935 -1.0878 -0.2549  0.2485
 1076SOL     OW14863   3.801   3.334   0.558  0.4723  0.2177 -0.0970
 1076SOL    HW114864   3.724   3.281   0.577 -0.3610  0.9159 -1.5835
 1076SOL    HW214865   3.777   3.354   0.468 -0.0077 -1.0861 -0.2555
 1077SOL     OW14866   1.655   2.268   4.497 -0.9140 -0.3421  0.0010
 1077SOL    HW114867   1.688   2.353   4.526 -1.5714 -0.1680  0.2552
 1077SOL    HW214868   1.593   2.252   4.568  1.3076 -2.8335  1.3863
 1078SOL     OW14869   4.594   4.445   7.083 -0.4228  0.2790 -0.0881
 1078SOL    HW114870   4.645   4.477   7.008  1.0529 -0.6161  0.5297
 1078SOL    HW214871   4.555   4.363   7.054 -1.2213  0.6365 -0.0249
 1079SOL     OW14872   2.725   1.185  12.356  0.4143 -0.0265 -0.0605
 1079SOL    HW114873   2.715   1.251  12.424 -0.0721 -1.3080  1.1135
 1079SOL    HW214874   2.803   1.141  12.390  2.5869  1.4284 -3.1229
 1080SOL     OW14875   1.160   1.073   2.477  0.0778  0.3546 -0.1040
 1080SOL    HW114876   1.163   1.169   2.468 -1.8865  0.4584  0.4276
 1080SOL    HW214877   1.081   1.045   2.431 -0.0448 -0.6466  0.7296
 1081SOL     OW14878   1.285   0.976   7.668 -0.3430 -0.4874 -0.2126
 1081SOL    HW114879   1.355   0.952   7.728 -0.1188 -1.7309 -0.9665
 1081SOL    HW214880   1.333   0.970   7.585 -0.0692 -1.8184  0.0482
 1082SOL     OW14881   4.653   3.868  15.264 -0.5254  0.0096 -0.1842
 1082SOL    HW114882   4.703   3.918  15.328  0.2279 -2.0431  0.8353
 1082SOL    HW214883   4.663   3.923  15.186  1.1530  0.1880  0.1436
 1083SOL     OW14884   4.635   0.969   9.305  0.0270  0.2868 -0.6150
 1083SOL    HW114885   4.543   0.945   9.317  0.3340 -0.1624  0.8565
 1083SOL    HW214886   4.653   1.014   9.387  3.3004 -0.8957 -0.6694
 1084SOL     OW14887   0.609   1.039  11.097  0.0575  0.1295  0.0869
 1084SOL    HW114888   0.593   1.110  11.159  0.6785  0.1861  0.1866
 1084SOL    HW214889   0.530   0.985  11.099  1.2606 -1.5900  0.9016
 1085SOL     OW14890   3.632   1.432   3.955  0.1969  0.1164  0.2578
 1085SOL    HW114891   3.631   1.416   4.050 -2.4945 -0.3059  0.1694
 1085SOL    HW214892   3.656   1.522   3.933  1.2607  0.1489  1.5706
 1086SOL     OW14893   2.334   0.374   3.028 -0.0065 -0.4331 -0.3619
 1086SOL    HW114894   2.267   0.343   2.968  1.3163  0.8546 -2.5029
 1086SOL    HW214895   2.348   0.461   2.990 -1.0936 -0.6112 -1.1459
 1087SOL     OW14896   2.730   0.609  12.754 -0.3200  0.2978 -0.0842
 1087SOL    HW114897   2.661   0.674  12.771  1.1463  2.2566 -1.6210
 1087SOL    HW214898   2.734   0.555  12.833  0.6042  0.0665 -0.2953
 1088SOL     OW14899   1.536   4.705  16.757  0.3722 -0.1391 -0.6691
 1088SOL    HW114900   1.530   4.633  16.821 -1.2937  1.7094  1.2585
 1088SOL    HW214901   1.608   0.019  16.793 -0.9749  1.0540  0.3368
 1089SOL     OW14902   3.380   2.839   1.621 -0.6383  0.4185  1.0029
 1089SOL    HW114903   3.421   2.800   1.543 -1.7087 -0.7048  0.9981
 1089SOL    HW214904   3.443   2.907   1.642 -0.9620  2.0424 -3.1117
 1090SOL     OW14905   2.747   0.153   4.405 -0.1775  0.3804 -0.2078
 1090SOL    HW114906   2.821   0.212   4.414 -0.9641  1.7957 -2.9397
 1090SOL    HW214907   2.679   0.194   4.458  1.2435 -0.0102  1.9057
 1091SOL     OW14908   1.106   1.634   4.619 -0.0223  0.1270  0.0803
 1091SOL    HW114909   1.013   1.654   4.606 -0.0287 -0.0769 -0.1717
 1091SOL    HW214910   1.145   1.706   4.569 -0.0108 -1.2747 -1.9412
 1092SOL     OW14911   1.696   3.411   5.285 -0.7179  0.4942 -0.0969
 1092SOL    HW114912   1.770   3.444   5.233  0.2970  1.1725  1.7893
 1092SOL    HW214913   1.665   3.491   5.328 -1.2000 -0.0533  0.5771
 1093SOL     OW14914   3.876   2.666   4.177 -0.4274  0.6413  0.2392
 1093SOL    HW114915   3.867   2.643   4.084  0.3052 -0.5630  0.4672
 1093SOL    HW214916   3.969   2.690   4.179  0.2811 -2.2904  1.6385
 1094SOL     OW14917   1.369   2.076   0.603 -0.2084  0.4559 -0.1429
 1094SOL    HW114918   1.282   2.088   0.639 -0.9077  0.5062 -1.8147
 1094SOL    HW214919   1.333   2.064   0.515 -0.6910  0.8492  0.0027
 1095SOL     OW14920   3.011   2.653   4.394  0.1755  0.0072 -0.1651
 1095SOL    HW114921   2.956   2.700   4.331 -0.8262 -2.0631 -0.8171
 1095SOL    HW214922   2.952   2.650   4.469  0.7305  3.7128  0.4525
 1096SOL     OW14923   2.148   0.974   2.390  0.0302  0.1291  0.6439
 1096SOL    HW114924   2.066   0.933   2.418 -0.9186  1.9757  0.5770
 1096SOL    HW214925   2.170   1.018   2.472 -0.9953  3.3441 -0.8046
 1097SOL     OW14926   2.144   4.374   2.570  0.2698  0.3805  0.1498
 1097SOL    HW114927   2.081   4.429   2.523 -1.6710 -0.6787  1.5124
 1097SOL    HW214928   2.095   4.364   2.652 -1.7533  2.4334 -0.8166
 1098SOL     OW14929   3.627   1.834   8.643  0.4744 -0.1546 -0.1793
 1098SOL    HW114930   3.569   1.778   8.694 -0.7510  0.3743 -0.9718
 1098SOL    HW214931   3.707   1.783   8.636  0.1819 -0.8322  1.5088
 1099SOL     OW14932   4.236   2.231   2.173 -0.0798  0.8046 -0.0846
 1099SOL    HW114933   4.227   2.307   2.229  1.5068  0.5056  0.5925
 1099SOL    HW214934   4.311   2.260   2.121 -0.0096 -0.2645 -0.5887
 1100SOL     OW14935   4.530   1.512   2.895  0.0643  0.6396 -0.3445
 1100SOL    HW114936   4.546   1.514   2.801  1.4498  0.3387 -0.1108
 1100SOL    HW214937   4.477   1.592   2.901 -0.3050  0.2427  1.6569
 1101SOL     OW14938   0.321   1.287   7.816 -0.1147 -0.1130 -0.2421
 1101SOL    HW114939   0.245   1.286   7.758  0.0744  1.4589 -0.5390
 1101SOL    HW214940   0.363   1.363   7.775 -0.2940 -0.8006 -1.6968
 1102SOL     OW14941   0.790   1.862  11.750  0.3005  0.3516  0.6508
 1102SOL    HW114942   0.704   1.876  11.711  0.4739  0.2793  0.2403
 1102SOL    HW214943   0.805   1.769  11.740 -2.2948  0.1215 -1.1305
 1103SOL     OW14944   2.577   4.046   7.716 -0.4678 -0.3212  0.0983
 1103SOL    HW114945   2.653   3.993   7.739  2.0786  2.2796 -2.3415
 1103SOL    HW214946   2.566   4.021   7.624 -0.3525  0.0265 -0.0099
 1104SOL     OW14947   2.789   1.789   5.788  0.2891  0.7379  0.1531
 1104SOL    HW114948   2.769   1.727   5.858  1.3655 -1.2620 -1.3049
 1104SOL    HW214949   2.705   1.835   5.784  0.2975  0.6315 -1.5558
 1105SOL     OW14950   4.411   3.730  14.231 -0.5353  0.0606  0.3077
 1105SOL    HW114951   4.342   3.665  14.217 -1.2840  0.2199  3.2134
 1105SOL    HW214952   4.373   3.773  14.307  0.2685  0.8578  0.2623
 1106SOL     OW14953   0.998   2.227   4.956  0.0757  0.3860 -0.6135
 1106SOL    HW114954   0.931   2.160   4.943 -1.2575  1.8198 -1.0353
 1106SOL    HW214955   1.058   2.212   4.883  1.2314  1.3833  0.1191
 1107SOL     OW14956   2.101   4.605   3.692 -0.0456  0.0379 -0.3708
 1107SOL    HW114957   2.196   4.614   3.695  0.0273 -0.8897  0.0949
 1107SOL    HW214958   2.084   4.590   3.785  0.2383 -1.3861 -0.5431
 1108SOL     OW14959   2.292   2.089   4.552  0.1552  0.2004  0.1984
 1108SOL    HW114960   2.284   1.996   4.574  2.5325 -0.6749 -2.5274
 1108SOL    HW214961   2.233   2.122   4.619 -0.7886  0.2791 -0.6811
 1109SOL     OW14962   1.249   1.331   2.714 -0.2144  0.2350  0.4660
 1109SOL    HW114963   1.211   1.328   2.626  2.5611 -2.1525 -0.6712
 1109SOL    HW214964   1.333   1.377   2.706 -0.2551 -0.2143 -2.5202
 1110SOL     OW14965   0.786   3.803   8.242 -0.4239 -0.2084  0.2914
 1110SOL    HW114966   0.714   3.864   8.227  1.0115  1.2105 -0.7984
 1110SOL    HW214967   0.808   3.843   8.326  0.2873  0.5902 -0.2784
 1111SOL     OW14968   3.249   3.804   8.393  0.5793 -0.2083  0.2381
 1111SOL    HW114969   3.227   3.747   8.319 -2.0395 -3.5904  3.6332
 1111SOL    HW214970   3.340   3.775   8.391  0.8079  0.4018  1.9129
 1112SOL     OW14971   0.376   0.134  13.822  0.8441 -0.5133  0.3219
 1112SOL    HW114972   0.441   0.193  13.860  1.2229  0.0762 -1.2384
 1112SOL    HW214973   0.368   0.066  13.890 -0.4189  2.6034  3.2891
 1113SOL     OW14974   4.074   0.666   8.850 -0.2168 -0.2104 -0.6102
 1113SOL    HW114975   4.041   0.596   8.906  0.8797 -0.6613 -0.5306
 1113SOL    HW214976   4.122   0.728   8.905  0.9179 -2.1414  0.5353
 1114SOL     OW14977   4.118   1.473  12.735  0.0099  0.3078 -0.3694
 1114SOL    HW114978   4.071   1.410  12.682  2.6261 -2.6795  0.8307
 1114SOL    HW214979   4.209   1.468  12.704 -0.0300  2.5779 -0.8310
 1115SOL     OW14980   0.090   4.659  12.606  0.1621 -0.2441  0.0446
 1115SOL    HW114981   0.147   4.608  12.663 -0.3115  1.9819  2.5109
 1115SOL    HW214982   0.111   4.619  12.521 -1.2405 -1.4017  0.2558
 1116SOL     OW14983   0.145   4.248  12.182 -0.0205  0.3573  0.0694
 1116SOL    HW114984   0.122   4.183  12.249 -0.5865  0.8600  0.3539
 1116SOL    HW214985   0.232   4.283  12.200 -0.7528  1.3287  1.7220
 1117SOL     OW14986   4.573   3.909   6.895  0.0046  0.0455  0.4123
 1117SOL    HW114987   4.583   3.941   6.805  0.5137  0.3583  0.5797
 1117SOL    HW214988   4.620   3.827   6.884 -1.1626 -0.7151  1.0959
 1118SOL     OW14989   1.745   2.406   7.951 -0.1948 -0.0553  0.1530
 1118SOL    HW114990   1.764   2.489   7.906  0.0730 -0.6653 -0.8707
 1118SOL    HW214991   1.812   2.349   7.911  0.5084 -0.8351  2.4775
 1119SOL     OW14992   0.674   2.596   9.044 -0.1915  0.2591  0.0677
 1119SOL    HW114993   0.708   2.525   8.989  0.2817  0.3735  0.2144
 1119SOL    HW214994   0.730   2.667   9.013 -1.1425  1.2609  0.6502
 1120SOL     OW14995   1.082   2.867  15.009  0.0592 -0.0575  0.1190
 1120SOL    HW114996   1.131   2.945  14.983 -1.4909  1.3743  1.4775
 1120SOL    HW214997   1.059   2.891  15.098  0.4356  1.4184 -0.1811
 1121SOL     OW14998   0.823   3.950   9.171 -0.4476  0.2501  0.1720
 1121SOL    HW114999   0.856   3.985   9.254  0.4661  1.0371 -0.5147
 1121SOL    HW215000   0.732   3.925   9.189  0.0975 -2.1518 -0.4156
 1122SOL     OW15001   0.472   2.053   9.947  0.0637 -0.3555 -0.3387
 1122SOL    HW115002   0.563   2.039   9.919 -0.0265 -1.7941  0.0867
 1122SOL    HW215003   0.459   2.144   9.919  0.1289  0.3844  2.0971
 1123SOL     OW15004   4.010   3.675   6.296  0.2454  0.0181 -0.2601
 1123SOL    HW115005   3.925   3.663   6.337  0.5890  1.6901  0.9421
 1123SOL    HW215006   4.022   3.768   6.315 -1.6081 -0.1569  1.7952
 1124SOL     OW15007   0.091   3.281   2.916 -0.0841  0.2265 -0.1620
 1124SOL    HW115008   0.112   3.304   2.825 -0.3169  3.1422  0.5394
 1124SOL    HW215009   4.737   3.309   2.921 -0.4263 -1.0000  0.2872
 1125SOL     OW15010   4.177   0.322   6.368 -0.1600 -0.0770  0.0845
 1125SOL    HW115011   4.136   0.365   6.293  0.1235  2.5119  1.4127
 1125SOL    HW215012   4.267   0.354   6.356 -0.6845  2.2414  2.4073
 1126SOL     OW15013   0.516   2.289   1.865  0.0630 -0.1335  0.2793
 1126SOL    HW115014   0.467   2.335   1.797 -2.0814 -0.3850  1.6698
 1126SOL    HW215015   0.606   2.318   1.851 -0.6549  0.9997 -1.9999
 1127SOL     OW15016   2.236   4.219   4.604  0.2849  0.2934 -0.6402
 1127SOL    HW115017   2.199   4.144   4.650  0.8231  0.9056  0.7925
 1127SOL    HW215018   2.204   4.291   4.659 -0.1203 -0.4643  0.1045
 1128SOL     OW15019   4.623   4.318   4.497 -0.1924  0.4797  0.3568
 1128SOL    HW115020   4.655   4.250   4.438 -1.6465  0.0861  0.0469
 1128SOL    HW215021   4.529   4.308   4.511  0.1505 -2.5440  0.6409
 1129SOL     OW15022   2.012   2.570   1.447  0.0792 -0.4717  0.0319
 1129SOL    HW115023   1.997   2.626   1.371  0.6796 -0.3715 -0.0059
 1129SOL    HW215024   1.941   2.601   1.504 -0.9639  2.3028 -2.8028
 1130SOL     OW15025   2.477   0.333   3.466  0.7823  0.3769  0.5664
 1130SOL    HW115026   2.404   0.380   3.426  1.4216  0.6341 -0.2971
 1130SOL    HW215027   2.536   0.352   3.394 -0.5501  0.7617 -0.4167
 1131SOL     OW15028   2.268   4.640   4.854 -0.1630 -0.2353  0.5653
 1131SOL    HW115029   2.314   4.717   4.887 -0.8005 -0.1450  1.2292
 1131SOL    HW215030   2.338   4.592   4.809 -0.6476 -1.2917  0.9507
 1132SOL     OW15031   4.646   0.485  16.703  0.3002 -0.0847  0.3140
 1132SOL    HW115032   4.558   0.461  16.733  1.2724  0.2521  3.4242
 1132SOL    HW215033   4.701   0.465  16.779 -0.0585  0.3034  0.6775
 1133SOL     OW15034   3.770   3.759   9.177  0.5981  0.2570  0.9559
 1133SOL    HW115035   3.857   3.769   9.139  0.0777  0.6046 -0.1560
 1133SOL    HW215036   3.778   3.670   9.211 -3.5097  0.0902  1.4546
 1134SOL     OW15037   1.913   0.313   2.291 -0.1342  0.0214 -0.0846
 1134SOL    HW115038   1.911   0.391   2.236 -0.3640  1.4263  1.9408
 1134SOL    HW215039   1.989   0.317   2.349 -2.2260  1.1111  2.5275
 1135SOL     OW15040   4.374   3.476   1.989 -0.6122 -0.2285  0.3549
 1135SOL    HW115041   4.409   3.560   2.020  1.4959 -0.6771 -0.8127
 1135SOL    HW215042   4.295   3.499   1.940  0.8567  2.2918 -0.8009
 1136SOL     OW15043   0.520   2.808   5.513  0.2989 -0.1133  0.4015
 1136SOL    HW115044   0.518   2.729   5.567  2.1396 -0.3744  0.0682
 1136SOL    HW215045   0.581   2.779   5.445  1.0080  0.0998  0.9537
 1137SOL     OW15046   3.308   1.190   1.789 -0.1315  0.0747 -0.0314
 1137SOL    HW115047   3.299   1.172   1.883 -0.3068 -2.3377 -0.4973
 1137SOL    HW215048   3.226   1.147   1.766 -0.0986 -0.3277  0.5920
 1138SOL     OW15049   4.287   2.526   6.397 -0.0689 -0.1051 -0.0125
 1138SOL    HW115050   4.374   2.543   6.361  0.6040  0.1854  1.7957
 1138SOL    HW215051   4.283   2.440   6.355 -3.8032 -1.7101  3.6233
 1139SOL     OW15052   2.935   2.615  11.475  0.2444  0.2618  0.5186
 1139SOL    HW115053   2.978   2.530  11.486 -1.1878 -0.5374 -0.1624
 1139SOL    HW215054   2.986   2.675  11.530 -2.7248  1.6316  1.7621
 1140SOL     OW15055   0.756   0.130   2.396  0.8777 -0.3010  0.1951
 1140SOL    HW115056   0.778   0.209   2.446 -0.9033 -1.3388  2.6352
 1140SOL    HW215057   0.729   0.070   2.466  0.1810 -0.9345 -0.6201
 1141SOL     OW15058   2.852   2.899   8.184 -0.1316 -0.1815 -0.2007
 1141SOL    HW115059   2.851   2.985   8.227 -2.3384  0.5029 -1.5586
 1141SOL    HW215060   2.923   2.862   8.235 -0.1286  0.0129 -0.0622
 1142SOL     OW15061   0.757   0.649   8.514  0.1205  0.0444 -0.3175
 1142SOL    HW115062   0.814   0.723   8.493 -1.0591  0.2479 -2.7949
 1142SOL    HW215063   0.712   0.685   8.591  0.5587 -4.7393  2.1630
 1143SOL     OW15064   4.511   4.339  11.373 -0.1718 -0.0662  0.2342
 1143SOL    HW115065   4.595   4.373  11.341  0.3234  0.7210  2.3403
 1143SOL    HW215066   4.459   4.308  11.299 -1.0816  0.2447  0.7441
 1144SOL     OW15067   0.299   1.117   1.056  0.0328 -0.0112 -0.3001
 1144SOL    HW115068   0.244   1.111   1.134  1.9386  2.7014  1.2415
 1144SOL    HW215069   0.287   1.031   1.014 -0.7636  0.0712 -0.2432
 1145SOL     OW15070   4.500   1.029   8.539  0.2248 -0.4938 -0.3764
 1145SOL    HW115071   4.497   1.099   8.474 -0.7134 -0.3610 -0.1927
 1145SOL    HW215072   4.411   0.994   8.528 -0.1294  0.5283 -0.7481
 1146SOL     OW15073   0.519   3.648   6.648 -0.0664  0.3023 -0.0452
 1146SOL    HW115074   0.534   3.623   6.739 -1.5652 -1.7908 -0.3449
 1146SOL    HW215075   0.499   3.562   6.611  0.6954 -0.0998  0.4693
 1147SOL     OW15076   1.405   1.623  14.202  0.2996 -0.0383 -0.1130
 1147SOL    HW115077   1.327   1.661  14.163 -0.4846 -1.1075  0.4208
 1147SOL    HW215078   1.476   1.676  14.165  0.2372  0.3669  0.3447
 1148SOL     OW15079   0.141   4.176   4.548  0.2034 -0.6629 -0.3447
 1148SOL    HW115080   0.142   4.270   4.530 -0.6390 -0.3251  1.3528
 1148SOL    HW215081   0.094   4.135   4.475 -1.2149  1.3237 -0.5324
 1149SOL     OW15082   3.219   0.094   8.153  0.0022 -0.1673  0.0437
 1149SOL    HW115083   3.245   0.059   8.067 -0.8177 -1.7231  0.4116
 1149SOL    HW215084   3.294   0.146   8.182  1.5676 -1.7226 -1.1782
 1150SOL     OW15085   2.671   3.442   2.582  0.1394 -0.8850 -0.0477
 1150SOL    HW115086   2.739   3.398   2.633 -1.3874 -0.7610  2.1178
 1150SOL    HW215087   2.678   3.380   2.510  0.7272  0.5111 -1.2022
 1151SOL     OW15088   4.065   3.683   7.260 -0.5117 -0.1362  0.0764
 1151SOL    HW115089   4.127   3.647   7.322 -0.5625 -0.1062  0.1441
 1151SOL    HW215090   3.983   3.652   7.299  0.3027 -0.8187  1.2218
 1152SOL     OW15091   1.916   2.693  15.934 -0.2075  0.3955 -0.1756
 1152SOL    HW115092   1.961   2.634  15.874 -0.5741  1.5528 -1.6123
 1152SOL    HW215093   1.858   2.627  15.971  1.9967 -1.4697 -0.0813
 1153SOL     OW15094   1.148   0.581  14.460  0.7766 -0.5459 -0.4735
 1153SOL    HW115095   1.211   0.519  14.423  1.1920  0.8627 -2.1456
 1153SOL    HW215096   1.108   0.618  14.381 -0.1125  0.6927  0.5685
 1154SOL     OW15097   1.104   4.467   6.406  0.3832  0.0835  0.2301
 1154SOL    HW115098   1.133   4.417   6.482  2.2230  1.2814  0.2938
 1154SOL    HW215099   1.162   4.543   6.417 -1.0607  1.3834 -1.0780
 1155SOL     OW15100   3.146   1.890   5.513  0.0279  0.1815  0.1696
 1155SOL    HW115101   3.063   1.878   5.467 -0.9975 -0.7952  2.2851
 1155SOL    HW215102   3.215   1.898   5.448  0.7446 -0.2792  0.8729
 1156SOL     OW15103   2.841   0.487  12.053 -0.9483  0.3284  0.0995
 1156SOL    HW115104   2.871   0.454  11.969 -0.8184 -0.8869  0.6324
 1156SOL    HW215105   2.917   0.537  12.083 -1.0354 -0.1615  1.1360
 1157SOL     OW15106   4.376   1.659   6.887  0.4839  0.1685  0.1581
 1157SOL    HW115107   4.314   1.614   6.944  1.0467 -0.3531  0.3562
 1157SOL    HW215108   4.335   1.640   6.803  0.6614 -0.6952  0.2707
 1158SOL     OW15109   1.317   4.039   7.420 -0.1901  0.3737  0.3726
 1158SOL    HW115110   1.408   4.040   7.450  0.4823  0.8847 -1.7161
 1158SOL    HW215111   1.268   4.045   7.502  0.9125  2.5046  0.8783
 1159SOL     OW15112   1.918   0.432   4.122  0.0215  0.4404 -0.6015
 1159SOL    HW115113   1.907   0.337   4.119  0.3833  0.2350  3.3723
 1159SOL    HW215114   1.998   0.445   4.173 -0.9100  2.2828  0.4370
 1160SOL     OW15115   2.068   4.522  14.284  0.3729 -0.2396  0.6050
 1160SOL    HW115116   2.018   4.445  14.257 -0.2812  0.3850  0.0253
 1160SOL    HW215117   2.156   4.499  14.255  1.1378  0.6555  2.1796
 1161SOL     OW15118   1.280   3.334   5.760 -0.4171  0.1887 -0.3220
 1161SOL    HW115119   1.186   3.332   5.777 -0.2829 -0.3504  0.3383
 1161SOL    HW215120   1.291   3.317   5.666  1.6871 -0.2063  0.0025
 1162SOL     OW15121   2.776   0.932   6.064  0.9164 -0.3148  0.2924
 1162SOL    HW115122   2.822   0.948   6.147  1.3328 -1.8213  0.3598
 1162SOL    HW215123   2.793   0.838   6.057  2.2781  0.1048 -1.9883
 1163SOL     OW15124   3.903   1.026   3.466  0.3065  0.7788  0.2101
 1163SOL    HW115125   3.955   1.055   3.541  1.8237  2.0143 -1.3340
 1163SOL    HW215126   3.844   0.958   3.500 -0.3711  2.1244  1.7306
 1164SOL     OW15127   4.351   3.938  12.452 -0.3475  0.0813  0.4617
 1164SOL    HW115128   4.422   3.873  12.449  1.2432  1.7868  0.9431
 1164SOL    HW215129   4.361   3.993  12.375 -0.0238  0.5011  0.8069
 1165SOL     OW15130   1.919   0.454  15.917 -0.7595 -0.6501  0.5352
 1165SOL    HW115131   1.977   0.531  15.919  2.2731 -2.9624  1.3000
 1165SOL    HW215132   1.839   0.492  15.880 -0.5275  0.4692  1.1657
 1166SOL     OW15133   4.126   2.211  12.632  0.7867  0.3261  0.0013
 1166SOL    HW115134   4.135   2.284  12.692  2.2279  0.5633 -0.5081
 1166SOL    HW215135   4.071   2.147  12.678 -2.7809  2.9370 -0.6548
 1167SOL     OW15136   1.987   2.381   2.441 -0.3376  0.0480 -0.3578
 1167SOL    HW115137   2.065   2.377   2.495 -1.2402 -0.6793  0.8871
 1167SOL    HW215138   1.997   2.465   2.397  0.8586  1.3448  2.4336
 1168SOL     OW15139   2.733   2.609   6.400 -0.0293 -0.1309 -0.4921
 1168SOL    HW115140   2.642   2.638   6.403 -0.1525 -0.4584 -0.9337
 1168SOL    HW215141   2.752   2.629   6.308  0.0894 -0.9091 -0.6394
 1169SOL     OW15142   1.162   1.274   3.048  0.2519 -0.1385 -0.6092
 1169SOL    HW115143   1.103   1.348   3.046 -0.1230 -0.4163  0.1723
 1169SOL    HW215144   1.206   1.293   2.965  1.1392  1.0557  0.1421
 1170SOL     OW15145   1.597   0.858   8.114  0.0020 -0.3824 -0.5873
 1170SOL    HW115146   1.652   0.924   8.072  0.9060 -1.9275 -1.8121
 1170SOL    HW215147   1.618   0.878   8.205  0.8265  0.2021 -0.8981
 1171SOL     OW15148   1.440   2.983   0.493  0.0879  0.1795  0.9620
 1171SOL    HW115149   1.517   3.004   0.441 -0.5217  1.9130  0.7587
 1171SOL    HW215150   1.439   3.035   0.573  1.3348 -0.5522  1.4429
 1172SOL     OW15151   0.484   2.592   2.861  0.1924  0.5317  0.1700
 1172SOL    HW115152   0.546   2.660   2.887  1.8254 -1.0090  0.2597
 1172SOL    HW215153   0.478   2.607   2.767  1.7352 -1.1890 -0.2032
 1173SOL     OW15154   4.737   2.437   4.511 -0.3110  0.2926  0.7230
 1173SOL    HW115155   0.085   2.477   4.497  0.3841 -2.2569 -2.3861
 1173SOL    HW215156   4.728   2.396   4.425 -0.1361  0.7009  0.5089
 1174SOL     OW15157   1.540   4.724   6.025  0.2277  0.3024 -0.1420
 1174SOL    HW115158   1.487   4.707   5.947  0.9248  4.3698 -1.5153
 1174SOL    HW215159   1.559   4.635   6.053  0.1990  0.4634  0.3954
 1175SOL     OW15160   1.886   3.995   8.364 -0.5631  0.7365 -0.1410
 1175SOL    HW115161   1.954   4.057   8.338  0.4472 -0.8319 -1.2844
 1175SOL    HW215162   1.895   3.997   8.459 -0.7437  1.4665 -0.1419
 1176SOL     OW15163   1.076   3.545  16.099 -0.4128  0.3416 -0.0434
 1176SOL    HW115164   1.110   3.606  16.034  2.6258  0.1817  1.4178
 1176SOL    HW215165   1.042   3.609  16.162 -3.1561  0.5126 -1.6644
 1177SOL     OW15166   2.501   1.162   5.314 -0.0051 -0.6723  0.1806
 1177SOL    HW115167   2.557   1.240   5.317 -1.9288  0.7244 -0.3711
 1177SOL    HW215168   2.430   1.198   5.260  0.1082  1.6573  1.5597
 1178SOL     OW15169   4.135   3.899  11.385 -0.4040 -0.0562  0.6811
 1178SOL    HW115170   4.170   3.812  11.403 -1.6355 -0.4791  1.0857
 1178SOL    HW215171   4.206   3.949  11.346 -0.6573 -0.5962 -0.4853
 1179SOL     OW15172   0.231   2.644   2.706  0.5501  0.0484 -0.4204
 1179SOL    HW115173   0.289   2.578   2.668 -1.7170 -0.9208 -2.1854
 1179SOL    HW215174   0.150   2.621   2.660  0.3446  1.3332 -0.7047
 1180SOL     OW15175   1.944   1.035   6.711 -0.1823  0.3423 -0.1147
 1180SOL    HW115176   2.012   0.994   6.658  1.2906  2.1422  0.3870
 1180SOL    HW215177   1.869   0.989   6.674  0.1030  0.8704 -1.3270
 1181SOL     OW15178   1.314   4.359  13.099  0.2459  0.2925 -0.8476
 1181SOL    HW115179   1.325   4.448  13.065  3.2042  0.7796  1.3838
 1181SOL    HW215180   1.222   4.357  13.128 -0.3407  0.2736 -2.7425
 1182SOL     OW15181   1.713   1.162   8.304  0.1012  0.1834 -0.3450
 1182SOL    HW115182   1.751   1.188   8.388 -0.3630 -1.0570  0.2519
 1182SOL    HW215183   1.669   1.247   8.303 -1.7151 -0.7469  0.3881
 1183SOL     OW15184   0.952   0.793   2.689  0.2722 -0.2358  0.1031
 1183SOL    HW115185   0.997   0.855   2.631 -1.5696  1.9698  1.0194
 1183SOL    HW215186   0.934   0.719   2.631 -0.6057  0.4804 -0.5442
 1184SOL     OW15187   3.594   0.027  11.349  0.0369 -0.1609  0.5423
 1184SOL    HW115188   3.646   4.685  11.359 -1.3694 -0.9280  1.6178
 1184SOL    HW215189   3.624   0.047  11.260 -0.2076  2.1790  0.9797
 1185SOL     OW15190   2.249   1.185   3.185 -0.6095 -0.4410  0.0839
 1185SOL    HW115191   2.181   1.243   3.151  0.8662  0.6156 -1.0194
 1185SOL    HW215192   2.304   1.183   3.107 -2.1114 -2.0999 -0.9423
 1186SOL     OW15193   0.994   0.742   5.277  0.1533  0.4527 -0.4013
 1186SOL    HW115194   0.922   0.754   5.338  0.3633 -1.8527  0.3216
 1186SOL    HW215195   0.960   0.786   5.200 -2.2253  1.7719  1.4208
 1187SOL     OW15196   4.020   4.015   7.725 -0.1504 -0.3411 -0.1176
 1187SOL    HW115197   3.987   4.104   7.712 -0.1961 -0.3986 -0.3819
 1187SOL    HW215198   4.041   3.992   7.635  0.7487 -1.8705  0.4943
 1188SOL     OW15199   2.141   3.707   0.870  0.3552 -0.0848 -0.9902
 1188SOL    HW115200   2.192   3.627   0.876 -0.7938 -0.7259  0.2497
 1188SOL    HW215201   2.097   3.710   0.955 -0.9140  0.0597 -1.6453
 1189SOL     OW15202   3.530   0.121   5.392  0.3779 -0.1415 -0.6402
 1189SOL    HW115203   3.612   0.140   5.347  2.0115 -1.8995  1.6065
 1189SOL    HW215204   3.479   0.163   5.323 -1.5644  0.1717  0.9983
 1190SOL     OW15205   2.369   4.677   5.469 -0.0977  0.6206 -0.9712
 1190SOL    HW115206   2.300   4.635   5.522  0.6104  0.6764  0.0089
 1190SOL    HW215207   2.346   0.031   5.483  0.7452  0.6383  0.2822
 1191SOL     OW15208   2.698   4.675   6.101 -0.2707 -0.2358 -0.2829
 1191SOL    HW115209   2.688   0.007   6.166 -1.2247 -0.1162 -0.5606
 1191SOL    HW215210   2.640   4.606   6.131 -1.2620  0.6637 -0.1229
 1192SOL     OW15211   3.818   0.797  16.309 -0.1273 -0.4590 -0.7824
 1192SOL    HW115212   3.798   0.890  16.323 -0.7882 -0.8201  0.7186
 1192SOL    HW215213   3.745   0.779  16.250  1.7382 -0.1550 -3.1794
 1193SOL     OW15214   1.493   4.402   9.507  0.5441  0.3877 -0.2336
 1193SOL    HW115215   1.425   4.467   9.524  0.8575  0.8063 -0.5863
 1193SOL    HW215216   1.496   4.405   9.412 -0.2751 -1.6956 -0.3218
 1194SOL     OW15217   3.674   0.487   5.946 -0.1693  0.2515  0.3118
 1194SOL    HW115218   3.765   0.470   5.921 -0.2742 -1.6417  1.1694
 1194SOL    HW215219   3.669   0.582   5.956  1.9366  0.5622 -1.5926
 1195SOL     OW15220   3.447   0.231   9.808  0.0002 -0.2071 -0.1393
 1195SOL    HW115221   3.477   0.202   9.722 -1.6710  0.5015 -0.9619
 1195SOL    HW215222   3.392   0.303   9.780  1.9754  0.5683 -2.0297
 1196SOL     OW15223   3.079   3.182   3.879 -0.0969 -0.6271 -0.1628
 1196SOL    HW115224   3.079   3.093   3.844 -0.0694 -0.4189 -0.6842
 1196SOL    HW215225   2.984   3.188   3.878 -0.0278  0.5142  0.2630
 1197SOL     OW15226   1.754   2.469   9.871 -0.3856 -0.1112  0.0601
 1197SOL    HW115227   1.820   2.415   9.915  2.6395  1.4087 -2.6000
 1197SOL    HW215228   1.773   2.546   9.924  1.6208 -0.7233  0.2055
 1198SOL     OW15229   4.051   3.005   1.044 -0.7935 -0.3952  0.4307
 1198SOL    HW115230   4.115   2.954   1.095 -1.0525 -1.0847  0.0720
 1198SOL    HW215231   3.971   3.002   1.098  1.2586  2.1191  3.6217
 1199SOL     OW15232   3.923   4.445  16.741 -0.0733  0.3862 -0.1018
 1199SOL    HW115233   3.846   4.389  16.747 -1.4802  2.2012 -1.0147
 1199SOL    HW215234   3.919   4.482  16.653  0.0982 -0.7327 -0.5845
 1200SOL     OW15235   3.985   1.822   5.009 -0.0833 -0.3788  0.3282
 1200SOL    HW115236   3.909   1.875   5.036  0.1727  1.1753 -2.0566
 1200SOL    HW215237   4.063   1.876   5.010 -0.6935  0.5014  0.7301
 1201SOL     OW15238   1.595   1.411   8.331 -0.5021 -0.0013  0.0102
 1201SOL    HW115239   1.600   1.435   8.238 -1.7426  1.2435  0.2716
 1201SOL    HW215240   1.588   1.503   8.355 -2.1658  0.1963 -1.2291
 1202SOL     OW15241   3.026   3.172  10.599  0.1901 -0.3327 -0.2992
 1202SOL    HW115242   3.118   3.147  10.606 -0.2447 -1.6317  0.5033
 1202SOL    HW215243   2.993   3.105  10.539  1.0028 -1.2458  0.2773
 1203SOL     OW15244   4.191   3.479   0.816  0.2606  0.3455  0.2197
 1203SOL    HW115245   4.204   3.541   0.744  2.6847  0.5102  0.8029
 1203SOL    HW215246   4.221   3.396   0.779 -0.6554  0.1166 -0.0234
 1204SOL     OW15247   2.995   2.234   5.605  0.0953  0.1755  0.5600
 1204SOL    HW115248   2.960   2.291   5.674  1.3302  2.0567 -0.3859
 1204SOL    HW215249   3.030   2.158   5.653  0.2038 -0.3887 -0.4140
 1205SOL     OW15250   1.982   4.131   7.688  0.2917 -0.4643  0.0396
 1205SOL    HW115251   1.971   4.166   7.600 -0.6422 -0.1287  0.2898
 1205SOL    HW215252   2.015   4.199   7.747  0.0534  0.4262 -0.8523
 1206SOL     OW15253   1.153   4.119   8.276  0.5073 -0.0216 -0.1242
 1206SOL    HW115254   1.114   4.066   8.207  2.2103  0.0456 -1.1463
 1206SOL    HW215255   1.238   4.137   8.236  1.6791  0.8227  2.7954
 1207SOL     OW15256   3.480   1.091   6.230  0.4622 -0.0912  0.3682
 1207SOL    HW115257   3.506   1.044   6.310 -0.6699  0.5746  1.1332
 1207SOL    HW215258   3.531   1.052   6.159 -0.8500 -0.4799 -0.3568
 1208SOL     OW15259   4.379   1.799  16.805 -0.2177 -0.7281 -0.7825
 1208SOL    HW115260   4.367   1.893  16.794 -1.3432 -0.9124 -1.1334
 1208SOL    HW215261   4.302   1.773  16.855 -1.1887 -0.4994 -2.1477
 1209SOL     OW15262   1.780   3.720   2.369 -0.1230  0.1273  0.4704
 1209SOL    HW115263   1.733   3.719   2.452  2.5325 -0.7780  1.9755
 1209SOL    HW215264   1.735   3.649   2.323  0.1893  0.5539 -0.4993
 1210SOL     OW15265   2.530   1.385   8.573 -0.8855  0.5143  0.2901
 1210SOL    HW115266   2.540   1.469   8.619  2.7714  2.0941 -3.3474
 1210SOL    HW215267   2.446   1.408   8.533 -1.0181  0.3962  0.5013
 1211SOL     OW15268   1.206   3.130   0.440 -0.1509  0.1436  0.4474
 1211SOL    HW115269   1.284   3.074   0.436 -1.5699 -1.9201  2.1674
 1211SOL    HW215270   1.141   3.083   0.492  0.4226 -4.0273 -2.5651
 1212SOL     OW15271   2.794   1.225   0.474  0.2891  0.6551  0.4734
 1212SOL    HW115272   2.788   1.173   0.553  2.1696  1.4377  1.1234
 1212SOL    HW215273   2.813   1.166   0.401 -1.0277  1.6147 -0.6597
 1213SOL     OW15274   4.134   0.939   1.685 -0.0425 -0.1146 -0.3689
 1213SOL    HW115275   4.076   0.972   1.754 -0.0409  1.8801 -1.3282
 1213SOL    HW215276   4.200   0.890   1.735 -0.5619 -0.0026  0.4186
 1214SOL     OW15277   3.353   0.333   4.149  0.3359 -0.0078 -0.0621
 1214SOL    HW115278   3.408   0.300   4.220 -0.8932 -3.8886 -0.9411
 1214SOL    HW215279   3.342   0.252   4.100 -1.1138 -0.4005  0.9302
 1215SOL     OW15280   3.074   0.869   9.702  0.1555 -0.2859  0.5281
 1215SOL    HW115281   3.041   0.946   9.749 -1.2511 -1.5846  1.6725
 1215SOL    HW215282   3.083   0.892   9.610 -1.7215  1.0783  0.6820
 1216SOL     OW15283   0.677   2.697   2.437 -0.5803  0.5950 -0.0114
 1216SOL    HW115284   0.719   2.626   2.389  1.4953  0.4865  1.9498
 1216SOL    HW215285   0.740   2.707   2.509 -0.0713  1.5645 -0.6025
 1217SOL     OW15286   3.913   2.943  10.257 -0.2889  0.3146 -0.2507
 1217SOL    HW115287   3.924   2.968  10.349  0.4517  2.8498 -1.0426
 1217SOL    HW215288   3.818   2.934  10.251 -0.4261  1.8042 -0.3693
 1218SOL     OW15289   1.922   0.861   2.490  0.6950  0.0783  0.1177
 1218SOL    HW115290   1.892   0.929   2.550 -0.3125  1.3552 -1.8666
 1218SOL    HW215291   1.842   0.821   2.456 -1.0398  2.5738  1.3228
 1219SOL     OW15292   4.370   1.092   5.143 -0.0657 -0.0455  0.1928
 1219SOL    HW115293   4.312   1.133   5.079 -0.2623 -0.1093  0.3293
 1219SOL    HW215294   4.457   1.097   5.103 -1.3572 -0.7107 -2.6681
 1220SOL     OW15295   3.988   4.230   2.236 -0.1300 -0.6302 -0.0927
 1220SOL    HW115296   3.965   4.213   2.327 -1.2593  2.5325  0.2214
 1220SOL    HW215297   4.005   4.139   2.212 -3.1173 -1.8020  2.1990
 1221SOL     OW15298   1.049   0.454   3.432  0.5646 -0.3412 -0.2080
 1221SOL    HW115299   1.035   0.547   3.413 -2.3575 -0.5044  1.2255
 1221SOL    HW215300   0.969   0.418   3.395 -0.2863  1.1478  0.1627
 1222SOL     OW15301   0.459   2.663   8.246 -0.3868 -0.0060  0.3427
 1222SOL    HW115302   0.482   2.599   8.314  2.6107 -1.1502 -1.7324
 1222SOL    HW215303   0.410   2.728   8.296  2.2628  0.9961  1.6306
 1223SOL     OW15304   0.963   2.781   7.256 -0.3367  0.0022 -1.0818
 1223SOL    HW115305   1.015   2.852   7.293 -0.6457 -0.6736  0.6557
 1223SOL    HW215306   0.985   2.706   7.311 -1.5903 -0.3196 -1.0210
 1224SOL     OW15307   1.203   4.404   3.346 -0.7203 -0.0443  0.1173
 1224SOL    HW115308   1.162   4.361   3.422  2.5800  0.9952  2.5091
 1224SOL    HW215309   1.130   4.457   3.315 -1.2058 -0.1151  1.1365
 1225SOL     OW15310   3.332   0.781  14.538  0.1455  0.2621  0.2082
 1225SOL    HW115311   3.380   0.822  14.610 -0.0609  3.7847 -1.6849
 1225SOL    HW215312   3.270   0.729  14.591 -2.6559  0.6031 -2.7301
 1226SOL     OW15313   2.702   3.232   6.605 -0.5346 -0.1335  0.0719
 1226SOL    HW115314   2.784   3.282   6.602 -0.7942  0.3499  1.0744
 1226SOL    HW215315   2.645   3.301   6.638 -0.9424  1.0887 -3.1809
 1227SOL     OW15316   4.100   1.458   8.899 -0.2756  0.1664 -0.3713
 1227SOL    HW115317   4.126   1.426   8.985 -1.3625 -0.0083 -0.0965
 1227SOL    HW215318   4.177   1.498   8.860  1.2077 -0.2057  2.1513
 1228SOL     OW15319   3.221   0.319  15.720 -0.0074 -0.1334  0.3488
 1228SOL    HW115320   3.277   0.342  15.646 -0.4036 -0.3046  0.0016
 1228SOL    HW215321   3.132   0.348  15.702  0.0816  0.1884  0.4206
 1229SOL     OW15322   0.959   4.074   1.175 -0.0300 -0.1535 -0.0794
 1229SOL    HW115323   0.944   4.008   1.107  1.5245  1.0951 -1.6226
 1229SOL    HW215324   0.992   4.026   1.251 -1.3825 -2.2555 -0.7952
 1230SOL     OW15325   2.442   4.023   0.877 -0.3256 -0.9048  0.3789
 1230SOL    HW115326   2.524   4.017   0.827 -1.8626  1.4556 -2.4373
 1230SOL    HW215327   2.439   3.941   0.926  1.7142 -0.5372  1.0995
 1231SOL     OW15328   1.252   2.248   7.651 -0.3190  0.5139  0.1644
 1231SOL    HW115329   1.208   2.305   7.714 -0.2909  0.9851 -0.2496
 1231SOL    HW215330   1.275   2.302   7.576 -1.5811 -0.4393 -0.9234
 1232SOL     OW15331   0.512   3.821   6.170  0.5600  0.2009 -0.1976
 1232SOL    HW115332   0.433   3.801   6.219  0.1595 -0.7153 -1.2034
 1232SOL    HW215333   0.564   3.745   6.199 -2.4374 -1.1003  1.6880
 1233SOL     OW15334   0.239   1.797   6.944 -0.1142 -0.5031 -0.1873
 1233SOL    HW115335   0.253   1.810   7.037  0.1909  0.3699 -0.3594
 1233SOL    HW215336   0.211   1.705   6.947 -2.6513  0.2901 -0.2071
 1234SOL     OW15337   3.943   0.834   6.680  0.5409 -0.2484 -0.3274
 1234SOL    HW115338   3.973   0.785   6.603 -0.7627 -1.7914  0.1381
 1234SOL    HW215339   3.853   0.800   6.681  0.7157 -0.7233 -0.6351
 1235SOL     OW15340   0.440   4.390   4.704  0.0317 -0.6200  0.0463
 1235SOL    HW115341   0.467   4.477   4.675  1.1779 -1.0994 -0.2973
 1235SOL    HW215342   0.356   4.416   4.742  1.3276  2.3825  0.7978
 1236SOL     OW15343   0.074   1.821   9.056 -0.4636 -1.0434 -0.4276
 1236SOL    HW115344   0.123   1.869   8.989  0.0612 -1.1480 -0.1195
 1236SOL    HW215345   0.089   1.871   9.137  0.4648 -1.7992 -0.1323
 1237SOL     OW15346   0.382   3.606  10.011  0.0439 -0.0201  0.4748
 1237SOL    HW115347   0.414   3.522   9.978  1.4810  0.9551 -0.5516
 1237SOL    HW215348   0.447   3.663   9.970  0.4565 -1.5947 -1.0437
 1238SOL     OW15349   4.433   4.633   4.561 -0.1523  0.4436  0.1024
 1238SOL    HW115350   4.353   4.684   4.546  1.1544  2.5251  0.1635
 1238SOL    HW215351   4.428   4.605   4.653  1.0046  2.2559  0.7240
 1239SOL     OW15352   0.369   1.167   8.195  0.1861 -0.2298  1.0271
 1239SOL    HW115353   0.463   1.174   8.209  0.2624 -0.7588  0.7541
 1239SOL    HW215354   0.368   1.127   8.108  1.3827 -0.3311  1.0694
 1240SOL     OW15355   0.254   1.778   1.914 -0.0632  0.3820  0.0734
 1240SOL    HW115356   0.245   1.775   1.818 -0.6955  2.7825  0.0608
 1240SOL    HW215357   0.287   1.688   1.926  2.0242  0.9450 -1.4170
 1241SOL     OW15358   0.748   1.607   8.686  0.6611  0.1148  0.5995
 1241SOL    HW115359   0.797   1.686   8.660 -0.8974  1.4164  1.6282
 1241SOL    HW215360   0.789   1.593   8.771  1.0643 -0.4231  0.3184
 1242SOL     OW15361   0.916   4.190   3.141 -0.0336  0.5819  0.7002
 1242SOL    HW115362   0.832   4.179   3.186  0.2899 -0.6881  0.9830
 1242SOL    HW215363   0.979   4.192   3.213  1.0217 -0.9498 -0.1923
 1243SOL     OW15364   1.475   1.820   1.791 -0.1420  0.7252 -0.2705
 1243SOL    HW115365   1.570   1.809   1.794 -0.4245 -1.1343  1.8817
 1243SOL    HW215366   1.479   1.879   1.716  1.5329  1.3520  0.3020
 1244SOL     OW15367   2.990   2.289   4.185  0.1199 -0.2825 -0.0112
 1244SOL    HW115368   2.999   2.277   4.280 -1.9691  1.4916  0.4330
 1244SOL    HW215369   2.900   2.261   4.166  0.2377  0.5002 -1.6468
 1245SOL     OW15370   4.135   1.411  10.578  0.1917  0.5801  0.1954
 1245SOL    HW115371   4.104   1.448  10.495 -0.7915  0.2343  0.4058
 1245SOL    HW215372   4.173   1.484  10.627  0.8960  0.7712 -0.6444
 1246SOL     OW15373   3.124   4.725   4.544 -0.0420  0.2117 -0.1771
 1246SOL    HW115374   3.135   4.644   4.594  1.0418  0.5855  0.1932
 1246SOL    HW215375   3.039   4.715   4.500 -1.2165  1.4889  1.8186
 1247SOL     OW15376   0.853   0.242  10.096 -0.8093 -0.4687  0.1059
 1247SOL    HW115377   0.816   0.165  10.139 -2.8136  0.5376  0.1696
 1247SOL    HW215378   0.806   0.311  10.141  0.6733 -1.1018  2.6465
 1248SOL     OW15379   2.142   0.778   9.216  0.1701  0.1869  0.6119
 1248SOL    HW115380   2.199   0.750   9.287 -1.0203  0.9779  1.8754
 1248SOL    HW215381   2.076   0.825   9.267 -0.0960  0.6719 -0.1810
 1249SOL     OW15382   2.859   4.310   6.326  0.6274  0.1580 -0.3301
 1249SOL    HW115383   2.816   4.274   6.248  1.6190 -0.0385 -0.7948
 1249SOL    HW215384   2.796   4.364   6.373 -0.5585 -1.3921 -0.1670
 1250SOL     OW15385   0.661   0.504   2.078  0.0702  0.0357  0.1558
 1250SOL    HW115386   0.610   0.584   2.084 -1.3721 -0.6873 -2.3085
 1250SOL    HW215387   0.602   0.440   2.037  0.2613 -0.7470  1.1096
 1251SOL     OW15388   3.296   3.293   8.243 -0.6319 -0.1744  0.8426
 1251SOL    HW115389   3.357   3.362   8.269 -0.6535  0.1927 -0.1040
 1251SOL    HW215390   3.270   3.261   8.330 -0.6933 -1.8810  0.2086
 1252SOL     OW15391   4.055   3.854   4.933  0.5199  0.2070 -0.0351
 1252SOL    HW115392   4.004   3.773   4.924  2.9290 -1.2725 -0.3813
 1252SOL    HW215393   4.140   3.819   4.906  1.0846  1.0456  0.6740
 1253SOL     OW15394   1.284   0.381  11.372  0.2517 -0.2928  0.0135
 1253SOL    HW115395   1.285   0.404  11.465  3.6192  0.6876 -0.2474
 1253SOL    HW215396   1.195   0.407  11.349 -0.7142 -1.6575  2.2024
 1254SOL     OW15397   3.436   3.109   5.417  0.2038  0.4339  0.2182
 1254SOL    HW115398   3.356   3.128   5.466  0.6830 -0.2055  1.2335
 1254SOL    HW215399   3.414   3.157   5.337 -0.9047  1.7647  1.3071
 1255SOL     OW15400   0.919   2.462   9.958 -0.1182  0.1200  0.3216
 1255SOL    HW115401   0.935   2.414  10.039  0.9632 -1.1371 -0.6515
 1255SOL    HW215402   0.831   2.498   9.972 -0.4241 -0.2965 -0.4921
 1256SOL     OW15403   3.633   1.795   6.992 -0.5709 -0.0914  0.5594
 1256SOL    HW115404   3.678   1.825   6.913 -1.6306  0.6454  0.2353
 1256SOL    HW215405   3.689   1.720   7.011 -0.8297 -0.3116  0.4516
 1257SOL     OW15406   2.371   4.601   7.420  0.2494  0.0412 -0.0301
 1257SOL    HW115407   2.412   4.657   7.354  0.3033 -1.2990 -1.1522
 1257SOL    HW215408   2.303   4.654   7.462 -1.3660 -1.7218 -0.3782
 1258SOL     OW15409   1.909   0.034  14.621  0.0342  0.1419  0.2155
 1258SOL    HW115410   1.850   0.055  14.693  1.3162  3.3987  0.3429
 1258SOL    HW215411   1.901   0.120  14.580  1.6436  0.3657  0.3662
 1259SOL     OW15412   0.105   1.689  15.595  0.3227  0.0557  0.3273
 1259SOL    HW115413   0.016   1.671  15.565  0.3959 -0.7943  0.6133
 1259SOL    HW215414   0.095   1.783  15.614 -0.9964 -0.0661  0.2085
 1260SOL     OW15415   1.136   0.046   7.186 -0.1907 -0.2001 -0.2357
 1260SOL    HW115416   1.222   0.027   7.225 -0.8003 -1.2424  0.5835
 1260SOL    HW215417   1.095   0.075   7.267  0.6958  0.7817 -0.1346
 1261SOL     OW15418   0.415   1.240  10.407  0.1739 -0.4578  0.3338
 1261SOL    HW115419   0.453   1.214  10.491 -3.0832 -0.5122  1.8056
 1261SOL    HW215420   0.443   1.332  10.409 -0.0963 -0.3996  1.9662
 1262SOL     OW15421   4.658   0.382  14.859 -0.0146  0.3545  0.4208
 1262SOL    HW115422   4.736   0.363  14.807 -0.3860 -0.8696  0.2938
 1262SOL    HW215423   4.596   0.400  14.788  2.8580  3.4856 -1.2846
 1263SOL     OW15424   3.990   0.112   5.460 -0.3140  0.4366  0.0315
 1263SOL    HW115425   4.042   0.045   5.504 -0.3877  0.8563  0.7597
 1263SOL    HW215426   4.061   0.151   5.408  0.5072 -1.7218 -0.4710
 1264SOL     OW15427   2.781   3.543  13.595 -0.3964  0.1720 -0.2388
 1264SOL    HW115428   2.839   3.555  13.520  0.8093 -0.3432  0.6153
 1264SOL    HW215429   2.829   3.486  13.655 -1.1094 -0.5065 -0.3158
 1265SOL     OW15430   1.031   3.372   0.532 -0.0486 -0.3169  0.0481
 1265SOL    HW115431   1.104   3.310   0.541  0.1456  0.0601  1.0508
 1265SOL    HW215432   0.992   3.347   0.448  0.3255  0.4813 -0.3559
 1266SOL     OW15433   1.869   3.081   7.844  0.1728 -0.3052 -0.2052
 1266SOL    HW115434   1.836   3.028   7.917 -0.2840  0.3619  0.0733
 1266SOL    HW215435   1.926   3.143   7.889 -1.1843 -1.1793  2.7762
 1267SOL     OW15436   1.999   0.801  17.671  0.2301 -0.2709 -0.0582
 1267SOL    HW115437   2.010   0.753   0.004 -1.6381 -0.6527 -0.0429
 1267SOL    HW215438   1.913   0.836  17.692  0.3252  0.3167 -0.6491
 1268SOL     OW15439   0.194   1.537   5.704 -0.1269  0.4072 -0.3420
 1268SOL    HW115440   0.105   1.546   5.672  0.3741 -0.0505 -1.8223
 1268SOL    HW215441   0.182   1.471   5.773 -1.2830  0.6575 -0.2986
 1269SOL     OW15442   2.873   3.450   9.749  0.0915  0.3948 -0.6608
 1269SOL    HW115443   2.883   3.521   9.811 -2.9574  1.1161 -0.9536
 1269SOL    HW215444   2.810   3.399   9.799 -0.7770 -0.5287 -2.6687
 1270SOL     OW15445   3.900   3.832   8.136 -0.0440 -0.2582  0.2572
 1270SOL    HW115446   3.887   3.843   8.042  0.5660 -2.9707 -0.1709
 1270SOL    HW215447   3.883   3.922   8.164  1.5278  0.5239 -1.3533
 1271SOL     OW15448   0.551   4.369  12.865 -0.1606 -0.1835 -0.5114
 1271SOL    HW115449   0.641   4.386  12.890 -0.7731  1.8767  0.3284
 1271SOL    HW215450   0.551   4.284  12.821 -0.7831  0.1966 -1.2549
 1272SOL     OW15451   2.073   4.096   3.729 -0.8719  0.0687  0.0643
 1272SOL    HW115452   2.135   4.152   3.775 -0.1673  0.5680 -1.4921
 1272SOL    HW215453   2.052   4.142   3.648 -0.3756  1.4234  0.6976
 1273SOL     OW15454   2.254   1.184  10.202  0.0880  0.3165 -0.3356
 1273SOL    HW115455   2.200   1.200  10.280 -0.4622 -2.1343 -0.2057
 1273SOL    HW215456   2.234   1.266  10.158 -0.4010  0.9241  1.0129
 1274SOL     OW15457   4.577   4.241  13.262 -0.0834  0.1894 -0.1587
 1274SOL    HW115458   4.661   4.214  13.298  0.2705  0.1640 -1.0109
 1274SOL    HW215459   4.535   4.279  13.339 -1.1812 -1.8024  0.2127
 1275SOL     OW15460   1.338   4.222  13.496  0.0868  0.3604  0.7767
 1275SOL    HW115461   1.413   4.222  13.437  1.8307 -1.4862  2.9571
 1275SOL    HW215462   1.386   4.173  13.563  2.3992  1.3586 -0.1478
 1276SOL     OW15463   1.593   4.691   4.891 -0.9067  0.0108  0.1308
 1276SOL    HW115464   1.664   0.017   4.885  1.1618 -2.5425 -2.4799
 1276SOL    HW215465   1.650   4.615   4.877 -2.5360 -1.3600  0.8770
 1277SOL     OW15466   0.244   4.263   5.966 -0.0503 -0.2694 -0.3641
 1277SOL    HW115467   0.250   4.337   6.026 -2.1135  0.1162 -0.6442
 1277SOL    HW215468   0.154   4.234   5.975 -0.8712  2.8209  1.2417
 1278SOL     OW15469   2.659   4.340  14.930 -0.2388  0.1150  0.7057
 1278SOL    HW115470   2.741   4.390  14.935 -0.4754  0.4130  1.6426
 1278SOL    HW215471   2.656   4.307  15.020  0.9100 -3.6949 -0.6410
 1279SOL     OW15472   3.534   1.004  15.019 -0.0868 -0.0786  0.1467
 1279SOL    HW115473   3.616   0.999  14.970  0.6806 -2.1878  1.6596
 1279SOL    HW215474   3.567   0.970  15.102  0.2620  2.2474  0.9559
 1280SOL     OW15475   3.201   1.717   5.890 -0.6082  0.5651 -0.3685
 1280SOL    HW115476   3.172   1.687   5.804  0.8513  3.0331 -1.7227
 1280SOL    HW215477   3.142   1.668   5.947  0.3457 -2.3233 -1.8551
 1281SOL     OW15478   2.158   0.037   9.353  0.2908  0.1900 -0.1676
 1281SOL    HW115479   2.191   0.124   9.371  0.1773  0.3861 -0.8742
 1281SOL    HW215480   2.162   0.046   9.257 -1.5539  1.2841 -0.1585
 1282SOL     OW15481   4.616   2.185   7.934 -0.4009 -0.4378  0.5722
 1282SOL    HW115482   4.620   2.215   8.025 -1.5131  0.2370  0.3935
 1282SOL    HW215483   4.540   2.128   7.940  0.0182 -0.6564  3.6233
 1283SOL     OW15484   3.253   3.822   2.188 -0.5485  0.5782  0.3506
 1283SOL    HW115485   3.328   3.871   2.222  0.0244  0.5948 -0.9458
 1283SOL    HW215486   3.221   3.765   2.258 -1.6231 -1.4204 -1.7706
 1284SOL     OW15487   1.468   0.466   9.224  0.3897 -0.1062 -0.1418
 1284SOL    HW115488   1.390   0.520   9.236  1.6169  1.7507 -0.5776
 1284SOL    HW215489   1.500   0.462   9.314  1.4440 -0.7513 -0.5397
 1285SOL     OW15490   2.362   0.075   0.618 -0.3226 -0.3977 -0.2291
 1285SOL    HW115491   2.278   0.114   0.643  0.2337  0.2768  0.5896
 1285SOL    HW215492   2.318   4.728   0.624 -0.8657 -0.0692  0.5978
 1286SOL     OW15493   1.214   1.692  16.437 -0.2712  0.5263  0.0251
 1286SOL    HW115494   1.288   1.689  16.497 -0.3216  0.2091  0.0688
 1286SOL    HW215495   1.264   1.710  16.358  1.6819 -2.5644  0.5766
 1287SOL     OW15496   2.059   4.164  17.386  0.2621 -0.3657 -0.1915
 1287SOL    HW115497   2.114   4.238  17.359 -2.2769  1.7068  0.2725
 1287SOL    HW215498   2.093   4.103  17.321  0.0499 -2.6770  1.8769
 1288SOL     OW15499   4.328   2.801  16.409 -0.2375  0.1588  0.6741
 1288SOL    HW115500   4.412   2.806  16.363 -0.2096 -4.1809  0.2817
 1288SOL    HW215501   4.294   2.887  16.383 -1.3054 -0.4567  0.0428
 1289SOL     OW15502   1.206   3.307   4.066 -0.0901  0.1244  0.3961
 1289SOL    HW115503   1.280   3.250   4.043  0.5511  0.5011  1.5410
 1289SOL    HW215504   1.142   3.236   4.067  1.5735 -1.3673  1.0801
 1290SOL     OW15505   0.506   0.480   5.542 -0.4675  0.2117 -0.6151
 1290SOL    HW115506   0.445   0.553   5.538 -1.3528 -0.2903  3.2369
 1290SOL    HW215507   0.448   0.409   5.570 -0.0978 -0.2054 -0.9035
 1291SOL     OW15508   3.151   1.851  13.268 -0.2307 -0.2607  0.3193
 1291SOL    HW115509   3.122   1.796  13.195 -3.8578  2.9962 -0.6878
 1291SOL    HW215510   3.228   1.891  13.226 -1.1983  0.8002 -0.4545
 1292SOL     OW15511   3.066   4.042   3.693  0.3200  0.7974 -0.1822
 1292SOL    HW115512   3.023   3.966   3.732 -2.6319  2.0853 -0.9727
 1292SOL    HW215513   3.001   4.111   3.703 -0.0157  0.0502  2.7803
 1293SOL     OW15514   4.505   0.128   4.664  0.2388  0.5780  0.1636
 1293SOL    HW115515   4.599   0.137   4.673  0.4983 -0.6126 -1.3772
 1293SOL    HW215516   4.499   0.036   4.639  1.5860  0.1866  1.3635
 1294SOL     OW15517   2.756   1.595   3.578 -0.2253  0.6342 -0.3597
 1294SOL    HW115518   2.734   1.505   3.553  2.1992  0.2485 -1.1391
 1294SOL    HW215519   2.665   1.621   3.593  0.2985  2.5887 -0.5951
 1295SOL     OW15520   3.759   4.464   3.835 -0.2528  0.0125 -0.1060
 1295SOL    HW115521   3.674   4.424   3.853 -0.5819 -0.4867 -2.8020
 1295SOL    HW215522   3.825   4.396   3.850  0.2375  0.4392 -0.3475
 1296SOL     OW15523   0.175   0.098   5.726 -0.0772 -0.0067  0.4956
 1296SOL    HW115524   0.111   0.133   5.787 -1.6519 -1.0443 -0.5386
 1296SOL    HW215525   0.160   0.006   5.747 -1.8357  0.1791  0.0584
 1297SOL     OW15526   3.244   2.344   3.097 -0.2828 -0.1713 -0.2540
 1297SOL    HW115527   3.271   2.321   3.186 -1.1412 -1.4990 -0.3380
 1297SOL    HW215528   3.166   2.288   3.093 -0.6098  0.2167  0.8604
 1298SOL     OW15529   0.150   4.621   9.228  0.6632  0.3576  0.0851
 1298SOL    HW115530   0.239   4.634   9.196 -0.1603  1.2027 -1.8531
 1298SOL    HW215531   0.169   4.575   9.310 -0.3228 -1.1265 -0.5118
 1299SOL     OW15532   3.525   4.695   2.148 -0.3203  0.1635 -0.2100
 1299SOL    HW115533   3.528   4.693   2.053  0.1236  2.5587 -0.2681
 1299SOL    HW215534   3.606   0.001   2.177 -0.5422  0.7324 -0.4406
 1300SOL     OW15535   2.400   3.683   2.326 -0.4823  0.3335 -0.2513
 1300SOL    HW115536   2.389   3.662   2.419  2.6517  2.3499  0.5761
 1300SOL    HW215537   2.406   3.778   2.338  0.5133  0.4269 -1.4953
 1301SOL     OW15538   3.171   4.207   2.752 -0.5369  0.3543 -0.2509
 1301SOL    HW115539   3.146   4.140   2.816  0.9536 -0.2056 -0.2530
 1301SOL    HW215540   3.266   4.196   2.764 -0.8720  2.7979  4.5265
 1302SOL     OW15541   4.420   0.228   4.157  0.3896 -0.2762  0.8101
 1302SOL    HW115542   4.379   0.144   4.178 -0.6701 -0.8326 -3.5439
 1302SOL    HW215543   4.471   0.202   4.080 -1.1772  0.5443 -0.4934
 1303SOL     OW15544   0.423   2.991   2.983 -0.1260 -0.6002 -0.4270
 1303SOL    HW115545   0.468   2.980   3.067 -0.2651  1.9515 -0.0100
 1303SOL    HW215546   0.421   3.086   2.990  0.3220 -0.5778 -0.5840
 1304SOL     OW15547   0.588   0.120   5.528  0.3211 -0.3775  0.6021
 1304SOL    HW115548   0.565   0.029   5.546 -0.6401 -0.4561 -1.0776
 1304SOL    HW215549   0.505   0.166   5.539  1.2211  0.8915  2.1911
 1305SOL     OW15550   2.336   0.180  15.937 -0.0349  0.0419  0.0888
 1305SOL    HW115551   2.375   0.242  15.876 -2.6880  0.5424 -1.1075
 1305SOL    HW215552   2.351   0.103  15.883  1.2573  0.4308 -0.1092
 1306SOL     OW15553   1.733   4.019   9.713  0.7338 -0.2609 -0.3388
 1306SOL    HW115554   1.721   3.924   9.712  0.7393 -0.3302  5.0292
 1306SOL    HW215555   1.770   4.031   9.800  0.5179 -0.4569 -0.2196
 1307SOL     OW15556   2.123   4.728  15.051 -0.3903  0.2641  0.2053
 1307SOL    HW115557   2.197   0.015  15.108 -1.5366  1.3808  1.2104
 1307SOL    HW215558   2.161   0.024  14.970  2.0725  0.5624  1.4875
 1308SOL     OW15559   3.262   0.637  12.799  0.4248  0.0758 -0.2622
 1308SOL    HW115560   3.251   0.605  12.710 -0.6034 -0.0427 -0.0853
 1308SOL    HW215561   3.278   0.729  12.775  0.6347  0.9790  3.3521
 1309SOL     OW15562   2.753   2.296   7.272  0.5133 -0.0774  0.1963
 1309SOL    HW115563   2.664   2.332   7.278  0.1932 -0.7885 -0.1973
 1309SOL    HW215564   2.808   2.370   7.296  0.0711 -0.3830  2.1667
 1310SOL     OW15565   1.074   2.934  17.167  0.4052 -0.0018  0.0955
 1310SOL    HW115566   1.073   2.878  17.245  1.1673 -0.5204 -0.2580
 1310SOL    HW215567   1.038   3.013  17.205  2.3119  1.2426 -0.6728
 1311SOL     OW15568   0.844   1.718  11.225  0.8439 -0.3930  0.4869
 1311SOL    HW115569   0.791   1.798  11.233  2.5045  0.7689 -0.0827
 1311SOL    HW215570   0.818   1.670  11.303  1.4210  0.1518  1.0160
 1312SOL     OW15571   2.093   0.104   0.967  0.2744 -0.0307 -0.0700
 1312SOL    HW115572   2.036   0.145   1.032  1.2252  0.2132  0.6112
 1312SOL    HW215573   2.182   0.123   0.997  1.4075 -0.9036 -2.8413
 1313SOL     OW15574   1.240   0.919   0.907  0.7638  0.1375 -0.1084
 1313SOL    HW115575   1.286   0.945   0.987 -0.6840  0.6459  0.5721
 1313SOL    HW215576   1.270   0.836   0.872 -0.5471 -0.2630 -0.2924
 1314SOL     OW15577   2.975   0.969   8.661 -0.1016  0.3699 -0.5492
 1314SOL    HW115578   2.924   0.890   8.674  0.6511 -0.7654 -4.4705
 1314SOL    HW215579   2.977   0.965   8.565  1.1399  1.9496 -0.5991
 1315SOL     OW15580   3.560   0.025  14.044 -0.4391  0.3580 -0.9104
 1315SOL    HW115581   3.594   4.674  14.047  0.8945  1.0148  2.6884
 1315SOL    HW215582   3.575   0.050  13.953  0.0070  0.0131 -0.9293
 1316SOL     OW15583   0.586   3.971  13.569 -0.5641 -0.0588  0.0304
 1316SOL    HW115584   0.583   3.991  13.662 -0.5859 -0.7387  0.1750
 1316SOL    HW215585   0.559   3.880  13.575  2.1065 -0.9471 -1.3536
 1317SOL     OW15586   0.334   1.923  11.336 -0.2404  0.1860 -0.1638
 1317SOL    HW115587   0.426   1.943  11.316 -0.0678 -0.7041 -0.3005
 1317SOL    HW215588   0.350   1.830  11.357 -1.3832  0.2838  1.1614
 1318SOL     OW15589   3.868   2.678  14.133  0.2723 -0.2472 -0.4654
 1318SOL    HW115590   3.793   2.711  14.083  1.7139  1.0580 -1.7671
 1318SOL    HW215591   3.932   2.741  14.100 -0.1760 -0.9382 -2.6762
 1319SOL     OW15592   4.073   3.862   5.519  0.2471  0.2370 -0.3631
 1319SOL    HW115593   4.015   3.814   5.578  0.2699 -1.5652 -1.8093
 1319SOL    HW215594   4.065   3.944   5.567 -0.2159  1.4422 -2.5072
 1320SOL     OW15595   2.114   2.698   0.833 -0.4711 -0.6220  0.3464
 1320SOL    HW115596   2.186   2.640   0.857 -0.7510 -0.6539  1.1186
 1320SOL    HW215597   2.041   2.636   0.839 -0.2665 -0.8474  0.4849
 1321SOL     OW15598   2.020   3.034  13.002 -0.1602  0.4837  0.1151
 1321SOL    HW115599   2.109   3.042  12.968  0.8671  1.6439  3.0403
 1321SOL    HW215600   2.040   3.043  13.095  0.8891 -3.2199  0.2463
 1322SOL     OW15601   3.821   0.744   8.662  0.3286 -0.1848  0.7133
 1322SOL    HW115602   3.814   0.687   8.739  3.1100 -0.5690  0.6855
 1322SOL    HW215603   3.748   0.804   8.682  0.0190 -0.5708  0.7426
 1323SOL     OW15604   2.669   1.505   2.068  0.1050 -0.2987  0.4483
 1323SOL    HW115605   2.656   1.427   2.014 -1.5829 -1.3978  2.4725
 1323SOL    HW215606   2.730   1.474   2.134  0.3259  0.1697  0.4664
 1324SOL     OW15607   3.023   3.384   8.255 -0.6349 -0.5938  0.5048
 1324SOL    HW115608   3.060   3.472   8.251  0.0519 -0.8097  1.8997
 1324SOL    HW215609   3.102   3.337   8.229 -1.3763 -2.2605  1.2633
 1325SOL     OW15610   2.427   0.756  12.153  0.8924 -0.1219 -0.4347
 1325SOL    HW115611   2.422   0.807  12.072  1.0323  1.6384  0.6621
 1325SOL    HW215612   2.471   0.677  12.121  0.6962 -0.1944 -0.5223
 1326SOL     OW15613   1.977   1.346   3.328  0.0419  1.1042  0.5546
 1326SOL    HW115614   1.893   1.383   3.356 -0.6980 -2.3766  2.9901
 1326SOL    HW215615   1.968   1.251   3.339  2.4438  0.7841 -0.3536
 1327SOL     OW15616   1.103   4.358   4.807 -0.0060 -0.3988 -0.4458
 1327SOL    HW115617   1.133   4.344   4.897 -0.4471  0.8593 -0.1050
 1327SOL    HW215618   1.082   4.451   4.804 -0.8467 -0.5854 -0.6273
 1328SOL     OW15619   0.849   0.425   2.994  0.0948 -0.1111  0.4055
 1328SOL    HW115620   0.764   0.382   2.981  0.5734 -1.0738  0.4574
 1328SOL    HW215621   0.837   0.493   2.928  1.1095 -0.1590  0.1767
 1329SOL     OW15622   1.753   0.956   7.782 -0.0491  0.0524 -0.2875
 1329SOL    HW115623   1.762   1.003   7.865  1.9104 -0.0542 -0.4337
 1329SOL    HW215624   1.845   0.955   7.754  0.2381 -1.2788  0.7079
 1330SOL     OW15625   3.407   0.206   6.851 -0.3940 -0.0584 -0.2795
 1330SOL    HW115626   3.362   0.140   6.799  0.5593 -0.4129 -0.6457
 1330SOL    HW215627   3.359   0.286   6.831  2.2151  2.0678  1.8644
 1331SOL     OW15628   1.969   1.718   9.065 -0.0830 -0.0823  0.3413
 1331SOL    HW115629   1.936   1.745   9.150 -0.8724  0.9504 -0.3000
 1331SOL    HW215630   1.980   1.804   9.023 -0.7169 -0.7711 -1.2419
 1332SOL     OW15631   0.113   1.632   8.512 -0.7394  0.3067  0.3926
 1332SOL    HW115632   0.041   1.593   8.464  0.1332  1.9861 -2.2990
 1332SOL    HW215633   0.172   1.559   8.492 -2.5063 -0.6289 -1.2977
 1333SOL     OW15634   3.623   3.741   8.740  0.4645 -0.1390 -0.2826
 1333SOL    HW115635   3.698   3.684   8.719 -1.0722 -1.5029 -2.1392
 1333SOL    HW215636   3.559   3.673   8.764 -1.3130  1.7279  0.2062
 1334SOL     OW15637   2.720   4.134   8.966 -0.1250 -0.1596  0.0969
 1334SOL    HW115638   2.808   4.134   8.927  0.7146  0.5490  1.9954
 1334SOL    HW215639   2.662   4.176   8.903 -1.4894 -0.2806  1.2642
 1335SOL     OW15640   1.815   3.463   6.791  0.3447  0.0477  0.0841
 1335SOL    HW115641   1.758   3.414   6.850 -1.2384  1.6918 -0.0603
 1335SOL    HW215642   1.901   3.421   6.797  1.0069  1.1834 -1.2353
 1336SOL     OW15643   2.006   4.474   4.910 -0.0544  0.0553 -0.2308
 1336SOL    HW115644   2.029   4.503   4.998  4.1567 -2.3827 -0.5569
 1336SOL    HW215645   2.073   4.518   4.858 -0.1339  2.2250  1.4940
 1337SOL     OW15646   1.502   0.948   6.724 -0.6152 -0.7447 -0.5696
 1337SOL    HW115647   1.518   0.994   6.806  2.2466  1.3827 -2.3167
 1337SOL    HW215648   1.407   0.938   6.724 -0.7326  0.3428 -0.7936
 1338SOL     OW15649   2.533   3.593   6.932  0.0140 -0.2575  0.4742
 1338SOL    HW115650   2.439   3.593   6.917  0.1143  1.6445 -0.1473
 1338SOL    HW215651   2.574   3.634   6.856  1.0860  1.7899  2.1533
 1339SOL     OW15652   1.312   1.302   8.092  0.3794  0.4911 -0.7160
 1339SOL    HW115653   1.268   1.332   8.012  1.5267  0.8430 -1.2243
 1339SOL    HW215654   1.403   1.295   8.062  1.6548  0.5739  3.1020
 1340SOL     OW15655   2.995   0.446   5.921 -0.3878  0.6271 -0.2324
 1340SOL    HW115656   2.983   0.352   5.922 -0.1381  0.5883 -1.2262
 1340SOL    HW215657   3.059   0.458   5.850 -0.3469 -0.2062 -0.3359
 1341SOL     OW15658   0.273   0.810   3.653 -0.3367  0.1708 -0.4756
 1341SOL    HW115659   0.302   0.756   3.727 -0.8551 -2.0145 -1.8503
 1341SOL    HW215660   0.354   0.830   3.606  0.9829  3.3366  3.1975
 1342SOL     OW15661   4.132   4.256  12.648  0.0764 -0.5714  0.0914
 1342SOL    HW115662   4.128   4.234  12.741 -1.4157 -1.5856 -0.2221
 1342SOL    HW215663   4.226   4.241  12.638  0.4004  1.6739 -0.2152
 1343SOL     OW15664   2.091   0.481   6.296  0.1534  0.1056 -0.1843
 1343SOL    HW115665   2.061   0.456   6.383  0.8281 -0.5325 -0.1305
 1343SOL    HW215666   2.089   0.577   6.297 -2.6942  0.0627 -2.1846
 1344SOL     OW15667   1.723   1.903  13.077 -0.0133 -0.5193 -0.1296
 1344SOL    HW115668   1.680   1.969  13.023 -1.5474 -0.9697  0.5339
 1344SOL    HW215669   1.717   1.828  13.018  1.9849 -1.6771  1.0888
 1345SOL     OW15670   0.754   1.180   2.149 -0.4280 -0.1661  0.1838
 1345SOL    HW115671   0.813   1.255   2.152 -0.3854 -0.0853 -2.7914
 1345SOL    HW215672   0.694   1.178   2.223  1.1206  0.4072  1.4457
 1346SOL     OW15673   3.602   3.947   4.038  0.1545  0.1756 -0.1630
 1346SOL    HW115674   3.611   3.862   3.996 -0.2443  0.0127  0.0875
 1346SOL    HW215675   3.601   3.929   4.132  2.8094 -2.3445 -0.6168
 1347SOL     OW15676   4.412   0.996  10.134  0.2054 -0.2428 -0.4148
 1347SOL    HW115677   4.338   1.035  10.181 -0.2106 -3.6688  1.7272
 1347SOL    HW215678   4.368   0.915  10.109 -0.0727 -0.5796  1.1706
 1348SOL     OW15679   3.942   0.241   3.809  0.0105 -0.2480  0.0502
 1348SOL    HW115680   3.894   0.159   3.817 -1.1320  0.2941 -1.1917
 1348SOL    HW215681   4.032   0.215   3.832 -0.4226 -1.2841  0.5530
 1349SOL     OW15682   4.277   4.514   5.471  0.3592 -0.2009 -0.1027
 1349SOL    HW115683   4.208   4.564   5.513  0.0135 -0.4658 -0.3592
 1349SOL    HW215684   4.324   4.585   5.426  0.7217 -1.8714 -2.3685
 1350SOL     OW15685   0.015   2.384   4.777 -0.3744 -0.3302  0.3445
 1350SOL    HW115686   0.034   2.397   4.684 -1.3194  2.8743  0.6230
 1350SOL    HW215687   4.670   2.340   4.759 -1.6298  1.3787  2.0077
 1351SOL     OW15688   2.122   4.306   8.486 -0.1491 -0.3229 -0.2913
 1351SOL    HW115689   2.208   4.347   8.485 -0.2407 -0.1280 -0.2418
 1351SOL    HW215690   2.132   4.254   8.565  1.7713 -1.4610 -1.2853
 1352SOL     OW15691   0.850   0.040   1.080 -0.2828  0.1024  0.0514
 1352SOL    HW115692   0.886   0.031   0.992 -0.8613 -1.0930 -0.0564
 1352SOL    HW215693   0.875   4.695   1.121  0.7112  2.0423  3.3998
 1353SOL     OW15694   0.417   0.157   7.786  0.3099 -0.1026 -0.2500
 1353SOL    HW115695   0.440   0.103   7.711  0.8973  1.3198 -1.0975
 1353SOL    HW215696   0.503   0.189   7.813  0.6967 -0.0887 -1.5249
 1354SOL     OW15697   1.044   1.034  17.178 -0.3402 -0.0847  0.1394
 1354SOL    HW115698   1.076   0.944  17.187 -1.8749 -0.6242  0.1552
 1354SOL    HW215699   1.064   1.051  17.086  1.3039  1.0656  0.7116
 1355SOL     OW15700   4.382   2.147   2.390  0.3595 -0.1467  0.3049
 1355SOL    HW115701   4.323   2.161   2.315  0.4723  0.7143  0.3806
 1355SOL    HW215702   4.456   2.195   2.353  0.5839 -1.8128 -1.4271
 1356SOL     OW15703   4.362   3.186   5.423 -0.2442  0.2411 -0.3472
 1356SOL    HW115704   4.400   3.196   5.510 -1.4928  0.3751  0.1865
 1356SOL    HW215705   4.343   3.092   5.421  0.0464  0.1225  2.4611
 1357SOL     OW15706   2.568   4.021   8.092 -0.3778  0.0852 -0.1949
 1357SOL    HW115707   2.537   4.098   8.044 -1.6600 -0.1695  0.2225
 1357SOL    HW215708   2.598   4.071   8.168 -0.9905  2.4920 -1.5365
 1358SOL     OW15709   3.383   4.049  11.803  0.2530 -0.0548  0.8549
 1358SOL    HW115710   3.349   3.961  11.790  0.1603  0.4076 -2.1926
 1358SOL    HW215711   3.362   4.066  11.895  0.7226  1.9974  0.5872
 1359SOL     OW15712   1.273   4.401   5.079 -0.4974 -0.1811 -0.0280
 1359SOL    HW115713   1.265   4.496   5.070 -0.7029 -0.0621  1.2743
 1359SOL    HW215714   1.364   4.394   5.108 -1.4219 -1.9387  2.4600
 1360SOL     OW15715   2.398   4.098   3.013 -0.3188  0.6545 -0.5412
 1360SOL    HW115716   2.449   4.174   3.041 -2.0685  1.0936  1.4264
 1360SOL    HW215717   2.313   4.136   3.035 -0.7401  0.4653 -1.8376
 1361SOL     OW15718   3.909   1.019  11.890 -0.2674 -0.5121  0.8124
 1361SOL    HW115719   3.938   0.995  11.802 -1.1065  1.6788 -0.0702
 1361SOL    HW215720   3.912   1.115  11.892  0.1815 -0.4742 -0.9832
 1362SOL     OW15721   1.342   1.476   4.657 -0.5582 -0.1754  1.1062
 1362SOL    HW115722   1.257   1.520   4.660 -1.1008 -1.1598  0.0637
 1362SOL    HW215723   1.384   1.508   4.578  0.8482  2.4740  2.9075
 1363SOL     OW15724   1.257   2.542   5.833 -0.5032 -0.0748 -0.2833
 1363SOL    HW115725   1.293   2.493   5.759  0.3913 -0.2053  0.2355
 1363SOL    HW215726   1.338   2.589   5.855  0.6981 -1.7905 -1.0172
 1364SOL     OW15727   1.966   1.739   0.135  0.2664 -0.0551  0.4322
 1364SOL    HW115728   2.016   1.815   0.105  0.0076 -0.1630 -0.2649
 1364SOL    HW215729   1.906   1.713   0.065  1.8604  0.3409 -1.0750
 1365SOL     OW15730   2.732   4.263   5.742  0.1258 -0.2482 -0.0063
 1365SOL    HW115731   2.677   4.262   5.820  0.7384  1.8947  0.4562
 1365SOL    HW215732   2.780   4.180   5.743 -1.1956 -0.9791  1.6874
 1366SOL     OW15733   2.289   3.557  12.467  0.3207 -0.0117  0.0492
 1366SOL    HW115734   2.341   3.492  12.420 -1.6561 -1.4773 -0.1296
 1366SOL    HW215735   2.360   3.615  12.494 -0.5399  1.2411 -0.3838
 1367SOL     OW15736   3.285   3.578   8.830 -0.4570  0.0194  0.3919
 1367SOL    HW115737   3.263   3.649   8.769  1.3470  1.0658  0.9577
 1367SOL    HW215738   3.332   3.636   8.890 -0.4849 -0.2541  0.6771
 1368SOL     OW15739   0.787   4.090   0.370  0.0993 -1.1806 -0.2108
 1368SOL    HW115740   0.808   4.046   0.287  0.9080 -0.2524 -0.4938
 1368SOL    HW215741   0.696   4.118   0.358  0.6682  0.8757  0.3972
 1369SOL     OW15742   0.749   1.511   4.803  0.3923  0.5375 -0.5233
 1369SOL    HW115743   0.657   1.506   4.779  0.4816 -0.2759 -0.6854
 1369SOL    HW215744   0.775   1.436   4.750 -0.0713  0.1942 -0.2616
 1370SOL     OW15745   0.337   0.181  13.554  0.1785  0.3237 -0.2479
 1370SOL    HW115746   0.356   0.170  13.647  0.4860  0.9718 -0.2350
 1370SOL    HW215747   0.390   0.259  13.535 -2.0655  1.6836 -0.9712
 1371SOL     OW15748   4.603   0.259   1.366 -0.2795 -0.0957 -0.5106
 1371SOL    HW115749   4.608   0.176   1.414  1.4337 -0.2814 -1.0043
 1371SOL    HW215750   4.671   0.237   1.302  0.5626 -0.4328  0.4897
 1372SOL     OW15751   0.888   1.137  14.142 -0.0920 -0.1476  0.1422
 1372SOL    HW115752   0.904   1.049  14.177 -2.6276 -0.1921  1.1835
 1372SOL    HW215753   0.830   1.122  14.067 -0.2632 -0.1464  0.2746
 1373SOL     OW15754   0.169   1.035   2.157  0.1116  0.0897 -0.3743
 1373SOL    HW115755   0.143   1.048   2.248  0.4492  1.4300 -0.4584
 1373SOL    HW215756   0.217   1.117   2.140  0.1909  0.1991  0.3521
 1374SOL     OW15757   3.125   2.094   6.545 -0.0641 -0.2430 -0.2309
 1374SOL    HW115758   3.171   2.016   6.514  2.3991  0.6793  1.0817
 1374SOL    HW215759   3.085   2.140   6.472  0.0120  0.2268  0.0183
 1375SOL     OW15760   0.002   1.920   5.031 -0.3261  0.0144 -0.1466
 1375SOL    HW115761   4.733   1.920   4.935  1.2622  0.0692 -0.2573
 1375SOL    HW215762   0.031   2.009   5.053 -0.9758 -0.0242  0.8548
 1376SOL     OW15763   0.377   0.917  11.149 -0.2139 -0.2038 -0.2422
 1376SOL    HW115764   0.398   0.848  11.211 -0.8029 -2.8574 -2.9606
 1376SOL    HW215765   0.288   0.931  11.181  0.7173  3.1141  0.8127
 1377SOL     OW15766   2.121   4.571   5.603  0.6953 -0.0834  0.8509
 1377SOL    HW115767   2.050   4.634   5.588  0.8100  0.0127  0.7090
 1377SOL    HW215768   2.156   4.612   5.682  2.7969  1.3816 -0.8324
 1378SOL     OW15769   1.870   0.734   6.371 -0.1807 -0.0158 -0.1566
 1378SOL    HW115770   1.804   0.733   6.302  0.2661  0.8460 -0.6030
 1378SOL    HW215771   1.830   0.807   6.419  0.6742  0.1826  0.2726
 1379SOL     OW15772   1.005   2.821  17.390 -0.4710  0.1089 -0.3029
 1379SOL    HW115773   0.953   2.741  17.379 -2.5536  1.4750 -0.2959
 1379SOL    HW215774   1.064   2.785  17.456 -0.6255 -1.5983 -1.0921
 1380SOL     OW15775   1.610   2.856   4.545 -0.2777 -0.8382  0.2278
 1380SOL    HW115776   1.538   2.796   4.529 -1.3388  0.9142 -1.4387
 1380SOL    HW215777   1.564   2.933   4.579  2.2653  0.5945  0.4398
 1381SOL     OW15778   1.483   1.040   5.682  0.6049  0.2200  0.4002
 1381SOL    HW115779   1.526   1.060   5.765 -0.7411  2.0769  0.6548
 1381SOL    HW215780   1.547   0.975   5.652  1.9408  0.2801  3.0874
 1382SOL     OW15781   4.671   3.315  15.791 -1.2191  0.5745  0.1128
 1382SOL    HW115782   4.645   3.260  15.717 -0.7999  0.1949  0.2458
 1382SOL    HW215783   4.656   3.398  15.745  0.1248  0.4586 -0.5444
 1383SOL     OW15784   1.659   3.615   9.234 -0.2389  0.0164 -0.2165
 1383SOL    HW115785   1.630   3.596   9.145  0.4086 -2.7018  0.1537
 1383SOL    HW215786   1.577   3.596   9.280  0.3980  1.1503  1.3877
 1384SOL     OW15787   3.484   2.615  14.247  0.2512 -0.5022 -0.0964
 1384SOL    HW115788   3.493   2.636  14.154  0.7133  1.5235  0.4049
 1384SOL    HW215789   3.393   2.586  14.248  0.3306 -0.7752 -1.1457
 1385SOL     OW15790   3.605   2.010  15.839 -0.0800 -1.1502  0.5625
 1385SOL    HW115791   3.695   1.980  15.849  0.8305  1.3010 -0.2256
 1385SOL    HW215792   3.554   1.945  15.887  2.5592 -1.1745  3.3214
 1386SOL     OW15793   4.140   3.549   5.693  0.2918  0.0370  0.3397
 1386SOL    HW115794   4.054   3.591   5.698  0.0588 -0.4507  0.4290
 1386SOL    HW215795   4.190   3.618   5.651  0.8645 -1.4736 -1.4862
 1387SOL     OW15796   0.069   1.906   0.675 -1.1220  0.1041 -0.6492
 1387SOL    HW115797   0.008   1.980   0.678  0.1470  1.3125 -3.9345
 1387SOL    HW215798   0.097   1.919   0.584  1.0339  1.1226  0.1697
 1388SOL     OW15799   0.324   4.177   1.064 -0.1377  0.2048 -0.3370
 1388SOL    HW115800   0.286   4.232   1.132  0.3837  0.0852  0.0505
 1388SOL    HW215801   0.366   4.245   1.011  2.9280 -1.0972  0.4326
 1389SOL     OW15802   1.604   4.501   3.914 -0.4588  1.0610  0.0037
 1389SOL    HW115803   1.685   4.460   3.882 -0.3992 -1.6074  3.5257
 1389SOL    HW215804   1.618   4.592   3.890 -1.0038  1.5952  1.7553
 1390SOL     OW15805   2.700   3.202   4.670 -0.4908 -0.3350  0.2342
 1390SOL    HW115806   2.609   3.231   4.669 -0.3707  0.0162 -2.6365
 1390SOL    HW215807   2.700   3.137   4.740 -2.6775  0.6165  1.1021
 1391SOL     OW15808   0.971   1.633   7.838 -0.3483 -0.6095 -0.3288
 1391SOL    HW115809   0.939   1.632   7.747 -1.8711  1.2093  0.1791
 1391SOL    HW215810   1.057   1.672   7.825  0.2373 -1.8633 -0.2105
 1392SOL     OW15811   0.350   0.281  14.683  0.1196 -0.7495 -0.1788
 1392SOL    HW115812   0.356   0.186  14.690 -0.5946 -0.7374  0.5435
 1392SOL    HW215813   0.362   0.288  14.588 -0.9616  0.1522 -0.2538
 1393SOL     OW15814   3.901   3.021   9.632  1.0971 -0.1281  0.5029
 1393SOL    HW115815   3.899   2.926   9.648 -3.2629 -0.5689 -2.5795
 1393SOL    HW215816   3.984   3.051   9.668 -0.1788  0.5025  2.9308
 1394SOL     OW15817   2.117   0.408   7.280 -0.0329 -0.0686  0.0205
 1394SOL    HW115818   2.143   0.421   7.190  2.1122 -2.5644  0.2988
 1394SOL    HW215819   2.203   0.398   7.321  0.5164 -2.4169 -1.6783
 1395SOL     OW15820   4.101   2.893  10.456  0.4344 -0.4712  0.2817
 1395SOL    HW115821   4.080   2.942  10.536 -0.8310 -0.8595  0.1756
 1395SOL    HW215822   4.046   2.819  10.481 -0.9838  1.3748  2.5782
 1396SOL     OW15823   3.793   1.222  16.604  0.5093  0.0143  0.6137
 1396SOL    HW115824   3.735   1.150  16.577  0.7099  0.3559 -0.7163
 1396SOL    HW215825   3.870   1.191  16.652 -0.1395 -1.3346  0.8065
 1397SOL     OW15826   4.504   4.401   3.959  0.0457 -0.5338  0.2534
 1397SOL    HW115827   4.468   4.315   3.977  0.2310 -0.1492  2.5681
 1397SOL    HW215828   4.561   4.392   3.882 -0.6993  2.9839 -0.7203
 1398SOL     OW15829   3.692   1.696   4.415  0.1291  0.3046 -0.3666
 1398SOL    HW115830   3.622   1.649   4.460  0.1324 -0.6335 -1.3344
 1398SOL    HW215831   3.761   1.680   4.480 -0.0521 -0.1301 -0.2820
 1399SOL     OW15832   0.354   3.820   2.921 -0.0971  0.0124  0.2478
 1399SOL    HW115833   0.292   3.779   2.981 -1.9701 -0.3116 -1.9161
 1399SOL    HW215834   0.434   3.834   2.971  0.5008  1.9709 -1.2603
 1400SOL     OW15835   1.347   4.124   2.145  0.3057 -0.0984 -0.1919
 1400SOL    HW115836   1.271   4.068   2.159  1.6830 -2.0509 -0.5427
 1400SOL    HW215837   1.421   4.068   2.168 -2.2891 -2.8353  1.4337
 1401SOL     OW15838   2.280   2.261   3.061  0.0658 -0.2914 -0.6453
 1401SOL    HW115839   2.292   2.356   3.056  0.2271 -0.1759  1.8854
 1401SOL    HW215840   2.370   2.228   3.054  0.1436 -0.6899  2.4257
 1402SOL     OW15841   0.534   0.209  12.791  0.1174 -0.9042  0.1816
 1402SOL    HW115842   0.465   0.259  12.746  1.6193 -0.0003 -1.1062
 1402SOL    HW215843   0.501   0.170  12.872  0.4571 -0.3359  0.5920
 1403SOL     OW15844   2.716   0.549  15.106 -0.0065  0.9124 -0.2355
 1403SOL    HW115845   2.746   0.541  15.016 -2.5749 -0.5774 -0.9528
 1403SOL    HW215846   2.798   0.573  15.148  0.7121 -2.1379  0.1577
 1404SOL     OW15847   1.077   1.905  11.798 -0.1925  0.5775 -0.7858
 1404SOL    HW115848   0.990   1.890  11.834  0.2792  1.3115  0.6659
 1404SOL    HW215849   1.082   1.832  11.736 -0.2554 -0.3755  0.3394
 1405SOL     OW15850   2.492   0.960   1.665  0.2078  0.4935  0.2746
 1405SOL    HW115851   2.466   0.939   1.576  2.1689  0.1450 -0.2218
 1405SOL    HW215852   2.410   0.977   1.712 -0.2234  0.2926 -0.4134
 1406SOL     OW15853   3.756   1.285  11.787  0.0916 -0.0367  0.2410
 1406SOL    HW115854   3.771   1.249  11.874  2.7060 -0.6857 -0.4842
 1406SOL    HW215855   3.663   1.309  11.791  0.9261  3.4008 -0.6216
 1407SOL     OW15856   2.267   3.760  12.778  0.2537  0.8566  0.1075
 1407SOL    HW115857   2.319   3.776  12.700 -1.4693  0.0410 -1.2077
 1407SOL    HW215858   2.330   3.779  12.848  0.3094  1.1769 -0.0320
 1408SOL     OW15859   1.530   3.506   2.206 -0.2950  0.1891  0.4232
 1408SOL    HW115860   1.529   3.455   2.125  0.9037  1.4152 -0.3752
 1408SOL    HW215861   1.501   3.595   2.188  0.0573  0.3150  0.4759
 1409SOL     OW15862   0.176   0.198   7.675  0.5513  0.0284  0.0939
 1409SOL    HW115863   0.124   0.175   7.751 -0.0691  1.1143 -0.0105
 1409SOL    HW215864   0.259   0.198   7.722  1.3589  1.4049 -1.3512
 1410SOL     OW15865   0.393   2.040   3.847  0.5867 -0.0281 -0.6400
 1410SOL    HW115866   0.334   2.044   3.772  0.1061 -0.7958 -0.3079
 1410SOL    HW215867   0.416   2.131   3.863  1.1832 -0.4007  0.6277
 1411SOL     OW15868   1.097   3.288   8.634 -0.1274 -0.1997 -0.0222
 1411SOL    HW115869   1.183   3.252   8.655 -0.1364 -0.2100 -0.0030
 1411SOL    HW215870   1.094   3.379   8.664  1.9434  0.2132 -1.1092
 1412SOL     OW15871   2.637   4.723  10.147 -0.2304 -0.0083 -0.1889
 1412SOL    HW115872   2.556   4.723  10.096 -0.2744  1.8490 -0.1157
 1412SOL    HW215873   2.661   4.631  10.133  0.3645 -0.2528  2.4034
 1413SOL     OW15874   0.212   4.449  13.024  0.8981 -0.4240 -0.1819
 1413SOL    HW115875   0.179   4.370  12.982  0.2421 -1.1089  1.6304
 1413SOL    HW215876   0.268   4.415  13.095 -2.0441 -4.1043  0.3796
 1414SOL     OW15877   1.964   2.099  16.671 -0.3243 -0.3892  0.9092
 1414SOL    HW115878   1.973   2.184  16.628  2.6792 -1.4859 -0.6111
 1414SOL    HW215879   1.877   2.083  16.636 -0.0543  0.5666 -0.1800
 1415SOL     OW15880   3.021   1.643   9.091 -0.0545  0.0528 -0.2264
 1415SOL    HW115881   2.954   1.597   9.141  0.0546  0.8222  0.6204
 1415SOL    HW215882   3.018   1.729   9.134  1.4279 -0.8501  1.6506
 1416SOL     OW15883   4.732   2.512  16.130 -0.0063  0.3700 -0.5451
 1416SOL    HW115884   0.024   2.473  16.048  0.8753  1.8006 -0.9159
 1416SOL    HW215885   4.666   2.579  16.111 -1.9545 -1.3826  0.0782
 1417SOL     OW15886   2.117   2.148   6.467 -0.3142 -0.1694  0.0288
 1417SOL    HW115887   2.056   2.077   6.449  0.2133 -0.2577 -1.3617
 1417SOL    HW215888   2.169   2.149   6.387  0.6776 -1.7650  0.6494
 1418SOL     OW15889   1.793   1.198   1.693  0.0824  0.2495  0.1904
 1418SOL    HW115890   1.710   1.203   1.646  0.2152  0.9077  0.0127
 1418SOL    HW215891   1.848   1.252   1.636  0.8740  0.2214  0.9205
 1419SOL     OW15892   2.021   3.062   6.991 -0.5479 -0.0857  0.6283
 1419SOL    HW115893   1.994   2.972   6.975 -3.4918  1.0001 -0.4834
 1419SOL    HW215894   2.031   3.064   7.086 -0.5403  0.9541  0.6099
 1420SOL     OW15895   1.993   4.056  10.786 -0.2448 -0.0677  0.1950
 1420SOL    HW115896   1.920   4.119  10.790 -0.2479  0.0453 -1.6465
 1420SOL    HW215897   2.028   4.066  10.874  0.8668  0.9849 -0.3626
 1421SOL     OW15898   4.387   4.697   9.740 -0.1086 -0.0269 -0.5073
 1421SOL    HW115899   4.292   4.700   9.747 -0.0431 -0.7665  0.5784
 1421SOL    HW215900   4.407   0.005   9.822  0.9478 -0.1199 -0.7088
 1422SOL     OW15901   0.276   2.163   6.649  0.4377  0.1386  0.2932
 1422SOL    HW115902   0.304   2.221   6.721 -2.1848  0.6342  0.9172
 1422SOL    HW215903   0.293   2.217   6.572  1.0273 -1.1548 -0.4788
 1423SOL     OW15904   0.525   1.251   3.747 -0.3195 -0.5538 -0.1481
 1423SOL    HW115905   0.443   1.202   3.742 -0.7049 -0.0314  1.2605
 1423SOL    HW215906   0.588   1.185   3.773  1.3606  1.5095  0.9941
 1424SOL     OW15907   4.658   2.817   8.380 -0.3955  0.2426 -0.0853
 1424SOL    HW115908   4.692   2.737   8.421 -0.2028  0.8986  1.0358
 1424SOL    HW215909   4.732   2.864   8.342  0.0958 -1.8781 -1.7276
 1425SOL     OW15910   3.536   3.185   2.178  0.0214  0.6449 -0.2807
 1425SOL    HW115911   3.563   3.124   2.109  0.0845 -1.3567  1.5272
 1425SOL    HW215912   3.441   3.178   2.168 -0.0147  0.4112  0.2321
 1426SOL     OW15913   4.337   3.755   5.330 -0.4502 -0.1743  0.1840
 1426SOL    HW115914   4.255   3.708   5.324 -0.5166 -0.5569  3.9129
 1426SOL    HW215915   4.362   3.731   5.420 -1.6761 -1.9978  0.0140
 1427SOL     OW15916   1.978   3.485   4.769  0.5290 -0.2135  0.4069
 1427SOL    HW115917   1.905   3.490   4.832 -0.4851  1.4468 -0.8954
 1427SOL    HW215918   1.942   3.426   4.703  1.3570 -0.7391  0.4344
 1428SOL     OW15919   3.145   0.582   6.157 -0.7007  0.0326 -0.2451
 1428SOL    HW115920   3.142   0.534   6.074 -0.5812  1.0065 -0.8110
 1428SOL    HW215921   3.064   0.554   6.198  0.8914 -3.7951  0.3387
 1429SOL     OW15922   2.731   1.937   0.220 -0.2585  0.3084  0.7231
 1429SOL    HW115923   2.814   1.897   0.243 -0.0036 -0.7203 -1.9568
 1429SOL    HW215924   2.666   1.868   0.227  1.5176 -1.3031  1.1889
 1430SOL     OW15925   2.125   1.221   9.152 -0.9304  0.2603 -0.0363
 1430SOL    HW115926   2.071   1.299   9.137 -0.6057  0.9519  2.2700
 1430SOL    HW215927   2.213   1.258   9.155 -1.6754  1.9043  1.9997
 1431SOL     OW15928   0.306   1.806   3.933  0.4935 -0.0393 -0.3192
 1431SOL    HW115929   0.330   1.881   3.879  0.1113  0.7504  0.6009
 1431SOL    HW215930   0.328   1.829   4.024 -0.2244  0.6337 -0.3085
 1432SOL     OW15931   0.971   3.327  15.102  0.1800  0.0487  0.4228
 1432SOL    HW115932   0.892   3.330  15.047  0.8960  0.4810 -0.5678
 1432SOL    HW215933   1.017   3.265  15.046 -2.8289 -1.4446 -0.4103
 1433SOL     OW15934   1.199   3.842   0.034 -0.0131  0.4211  0.2251
 1433SOL    HW115935   1.231   3.932   0.042 -0.0037  0.4748 -0.3936
 1433SOL    HW215936   1.243   3.791   0.102  0.3053  2.0439  1.2435
 1434SOL     OW15937   1.529   1.623   2.844 -0.5454 -0.1335 -0.5819
 1434SOL    HW115938   1.446   1.651   2.882 -0.1759  0.3337 -0.1169
 1434SOL    HW215939   1.555   1.703   2.798 -1.9690  0.9992  0.5865
 1435SOL     OW15940   2.604   2.431   2.063 -0.5397 -0.1288 -0.0124
 1435SOL    HW115941   2.619   2.344   2.099 -2.2042 -1.4615 -2.5989
 1435SOL    HW215942   2.521   2.420   2.017 -0.6449  0.9635 -0.0840
 1436SOL     OW15943   2.220   3.716   9.423 -0.2797 -0.0133  0.0161
 1436SOL    HW115944   2.233   3.741   9.332 -1.3701  2.4781  0.5473
 1436SOL    HW215945   2.142   3.767   9.444 -1.6286 -1.7936 -0.6225
 1437SOL     OW15946   2.346   3.791  15.705 -0.3711 -0.0987  0.2399
 1437SOL    HW115947   2.378   3.813  15.617  1.1761 -1.3528  0.4835
 1437SOL    HW215948   2.426   3.757  15.744 -0.7191 -2.3755 -1.0365
 1438SOL     OW15949   3.670   4.543   5.279  0.3254 -0.2628 -0.4331
 1438SOL    HW115950   3.658   4.637   5.271  3.4625  0.1377 -0.3464
 1438SOL    HW215951   3.721   4.541   5.360 -2.2020  1.2092  1.1691
 1439SOL     OW15952   0.003   3.820   9.627  0.0010  0.4095  0.5373
 1439SOL    HW115953   0.014   3.914   9.640 -2.3229  1.0642 -2.3536
 1439SOL    HW215954   0.088   3.789   9.659 -0.5598  0.8275  2.4681
 1440SOL     OW15955   3.358   1.334   8.088  0.2448  0.4536  0.5470
 1440SOL    HW115956   3.318   1.263   8.038  0.7746  0.4834  0.0776
 1440SOL    HW215957   3.449   1.326   8.059  0.2037  0.3183  0.4542
 1441SOL     OW15958   3.529   1.736   9.501 -0.5456  0.2291  0.0280
 1441SOL    HW115959   3.466   1.670   9.474  1.5588 -0.8678 -2.2637
 1441SOL    HW215960   3.548   1.774   9.415  0.5453 -0.7009 -0.1458
 1442SOL     OW15961   3.277   0.948   5.471  0.1911  0.0010  0.5401
 1442SOL    HW115962   3.304   1.029   5.429 -2.2571  0.2234 -0.5940
 1442SOL    HW215963   3.187   0.977   5.483 -0.3623 -0.6066 -2.1168
 1443SOL     OW15964   2.645   0.464   3.229 -0.5841  0.0201  0.5445
 1443SOL    HW115965   2.583   0.535   3.210 -0.5252  0.5155  2.2252
 1443SOL    HW215966   2.726   0.504   3.198 -0.1612 -0.0331  1.6144
 1444SOL     OW15967   1.301   4.613   8.597  0.0362  0.0091 -0.3535
 1444SOL    HW115968   1.313   4.661   8.515  2.2113  0.6432  0.3313
 1444SOL    HW215969   1.215   4.636   8.632 -0.7555  0.2848 -2.4517
 1445SOL     OW15970   2.851   0.750  12.570  0.0770 -0.2576 -0.4388
 1445SOL    HW115971   2.782   0.800  12.528  0.1183 -0.4854 -0.7720
 1445SOL    HW215972   2.816   0.717  12.653 -0.4589  2.9929  0.6594
 1446SOL     OW15973   0.436   2.138   5.127  0.4263  0.1701 -0.1905
 1446SOL    HW115974   0.467   2.056   5.088  2.2375  1.0781 -0.6587
 1446SOL    HW215975   0.360   2.148   5.071 -1.3019 -0.4111  2.0591
 1447SOL     OW15976   0.045   3.787   8.969 -0.3028  0.4325 -0.6132
 1447SOL    HW115977   0.009   3.831   9.046  0.4017 -0.0025 -0.0442
 1447SOL    HW215978   4.701   3.791   8.919 -0.4969  0.6188 -0.2831
 1448SOL     OW15979   1.060   3.764  14.599 -0.3570 -0.2135  0.0333
 1448SOL    HW115980   1.010   3.684  14.618  1.7551 -1.0353  2.1752
 1448SOL    HW215981   1.114   3.758  14.678  1.2123  0.6646 -0.9810
 1449SOL     OW15982   1.053   0.209   4.101  0.1494 -0.0431 -0.3002
 1449SOL    HW115983   1.056   0.303   4.121  1.7999  0.2315 -1.8879
 1449SOL    HW215984   1.043   0.159   4.183  3.9161 -0.4559 -0.1107
 1450SOL     OW15985   2.298   0.606   4.798  0.5394  0.2538  0.0621
 1450SOL    HW115986   2.351   0.572   4.871  0.7529 -0.2917 -0.3547
 1450SOL    HW215987   2.260   0.525   4.766  2.3408 -0.7913  0.5520
 1451SOL     OW15988   1.590   3.367   9.617 -0.2693 -0.2668 -0.4093
 1451SOL    HW115989   1.607   3.410   9.701  1.1360 -2.1261  0.2576
 1451SOL    HW215990   1.649   3.408   9.553  0.3416  3.8684  2.8710
 1452SOL     OW15991   1.756   0.402   1.444  0.0293  0.6763 -0.8096
 1452SOL    HW115992   1.699   0.367   1.375 -0.1014  0.3477 -0.5342
 1452SOL    HW215993   1.715   0.367   1.523 -2.0026 -0.9995 -2.6028
 1453SOL     OW15994   4.529   2.482  16.913  0.2365  0.1056  1.0381
 1453SOL    HW115995   4.585   2.476  16.836 -0.4508  1.4615  0.4263
 1453SOL    HW215996   4.440   2.498  16.881  0.0030 -0.7533  1.2532
 1454SOL     OW15997   4.043   0.655   7.300 -0.1249 -0.3584  0.0962
 1454SOL    HW115998   4.096   0.660   7.221  0.7484 -2.2732  0.5715
 1454SOL    HW215999   4.014   0.564   7.295 -2.3290  0.4092 -1.1000
 1455SOL     OW16000   1.079   1.237  14.319 -0.4155 -0.1101  0.8303
 1455SOL    HW116001   1.011   1.200  14.262 -0.1252  4.5106 -2.5395
 1455SOL    HW216002   1.078   1.168  14.385 -1.1400  0.0824  1.0284
 1456SOL     OW16003   1.403   4.610   4.522  0.1740  0.1551  0.2744
 1456SOL    HW116004   1.362   4.644   4.601 -0.6685 -0.3835  0.0737
 1456SOL    HW216005   1.413   4.517   4.545  3.2928  0.0873 -1.3179
 1457SOL     OW16006   2.190   2.504  16.703  0.4496  0.5357  0.0513
 1457SOL    HW116007   2.266   2.482  16.757 -0.1807  0.4182  0.9049
 1457SOL    HW216008   2.248   2.532  16.633 -0.9583 -0.8932 -1.6578
 1458SOL     OW16009   1.305   2.428  16.139 -0.1574  0.7248  0.4853
 1458SOL    HW116010   1.284   2.507  16.189 -0.2524 -0.0207  1.6451
 1458SOL    HW216011   1.230   2.434  16.080  1.1057  1.8202 -0.9742
 1459SOL     OW16012   1.753   2.579   3.193 -0.0997  0.0801 -0.0191
 1459SOL    HW116013   1.823   2.591   3.257  1.4072 -0.4382 -1.5797
 1459SOL    HW216014   1.791   2.503   3.148  0.6299  0.4230  0.0132
 1460SOL     OW16015   2.743   0.814   4.716  0.0418  0.5625 -0.1861
 1460SOL    HW116016   2.725   0.748   4.783  1.3772  0.6466  0.2420
 1460SOL    HW216017   2.827   0.847   4.748  0.4777  0.1566 -0.9210
 1461SOL     OW16018   4.068   3.017   3.310 -0.0855  0.3886 -0.7278
 1461SOL    HW116019   4.086   3.097   3.359  1.8025  0.7589 -2.0061
 1461SOL    HW216020   3.979   3.033   3.276 -0.0342  1.0308 -0.5523
 1462SOL     OW16021   1.889   1.714  10.811 -0.0193  0.0464  0.0965
 1462SOL    HW116022   1.804   1.671  10.805 -0.0135  0.1992 -1.1273
 1462SOL    HW216023   1.890   1.758  10.896  1.4036  1.6628 -0.7390
 1463SOL     OW16024   2.898   0.094  16.469 -0.0832 -0.1054  0.0129
 1463SOL    HW116025   2.917   0.001  16.481 -1.3724 -0.2782  0.7717
 1463SOL    HW216026   2.829   0.091  16.402  0.1608 -0.8778 -0.2139
 1464SOL     OW16027   4.549   3.985  11.589  0.0131 -0.3313  0.8268
 1464SOL    HW116028   4.466   4.020  11.622  0.5465  1.9438 -0.2656
 1464SOL    HW216029   4.576   3.932  11.665  0.5377  0.5494  1.2471
 1465SOL     OW16030   2.717   4.194   7.174 -0.1534 -0.1626 -0.2083
 1465SOL    HW116031   2.631   4.178   7.213 -0.8418 -0.4600 -1.8407
 1465SOL    HW216032   2.693   4.239   7.093 -0.4783  0.5344  0.2820
 1466SOL     OW16033   4.582   3.784  12.366 -0.1274 -0.4827 -0.0961
 1466SOL    HW116034   4.634   3.719  12.318 -1.9256 -1.2935 -0.9421
 1466SOL    HW216035   4.611   3.869  12.334  0.4335 -0.3031  0.9015
 1467SOL     OW16036   1.242   4.584   1.951 -0.4305  0.1702  0.1381
 1467SOL    HW116037   1.179   4.515   1.930 -0.7481  0.2904  0.6866
 1467SOL    HW216038   1.296   4.574   1.873 -0.0476 -0.9743  0.5554
 1468SOL     OW16039   0.917   4.629  11.402  0.5688  0.4841  0.3915
 1468SOL    HW116040   0.882   4.672  11.481 -1.7275  2.0572 -1.4678
 1468SOL    HW216041   0.975   4.563  11.438 -0.0479  0.2862  1.0306
 1469SOL     OW16042   2.368   3.986   9.789 -0.0951  0.6179  0.4131
 1469SOL    HW116043   2.294   3.940   9.829  0.7654 -1.3367 -0.2666
 1469SOL    HW216044   2.371   3.928   9.713 -0.3244 -0.0964  0.9466
 1470SOL     OW16045   1.986   4.708   9.603 -0.8120  0.0266  0.1625
 1470SOL    HW116046   2.027   4.724   9.518  0.1708  0.7704  0.7772
 1470SOL    HW216047   1.914   4.649   9.582  0.0309 -1.2202  0.7439
 1471SOL     OW16048   1.636   2.906  15.860  0.8909 -0.0586  0.1691
 1471SOL    HW116049   1.645   2.815  15.831  0.0399  0.4227 -1.5702
 1471SOL    HW216050   1.730   2.923  15.853 -0.1989  5.6342 -0.3533
 1472SOL     OW16051   1.304   3.450  13.920  0.0015 -0.8258  0.3628
 1472SOL    HW116052   1.273   3.451  14.010 -0.0583 -1.3986  0.3497
 1472SOL    HW216053   1.225   3.436  13.869 -0.4856  1.5751  0.4624
 1473SOL     OW16054   1.663   0.243  10.702 -0.4877 -0.0170  0.5360
 1473SOL    HW116055   1.706   0.309  10.757  0.2150 -0.4097  0.4581
 1473SOL    HW216056   1.657   0.165  10.756 -2.8463  0.1770  0.5755
 1474SOL     OW16057   4.006   2.218   3.845 -0.0878  0.3064  0.0799
 1474SOL    HW116058   4.025   2.182   3.759 -1.0664 -1.0024  0.4105
 1474SOL    HW216059   4.095   2.245   3.871 -0.7442 -1.3260  4.0652
 1475SOL     OW16060   2.708   1.144   4.019  0.0227  0.5821 -0.2957
 1475SOL    HW116061   2.746   1.178   3.938 -3.5427  1.3431 -1.6455
 1475SOL    HW216062   2.615   1.140   3.996 -0.2924 -1.1397  1.2465
 1476SOL     OW16063   3.781   1.465   9.113 -0.1485 -1.0256 -0.2881
 1476SOL    HW116064   3.796   1.370   9.110  0.9933 -0.8399 -0.3046
 1476SOL    HW216065   3.748   1.481   9.025 -0.4625 -0.6442 -0.1030
 1477SOL     OW16066   1.854   2.169   0.743  0.4636  0.1735  1.1464
 1477SOL    HW116067   1.881   2.077   0.747 -0.6196 -0.2014 -0.1882
 1477SOL    HW216068   1.761   2.159   0.721  0.8021 -2.5778  0.9374
 1478SOL     OW16069   0.312   0.732   2.616 -0.5045  0.1461  0.0427
 1478SOL    HW116070   0.265   0.799   2.665  0.4305 -0.5250  1.9093
 1478SOL    HW216071   0.402   0.764   2.611 -0.0038 -0.7675  2.5911
 1479SOL     OW16072   3.210   0.622   6.419  1.1005  0.1606 -0.0205
 1479SOL    HW116073   3.140   0.572   6.461 -1.0055  1.8585 -1.5241
 1479SOL    HW216074   3.192   0.605   6.327 -0.8712 -1.8054  0.7203
 1480SOL     OW16075   0.026   3.519   4.539  0.0430  0.0235 -0.0537
 1480SOL    HW116076   0.055   3.545   4.451 -2.2065 -0.5425 -0.9502
 1480SOL    HW216077   0.069   3.583   4.596 -0.2375 -0.4261  0.6538
 1481SOL     OW16078   2.784   1.315   9.221  0.0606  0.0821  0.4380
 1481SOL    HW116079   2.795   1.256   9.296 -1.1023 -0.6321  0.0477
 1481SOL    HW216080   2.876   1.321   9.196 -0.2646 -1.5900 -1.2102
 1482SOL     OW16081   3.079   2.255   3.502 -0.3589  0.0794  0.6551
 1482SOL    HW116082   3.149   2.234   3.440  0.3413 -1.7135  2.0411
 1482SOL    HW216083   3.139   2.258   3.577  0.6261  0.8259 -0.1589
 1483SOL     OW16084   4.737   0.979   9.029  0.3598  0.1689  0.1333
 1483SOL    HW116085   4.725   1.061   8.981 -0.5373  1.0857  1.9556
 1483SOL    HW216086   4.693   0.991   9.113  0.4077  0.6881  0.0862
 1484SOL     OW16087   1.431   2.451  10.158  0.1782 -0.4494 -0.2687
 1484SOL    HW116088   1.511   2.397  10.160  1.8180  1.9254 -1.3211
 1484SOL    HW216089   1.365   2.393  10.119 -1.3815  0.0898  1.6113
 1485SOL     OW16090   3.747   2.231   3.778  0.0937 -0.0247 -0.3844
 1485SOL    HW116091   3.742   2.326   3.767  1.7697  0.1344  0.2522
 1485SOL    HW216092   3.840   2.218   3.791 -0.0218  1.0020  1.4467
 1486SOL     OW16093   1.915   0.679   4.010 -0.0414  0.7312  0.1253
 1486SOL    HW116094   1.915   0.586   4.031  0.1684  0.2119 -2.1391
 1486SOL    HW216095   1.982   0.684   3.942  0.4596  0.0503  0.5687
 1487SOL     OW16096   3.143   0.523   4.923 -0.0642  0.2972 -0.3857
 1487SOL    HW116097   3.192   0.501   4.844 -1.2155 -1.0226 -0.7341
 1487SOL    HW216098   3.213   0.547   4.984  0.5345 -0.4550 -0.7857
 1488SOL     OW16099   3.338   0.488   4.700 -0.2144 -0.3784  0.1588
 1488SOL    HW116100   3.426   0.462   4.672 -0.1690 -0.9929  0.8655
 1488SOL    HW216101   3.285   0.436   4.639 -1.1674 -1.1285  1.6088
 1489SOL     OW16102   4.662   2.914   5.783  0.2997 -0.6621 -0.4198
 1489SOL    HW116103   4.612   2.832   5.782  0.7174 -0.9199 -0.5812
 1489SOL    HW216104   4.677   2.918   5.689  0.3874  0.8226 -0.3319
 1490SOL     OW16105   3.903   3.912   8.488 -0.1064  0.4351 -0.1770
 1490SOL    HW116106   3.944   3.912   8.574 -2.4266  1.9333  0.9238
 1490SOL    HW216107   3.968   3.941   8.424 -0.6803 -0.2096 -1.0594
 1491SOL     OW16108   1.433   2.376   9.173  0.0549 -0.3592  0.1461
 1491SOL    HW116109   1.372   2.449   9.168 -1.6863 -1.7277  1.5258
 1491SOL    HW216110   1.383   2.305   9.213 -1.7127  1.0939  0.5068
 1492SOL     OW16111   2.993   1.914   4.207  0.1169 -0.3492  0.5426
 1492SOL    HW116112   2.916   1.866   4.239 -2.1444  1.7579 -1.6442
 1492SOL    HW216113   3.056   1.890   4.274  0.9912  2.6258  0.7968
 1493SOL     OW16114   3.441   3.805   0.554  0.6853 -0.5001  0.1825
 1493SOL    HW116115   3.360   3.759   0.535 -0.4101  2.5472 -2.5929
 1493SOL    HW216116   3.512   3.741   0.551  0.3464 -0.7503 -2.7464
 1494SOL     OW16117   2.164   0.105   2.305 -0.5241 -0.3390 -0.4157
 1494SOL    HW116118   2.092   0.075   2.360 -0.4315 -1.1244 -0.7225
 1494SOL    HW216119   2.219   0.027   2.295 -0.9918 -0.6041 -0.8838
 1495SOL     OW16120   4.189   0.254   5.939  0.1814  0.4677 -0.0879
 1495SOL    HW116121   4.111   0.202   5.920 -0.0247 -0.0836  2.2724
 1495SOL    HW216122   4.256   0.214   5.883 -1.2638 -0.4350 -1.1858
 1496SOL     OW16123   0.377   2.342   5.731 -0.3442 -0.3262  0.1298
 1496SOL    HW116124   0.302   2.304   5.776 -1.1517  0.5437 -0.4953
 1496SOL    HW216125   0.408   2.253   5.715  2.6564  0.6430  0.5227
 1497SOL     OW16126   1.285   2.900   6.412 -0.4945 -0.3643  0.3065
 1497SOL    HW116127   1.354   2.901   6.478  1.0054  2.9756 -1.2878
 1497SOL    HW216128   1.330   2.927   6.332 -1.4879 -0.8909 -0.4339
 1498SOL     OW16129   1.601   1.630   2.516  0.5087  0.2585  0.5009
 1498SOL    HW116130   1.637   1.577   2.587 -1.1225 -0.8932  0.4871
 1498SOL    HW216131   1.679   1.666   2.473 -0.4407  1.5972 -0.0895
 1499SOL     OW16132   2.501   4.050   1.160 -0.2636  0.4326 -0.0978
 1499SOL    HW116133   2.519   4.123   1.219 -0.8197 -0.6212  1.3874
 1499SOL    HW216134   2.567   4.071   1.093  1.3059 -1.1134  0.9451
 1500SOL     OW16135   3.779   1.481   6.540  0.2413  0.3500  0.1647
 1500SOL    HW116136   3.713   1.448   6.479 -0.2024  3.4337 -1.0329
 1500SOL    HW216137   3.795   1.568   6.502  0.3405  0.4108  0.3488
 1501SOL     OW16138   1.328   3.911   9.432  0.2948  0.3449 -0.1067
 1501SOL    HW116139   1.388   3.886   9.502  1.7813  0.2786 -1.4078
 1501SOL    HW216140   1.258   3.856   9.467  1.7674 -1.8201 -0.6152
 1502SOL     OW16141   0.877   2.809  16.308 -0.1934  0.1699 -0.3068
 1502SOL    HW116142   0.800   2.859  16.335 -0.4922  0.7770 -2.3236
 1502SOL    HW216143   0.935   2.868  16.260  1.0280 -0.6389  0.1538
 1503SOL     OW16144   3.691   2.809   7.103 -0.0186  0.4690 -0.1482
 1503SOL    HW116145   3.693   2.722   7.062 -1.3407 -0.0816  0.9427
 1503SOL    HW216146   3.612   2.807   7.157 -0.6704  0.7723 -1.0932
 1504SOL     OW16147   2.053   1.937   8.933 -0.0123  0.3601 -0.0135
 1504SOL    HW116148   2.143   1.955   8.963 -0.5133  1.6417  0.7307
 1504SOL    HW216149   2.010   2.022   8.942  3.2505  1.9507  0.7440
 1505SOL     OW16150   4.080   1.365   3.792  0.5184  0.0030 -0.0820
 1505SOL    HW116151   4.125   1.376   3.876 -3.8627  1.5274  2.0455
 1505SOL    HW216152   3.999   1.319   3.814 -0.4340  1.0084 -1.5064
 1506SOL     OW16153   0.981   0.604  16.285  0.0859 -0.3429  0.4189
 1506SOL    HW116154   0.996   0.633  16.195  0.2037 -1.8276 -0.0324
 1506SOL    HW216155   1.030   0.522  16.294  1.3358  0.0439 -2.8241
 1507SOL     OW16156   3.100   2.375   9.895 -0.0044  0.1961 -0.3324
 1507SOL    HW116157   3.079   2.457   9.940 -1.3493  0.1032 -0.8041
 1507SOL    HW216158   3.103   2.393   9.801 -1.0990  0.3035 -0.3462
 1508SOL     OW16159   3.508   4.551   6.082 -0.0545  0.6370 -0.0585
 1508SOL    HW116160   3.590   4.587   6.047  1.6698 -2.0009  1.2409
 1508SOL    HW216161   3.447   4.546   6.009 -0.9364 -1.6680  0.8284
 1509SOL     OW16162   2.989   3.631   9.284  0.2681 -0.2464  0.1797
 1509SOL    HW116163   3.006   3.717   9.323  0.9223  0.5367 -1.8035
 1509SOL    HW216164   2.897   3.645   9.261 -0.5293 -2.6474  1.8872
 1510SOL     OW16165   4.655   2.859   4.619  0.0900 -0.2633 -0.3838
 1510SOL    HW116166   4.715   2.849   4.693  1.8442  2.0597 -1.5304
 1510SOL    HW216167   4.607   2.934   4.655 -0.1453  0.0007 -1.2497
 1511SOL     OW16168   3.451   1.215   3.366 -0.5397 -0.0495 -0.0245
 1511SOL    HW116169   3.408   1.266   3.296 -0.9614 -0.4115 -0.0294
 1511SOL    HW216170   3.524   1.170   3.323 -1.4082 -0.3261 -1.2140
 1512SOL     OW16171   2.399   1.100   4.320 -0.2196  0.6913 -0.6087
 1512SOL    HW116172   2.455   1.025   4.299 -1.0916 -0.2379  0.3778
 1512SOL    HW216173   2.366   1.115   4.232  1.2287 -0.1034 -1.2916
 1513SOL     OW16174   4.708   2.709   4.009  0.3931  0.1460  0.0352
 1513SOL    HW116175   4.631   2.680   4.058  1.0323 -1.3458  0.1771
 1513SOL    HW216176   4.665   2.754   3.936 -0.7693 -1.9003 -0.5515
 1514SOL     OW16177   1.875   4.165   0.403 -0.3421  0.1364 -0.4021
 1514SOL    HW116178   1.864   4.254   0.437  2.9621  0.6053 -0.5541
 1514SOL    HW216179   1.839   4.110   0.473  2.1731  0.5424  1.2054
 1515SOL     OW16180   3.942   4.680  16.924 -0.5002 -0.4480 -0.1441
 1515SOL    HW116181   3.872   0.006  16.910  1.4709  1.8394  0.4401
 1515SOL    HW216182   3.926   4.613  16.857 -1.0984  0.9392 -1.4081
 1516SOL     OW16183   0.602   2.138   8.269  0.3677  0.3823  0.3510
 1516SOL    HW116184   0.573   2.074   8.203  3.3953 -0.0869 -0.5164
 1516SOL    HW216185   0.524   2.195   8.269 -0.1561 -0.3364  1.8606
 1517SOL     OW16186   0.291   2.971  14.802 -0.2227  0.2192  0.2864
 1517SOL    HW116187   0.222   2.906  14.792 -0.2338  0.3507 -0.5285
 1517SOL    HW216188   0.308   2.999  14.712  2.0044 -0.7740  0.3929
 1518SOL     OW16189   3.780   2.996   4.771  0.0050  0.0775  0.6931
 1518SOL    HW116190   3.708   2.953   4.818  0.7034 -2.7156 -0.7843
 1518SOL    HW216191   3.836   3.016   4.846 -1.1188 -0.0918  1.5780
 1519SOL     OW16192   2.692   1.312   5.894 -0.1375  0.3483 -0.4275
 1519SOL    HW116193   2.626   1.279   5.956  0.8434 -0.2648  0.2886
 1519SOL    HW216194   2.636   1.319   5.817 -0.3766 -0.3994 -0.3295
 1520SOL     OW16195   4.232   3.938  13.149 -0.0005  0.3608 -0.2598
 1520SOL    HW116196   4.141   3.910  13.135  0.5869 -0.6600 -2.1477
 1520SOL    HW216197   4.289   3.863  13.131 -2.8170 -2.1962  1.4795
 1521SOL     OW16198   1.301   3.957   6.218 -0.3869 -0.1726 -0.0290
 1521SOL    HW116199   1.256   3.873   6.225  1.9508 -1.4525  0.0026
 1521SOL    HW216200   1.249   3.999   6.151  0.9555  1.3638 -0.0961
 1522SOL     OW16201   4.407   1.340   7.123 -0.4288  0.2157 -0.4495
 1522SOL    HW116202   4.317   1.365   7.147 -0.1832  0.2800  0.4212
 1522SOL    HW216203   4.404   1.345   7.028 -2.0474 -2.3586 -0.5249
 1523SOL     OW16204   4.331   0.472  12.680  0.2577 -0.4863  0.8433
 1523SOL    HW116205   4.316   0.400  12.742 -0.8251  1.2182  2.5797
 1523SOL    HW216206   4.329   0.541  12.747 -0.4103  1.8105 -1.5554
 1524SOL     OW16207   4.156   1.493   6.980 -0.4674 -0.0092  0.0341
 1524SOL    HW116208   4.088   1.531   6.924  0.1631  0.8889 -0.1199
 1524SOL    HW216209   4.111   1.497   7.065 -0.9815 -0.4696 -0.2176
 1525SOL     OW16210   4.532   0.977   6.606 -0.4552 -0.5249  0.0416
 1525SOL    HW116211   4.552   0.918   6.679  1.2453  2.3653  1.8978
 1525SOL    HW216212   4.447   0.941   6.581 -1.1504  0.8954  0.3964
 1526SOL     OW16213   4.074   0.314   0.524  0.1546  0.1881 -0.2496
 1526SOL    HW116214   3.998   0.332   0.468 -1.4916 -0.2967  1.7909
 1526SOL    HW216215   4.085   0.399   0.566  1.5456 -0.0649 -0.0910
 1527SOL     OW16216   0.827   2.669  16.515 -0.6290 -0.5620 -0.1531
 1527SOL    HW116217   0.823   2.592  16.459 -0.8153 -0.0332 -0.8751
 1527SOL    HW216218   0.841   2.739  16.451  0.2063  0.7558  1.4621
 1528SOL     OW16219   2.214   1.242  16.941  0.2343 -0.4083  0.0198
 1528SOL    HW116220   2.162   1.177  16.893  1.1485 -0.4974 -0.8568
 1528SOL    HW216221   2.177   1.316  16.893 -0.3698 -1.1163 -0.6102
 1529SOL     OW16222   4.213   3.232  15.222 -0.0139  0.1127  0.3836
 1529SOL    HW116223   4.299   3.226  15.263 -1.3257 -1.1364  2.9991
 1529SOL    HW216224   4.206   3.328  15.221 -1.5761 -0.0028  0.4671
 1530SOL     OW16225   2.683   0.171   8.804 -0.5324 -0.1208  0.2399
 1530SOL    HW116226   2.656   0.117   8.879  2.7085 -0.1019  1.4175
 1530SOL    HW216227   2.615   0.157   8.738 -1.0813  2.3415  0.3129
 1531SOL     OW16228   1.468   2.332  17.004 -0.7660 -0.0243  0.1161
 1531SOL    HW116229   1.487   2.241  16.984 -0.0841  0.5424 -1.8272
 1531SOL    HW216230   1.505   2.340  17.092 -0.9504  2.5248 -0.0420
 1532SOL     OW16231   3.704   0.735   6.625  0.1181  0.0696 -0.2769
 1532SOL    HW116232   3.760   0.659   6.631  0.4405  0.3240 -0.0609
 1532SOL    HW216233   3.620   0.689   6.619  0.4816 -0.5573 -0.5743
 1533SOL     OW16234   3.068   1.388   2.426  0.3699 -0.8153 -0.1814
 1533SOL    HW116235   3.095   1.474   2.460 -0.2638 -0.5675 -0.3024
 1533SOL    HW216236   3.149   1.338   2.436  1.7618  1.4131 -0.1163
 1534SOL     OW16237   0.481   3.629   1.429 -0.1968 -0.0507 -0.2189
 1534SOL    HW116238   0.392   3.661   1.446 -1.2115 -2.1630 -1.4512
 1534SOL    HW216239   0.482   3.627   1.333 -0.4003  0.7446 -0.2392
 1535SOL     OW16240   0.368   2.107   9.144 -0.0016  0.1193  0.0712
 1535SOL    HW116241   0.298   2.042   9.152 -0.0268  0.3007  1.2760
 1535SOL    HW216242   0.430   2.057   9.091 -0.8578 -2.7235  1.7370
 1536SOL     OW16243   4.298   2.648   1.300  0.2293  0.3402 -0.2209
 1536SOL    HW116244   4.361   2.579   1.320 -0.8183 -1.0120 -1.6906
 1536SOL    HW216245   4.345   2.730   1.318  1.1620 -0.2266 -0.0897
 1537SOL     OW16246   1.794   0.216   8.364 -0.1173  0.1333 -0.7490
 1537SOL    HW116247   1.720   0.158   8.345  0.4884 -0.9214  0.1054
 1537SOL    HW216248   1.769   0.287   8.304  3.1410  0.8330 -1.2447
 1538SOL     OW16249   3.791   0.973   7.347  0.4465 -0.3752  0.3368
 1538SOL    HW116250   3.863   0.911   7.337 -1.0128 -2.1497  0.7931
 1538SOL    HW216251   3.754   0.952   7.433 -0.2797 -0.9177 -0.1096
 1539SOL     OW16252   4.118   0.867  12.270 -0.2926  0.0825  0.6397
 1539SOL    HW116253   4.148   0.787  12.226  2.9848  2.3533 -1.2588
 1539SOL    HW216254   4.193   0.917  12.237 -0.2905  0.1505  0.7502
 1540SOL     OW16255   2.233   0.065   2.993  0.5865 -0.2881 -0.0493
 1540SOL    HW116256   2.145   0.080   2.958  1.2102  0.0993 -1.4655
 1540SOL    HW216257   2.233   0.120   3.071 -0.7847 -3.0247  1.8788
 1541SOL     OW16258   1.463   0.970   4.051  0.5072 -0.1680  0.5197
 1541SOL    HW116259   1.487   0.886   4.091 -0.7811 -0.7638  0.0604
 1541SOL    HW216260   1.401   0.949   3.981  0.5863 -0.7730  0.6265
 1542SOL     OW16261   4.288   3.001   7.838  0.2038  0.0695 -0.4575
 1542SOL    HW116262   4.207   2.949   7.836  1.9892 -2.7638  1.4455
 1542SOL    HW216263   4.357   2.941   7.812  2.3771  2.5298 -0.4163
 1543SOL     OW16264   2.871   3.187  12.618  0.2064  0.8952 -0.4211
 1543SOL    HW116265   2.935   3.239  12.569 -0.5400  2.2450  0.0124
 1543SOL    HW216266   2.856   3.254  12.685  0.8304 -1.1102  1.7269
 1544SOL     OW16267   4.625   2.259  10.396  0.0817  0.2685 -0.2854
 1544SOL    HW116268   4.559   2.246  10.465  0.0322  1.0760 -0.1749
 1544SOL    HW216269   4.605   2.349  10.372  0.0097  0.2497 -0.2971
 1545SOL     OW16270   0.833   0.229  12.778  0.2952 -0.2858 -0.1440
 1545SOL    HW116271   0.738   0.214  12.777 -0.0126  1.5853  1.4051
 1545SOL    HW216272   0.846   0.304  12.720 -1.7056 -1.3362 -1.9374
 1546SOL     OW16273   0.859   3.637   6.118  0.0411 -0.2795  0.1593
 1546SOL    HW116274   0.881   3.729   6.108 -2.4797  0.4475  1.3212
 1546SOL    HW216275   0.809   3.630   6.199 -1.2916  0.6010 -0.6029
 1547SOL     OW16276   0.785   2.225   9.536  0.4330 -0.1265 -0.5548
 1547SOL    HW116277   0.832   2.275   9.603  3.8313  0.2718 -3.2243
 1547SOL    HW216278   0.698   2.264   9.544  1.5423  2.2431  0.0774
 1548SOL     OW16279   2.268   1.910  10.551 -0.5464  0.5504  0.3191
 1548SOL    HW116280   2.275   1.861  10.469 -1.4658 -0.8449  1.0710
 1548SOL    HW216281   2.214   1.845  10.596 -2.7366  0.8438 -1.9172
 1549SOL     OW16282   3.719   2.862  17.051 -0.2350 -0.4435  0.1858
 1549SOL    HW116283   3.814   2.861  17.036  0.2454  2.9671  3.1889
 1549SOL    HW216284   3.696   2.946  17.012  2.7712  1.4677  2.5051
 1550SOL     OW16285   2.590   0.956   3.279 -0.3964  0.2050 -0.7427
 1550SOL    HW116286   2.641   0.905   3.216  0.4470 -1.7129  1.4874
 1550SOL    HW216287   2.596   0.902   3.358  0.3703  3.2023  1.2781
 1551SOL     OW16288   1.348   1.169   5.229  0.8696  0.5206  0.0889
 1551SOL    HW116289   1.268   1.200   5.270  0.1772 -0.1215 -0.7703
 1551SOL    HW216290   1.394   1.133   5.304 -0.9899 -0.1690  0.8832
 1552SOL     OW16291   1.598   0.751   7.628  0.1222 -0.7369 -0.7724
 1552SOL    HW116292   1.590   0.822   7.564  0.2227 -0.0775 -0.0617
 1552SOL    HW216293   1.626   0.811   7.697 -1.0693 -0.4727 -0.5051
 1553SOL     OW16294   1.133   0.525   8.271  0.2007 -0.0240 -0.2757
 1553SOL    HW116295   1.056   0.565   8.229  0.1916  0.4856  0.2394
 1553SOL    HW216296   1.139   0.587   8.343  0.7962 -0.4214  0.0189
 1554SOL     OW16297   1.533   3.595  11.531  0.0593  0.7617 -0.1444
 1554SOL    HW116298   1.586   3.657  11.481  0.6702  0.5770  0.2696
 1554SOL    HW216299   1.461   3.653  11.555 -0.1161  0.0273  1.1393
 1555SOL     OW16300   2.450   1.634   7.663 -0.0057 -0.4712 -0.2578
 1555SOL    HW116301   2.543   1.658   7.671 -0.5276  0.4504  2.6901
 1555SOL    HW216302   2.423   1.707   7.607  1.7151 -1.3574 -2.2650
 1556SOL     OW16303   2.663   2.112   0.913  0.2587  0.4989 -0.0262
 1556SOL    HW116304   2.605   2.056   0.964 -1.2445  0.6119 -1.6209
 1556SOL    HW216305   2.632   2.200   0.934  1.7883  1.3481 -1.3049
 1557SOL     OW16306   2.548   2.913  10.204  0.0020 -0.0290 -0.6297
 1557SOL    HW116307   2.498   2.948  10.130 -1.0415 -0.0703  0.0388
 1557SOL    HW216308   2.623   2.971  10.213  0.2448 -0.1993 -1.5540
 1558SOL     OW16309   2.208   3.209   2.136  0.9729 -0.2409 -0.5817
 1558SOL    HW116310   2.118   3.223   2.104  0.9436 -0.7340 -0.7089
 1558SOL    HW216311   2.237   3.145   2.072  0.5900 -2.1138  1.1411
 1559SOL     OW16312   4.334   0.621   2.129 -0.1249 -0.4661  0.3213
 1559SOL    HW116313   4.258   0.592   2.079  0.0329  0.9648 -0.7790
 1559SOL    HW216314   4.411   0.588   2.083  0.0611  0.8175 -0.3131
 1560SOL     OW16315   2.440   2.907   2.773  0.3066 -0.6573  0.0054
 1560SOL    HW116316   2.399   2.993   2.786 -2.7210 -2.6338  3.1952
 1560SOL    HW216317   2.493   2.912   2.852 -0.3071  0.7755  0.3211
 1561SOL     OW16318   2.049   3.670   5.570 -0.8550 -0.0577  0.4946
 1561SOL    HW116319   1.974   3.687   5.512  1.6099 -1.1984 -3.0488
 1561SOL    HW216320   2.048   3.752   5.619  0.6649 -0.1093  0.5916
 1562SOL     OW16321   3.392   0.832   4.274 -0.3557 -0.3813 -0.4300
 1562SOL    HW116322   3.338   0.804   4.348 -1.1157 -2.0236 -1.6135
 1562SOL    HW216323   3.387   0.927   4.286 -2.1909 -0.5841  0.5032
 1563SOL     OW16324   2.125   0.323   3.527 -0.2446 -0.6250  0.2369
 1563SOL    HW116325   2.190   0.375   3.480  0.7166  1.0433  3.4065
 1563SOL    HW216326   2.184   0.248   3.531 -0.2644 -0.6322  0.3844
 1564SOL     OW16327   3.969   1.561   6.801  0.2407  0.3084 -0.1796
 1564SOL    HW116328   3.975   1.491   6.736  0.7143 -0.2582  0.4706
 1564SOL    HW216329   3.903   1.620   6.768 -0.7069 -0.4407  0.3649
 1565SOL     OW16330   1.359   0.667  11.932  0.5164 -0.2039  0.2954
 1565SOL    HW116331   1.266   0.687  11.934  0.5398  0.0097 -0.5904
 1565SOL    HW216332   1.358   0.583  11.887 -1.8646 -0.7411  1.3988
 1566SOL     OW16333   1.706   2.734   2.383  0.0922  0.5055  0.0207
 1566SOL    HW116334   1.769   2.666   2.359 -1.0369  0.0498 -1.6450
 1566SOL    HW216335   1.702   2.733   2.479  1.1532  3.6117  0.0855
 1567SOL     OW16336   3.407   1.821   3.120 -0.5447  0.5914 -0.6341
 1567SOL    HW116337   3.315   1.795   3.111 -1.2028  3.1489 -1.1951
 1567SOL    HW216338   3.437   1.781   3.039 -0.5757 -0.2334 -0.2360
 1568SOL     OW16339   2.652   2.379   2.703  0.4207 -0.4457 -0.3588
 1568SOL    HW116340   2.590   2.307   2.694  2.0573 -1.8011 -0.7818
 1568SOL    HW216341   2.620   2.446   2.643  1.3688  1.0871  0.8291
 1569SOL     OW16342   1.910   1.421   2.823 -0.0049 -0.0461  0.1026
 1569SOL    HW116343   1.925   1.338   2.867  0.3441 -0.5526 -0.9840
 1569SOL    HW216344   1.826   1.411   2.778  0.5252  2.3979 -1.4019
 1570SOL     OW16345   2.126   1.871   3.288  0.3913  0.2257  0.0509
 1570SOL    HW116346   2.050   1.817   3.311  1.5626 -1.2687  0.3913
 1570SOL    HW216347   2.086   1.940   3.235 -0.4472  0.5547  1.1007
 1571SOL     OW16348   4.169   0.503  14.082 -0.4697 -0.1797 -0.4288
 1571SOL    HW116349   4.125   0.427  14.043 -0.8864 -0.1752  0.0400
 1571SOL    HW216350   4.130   0.583  14.049  0.5205  0.2952 -0.4381
 1572SOL     OW16351   2.947   0.846   3.257  0.1475  0.0189  0.8494
 1572SOL    HW116352   3.041   0.843   3.242  0.1518 -0.3690  0.9437
 1572SOL    HW216353   2.942   0.925   3.311 -0.2902  0.7816 -0.3259
 1573SOL     OW16354   4.400   0.796   9.480 -0.0364  0.6434  0.2453
 1573SOL    HW116355   4.387   0.701   9.471  1.0650  0.3438  1.8673
 1573SOL    HW216356   4.445   0.795   9.564 -1.5418  2.6543  1.0708
 1574SOL     OW16357   1.026   0.824   2.021 -0.3342  0.1646 -0.3393
 1574SOL    HW116358   0.997   0.735   2.041  0.5277 -0.0161  0.0741
 1574SOL    HW216359   1.120   0.808   2.014 -0.0777  1.1277  0.9731
 1575SOL     OW16360   4.271   0.334  14.794 -0.7382 -0.3972 -0.3574
 1575SOL    HW116361   4.284   0.239  14.793 -4.3040 -0.8854  0.6056
 1575SOL    HW216362   4.242   0.345  14.703 -2.7945 -1.3250  0.1976
 1576SOL     OW16363   0.151   2.380   5.539 -0.4354 -0.0256 -0.3686
 1576SOL    HW116364   0.152   2.426   5.455 -1.8997 -1.7849 -1.3454
 1576SOL    HW216365   0.217   2.424   5.593  0.3976 -1.1027 -0.5196
 1577SOL     OW16366   2.924   3.226   6.859  0.5933 -0.5335 -0.2359
 1577SOL    HW116367   2.930   3.276   6.779 -1.4089  0.0579 -0.0314
 1577SOL    HW216368   2.913   3.296   6.923 -0.6594  0.3615 -1.4415
 1578SOL     OW16369   2.426   3.983   2.139  0.0040 -0.3093  0.0706
 1578SOL    HW116370   2.434   3.951   2.229  1.9172  0.0326  0.0276
 1578SOL    HW216371   2.471   3.913   2.093  2.0824  1.1891 -0.1666
 1579SOL     OW16372   2.008   4.723   8.521  0.3884 -0.1903 -0.2916
 1579SOL    HW116373   2.005   4.664   8.597 -0.2776  1.1928  0.7730
 1579SOL    HW216374   2.003   0.071   8.565 -1.8922  0.1185 -1.1178
 1580SOL     OW16375   2.267   3.831  10.099  0.2273 -0.4373  0.0107
 1580SOL    HW116376   2.356   3.805  10.076 -0.3697 -1.8790 -0.6764
 1580SOL    HW216377   2.221   3.809  10.018  3.7407  2.6938 -2.8313
 1581SOL     OW16378   3.130   3.786   6.658 -0.0154  0.2346  0.4782
 1581SOL    HW116379   3.199   3.743   6.608 -0.6144 -0.2222  0.0388
 1581SOL    HW216380   3.055   3.725   6.659  0.4290 -0.3527 -2.3922
 1582SOL     OW16381   2.084   0.339   2.014  1.0170 -0.2436  0.5118
 1582SOL    HW116382   2.042   0.269   2.064  2.1274 -3.2890 -2.8138
 1582SOL    HW216383   2.176   0.312   2.014  1.0253 -0.1741 -2.5129
 1583SOL     OW16384   2.830   0.365   3.565 -0.0807 -0.2784 -0.0580
 1583SOL    HW116385   2.876   0.379   3.483 -0.3758 -3.8742 -0.8506
 1583SOL    HW216386   2.857   0.444   3.610 -0.9769  0.8621 -1.5166
 1584SOL     OW16387   3.825   1.537  16.606 -0.1710 -0.2963  0.3882
 1584SOL    HW116388   3.836   1.449  16.568 -0.6293 -1.1354  2.2031
 1584SOL    HW216389   3.817   1.511  16.697  0.8727 -0.7083  0.3615
 1585SOL     OW16390   3.363   4.427  15.624  0.1046  0.2539 -0.5405
 1585SOL    HW116391   3.311   4.491  15.672  0.6309  2.1207 -2.4527
 1585SOL    HW216392   3.312   4.414  15.544 -2.0933 -0.3314  0.9568
 1586SOL     OW16393   0.505   1.924   3.331 -0.6313 -0.8605 -0.4214
 1586SOL    HW116394   0.565   1.897   3.401  0.0701  2.0490  0.0694
 1586SOL    HW216395   0.493   1.836   3.296  2.5064 -0.7389 -1.8148
 1587SOL     OW16396   0.062   2.260   7.453 -0.2402 -0.1142 -0.0707
 1587SOL    HW116397   0.030   2.218   7.533  1.0807 -0.0380  0.4978
 1587SOL    HW216398   0.151   2.225   7.456 -0.1230 -0.1335 -3.7593
 1588SOL     OW16399   4.487   1.033   0.334 -0.4068 -0.0745 -0.0797
 1588SOL    HW116400   4.544   1.060   0.406  0.0341  0.9075 -0.8062
 1588SOL    HW216401   4.401   1.071   0.351  1.2875  2.2949  3.1339
 1589SOL     OW16402   0.294   0.239   6.068 -0.0247  0.0684  0.3368
 1589SOL    HW116403   0.367   0.211   6.013 -0.7895 -0.6301 -0.3210
 1589SOL    HW216404   0.225   0.177   6.046 -0.5806  1.2408 -1.1726
 1590SOL     OW16405   0.852   1.314   4.665 -0.1740 -0.6128  0.1796
 1590SOL    HW116406   0.824   1.324   4.574  2.0880 -1.1921 -0.5800
 1590SOL    HW216407   0.840   1.220   4.678  0.7462 -0.4578  2.0872
 1591SOL     OW16408   2.981   3.974   4.484 -0.3779 -0.5762  0.3972
 1591SOL    HW116409   3.036   4.050   4.498  0.6954 -1.6335  1.9326
 1591SOL    HW216410   3.024   3.950   4.402  1.5527  4.0039  0.1067
 1592SOL     OW16411   4.673   3.851   4.121  0.6719  0.5288 -0.0479
 1592SOL    HW116412   4.645   3.760   4.109  1.7394  0.2420 -0.4266
 1592SOL    HW216413   4.703   3.862   4.030 -1.1276  0.6520 -0.6250
 1593SOL     OW16414   3.781   1.899  17.053 -0.1654  0.0165 -0.4335
 1593SOL    HW116415   3.872   1.907  17.084 -0.0747  0.4329 -0.8169
 1593SOL    HW216416   3.746   1.812  17.072 -0.0793 -0.3551 -1.9849
 1594SOL     OW16417   4.052   4.361   7.208  0.2975  0.1152 -0.1169
 1594SOL    HW116418   4.120   4.295   7.216  0.3058  0.0888 -0.3969
 1594SOL    HW216419   4.090   4.400   7.129 -1.2578  1.9830  0.0542
 1595SOL     OW16420   1.329   0.088   3.202 -0.1621  0.0752  0.4154
 1595SOL    HW116421   1.340   0.113   3.110  0.4474  0.9004  0.7095
 1595SOL    HW216422   1.317   0.175   3.241 -0.0975 -0.2945  1.2676
 1596SOL     OW16423   2.604   4.274   9.184  0.4965  0.1539  0.5675
 1596SOL    HW116424   2.520   4.243   9.150  1.5552  1.8043 -3.5553
 1596SOL    HW216425   2.667   4.246   9.117 -1.4946 -0.6098 -1.0074
 1597SOL     OW16426   4.380   2.064   2.832 -0.6469  0.4263  0.0813
 1597SOL    HW116427   4.351   2.151   2.805  0.3105  0.8423  0.4087
 1597SOL    HW216428   4.304   2.018   2.798  0.3283 -1.8108  0.9521
 1598SOL     OW16429   2.283   0.197   5.564  0.1082 -0.6387 -0.7749
 1598SOL    HW116430   2.362   0.251   5.556  0.1317 -0.6858 -0.8647
 1598SOL    HW216431   2.219   0.267   5.578  1.5545  0.2980  1.0812
 1599SOL     OW16432   4.435   0.839  12.445 -0.1220  0.6076 -0.0385
 1599SOL    HW116433   4.456   0.889  12.524 -0.8507  0.3424  0.3230
 1599SOL    HW216434   4.404   0.900  12.378  0.0992 -0.8302 -1.4699
 1600SOL     OW16435   2.814   2.824   5.069  0.0221  0.2221 -0.6724
 1600SOL    HW116436   2.725   2.858   5.072  1.0867  3.0629 -1.3935
 1600SOL    HW216437   2.838   2.866   4.986 -0.4608  1.8944  0.0259
 1601SOL     OW16438   4.146   2.430  12.171 -0.3316 -0.2025 -0.4593
 1601SOL    HW116439   4.203   2.490  12.219 -0.1816 -0.0830 -0.7892
 1601SOL    HW216440   4.142   2.356  12.231  2.2870  1.8084  2.2017
 1602SOL     OW16441   0.362   1.666   0.306  0.2584 -0.3261 -0.0786
 1602SOL    HW116442   0.411   1.687   0.386 -0.7461  0.2884  0.3683
 1602SOL    HW216443   0.316   1.586   0.329 -1.2821  0.8672  0.9171
 1603SOL     OW16444   1.272   2.490   3.277  0.4670 -0.3735  0.3946
 1603SOL    HW116445   1.216   2.539   3.337 -1.7445 -0.2963 -1.6874
 1603SOL    HW216446   1.222   2.474   3.196 -1.5259  0.5506  1.4362
 1604SOL     OW16447   4.615   0.700  10.362  0.3320 -0.7144 -0.1156
 1604SOL    HW116448   4.647   0.758  10.293 -1.0357  0.0796 -0.0920
 1604SOL    HW216449   4.560   0.757  10.416 -0.3635 -0.8368 -0.6883
 1605SOL     OW16450   3.672   3.749   7.556 -0.4642  0.1413  0.4670
 1605SOL    HW116451   3.619   3.722   7.631  0.3924  3.0118  2.0718
 1605SOL    HW216452   3.639   3.836   7.536  3.0001  1.8819  2.4108
 1606SOL     OW16453   4.615   4.734   7.650 -0.6006 -0.5627 -0.2657
 1606SOL    HW116454   4.662   4.654   7.671  1.3733 -0.4105 -4.2017
 1606SOL    HW216455   4.678   0.064   7.675  1.5309 -2.6491 -0.0838
 1607SOL     OW16456   0.363   0.575  13.537  0.0819 -0.3211 -0.0619
 1607SOL    HW116457   0.277   0.564  13.496  0.4694  0.2984 -1.0365
 1607SOL    HW216458   0.413   0.503  13.498 -1.9607 -0.4697 -2.4282
 1608SOL     OW16459   2.359   2.331   1.971  0.1077 -0.0408 -0.3926
 1608SOL    HW116460   2.294   2.326   1.901 -1.2410  0.6153  0.8208
 1608SOL    HW216461   2.419   2.260   1.948  0.0226 -0.2892  0.1548
 1609SOL     OW16462   1.473   3.096   9.048 -0.5063  0.6120  0.0850
 1609SOL    HW116463   1.466   3.012   9.094  0.6875  0.3045 -0.3152
 1609SOL    HW216464   1.553   3.085   8.996 -0.8903 -0.8949 -0.2085
 1610SOL     OW16465   4.558   3.332   2.930  0.1067 -0.0920 -0.5510
 1610SOL    HW116466   4.511   3.414   2.923 -0.9077 -0.5364  1.0864
 1610SOL    HW216467   4.491   3.267   2.910 -1.2839  1.2133 -0.0659
 1611SOL     OW16468   4.445   3.838  13.988  0.3318 -0.3270  0.6123
 1611SOL    HW116469   4.530   3.881  13.981  0.7133 -1.1536  0.1823
 1611SOL    HW216470   4.451   3.803  14.077 -1.4526 -0.4324  0.6999
 1612SOL     OW16471   3.805   3.551   8.680  0.5157 -0.0074 -0.2005
 1612SOL    HW116472   3.797   3.520   8.771  0.5118 -1.2113 -0.6100
 1612SOL    HW216473   3.830   3.475   8.627 -0.1032 -0.2789 -0.0984
 1613SOL     OW16474   2.916   3.077   4.296  0.6288  0.1870  0.9046
 1613SOL    HW116475   2.903   3.008   4.231  1.6663  1.3664 -0.5583
 1613SOL    HW216476   2.993   3.123   4.261  1.9094 -1.9124  0.9777
 1614SOL     OW16477   0.762   1.938  17.419  0.0008 -0.3275 -0.7657
 1614SOL    HW116478   0.730   1.886  17.493 -0.6902 -0.0799 -0.8941
 1614SOL    HW216479   0.703   1.905  17.351 -0.6105  0.4784 -0.6293
 1615SOL     OW16480   0.439   2.305   9.845 -0.6750  0.8913 -0.4401
 1615SOL    HW116481   0.479   2.312   9.759  1.5224  0.4381  0.5346
 1615SOL    HW216482   0.409   2.392   9.871 -0.0672  0.6279  1.1723
 1616SOL     OW16483   3.166   1.821   3.691 -0.0549 -0.3406 -0.0390
 1616SOL    HW116484   3.158   1.899   3.746  1.0544 -0.4658  0.3061
 1616SOL    HW216485   3.077   1.785   3.697 -0.9512  1.7665 -0.9379
 1617SOL     OW16486   2.154   1.676   8.811 -0.3002 -0.0180  0.2040
 1617SOL    HW116487   2.208   1.617   8.863  0.3370  1.1662  0.9000
 1617SOL    HW216488   2.117   1.741   8.872 -0.0235  0.8636 -0.5751
 1618SOL     OW16489   2.306   1.076  12.035  0.0519  0.3616 -0.3489
 1618SOL    HW116490   2.376   1.023  11.997 -1.1923  1.0496 -3.6477
 1618SOL    HW216491   2.352   1.106  12.114  0.7987 -1.8467  0.0437
 1619SOL     OW16492   0.389   2.299   9.361  0.2255 -0.0738  0.4870
 1619SOL    HW116493   0.382   2.229   9.296 -1.4507 -1.0514  1.7099
 1619SOL    HW216494   0.307   2.349   9.352  0.4870  0.0559 -0.9970
 1620SOL     OW16495   0.899   0.448   9.208 -0.5759 -0.2479  0.4723
 1620SOL    HW116496   0.835   0.457   9.137  0.0974 -0.0742 -0.1118
 1620SOL    HW216497   0.887   0.533   9.252  0.1097  0.8389 -1.4484
 1621SOL     OW16498   0.833   3.932   6.084 -0.4163  0.1694  0.3941
 1621SOL    HW116499   0.741   3.955   6.083 -0.8974 -1.6470  1.7318
 1621SOL    HW216500   0.874   3.997   6.141 -0.6688  0.3751  0.3397
 1622SOL     OW16501   1.609   1.452   8.066  0.2642  0.1664 -0.0420
 1622SOL    HW116502   1.589   1.366   8.029 -0.4152 -0.2400  1.2677
 1622SOL    HW216503   1.699   1.450   8.034  0.5007  0.7372  0.5966
 1623SOL     OW16504   3.620   3.448   3.970 -0.6525  0.6457  0.1690
 1623SOL    HW116505   3.669   3.523   4.004  0.6596 -0.6994  1.2634
 1623SOL    HW216506   3.573   3.495   3.901 -0.0973  2.3617  0.9806
 1624SOL     OW16507   3.061   2.401   4.839  0.5338 -0.2025 -0.1317
 1624SOL    HW116508   3.036   2.391   4.747 -0.5852  0.1501  0.1415
 1624SOL    HW216509   2.977   2.400   4.884  0.9131  0.8413  0.6169
 1625SOL     OW16510   0.601   3.506  13.812  0.5943  0.6969 -0.3610
 1625SOL    HW116511   0.515   3.465  13.804  1.1523 -0.5054 -0.1999
 1625SOL    HW216512   0.611   3.503  13.907  2.0031  0.1852 -0.5265
 1626SOL     OW16513   3.606   0.669   5.031  0.6312  0.0249 -0.7294
 1626SOL    HW116514   3.511   0.683   5.030  0.4771 -0.7989  1.5811
 1626SOL    HW216515   3.619   0.605   5.102 -0.5671 -0.1338 -0.6518
 1627SOL     OW16516   2.213   0.013  17.028 -0.2949  0.3044  0.7340
 1627SOL    HW116517   2.199   0.104  17.001  0.0429  0.0612 -0.2592
 1627SOL    HW216518   2.244   4.710  16.947  0.0763  0.8921  0.5766
 1628SOL     OW16519   3.688   3.065   6.113  1.0833  0.1120 -0.2657
 1628SOL    HW116520   3.709   3.003   6.182  1.6755 -2.6548 -2.9387
 1628SOL    HW216521   3.665   3.006   6.041 -2.3411 -0.1091  0.9950
 1629SOL     OW16522   1.143   2.941   8.819  0.2591 -0.5579 -0.4774
 1629SOL    HW116523   1.155   2.852   8.789 -0.5022 -1.0036  0.5318
 1629SOL    HW216524   1.089   2.925   8.896  1.5049 -1.0885  0.2955
 1630SOL     OW16525   2.081   0.833   8.952 -0.1281  0.2992 -0.0729
 1630SOL    HW116526   2.101   0.815   9.044 -5.2836 -1.6918  0.6119
 1630SOL    HW216527   2.145   0.901   8.931  1.9969 -1.4830  0.6184
 1631SOL     OW16528   0.430   3.197   2.383  0.2638  0.5653 -0.2248
 1631SOL    HW116529   0.401   3.273   2.333  1.1946  0.0745 -1.5130
 1631SOL    HW216530   0.347   3.150   2.384  1.4059 -1.4593 -2.6722
 1632SOL     OW16531   0.010   1.247   8.582 -0.3435 -0.1716  0.2161
 1632SOL    HW116532   4.656   1.274   8.571 -0.6487 -2.3282 -2.5289
 1632SOL    HW216533   0.044   1.245   8.493 -2.4754  2.9989 -0.6943
 1633SOL     OW16534   2.092   3.109   6.019 -0.2759  0.6947 -0.4544
 1633SOL    HW116535   2.021   3.047   6.004 -2.1552  2.8150 -0.3841
 1633SOL    HW216536   2.124   3.128   5.930  0.0170 -1.0918 -0.7154
 1634SOL     OW16537   0.304   1.068   3.767 -0.1118  0.0387  0.6538
 1634SOL    HW116538   0.235   1.128   3.739 -0.4701 -1.5794 -1.9042
 1634SOL    HW216539   0.293   0.989   3.716  0.2475  0.5891 -0.2710
 1635SOL     OW16540   2.230   0.275   0.371  0.2895 -0.0290  0.3933
 1635SOL    HW116541   2.245   0.195   0.320  0.2637 -0.1806  0.6255
 1635SOL    HW216542   2.262   0.251   0.458 -0.7051  2.5215  1.4308
 1636SOL     OW16543   3.414   4.191   5.256  0.0312 -0.2430 -0.1499
 1636SOL    HW116544   3.325   4.221   5.275  1.5699  2.4859  2.8655
 1636SOL    HW216545   3.420   4.232   5.170  1.9680  1.6508  0.8727
 1637SOL     OW16546   1.872   2.756   7.178  0.1736  0.1296 -0.6611
 1637SOL    HW116547   1.940   2.739   7.113  0.6360  0.4854 -0.2646
 1637SOL    HW216548   1.927   2.790   7.248  2.0134 -0.7002 -1.6959
 1638SOL     OW16549   3.053   4.487   6.397 -0.1655 -0.3189  0.2669
 1638SOL    HW116550   2.983   4.423   6.385 -1.2339  1.1559 -1.3601
 1638SOL    HW216551   3.103   4.441   6.464  0.6949 -0.3964 -0.4327
 1639SOL     OW16552   1.255   1.874   4.585 -0.5392  0.1253  0.3281
 1639SOL    HW116553   1.232   1.967   4.583 -0.6258  0.0860 -0.6368
 1639SOL    HW216554   1.305   1.868   4.504  0.5614  2.1456  0.8844
 1640SOL     OW16555   0.673   0.858   6.455 -0.0832  0.2841  0.4486
 1640SOL    HW116556   0.728   0.897   6.523  0.0282 -1.2332  1.2331
 1640SOL    HW216557   0.584   0.893   6.459  0.2100  1.3450 -2.1957
 1641SOL     OW16558   3.846   3.112   3.154  0.1826 -0.4573  0.4968
 1641SOL    HW116559   3.844   3.208   3.148 -0.3937 -0.5942 -1.5052
 1641SOL    HW216560   3.851   3.101   3.059 -1.2052 -1.1546  0.5054
 1642SOL     OW16561   3.769   1.826  13.768 -0.1532  0.3087  0.1869
 1642SOL    HW116562   3.778   1.731  13.766  0.1529  0.3916 -2.2812
 1642SOL    HW216563   3.710   1.839  13.842 -0.6740 -2.0092  0.1687
 1643SOL     OW16564   4.647   3.455   4.865  0.0761 -0.2664 -0.2367
 1643SOL    HW116565   4.618   3.446   4.956  1.2960  0.3756  0.2079
 1643SOL    HW216566   4.638   3.366   4.832 -0.4581  0.1800 -1.2975
 1644SOL     OW16567   4.495   1.402   4.033 -0.8344 -0.0357  0.3700
 1644SOL    HW116568   4.424   1.416   4.096 -1.2409  0.4641 -0.2060
 1644SOL    HW216569   4.443   1.389   3.954 -1.2323 -1.0347  0.7941
 1645SOL     OW16570   4.112   0.904   6.863 -0.3316 -0.2947 -0.2914
 1645SOL    HW116571   4.043   0.857   6.818 -2.4679  3.0660 -0.5645
 1645SOL    HW216572   4.119   0.990   6.821  0.0124  0.3941  1.1631
 1646SOL     OW16573   3.351   3.715   6.179  0.4421 -0.1766 -0.2358
 1646SOL    HW116574   3.410   3.653   6.136 -1.9633 -2.2590 -0.5020
 1646SOL    HW216575   3.412   3.737   6.249 -2.5566  2.4074  1.5458
 1647SOL     OW16576   1.944   3.506   7.528  0.0678 -0.2286 -0.0726
 1647SOL    HW116577   1.958   3.434   7.466  2.4524  1.3200 -1.2860
 1647SOL    HW216578   1.990   3.580   7.491  1.2390  0.2712  2.3819
 1648SOL     OW16579   0.043   1.390  12.090  0.1248 -0.8107 -0.4374
 1648SOL    HW116580   4.705   1.332  12.097  0.1887 -0.7864  0.4106
 1648SOL    HW216581   0.028   1.425  12.002  0.6217  3.1299  1.0416
 1649SOL     OW16582   2.805   0.875   7.934  0.1061  0.0151  0.2775
 1649SOL    HW116583   2.850   0.914   8.010  2.9599 -1.6886 -0.5203
 1649SOL    HW216584   2.792   0.952   7.879  0.5269 -0.7692 -0.9240
 1650SOL     OW16585   0.198   3.274   3.552 -0.2910  0.5209 -0.0016
 1650SOL    HW116586   0.234   3.311   3.472  2.5424  0.8400  1.4222
 1650SOL    HW216587   0.104   3.278   3.537 -0.3588  2.6678  0.9967
 1651SOL     OW16588   2.214   2.153   7.653 -0.0210  0.0396 -0.0847
 1651SOL    HW116589   2.195   2.113   7.738  0.5205  0.5687  0.2860
 1651SOL    HW216590   2.287   2.099   7.622 -1.1375 -0.5217 -1.7238
 1652SOL     OW16591   4.579   3.338   8.864  0.0856 -0.1865  0.4908
 1652SOL    HW116592   4.538   3.333   8.778  0.6975  0.3260  0.1694
 1652SOL    HW216593   4.644   3.404   8.841  1.9469 -1.5981  1.6915
 1653SOL     OW16594   3.006   2.166   9.426  0.2669  0.2714  0.6554
 1653SOL    HW116595   2.986   2.081   9.465  0.1901  1.2796  2.8455
 1653SOL    HW216596   2.940   2.183   9.359  1.4319  2.9752  0.1659
 1654SOL     OW16597   1.246   1.531  11.344 -0.2510 -0.1284  0.6083
 1654SOL    HW116598   1.335   1.551  11.375 -0.8248  1.1568  1.4280
 1654SOL    HW216599   1.268   1.484  11.264 -1.9600 -0.7051  0.4776
 1655SOL     OW16600   1.630   3.534  11.137  0.6339  0.4363 -0.2891
 1655SOL    HW116601   1.574   3.475  11.188 -0.1093  0.9385 -0.5178
 1655SOL    HW216602   1.619   3.622  11.175 -0.3296  0.1053  0.2056
 1656SOL     OW16603   1.074   4.112   2.416  0.4671  0.4014  0.5906
 1656SOL    HW116604   1.052   4.099   2.508 -0.0309  1.6248  0.6515
 1656SOL    HW216605   1.085   4.207   2.417 -0.5750  0.5081  2.0135
 1657SOL     OW16606   3.940   1.526   7.689  0.2490  0.2503 -0.1824
 1657SOL    HW116607   3.981   1.534   7.603  2.5792 -1.4031  0.7738
 1657SOL    HW216608   3.923   1.615   7.719 -2.0427  0.0498 -0.8281
 1658SOL     OW16609   4.620   0.827   5.909  0.7775  0.2159  0.6746
 1658SOL    HW116610   4.665   0.752   5.871 -1.6778 -0.6878 -0.4447
 1658SOL    HW216611   4.536   0.817   5.865  1.6079 -1.8293 -0.4261
 1659SOL     OW16612   4.588   3.316   9.622 -0.1070  0.2779 -0.6162
 1659SOL    HW116613   4.667   3.291   9.671  0.4217  0.1085 -1.5555
 1659SOL    HW216614   4.591   3.411   9.631 -1.2468  0.0496  2.1510
 1660SOL     OW16615   1.888   3.279   3.624 -0.1597  0.8657 -0.6030
 1660SOL    HW116616   1.837   3.358   3.611 -0.9679  0.6261  1.1674
 1660SOL    HW216617   1.837   3.222   3.566 -2.7651  1.6089  0.9549
 1661SOL     OW16618   4.476   3.870  12.774 -0.0959  0.8008 -0.4553
 1661SOL    HW116619   4.382   3.881  12.759 -0.2010  2.4832  1.5681
 1661SOL    HW216620   4.478   3.774  12.770 -2.1832  0.7489 -0.2621
 1662SOL     OW16621   1.902   4.449   2.478 -0.0625  0.0380 -0.1524
 1662SOL    HW116622   1.877   4.358   2.463  1.3595 -0.4717  0.5499
 1662SOL    HW216623   1.820   4.488   2.508  0.2683  1.1712 -0.6915
 1663SOL     OW16624   3.629   2.544   3.131  0.1491 -0.3138 -0.2751
 1663SOL    HW116625   3.552   2.586   3.168  1.3748  1.4887  0.2683
 1663SOL    HW216626   3.614   2.449   3.129 -2.3632  0.0800  0.0356
 1664SOL     OW16627   4.589   2.090   6.735 -0.5072  0.2315  0.5399
 1664SOL    HW116628   4.529   2.138   6.677  1.8296 -0.0346 -2.0978
 1664SOL    HW216629   4.566   2.112   6.825  1.2615  1.2764  0.7180
 1665SOL     OW16630   3.157   3.782   9.743  0.2638  0.7684  0.0165
 1665SOL    HW116631   3.113   3.723   9.682  0.9054  0.9063 -0.5683
 1665SOL    HW216632   3.113   3.760   9.825  1.7254  0.4663  0.7249
 1666SOL     OW16633   2.982   0.079   2.118  0.1402 -0.6428 -0.0354
 1666SOL    HW116634   3.067   0.057   2.154  1.3974  3.6264 -0.4056
 1666SOL    HW216635   2.993   0.054   2.026 -0.6370  0.3140 -0.3949
 1667SOL     OW16636   0.293   3.720   6.321  0.4237 -0.5360 -0.2520
 1667SOL    HW116637   0.235   3.788   6.285  0.8940  0.7359  1.3782
 1667SOL    HW216638   0.230   3.687   6.385  0.9325  1.7458  1.4485
 1668SOL     OW16639   4.178   3.624  13.559 -0.5496  0.2714 -0.1620
 1668SOL    HW116640   4.105   3.669  13.518 -0.4663  1.5640  1.1316
 1668SOL    HW216641   4.143   3.618  13.648 -0.9023 -0.5393 -0.3563
 1669SOL     OW16642   2.482   3.583   8.217 -0.3687 -0.6215 -0.3827
 1669SOL    HW116643   2.478   3.678   8.231  1.3513 -0.6281  0.1509
 1669SOL    HW216644   2.437   3.554   8.296 -0.3535  2.0748  0.6142
 1670SOL     OW16645   2.168   2.796   7.873 -0.2531 -0.1343 -0.6122
 1670SOL    HW116646   2.095   2.767   7.927 -0.3600  1.8102  0.2976
 1670SOL    HW216647   2.223   2.718   7.874  1.0523  0.7883 -0.2896
 1671SOL     OW16648   2.807   4.208  14.728 -0.1522 -0.1007 -0.3570
 1671SOL    HW116649   2.741   4.254  14.779  0.3515  0.0670  0.1504
 1671SOL    HW216650   2.799   4.120  14.764 -0.7642 -0.9979 -2.7434
 1672SOL     OW16651   3.740   3.050   6.506 -0.4329  0.1326 -0.5785
 1672SOL    HW116652   3.795   2.999   6.565  0.6846  1.4837 -0.4616
 1672SOL    HW216653   3.745   3.020   6.415 -3.1863 -2.4799  0.1177
 1673SOL     OW16654   3.641   0.948   8.748  0.1588 -0.0309  0.4540
 1673SOL    HW116655   3.647   1.043   8.732  0.5435 -0.4996 -2.0561
 1673SOL    HW216656   3.567   0.935   8.689  2.0318  1.6143 -2.2509
 1674SOL     OW16657   2.478   1.615   5.913  0.0222  0.6828  0.5617
 1674SOL    HW116658   2.411   1.555   5.879  2.2108 -0.8277 -1.0938
 1674SOL    HW216659   2.471   1.686   5.850  0.9183  0.9846  0.8080
 1675SOL     OW16660   2.719   4.434   1.950  0.3957 -0.2638 -0.4678
 1675SOL    HW116661   2.787   4.397   2.006  0.1969  0.4257  0.2242
 1675SOL    HW216662   2.734   4.398   1.863 -0.9388 -1.2942 -0.2722
 1676SOL     OW16663   3.930   1.269   3.045 -0.8855  0.0245  0.1362
 1676SOL    HW116664   4.011   1.312   3.020 -0.8360 -0.2462 -0.1664
 1676SOL    HW216665   3.939   1.265   3.141 -0.6474  0.2872  0.1226
 1677SOL     OW16666   4.281   0.396   3.592 -0.0585 -0.5983  0.0422
 1677SOL    HW116667   4.346   0.430   3.532 -2.1977  1.7901 -0.9200
 1677SOL    HW216668   4.197   0.439   3.577  0.9185  1.2992  0.0356
 1678SOL     OW16669   3.891   2.469  16.293  0.4768  0.2256 -0.3752
 1678SOL    HW116670   3.879   2.422  16.375  0.1394  0.7812 -0.1111
 1678SOL    HW216671   3.935   2.405  16.237  0.6080  1.2071 -1.4037
 1679SOL     OW16672   2.917   3.409   5.627  0.3584  0.0835  0.2882
 1679SOL    HW116673   2.870   3.438   5.548 -1.0042 -0.0265  1.0552
 1679SOL    HW216674   2.950   3.493   5.657 -2.3556  1.2315  0.1078
 1680SOL     OW16675   1.485   0.579   1.742  0.5673 -0.0389  0.0230
 1680SOL    HW116676   1.581   0.579   1.744  0.6002 -0.3650 -1.3106
 1680SOL    HW216677   1.460   0.502   1.794 -1.0655  0.4704 -0.0152
 1681SOL     OW16678   0.503   3.819  12.682 -0.3594 -0.2240 -0.2597
 1681SOL    HW116679   0.408   3.835  12.679 -0.2789 -0.1438 -2.3116
 1681SOL    HW216680   0.537   3.890  12.627  2.5894  0.6614  2.6786
 1682SOL     OW16681   4.188   1.248   1.875  0.4770 -0.2735 -0.0113
 1682SOL    HW116682   4.098   1.275   1.890 -0.1044 -1.1150 -1.9621
 1682SOL    HW216683   4.176   1.229   1.782  1.8384  0.4573 -0.3283
 1683SOL     OW16684   1.594   4.293   5.135  0.2804 -0.0141 -0.5581
 1683SOL    HW116685   1.647   4.303   5.056 -2.4078 -0.7442 -2.4526
 1683SOL    HW216686   1.564   4.381   5.161 -0.3154 -0.4161  0.1129
 1684SOL     OW16687   4.061   0.861   4.421  0.8370  0.2501  0.1903
 1684SOL    HW116688   4.050   0.771   4.388 -1.2507  0.8225 -0.7002
 1684SOL    HW216689   4.023   0.916   4.352  0.2731  0.8741  1.0021
 1685SOL     OW16690   1.962   2.711   9.823  0.4076  0.2954  0.1664
 1685SOL    HW116691   1.955   2.791   9.772  2.8826  0.6681  0.4080
 1685SOL    HW216692   1.888   2.716   9.884 -0.2344 -0.6001 -0.5469
 1686SOL     OW16693   1.014   0.995   6.203 -0.6220 -0.0629  0.0126
 1686SOL    HW116694   0.977   0.938   6.270 -1.5499 -0.0234 -0.4757
 1686SOL    HW216695   1.031   1.071   6.258 -1.2965 -0.0372  0.1816
 1687SOL     OW16696   2.669   3.130   5.221 -0.2571  0.1377  0.6033
 1687SOL    HW116697   2.616   3.088   5.153 -0.5552 -1.2371  1.6962
 1687SOL    HW216698   2.688   3.216   5.183 -2.5214  0.3230 -0.1155
 1688SOL     OW16699   4.401   0.081   0.491  0.4474 -0.2403 -0.0071
 1688SOL    HW116700   4.436   0.147   0.551 -1.2931 -0.0814  0.8635
 1688SOL    HW216701   4.353   0.138   0.431 -0.1233 -0.9088 -0.1889
 1689SOL     OW16702   1.860   1.630   4.111 -0.2218  0.1183 -0.4167
 1689SOL    HW116703   1.819   1.572   4.046  1.4857 -0.1243 -1.2815
 1689SOL    HW216704   1.946   1.590   4.123 -0.2461 -0.1516 -1.1218
 1690SOL     OW16705   1.321   1.444  12.569  0.9231  0.1097 -0.0672
 1690SOL    HW116706   1.279   1.388  12.503  0.3964  0.0426  0.3187
 1690SOL    HW216707   1.413   1.437  12.546  0.8508  2.6252 -1.1578
 1691SOL     OW16708   0.410   0.964  17.290  0.3640  0.0909  0.0802
 1691SOL    HW116709   0.492   1.007  17.268  1.3706 -0.5273  2.5429
 1691SOL    HW216710   0.432   0.874  17.267  0.3759 -0.3495  1.7949
 1692SOL     OW16711   0.806   3.912  16.885  0.5392 -0.2868 -0.4213
 1692SOL    HW116712   0.827   3.994  16.839  0.9549  0.7359  1.6138
 1692SOL    HW216713   0.771   3.861  16.812 -2.2385 -0.2042  0.8722
 1693SOL     OW16714   0.194   3.561   2.668 -0.1262  0.3261  0.7337
 1693SOL    HW116715   0.186   3.467   2.657 -0.0537  0.3679  0.3520
 1693SOL    HW216716   0.105   3.588   2.691 -0.3890 -0.1942  0.3161
 1694SOL     OW16717   3.080   2.812   8.328 -0.2952  0.0767  0.2579
 1694SOL    HW116718   3.152   2.870   8.353 -1.2343  0.7117  1.4736
 1694SOL    HW216719   3.128   2.733   8.302  1.6085  0.8912  1.3072
 1695SOL     OW16720   3.983   1.844   4.003 -0.3034  0.2044  0.2434
 1695SOL    HW116721   3.970   1.749   4.009  1.9385 -0.2689 -2.2823
 1695SOL    HW216722   3.941   1.865   3.919  0.8838  1.6781  0.0222
 1696SOL     OW16723   2.374   2.972   8.033  0.2156  0.3111  0.0678
 1696SOL    HW116724   2.394   3.053   7.986 -1.1759 -1.5086 -3.7424
 1696SOL    HW216725   2.316   2.930   7.970  1.8822 -1.5853 -0.2191
 1697SOL     OW16726   0.254   0.588   6.484  0.2667  0.1700 -0.1276
 1697SOL    HW116727   0.269   0.666   6.430  1.9214 -0.0296  0.0379
 1697SOL    HW216728   0.311   0.520   6.447 -0.9875 -0.3196 -1.1575
 1698SOL     OW16729   1.585   0.021  17.151  0.3159  0.0321 -0.5259
 1698SOL    HW116730   1.506   0.070  17.126  1.5268  1.9648 -0.5441
 1698SOL    HW216731   1.646   0.047  17.082  0.0697  2.5724  0.1948
 1699SOL     OW16732   3.983   4.009  12.967  0.0496 -0.0063  0.5413
 1699SOL    HW116733   3.932   3.930  12.949 -0.0326  0.3218 -0.6610
 1699SOL    HW216734   3.917   4.059  13.015 -1.4636  1.2623 -2.8243
 1700SOL     OW16735   1.999   2.645   8.936 -0.0789 -0.4130  0.1941
 1700SOL    HW116736   2.032   2.666   9.023  1.4105 -0.0241 -0.4670
 1700SOL    HW216737   1.915   2.690   8.930  0.9775  1.2504 -2.4406
 1701SOL     OW16738   1.996   3.312  15.468 -0.1962 -0.0731 -0.0533
 1701SOL    HW116739   1.981   3.254  15.543 -1.3571 -0.5923 -0.6835
 1701SOL    HW216740   1.943   3.390  15.483  2.5668  2.1405 -1.7285
 1702SOL     OW16741   2.965   3.956   8.402  0.3976 -0.8307  0.1982
 1702SOL    HW116742   2.945   3.899   8.328 -1.1928 -1.4410  1.1058
 1702SOL    HW216743   3.059   3.940   8.409  0.7292  0.5573 -1.1364
 1703SOL     OW16744   1.570   4.452   6.125  0.4946 -0.3914  0.3643
 1703SOL    HW116745   1.504   4.384   6.139 -0.6805  1.3762  3.4769
 1703SOL    HW216746   1.639   4.437   6.189  0.8915  1.1945  0.3230
 1704SOL     OW16747   3.850   1.150  10.558  0.7188  0.0725  0.5919
 1704SOL    HW116748   3.791   1.076  10.551  2.5810 -1.5232  1.8426
 1704SOL    HW216749   3.839   1.186  10.470 -0.2141 -1.3663  0.1261
 1705SOL     OW16750   2.593   1.782   5.285 -0.4495  0.9336  0.0223
 1705SOL    HW116751   2.601   1.736   5.202  0.5132 -0.2911  0.7973
 1705SOL    HW216752   2.544   1.863   5.268 -1.3273  0.5830  0.8451
 1706SOL     OW16753   4.409   3.517   8.363 -0.2780  0.0081 -0.2892
 1706SOL    HW116754   4.441   3.606   8.376 -0.3904  0.3197 -2.1653
 1706SOL    HW216755   4.315   3.532   8.377 -0.1376  1.3794 -0.8818
 1707SOL     OW16756   3.155   1.987  17.457 -0.5951  0.3581  0.0699
 1707SOL    HW116757   3.098   2.060  17.484  0.0731  0.9347 -0.0859
 1707SOL    HW216758   3.200   1.970  17.540 -0.1256  1.0645 -0.0344
 1708SOL     OW16759   1.698   3.742  14.839 -0.5081  0.0642  0.2750
 1708SOL    HW116760   1.629   3.768  14.778 -1.0020  0.6805  1.0919
 1708SOL    HW216761   1.775   3.793  14.814 -1.7450  1.5522 -0.4980
 1709SOL     OW16762   0.700   0.656   4.475 -0.3702 -0.0490 -0.9406
 1709SOL    HW116763   0.736   0.736   4.512 -0.2441 -0.8439  0.6863
 1709SOL    HW216764   0.681   0.612   4.558  1.6555  0.8545  0.0001
 1710SOL     OW16765   0.133   4.515  10.655 -0.3124 -0.5943 -0.1977
 1710SOL    HW116766   0.150   4.561  10.737  0.1097 -0.6362 -0.2619
 1710SOL    HW216767   0.218   4.517  10.612 -1.4900  1.1145 -2.4378
 1711SOL     OW16768   3.749   4.524   1.587  0.2091 -0.2399  0.0943
 1711SOL    HW116769   3.726   4.431   1.594  0.4301 -0.2224  1.0626
 1711SOL    HW216770   3.844   4.515   1.587  0.2877  0.5890  0.2283
 1712SOL     OW16771   3.411   4.467   1.779  0.0359  0.1797  0.3575
 1712SOL    HW116772   3.491   4.515   1.796 -0.8255  1.5641  0.4888
 1712SOL    HW216773   3.409   4.393   1.840 -0.5476  0.3280  0.5207
 1713SOL     OW16774   1.925   0.023   5.600  0.2322  0.1283 -0.2931
 1713SOL    HW116775   1.886   0.041   5.686  1.7903  0.1094  0.4175
 1713SOL    HW216776   1.867   0.075   5.543  0.5088 -0.0505 -0.7350
 1714SOL     OW16777   4.503   2.853   8.139 -0.6717 -0.2770 -0.3330
 1714SOL    HW116778   4.422   2.888   8.174 -0.3401  0.0659  0.0871
 1714SOL    HW216779   4.558   2.829   8.213  1.0506  0.1422 -1.4487
 1715SOL     OW16780   0.324   2.880  12.843 -0.2008  0.1793  0.0998
 1715SOL    HW116781   0.298   2.969  12.822 -1.1090 -0.0855  0.1060
 1715SOL    HW216782   0.377   2.898  12.920  1.6949 -0.3696 -1.0810
 1716SOL     OW16783   1.274   4.346  17.675 -0.5298 -0.1933  0.2543
 1716SOL    HW116784   1.196   4.360  17.621  0.4764  0.3980 -1.0498
 1716SOL    HW216785   1.324   4.425  17.655  0.7636 -1.5602 -1.9080
 1717SOL     OW16786   2.448   1.932   2.104  0.1391 -0.7543 -0.2973
 1717SOL    HW116787   2.517   1.868   2.092  0.7879 -0.4739  2.0006
 1717SOL    HW216788   2.437   1.932   2.199  1.4485  0.3768 -0.1448
 1718SOL     OW16789   3.630   1.196   4.953  0.4554  0.1726 -0.1132
 1718SOL    HW116790   3.680   1.278   4.953  1.3386 -0.3683  0.4113
 1718SOL    HW216791   3.546   1.213   4.996 -0.3600 -0.8084 -1.2997
 1719SOL     OW16792   1.648   0.669   0.469 -0.1233 -0.1000 -0.5830
 1719SOL    HW116793   1.555   0.645   0.462  0.4783 -2.5899  0.1582
 1719SOL    HW216794   1.690   0.657   0.383 -0.0433  0.9285 -0.6833
 1720SOL     OW16795   1.824   4.032   4.632  0.0028  0.1187  0.0731
 1720SOL    HW116796   1.845   3.939   4.636 -1.9694 -0.2915  1.0179
 1720SOL    HW216797   1.826   4.055   4.725  2.2500  0.8012 -0.1529
 1721SOL     OW16798   4.483   1.014   4.323 -0.0579 -0.0799  0.4499
 1721SOL    HW116799   4.476   0.919   4.312 -0.3608  0.2255 -2.0011
 1721SOL    HW216800   4.563   1.034   4.273  0.0319 -0.8055  0.3008
 1722SOL     OW16801   2.808   3.475   4.478 -0.7716 -0.7291  0.0582
 1722SOL    HW116802   2.729   3.435   4.443 -0.3046 -0.7533 -0.9638
 1722SOL    HW216803   2.780   3.507   4.564 -0.4121  1.4918 -0.6301
 1723SOL     OW16804   3.433   2.931   2.591  0.3525  0.0747 -0.3446
 1723SOL    HW116805   3.340   2.913   2.605  1.0972 -2.4123  1.3863
 1723SOL    HW216806   3.428   3.021   2.560 -1.3324 -0.2123 -0.8989
 1724SOL     OW16807   2.169   3.885   5.035  0.2266 -0.7539  0.5422
 1724SOL    HW116808   2.093   3.831   5.017  1.9726 -2.5031 -1.5284
 1724SOL    HW216809   2.167   3.891   5.131 -2.2809  0.0158  0.4362
 1725SOL     OW16810   2.408   1.686   7.234  0.1680  0.0436 -0.5322
 1725SOL    HW116811   2.465   1.755   7.200  2.3057 -2.4381 -1.9771
 1725SOL    HW216812   2.352   1.746   7.285 -1.5893 -3.2615  1.4360
 1726SOL     OW16813   4.734   1.125  12.782  0.3354  0.0521 -0.2472
 1726SOL    HW116814   0.078   1.146  12.828 -1.1809  0.1456  2.4048
 1726SOL    HW216815   4.715   1.209  12.740 -0.4419 -1.3393 -2.6572
 1727SOL     OW16816   0.829   2.081  16.680  0.4706 -0.1519  0.0731
 1727SOL    HW116817   0.863   2.147  16.739  2.4070 -0.2485 -0.9367
 1727SOL    HW216818   0.913   2.039  16.660  1.1594  1.4415 -0.3586
 1728SOL     OW16819   1.420   1.309   3.952 -0.5624 -0.0685  0.3414
 1728SOL    HW116820   1.384   1.332   4.037 -0.7349  2.2320 -0.3503
 1728SOL    HW216821   1.479   1.239   3.978 -0.0507 -0.2186 -1.1816
 1729SOL     OW16822   2.392   2.000  16.290 -0.1673 -0.9720  0.5218
 1729SOL    HW116823   2.352   2.036  16.211 -2.3930 -0.5642  1.8166
 1729SOL    HW216824   2.329   1.997  16.362 -1.0913  1.8922 -0.1805
 1730SOL     OW16825   2.937   4.229   8.413 -0.5269  0.3443 -0.4892
 1730SOL    HW116826   2.867   4.210   8.351  0.0352 -1.5088 -0.5338
 1730SOL    HW216827   2.962   4.141   8.441 -0.1895  0.3858 -0.6487
 1731SOL     OW16828   2.097   2.076   3.089 -0.0277  0.6130  0.6027
 1731SOL    HW116829   2.162   2.147   3.087 -0.1792  0.7597  0.8816
 1731SOL    HW216830   2.035   2.117   3.150  0.4100  1.5419  0.4350
 1732SOL     OW16831   4.106   0.653   3.455  0.3298 -0.1613 -0.7744
 1732SOL    HW116832   4.070   0.646   3.544  4.5079  3.0795  1.1529
 1732SOL    HW216833   4.169   0.725   3.450 -2.8495  2.7753  1.1954
 1733SOL     OW16834   2.891   0.156   2.673  0.1814 -0.4915  0.1813
 1733SOL    HW116835   2.909   0.079   2.726  0.9986 -0.2004  0.3367
 1733SOL    HW216836   2.948   0.138   2.599 -1.5257  0.6980 -1.4199
 1734SOL     OW16837   3.168   2.044   3.864 -0.5495 -0.1652  0.2521
 1734SOL    HW116838   3.087   2.077   3.902  0.2601  2.5796 -0.4392
 1734SOL    HW216839   3.216   2.026   3.946  0.6768 -1.5860 -0.7682
 1735SOL     OW16840   2.186   0.409   2.386 -0.3337  0.2421  1.3176
 1735SOL    HW116841   2.216   0.332   2.433  2.1637 -0.0972 -0.8345
 1735SOL    HW216842   2.204   0.486   2.441 -2.6901  1.0479  0.9819
 1736SOL     OW16843   1.570   3.863   5.987  0.8243 -0.3761  0.7051
 1736SOL    HW116844   1.601   3.810   6.060  0.1997  0.4097  1.5297
 1736SOL    HW216845   1.572   3.949   6.028  1.1832  0.6742 -1.4889
 1737SOL     OW16846   0.341   4.258   9.483 -0.5103  0.3488  0.2323
 1737SOL    HW116847   0.430   4.261   9.447 -0.0486 -2.2264  1.2007
 1737SOL    HW216848   0.341   4.176   9.532 -0.6345 -0.1602 -0.6266
 1738SOL     OW16849   3.252   4.336   5.565 -0.6871 -0.4989  0.3615
 1738SOL    HW116850   3.182   4.401   5.564 -0.7912 -0.5901  1.9292
 1738SOL    HW216851   3.247   4.317   5.471 -1.4093 -1.6288  0.6190
 1739SOL     OW16852   4.138   2.669   7.393 -0.0411  0.5327 -0.6623
 1739SOL    HW116853   4.071   2.705   7.336  1.7931 -0.1299 -3.2203
 1739SOL    HW216854   4.194   2.746   7.388  0.3124  0.1503 -2.3541
 1740SOL     OW16855   2.524   2.122   1.927 -0.4507 -0.3447  0.0765
 1740SOL    HW116856   2.498   2.047   1.981  1.2075 -0.2787  0.9770
 1740SOL    HW216857   2.590   2.078   1.874  1.1271  2.0010  0.1014
 1741SOL     OW16858   1.776   3.063   4.342 -0.2582 -0.2182  0.4934
 1741SOL    HW116859   1.829   3.085   4.419  0.2051 -2.4381  0.8179
 1741SOL    HW216860   1.844   3.060   4.274 -1.7033 -1.0639 -0.9027
 1742SOL     OW16861   2.387   2.220  17.561 -0.5664 -0.1742 -0.1216
 1742SOL    HW116862   2.475   2.220  17.598 -0.6456 -0.0473  0.0641
 1742SOL    HW216863   2.335   2.213  17.641  0.4887 -1.3361  0.4633
 1743SOL     OW16864   0.659   0.813  13.330  0.0190 -0.1269  0.1258
 1743SOL    HW116865   0.591   0.811  13.262  2.4686  1.3324 -2.3381
 1743SOL    HW216866   0.714   0.890  13.316  2.0160 -1.4360  0.8678
 1744SOL     OW16867   1.403   3.634   6.715  0.1113 -0.2770 -0.0490
 1744SOL    HW116868   1.364   3.595   6.637  0.8549 -0.6406 -0.2373
 1744SOL    HW216869   1.326   3.666   6.763 -0.5164 -0.7306 -0.7555
 1745SOL     OW16870   1.126   1.892  14.306 -0.3237 -0.0968  0.5350
 1745SOL    HW116871   1.039   1.852  14.299  0.6126 -1.9978 -0.3087
 1745SOL    HW216872   1.128   1.925  14.396 -4.3179  1.2821  0.1144
 1746SOL     OW16873   1.690   1.749   5.246 -0.0167 -0.1360  0.2690
 1746SOL    HW116874   1.675   1.658   5.273  1.5839  0.1259  2.0250
 1746SOL    HW216875   1.626   1.759   5.176  0.5430 -0.3674 -0.2700
 1747SOL     OW16876   3.537   0.032   3.154  0.0613 -0.1774  0.1080
 1747SOL    HW116877   3.622   4.732   3.132  0.6800  1.4498 -0.2922
 1747SOL    HW216878   3.495   0.031   3.068  0.0081  1.7036  0.1168
 1748SOL     OW16879   4.326   3.191   7.053  0.1095 -0.5878  0.0155
 1748SOL    HW116880   4.231   3.183   7.052 -0.0210  1.0499 -0.9571
 1748SOL    HW216881   4.347   3.124   6.988 -0.2939 -0.2090 -0.5061
 1749SOL     OW16882   4.188   3.915   7.913 -0.2699  0.3482 -0.5457
 1749SOL    HW116883   4.264   3.954   7.869  0.2283  0.1644  0.1438
 1749SOL    HW216884   4.119   3.972   7.879 -0.3848  1.8070  2.1243
 1750SOL     OW16885   3.493   3.713   8.094  0.1254  0.0029 -0.4858
 1750SOL    HW116886   3.466   3.759   8.014 -1.5840 -0.1940 -0.0215
 1750SOL    HW216887   3.482   3.780   8.161  1.3226 -1.2539  0.9411
 1751SOL     OW16888   2.700   3.787   4.678  0.0960 -0.3913 -0.2883
 1751SOL    HW116889   2.653   3.703   4.684  0.4723 -0.3955  2.3262
 1751SOL    HW216890   2.693   3.800   4.583  0.8178  0.1708 -0.2582
 1752SOL     OW16891   2.428   4.187   4.112 -0.7498  0.0674  0.2570
 1752SOL    HW116892   2.389   4.264   4.153 -0.2948  0.7385 -0.5584
 1752SOL    HW216893   2.389   4.179   4.025 -1.5074  0.4218  0.5651
 1753SOL     OW16894   4.041   1.207   4.830 -0.3697  0.0487  0.1815
 1753SOL    HW116895   3.997   1.287   4.803 -1.3611 -0.5335  0.0817
 1753SOL    HW216896   4.017   1.144   4.763  0.4941  1.4836 -1.4663
 1754SOL     OW16897   3.587   0.160   7.493  0.0700 -0.2022  0.0189
 1754SOL    HW116898   3.628   0.147   7.408 -1.0165  1.0768 -0.6990
 1754SOL    HW216899   3.602   0.073   7.531  4.1716  0.9103  0.8913
 1755SOL     OW16900   1.635   2.638  16.288  0.0168  0.1728  0.8781
 1755SOL    HW116901   1.625   2.689  16.368  3.0994 -1.1512  2.1024
 1755SOL    HW216902   1.593   2.691  16.220  3.1410  0.4579 -0.7878
 1756SOL     OW16903   1.017   4.351   1.198  0.0968 -0.3461  1.2326
 1756SOL    HW116904   1.058   4.344   1.111 -1.9221  0.1321  0.2461
 1756SOL    HW216905   0.983   4.261   1.193 -0.5739  0.1689 -4.0393
 1757SOL     OW16906   1.995   3.569   8.605  0.0037 -0.2822  0.1446
 1757SOL    HW116907   1.911   3.591   8.564  0.2276 -0.1987 -0.2759
 1757SOL    HW216908   1.976   3.482   8.640 -3.2471  0.5056  0.2950
 1758SOL     OW16909   3.250   1.996   6.285  0.4017 -0.2669  0.3300
 1758SOL    HW116910   3.238   1.901   6.298  2.2274 -0.2145  2.4254
 1758SOL    HW216911   3.240   2.001   6.190  0.3187 -3.0585  0.1833
 1759SOL     OW16912   3.556   1.110  12.372  0.3611 -0.6532 -0.5509
 1759SOL    HW116913   3.639   1.158  12.380 -0.0511  0.3363 -2.1813
 1759SOL    HW216914   3.495   1.183  12.385  0.8106 -0.6382  1.4098
 1760SOL     OW16915   3.135   2.677  11.659  0.2557 -0.5225  0.7052
 1760SOL    HW116916   3.213   2.712  11.616 -2.0938  0.7370 -2.5956
 1760SOL    HW216917   3.158   2.592  11.696 -0.5052 -1.7709 -1.6723
 1761SOL     OW16918   4.676   1.473  12.955 -0.5630 -0.3507  0.1878
 1761SOL    HW116919   4.604   1.421  12.990 -0.9146 -0.3691 -0.5749
 1761SOL    HW216920   4.661   1.470  12.861  0.6573  0.7823 -0.0547
 1762SOL     OW16921   0.609   3.111   3.463 -0.6040 -0.6000 -0.1036
 1762SOL    HW116922   0.581   3.068   3.544  0.3525  0.9544  1.0726
 1762SOL    HW216923   0.696   3.131   3.498 -1.3905 -0.4740  1.8140
 1763SOL     OW16924   2.867   1.836   8.628  0.0322  0.2338 -0.4210
 1763SOL    HW116925   2.959   1.811   8.640  0.0925  0.8568  0.4727
 1763SOL    HW216926   2.831   1.817   8.715 -0.8777 -0.8404 -1.0323
 1764SOL     OW16927   4.196   3.865  12.844 -0.7648  0.1094 -0.6955
 1764SOL    HW116928   4.197   3.813  12.924 -2.0434  0.5212 -0.4118
 1764SOL    HW216929   4.138   3.937  12.868 -0.8578 -0.4803  0.8652
 1765SOL     OW16930   0.570   3.878   9.248  0.1753 -0.3929 -0.4659
 1765SOL    HW116931   0.501   3.813   9.260 -1.1232  1.0298 -0.1495
 1765SOL    HW216932   0.516   3.950   9.213 -1.3635 -1.2232  0.1928
 1766SOL     OW16933   0.381   1.014  12.822 -0.4944  0.1578 -0.4569
 1766SOL    HW116934   0.399   0.948  12.756 -0.5554  0.7509 -1.0705
 1766SOL    HW216935   0.446   0.990  12.888 -0.8505  1.2826  0.3267
 1767SOL     OW16936   1.426   2.225  10.922 -0.5244 -0.2347  0.6109
 1767SOL    HW116937   1.502   2.175  10.952 -0.9469  0.0216  2.0859
 1767SOL    HW216938   1.451   2.257  10.835 -2.8261  0.6554  0.2824
 1768SOL     OW16939   2.125   1.264   8.466  0.4020 -0.0366  0.0986
 1768SOL    HW116940   2.086   1.222   8.544  0.1030 -0.3998 -0.2473
 1768SOL    HW216941   2.202   1.210   8.450  0.1553 -0.2239 -0.4227
 1769SOL     OW16942   0.879   2.257   5.245  0.2359  0.0456 -0.1157
 1769SOL    HW116943   0.885   2.204   5.324 -0.7002 -0.5969 -0.4641
 1769SOL    HW216944   0.970   2.281   5.232 -0.2260  1.2930 -1.0225
 1770SOL     OW16945   1.155   3.729   2.665 -0.3951 -0.2754  0.2199
 1770SOL    HW116946   1.221   3.659   2.661  0.5680  0.7054 -0.7297
 1770SOL    HW216947   1.102   3.707   2.589 -0.0631  2.0197 -0.6527
 1771SOL     OW16948   2.454   0.196   3.924 -0.3224  0.4152 -0.0915
 1771SOL    HW116949   2.526   0.155   3.972  0.7131  1.6773 -0.5734
 1771SOL    HW216950   2.501   0.225   3.846  1.4932 -0.9596  0.4881
 1772SOL     OW16951   1.757   1.307  15.200  0.1393 -0.6265 -0.2102
 1772SOL    HW116952   1.818   1.363  15.249 -0.2609  0.6380 -1.1457
 1772SOL    HW216953   1.706   1.368  15.147  1.3857  1.4227  0.9303
 1773SOL     OW16954   4.505   0.797  13.196  0.1492 -0.2176  0.2195
 1773SOL    HW116955   4.530   0.866  13.257  2.0702 -0.9353  0.2330
 1773SOL    HW216956   4.561   0.727  13.228  2.4449  0.9780 -1.2143
 1774SOL     OW16957   0.522   0.994   6.226 -0.7931 -0.6346 -0.3799
 1774SOL    HW116958   0.579   0.928   6.187 -0.5793 -0.7153  0.0610
 1774SOL    HW216959   0.567   1.029   6.304 -0.6755 -3.3833  0.7752
 1775SOL     OW16960   2.503   1.897   1.033 -0.0263 -0.5871 -0.6059
 1775SOL    HW116961   2.565   1.825   1.030  2.5816  1.6024  1.1192
 1775SOL    HW216962   2.449   1.870   0.959  1.4845 -0.2067 -1.8338
 1776SOL     OW16963   3.350   0.020   6.632 -0.0632 -0.0063  0.4187
 1776SOL    HW116964   3.334   0.036   6.539  0.8080 -2.8367 -0.2164
 1776SOL    HW216965   3.422   4.695   6.624 -1.7610 -1.7654 -0.9719
 1777SOL     OW16966   0.984   1.111  17.451  0.3589  0.0031 -0.2155
 1777SOL    HW116967   1.044   1.036  17.455  1.5231  0.8782 -1.2997
 1777SOL    HW216968   0.976   1.113  17.355 -1.0863  0.1577 -0.0780
 1778SOL     OW16969   2.416   0.552   6.210  0.1839 -0.1799  0.4985
 1778SOL    HW116970   2.498   0.508   6.189  0.0331 -0.1237 -0.2032
 1778SOL    HW216971   2.385   0.477   6.261  1.0003 -0.8072  0.0768
 1779SOL     OW16972   1.031   1.741   1.749  0.4015  0.2945 -0.5765
 1779SOL    HW116973   1.059   1.803   1.681 -1.0216  1.2287 -0.3033
 1779SOL    HW216974   1.116   1.703   1.774  0.9400  0.3937 -2.2328
 1780SOL     OW16975   1.432   2.536   6.878 -0.5713  0.3275 -0.8200
 1780SOL    HW116976   1.449   2.511   6.968 -0.8485  0.2728 -0.7838
 1780SOL    HW216977   1.522   2.551   6.850 -0.7980  0.9829 -1.2078
 1781SOL     OW16978   4.726   1.520   3.067  0.3390  0.4505  0.3581
 1781SOL    HW116979   4.650   1.509   3.009  0.4691 -0.7935  0.4326
 1781SOL    HW216980   0.057   1.511   3.001 -0.3685 -0.8152 -0.1886
 1782SOL     OW16981   1.377   3.326   6.066 -0.2000 -0.2413  0.0155
 1782SOL    HW116982   1.398   3.386   5.995  0.6957 -0.5131  0.0486
 1782SOL    HW216983   1.285   3.303   6.053 -0.6189  0.8448  1.0666
 1783SOL     OW16984   2.687   3.666   9.518 -0.1999  0.1567 -0.3568
 1783SOL    HW116985   2.688   3.667   9.422 -3.5848  1.1715 -0.3768
 1783SOL    HW216986   2.768   3.706   9.549 -0.3388 -0.5532  0.9316
 1784SOL     OW16987   1.556   0.297   5.106 -0.2858 -0.1453 -0.1193
 1784SOL    HW116988   1.568   0.384   5.144 -1.4773  0.5314 -1.2840
 1784SOL    HW216989   1.648   0.272   5.097  0.2478  1.3671  1.1587
 1785SOL     OW16990   4.607   0.287   4.928  0.1173 -0.0539  0.1593
 1785SOL    HW116991   4.694   0.309   4.961  0.5101 -2.1347  0.5120
 1785SOL    HW216992   4.620   0.303   4.835 -0.7076  1.0433  0.2391
 1786SOL     OW16993   3.085   2.710   2.889  0.4006  0.4153 -0.5699
 1786SOL    HW116994   3.015   2.645   2.903  1.7347 -1.0986 -0.9887
 1786SOL    HW216995   3.145   2.653   2.841  1.9662  0.3403  1.4875
 1787SOL     OW16996   1.632   1.512  15.883  0.0765  0.2567 -0.0363
 1787SOL    HW116997   1.633   1.570  15.807 -1.1041  0.0384 -0.2184
 1787SOL    HW216998   1.717   1.471  15.868 -1.5501 -1.7879 -3.3956
 1788SOL     OW16999   1.679   0.591   0.197 -0.3366 -0.2244  0.2764
 1788SOL    HW117000   1.618   0.654   0.159 -0.8840 -1.7907 -1.4464
 1788SOL    HW217001   1.689   0.529   0.125 -0.8260  1.5926 -1.3576
 1789SOL     OW17002   3.277   1.334   3.560 -0.4571  0.5001  0.1021
 1789SOL    HW117003   3.339   1.295   3.499  1.5554  1.7670  1.3212
 1789SOL    HW217004   3.273   1.428   3.540  1.6781  0.8213  1.2024
 1790SOL     OW17005   2.527   1.801   4.104 -0.1762 -0.1098 -0.1093
 1790SOL    HW117006   2.604   1.836   4.148 -0.2922  2.5488 -1.9821
 1790SOL    HW217007   2.460   1.869   4.092 -0.4279 -0.0628  1.6108
 1791SOL     OW17008   3.866   2.759   8.414  0.1401 -0.0367 -0.0523
 1791SOL    HW117009   3.893   2.847   8.387  1.1394 -0.6935 -1.1533
 1791SOL    HW217010   3.950   2.713   8.410 -0.0309 -0.0863 -2.6307
 1792SOL     OW17011   1.352   4.355   0.842  0.7316 -0.3186  0.3943
 1792SOL    HW117012   1.376   4.403   0.921  1.8092  0.2467 -0.2757
 1792SOL    HW217013   1.436   4.313   0.827  1.4266  0.4771  2.0517
 1793SOL     OW17014   0.073   2.903  12.692  0.4493 -0.8217 -0.2746
 1793SOL    HW117015   0.107   2.988  12.662 -1.6268  0.6392  1.5042
 1793SOL    HW217016   0.134   2.885  12.763 -0.6468 -0.6778  0.7101
 1794SOL     OW17017   1.181   4.149   3.213 -0.3063 -0.1564 -0.1012
 1794SOL    HW117018   1.221   4.230   3.244  0.4974 -0.3751 -0.5556
 1794SOL    HW217019   1.196   4.085   3.283 -1.6389 -0.1154  0.2247
 1795SOL     OW17020   3.265   0.153   4.994 -0.0583 -0.0174 -0.6304
 1795SOL    HW117021   3.324   0.099   4.942 -0.4161 -0.5998 -0.4216
 1795SOL    HW217022   3.199   0.185   4.932 -0.7438  1.0413  0.6269
 1796SOL     OW17023   2.757   1.654   2.932  0.0396 -0.3888  0.1128
 1796SOL    HW117024   2.717   1.576   2.894  1.5241 -0.3477 -1.5364
 1796SOL    HW217025   2.783   1.708   2.857 -2.1112 -0.1014 -0.4344
 1797SOL     OW17026   1.721   4.634   2.205 -0.2553 -0.1770 -0.0115
 1797SOL    HW117027   1.747   4.726   2.212  1.1467 -0.4467 -1.6040
 1797SOL    HW217028   1.661   4.637   2.130 -0.0335  2.0917 -0.1047
 1798SOL     OW17029   3.500   4.097   6.022 -0.2811  0.0733 -0.3554
 1798SOL    HW117030   3.504   4.094   5.927 -0.7715  0.2436 -0.3798
 1798SOL    HW217031   3.530   4.187   6.038 -0.3046 -0.2643  1.6073
 1799SOL     OW17032   1.444   4.047   8.265 -0.6663  0.1049 -0.2185
 1799SOL    HW117033   1.522   4.010   8.223 -0.1424 -0.0116  0.8440
 1799SOL    HW217034   1.476   4.131   8.299 -2.2666  1.0782 -1.1199
 1800SOL     OW17035   1.563   0.404   9.452 -0.0005  0.4992  0.2927
 1800SOL    HW117036   1.616   0.331   9.418 -1.1822  1.1767 -3.0208
 1800SOL    HW217037   1.589   0.397   9.544  2.0252 -1.3785 -0.4141
 1801SOL     OW17038   1.457   3.802   7.215  0.8637 -0.7494  0.0304
 1801SOL    HW117039   1.428   3.829   7.302  0.7010  0.8778 -0.5298
 1801SOL    HW217040   1.377   3.803   7.163 -0.2508 -0.6955  1.7268
 1802SOL     OW17041   4.396   3.120   8.930 -0.4741  0.0800  0.2335
 1802SOL    HW117042   4.464   3.185   8.914 -0.5869  0.3639  0.9252
 1802SOL    HW217043   4.377   3.091   8.840 -1.1204  1.4531 -0.0634
 1803SOL     OW17044   3.248   1.630   7.518  0.3384  0.0598  0.0949
 1803SOL    HW117045   3.216   1.541   7.534 -0.0128  0.2112  0.2189
 1803SOL    HW217046   3.246   1.638   7.423 -0.6978 -0.5053  0.0744
 1804SOL     OW17047   0.166   2.256   9.841  0.2031  0.7448 -0.6181
 1804SOL    HW117048   0.260   2.268   9.853  0.2482 -0.4799  0.2599
 1804SOL    HW217049   0.129   2.263   9.929 -1.5852 -0.8567 -1.2256
 1805SOL     OW17050   4.029   1.887  10.921 -0.2495 -0.0570  0.3328
 1805SOL    HW117051   3.993   1.888  10.833 -1.8255 -1.7059  0.9564
 1805SOL    HW217052   4.007   1.795  10.937 -0.3267  0.2247  1.8749
 1806SOL     OW17053   1.431   2.992   7.740 -0.1010 -0.3730 -0.0963
 1806SOL    HW117054   1.470   2.915   7.782 -0.8220 -0.5779  0.2104
 1806SOL    HW217055   1.396   2.949   7.662 -2.0049  0.4764  0.2743
 1807SOL     OW17056   1.450   4.257   7.227  0.0230 -0.1333  0.1101
 1807SOL    HW117057   1.418   4.174   7.260 -2.0626 -0.1321 -1.8477
 1807SOL    HW217058   1.454   4.307   7.308 -0.3181 -0.6154  0.4196
 1808SOL     OW17059   0.607   1.768   4.177 -0.0696 -0.2273  0.1028
 1808SOL    HW117060   0.593   1.857   4.145  1.7044  0.2619  0.6332
 1808SOL    HW217061   0.545   1.783   4.249  0.8491 -0.0913  0.8775
 1809SOL     OW17062   2.888   0.451   5.026  0.1958 -0.5182  0.3270
 1809SOL    HW117063   2.913   0.435   5.117  1.3708 -1.6669 -0.1967
 1809SOL    HW217064   2.974   0.491   5.015  0.4770 -1.9995 -2.8304
 1810SOL     OW17065   4.654   1.866   3.594  0.5774 -0.1428  0.5968
 1810SOL    HW117066   4.659   1.806   3.668  0.8796 -0.5816  0.2200
 1810SOL    HW217067   4.599   1.815   3.534  1.2669  0.1344 -0.2723
 1811SOL     OW17068   4.598   4.070  12.891 -0.2855 -0.1062 -0.1296
 1811SOL    HW117069   4.573   3.985  12.854 -1.7720  0.8779 -1.3368
 1811SOL    HW217070   4.524   4.087  12.949 -1.3057 -0.2806 -1.3806
 1812SOL     OW17071   1.957   3.840   7.931 -0.3425  0.5634  0.4050
 1812SOL    HW117072   1.951   3.807   8.021 -2.3509 -1.7410 -0.5891
 1812SOL    HW217073   1.870   3.832   7.891 -0.6997  0.3301  1.2286
 1813SOL     OW17074   4.633   2.159  16.724  0.2440 -0.4014 -0.1557
 1813SOL    HW117075   4.642   2.245  16.684 -0.5038 -1.3027 -2.2310
 1813SOL    HW217076   4.540   2.142  16.707  0.1422  0.2623 -0.2877
 1814SOL     OW17077   1.491   3.219  15.301 -0.4213 -0.0401  0.9055
 1814SOL    HW117078   1.516   3.296  15.250  0.7160 -0.2049  1.2143
 1814SOL    HW217079   1.416   3.178  15.258  0.1824 -1.4175  1.1586
 1815SOL     OW17080   1.877   1.329   7.987 -0.3436 -0.1116 -0.0962
 1815SOL    HW117081   1.946   1.369   7.934 -1.6865 -0.8373 -2.3750
 1815SOL    HW217082   1.929   1.305   8.064 -1.1848  0.8895  0.7928
 1816SOL     OW17083   1.873   0.750   2.016  0.0697  0.0676  0.3162
 1816SOL    HW117084   1.949   0.715   1.971 -0.1725  1.6210 -1.2877
 1816SOL    HW217085   1.885   0.842   1.990  2.0944 -0.3958 -0.3597
 1817SOL     OW17086   0.354   2.641   7.026 -0.4005  0.3368 -0.6068
 1817SOL    HW117087   0.422   2.680   6.971 -1.6244  2.0613 -0.8647
 1817SOL    HW217088   0.285   2.706   7.036  1.7417  2.8689 -2.2634
 1818SOL     OW17089   0.849   3.183   8.798 -0.4269 -0.6488  0.6228
 1818SOL    HW117090   0.809   3.254   8.847 -0.5209  0.8887 -1.6879
 1818SOL    HW217091   0.918   3.227   8.749 -0.6789 -0.1247  0.7447
 1819SOL     OW17092   2.721   4.537   7.182  0.5345  0.7320  0.2327
 1819SOL    HW117093   2.729   4.482   7.105 -1.6387 -0.8491  1.1370
 1819SOL    HW217094   2.788   4.604   7.169 -1.9901  3.7288  2.7452
 1820SOL     OW17095   4.657   2.983   9.567  0.0370  0.3290 -0.9680
 1820SOL    HW117096   4.707   2.936   9.633 -0.4841  1.3262  0.1213
 1820SOL    HW217097   4.722   3.047   9.541  1.6335 -1.4212 -1.2670
 1821SOL     OW17098   1.941   3.645   9.224  0.2170 -0.4261 -0.1472
 1821SOL    HW117099   1.939   3.701   9.302 -2.0928  0.9293 -1.1754
 1821SOL    HW217100   1.849   3.628   9.204  0.3697  1.8826 -2.7538
 1822SOL     OW17101   0.706   2.464   7.111  0.1757 -0.2935 -0.0319
 1822SOL    HW117102   0.655   2.418   7.044  1.0978  1.3882 -1.8636
 1822SOL    HW217103   0.660   2.546   7.129 -0.0536 -0.3397 -0.4245
 1823SOL     OW17104   2.903   0.983  17.283  0.3088  0.3313  0.4042
 1823SOL    HW117105   2.963   0.920  17.322 -2.7963 -2.9991 -0.2032
 1823SOL    HW217106   2.823   0.961  17.331  0.6011  0.5025  0.9676
 1824SOL     OW17107   3.805   4.369   3.552 -0.0525  0.1974 -0.1247
 1824SOL    HW117108   3.722   4.415   3.557 -0.2695 -0.3345  1.3207
 1824SOL    HW217109   3.805   4.304   3.622 -0.2604  1.2853  0.8739
 1825SOL     OW17110   0.686   2.529  12.773  0.0706 -0.3372  0.6570
 1825SOL    HW117111   0.607   2.511  12.824 -0.0492  0.6885  0.8289
 1825SOL    HW217112   0.740   2.565  12.842  1.1352  0.6636 -0.7074
 1826SOL     OW17113   4.456   1.873   2.448  0.2653 -0.0908 -0.6131
 1826SOL    HW117114   4.448   1.968   2.434 -2.3084 -0.4048 -1.1889
 1826SOL    HW217115   4.365   1.853   2.468  0.1762  0.0734 -0.8519
 1827SOL     OW17116   3.991   3.221   5.805 -0.2868 -0.1665 -0.0612
 1827SOL    HW117117   3.913   3.166   5.794 -1.6574  1.6177  0.8038
 1827SOL    HW217118   3.954   3.296   5.851 -0.3026 -1.5685  2.2580
 1828SOL     OW17119   2.475   4.143  11.929 -0.2451 -0.5150  0.4520
 1828SOL    HW117120   2.504   4.069  11.983 -0.7557 -3.7953 -3.7356
 1828SOL    HW217121   2.548   4.154  11.869 -1.4444  1.8875 -0.5786
 1829SOL     OW17122   1.872   3.264   7.373  0.4831  0.2707  0.3098
 1829SOL    HW117123   1.871   3.322   7.297  2.6740  0.2031  0.2269
 1829SOL    HW217124   1.929   3.190   7.351 -0.5582 -0.1530 -0.9414
 1830SOL     OW17125   0.858   2.113  11.717  0.1101 -0.5153  0.6259
 1830SOL    HW117126   0.952   2.110  11.698 -0.0580  1.4001 -0.5092
 1830SOL    HW217127   0.819   2.026  11.722 -0.5460 -0.3154 -1.3349
 1831SOL     OW17128   3.686   4.668   6.327 -0.1512  0.1664 -0.5007
 1831SOL    HW117129   3.751   4.598   6.324  0.2953  0.4943  1.0697
 1831SOL    HW217130   3.693   4.696   6.236 -0.9840 -0.5100 -0.7772
 1832SOL     OW17131   4.453   2.641  11.906 -0.6887  0.0961  0.0607
 1832SOL    HW117132   4.455   2.580  11.980 -0.5144 -0.1622 -0.1547
 1832SOL    HW217133   4.367   2.680  11.922 -0.3504 -0.1231  2.4801
 1833SOL     OW17134   3.942   0.300   4.426  0.4282 -0.8537 -0.0145
 1833SOL    HW117135   4.018   0.252   4.391  1.6494  1.2238 -0.1834
 1833SOL    HW217136   3.877   0.255   4.372  0.5413  0.4887 -1.2744
 1834SOL     OW17137   2.604   1.699  10.063  0.4283  0.0408  0.1388
 1834SOL    HW117138   2.665   1.712   9.991  2.6526 -1.9078  1.6407
 1834SOL    HW217139   2.595   1.604  10.060 -0.0217  0.1804 -2.3838
 1835SOL     OW17140   3.452   1.557   6.110 -0.5535  0.0731  0.3663
 1835SOL    HW117141   3.461   1.651   6.092  0.3766 -0.2916 -1.0872
 1835SOL    HW217142   3.359   1.541   6.093 -0.5041 -0.7537  0.8680
 1836SOL     OW17143   0.230   2.343  12.541  0.1147  0.3988 -0.0075
 1836SOL    HW117144   0.321   2.371  12.540  1.1343 -2.8759  0.6427
 1836SOL    HW217145   0.244   2.252  12.513 -0.0991  0.7324 -1.1901
 1837SOL     OW17146   2.769   1.047   5.427 -0.0403  0.0887 -0.3772
 1837SOL    HW117147   2.731   1.134   5.425 -1.3580 -0.4418  1.6988
 1837SOL    HW217148   2.697   0.992   5.459  0.2678 -1.1503 -1.7539
 1838SOL     OW17149   0.352   1.236   0.199  0.1152  0.8615 -0.2051
 1838SOL    HW117150   0.320   1.311   0.250 -0.5104 -0.1964  0.9826
 1838SOL    HW217151   0.430   1.203   0.243  0.2610  1.8519  0.2875
 1839SOL     OW17152   2.477   3.162   3.116 -0.4144 -0.6985 -0.2419
 1839SOL    HW117153   2.407   3.222   3.091  1.6062  1.6746 -0.1306
 1839SOL    HW217154   2.563   3.197   3.095 -0.6504 -1.2840 -2.1818
 1840SOL     OW17155   0.100   3.973  15.463 -0.2206 -0.4421  0.2190
 1840SOL    HW117156   0.192   3.994  15.450 -0.5398  1.5818  1.3153
 1840SOL    HW217157   0.109   3.946  15.554  0.2172 -1.7755 -0.2204
 1841SOL     OW17158   1.096   3.716  16.791  0.5882 -0.3034  0.0190
 1841SOL    HW117159   1.021   3.746  16.740  2.3457  2.8300 -0.7530
 1841SOL    HW217160   1.085   3.765  16.872  1.9849 -1.3434  0.8439
 1842SOL     OW17161   3.756   0.196   0.784  0.4020  0.6015  0.1307
 1842SOL    HW117162   3.788   0.167   0.699 -0.3261 -1.3083  0.5093
 1842SOL    HW217163   3.800   0.120   0.823  1.1286 -0.2148 -2.2736
 1843SOL     OW17164   0.260   1.461   5.101 -0.1260  0.3913 -0.4625
 1843SOL    HW117165   0.204   1.487   5.027 -0.4276 -0.3099 -0.4812
 1843SOL    HW217166   0.200   1.411   5.157 -0.5587  0.3938 -0.9202
 1844SOL     OW17167   1.115   1.494   2.027  0.2150  0.4663 -0.1360
 1844SOL    HW117168   1.124   1.421   1.966  0.6433  1.2545 -0.9990
 1844SOL    HW217169   1.138   1.570   1.974  0.1217 -1.0561 -2.3422
 1845SOL     OW17170   1.831   1.993   2.445 -0.7930 -0.1594  0.0584
 1845SOL    HW117171   1.888   1.942   2.501  1.1013  2.4562  0.5192
 1845SOL    HW217172   1.893   2.018   2.376 -1.0016  1.0425  0.2999
 1846SOL     OW17173   2.386   2.613   2.851  0.1887  0.3094  0.0344
 1846SOL    HW117174   2.344   2.586   2.769  0.8265  1.9314 -0.8206
 1846SOL    HW217175   2.378   2.708   2.854 -2.5372  0.0319  1.1636
 1847SOL     OW17176   0.585   3.156   3.987  0.1611 -0.3565  0.8720
 1847SOL    HW117177   0.648   3.173   3.917 -1.8640  1.1664 -0.6100
 1847SOL    HW217178   0.514   3.192   3.932  2.3767 -1.5403 -2.7741
 1848SOL     OW17179   2.168   4.187   8.728 -0.4938  0.1372 -0.4096
 1848SOL    HW117180   2.248   4.212   8.775  0.8153 -0.2971 -2.4123
 1848SOL    HW217181   2.190   4.104   8.686  2.3134  0.0622  1.1401
 1849SOL     OW17182   2.170   1.749   2.327 -0.4392 -0.6826  0.1577
 1849SOL    HW117183   2.175   1.832   2.279 -1.6316 -1.1169 -0.7181
 1849SOL    HW217184   2.262   1.723   2.334 -0.7174 -1.8139 -0.2862
 1850SOL     OW17185   3.906   4.120  13.207 -0.0722  0.1870 -0.0190
 1850SOL    HW117186   3.844   4.143  13.277 -0.7773  2.2850 -1.3452
 1850SOL    HW217187   3.953   4.040  13.234 -1.2901 -0.8951 -1.1193
 1851SOL     OW17188   1.153   2.136   9.035 -0.0520 -0.7034  0.0356
 1851SOL    HW117189   1.071   2.087   9.036 -0.0466 -0.7050  0.4022
 1851SOL    HW217190   1.118   2.221   9.011 -1.2330 -1.5204 -1.1231
 1852SOL     OW17191   2.068   2.645   2.427  0.0944  0.7851 -0.2635
 1852SOL    HW117192   2.008   2.684   2.491  1.6134  1.7468  0.5586
 1852SOL    HW217193   2.151   2.624   2.470 -0.6980  1.7804  1.7413
 1853SOL     OW17194   4.407   1.062  13.058  0.0860  0.1664 -0.5078
 1853SOL    HW117195   4.399   0.971  13.090  1.2002  0.0624 -0.5155
 1853SOL    HW217196   4.502   1.072  13.067  0.0411  1.1651 -1.2938
 1854SOL     OW17197   3.489   3.448   8.341 -0.4655  0.0158 -0.4042
 1854SOL    HW117198   3.531   3.402   8.413  0.4119 -0.1231 -1.0018
 1854SOL    HW217199   3.506   3.537   8.369  0.6435 -0.8500  1.6481
 1855SOL     OW17200   4.009   1.554   5.051 -0.3780  0.3584  0.0710
 1855SOL    HW117201   3.989   1.647   5.036  0.8586  0.4164 -1.1917
 1855SOL    HW217202   4.091   1.559   5.101 -1.5020 -0.9287  2.0593
 1856SOL     OW17203   4.322   0.533   5.303 -0.4588 -0.5406  0.7675
 1856SOL    HW117204   4.367   0.617   5.309  1.7186 -1.7461  1.5143
 1856SOL    HW217205   4.398   0.475   5.299 -1.2169 -1.4091 -1.1975
 1857SOL     OW17206   3.525   1.633   7.586 -0.1875 -0.1999  0.2310
 1857SOL    HW117207   3.431   1.638   7.573  0.1673  2.5912 -1.2564
 1857SOL    HW217208   3.547   1.641   7.494 -1.1115  2.6024  0.2447
 1858SOL     OW17209   0.856   0.017  12.216 -0.1301 -0.0793 -0.3896
 1858SOL    HW117210   0.760   0.018  12.219 -0.1471 -1.1436 -0.8162
 1858SOL    HW217211   0.885   0.068  12.140 -2.2893  1.8669  0.0744
 1859SOL     OW17212   2.544   4.502   3.360  0.3956 -0.0033  0.2603
 1859SOL    HW117213   2.465   4.552   3.344  0.9443  0.2892 -1.5167
 1859SOL    HW217214   2.591   4.555   3.425 -2.1616  2.4995  0.0174
 1860SOL     OW17215   1.319   3.337   8.937  0.2104  0.2840  0.1435
 1860SOL    HW117216   1.274   3.417   8.909 -0.0486  0.2186  0.3800
 1860SOL    HW217217   1.288   3.273   8.873 -1.0179 -1.6695  2.6701
 1861SOL     OW17218   1.335   3.050  11.889 -0.3193 -0.3705  0.1665
 1861SOL    HW117219   1.367   3.070  11.977  0.3258  0.7152 -0.3210
 1861SOL    HW217220   1.414   3.003  11.863  0.4609  0.9245  0.2407
 1862SOL     OW17221   3.763   1.610  17.447 -0.2250  0.0027 -0.2108
 1862SOL    HW117222   3.757   1.628  17.541 -1.6976  1.2928 -0.5515
 1862SOL    HW217223   3.800   1.693  17.417 -2.4089  1.1576  0.2697
 1863SOL     OW17224   0.270   1.904   5.667 -0.1607 -0.0185  0.1278
 1863SOL    HW117225   0.320   1.919   5.587  0.4831  0.5128  0.6238
 1863SOL    HW217226   0.211   1.979   5.660  0.0676  0.2426  1.0029
 1864SOL     OW17227   0.226   1.554   9.021  0.5597  0.6125  0.0605
 1864SOL    HW117228   0.292   1.619   9.045  1.4635 -1.0737  2.0538
 1864SOL    HW217229   0.175   1.598   8.953  2.2494  2.0193 -0.2942
 1865SOL     OW17230   1.955   1.192   4.446  0.3988  0.3105  0.3091
 1865SOL    HW117231   1.899   1.143   4.506  2.0599  0.3247  1.8678
 1865SOL    HW217232   2.026   1.129   4.441  0.5413  0.4969 -0.0185
 1866SOL     OW17233   1.548   1.791   5.621  0.5938  0.2928  0.5545
 1866SOL    HW117234   1.502   1.853   5.565  1.3105  0.0845 -0.2580
 1866SOL    HW217235   1.474   1.736   5.646  0.3672  0.2203 -0.2628
 1867SOL     OW17236   3.633   2.309   7.891  0.3341  0.5681  0.9498
 1867SOL    HW117237   3.680   2.230   7.862  0.5305  0.0149  2.7598
 1867SOL    HW217238   3.584   2.319   7.810  0.3437 -0.9399  0.7575
 1868SOL     OW17239   1.703   0.091   6.546  0.3144  0.2897  0.0387
 1868SOL    HW117240   1.656   0.128   6.471  0.3143  1.5910  0.6792
 1868SOL    HW217241   1.630   0.081   6.607 -0.6231 -0.1776 -1.1464
 1869SOL     OW17242   0.920   1.738   8.956  0.4692 -0.3675 -0.5050
 1869SOL    HW117243   0.925   1.816   8.900  0.3396  1.5716  2.1725
 1869SOL    HW217244   1.012   1.725   8.979 -0.2148  0.8688  2.9999
 1870SOL     OW17245   1.853   1.729   8.219 -0.2976  0.3042  0.2890
 1870SOL    HW117246   1.849   1.825   8.222 -0.3964  0.3325 -0.6245
 1870SOL    HW217247   1.900   1.705   8.138 -1.7254 -2.3505  0.2568
 1871SOL     OW17248   2.543   1.951   7.846  0.2482 -0.5120 -0.2342
 1871SOL    HW117249   2.632   1.918   7.834 -0.1060 -2.5445  2.6744
 1871SOL    HW217250   2.560   2.022   7.908  0.0257 -0.0570 -0.6955
 1872SOL     OW17251   4.113   1.725   3.124 -1.0448 -0.5462  0.1135
 1872SOL    HW117252   4.153   1.736   3.210  1.6310 -1.0747 -1.0821
 1872SOL    HW217253   4.024   1.729   3.161  0.1299 -0.9876  2.9802
 1873SOL     OW17254   1.622   1.638   6.356  0.0062  0.7107 -0.1057
 1873SOL    HW117255   1.697   1.693   6.382  0.4838 -0.1915  0.4231
 1873SOL    HW217256   1.558   1.662   6.423  1.4171 -1.2339  1.9245
 1874SOL     OW17257   3.951   0.706  11.422  0.0698 -0.3864  0.0575
 1874SOL    HW117258   3.915   0.720  11.334 -0.0527  1.6586  0.4314
 1874SOL    HW217259   4.000   0.626  11.406 -1.2011 -1.2915  0.7349
 1875SOL     OW17260   2.692   0.688   5.777  0.1141 -0.6654  0.5243
 1875SOL    HW117261   2.611   0.637   5.784 -0.0438 -0.7586 -1.8492
 1875SOL    HW217262   2.723   0.687   5.867 -1.0919  0.1906  0.9605
 1876SOL     OW17263   3.963   1.782   8.668 -0.5735 -0.1477 -0.1197
 1876SOL    HW117264   3.972   1.829   8.585 -1.1458  0.0400 -0.0751
 1876SOL    HW217265   4.056   1.785   8.693 -0.9016  0.8066  0.9453
 1877SOL     OW17266   1.681   3.501   0.013 -0.2514  0.3555  0.4644
 1877SOL    HW117267   1.630   3.432   0.055 -0.1586 -0.5857 -0.9782
 1877SOL    HW217268   1.644   3.576   0.059  0.5860 -0.4164  2.3977
 1878SOL     OW17269   0.341   2.628   7.451  0.4232 -0.0228  0.2114
 1878SOL    HW117270   0.427   2.648   7.488  0.5887  1.2709 -0.8880
 1878SOL    HW217271   0.355   2.565   7.381  2.2014  0.2943  0.3063
 1879SOL     OW17272   0.197   3.203  13.180 -0.0304  0.6514 -0.0192
 1879SOL    HW117273   0.148   3.273  13.138 -0.4242  0.1286 -0.4294
 1879SOL    HW217274   0.135   3.154  13.234 -0.2292 -1.4991 -2.1989
 1880SOL     OW17275   1.731   4.676   8.432 -0.2333 -0.2103  0.5211
 1880SOL    HW117276   1.744   4.600   8.376 -1.2944  0.3104 -0.4314
 1880SOL    HW217277   1.820   4.711   8.436 -0.1368  0.0086 -3.3380
 1881SOL     OW17278   2.489   4.584   5.271  0.2589 -0.0386 -0.5428
 1881SOL    HW117279   2.427   4.620   5.335  0.6194  1.0468 -0.8080
 1881SOL    HW217280   2.556   4.651   5.258  1.2289 -0.9255 -0.0976
 1882SOL     OW17281   0.094   4.623   2.726 -0.8144  0.3131  0.1989
 1882SOL    HW117282   0.003   4.607   2.751 -0.1394 -1.3987  1.5820
 1882SOL    HW217283   0.117   4.547   2.673 -0.8457 -2.0286  3.5588
 1883SOL     OW17284   1.344   2.155  12.758  0.0447  0.2284  0.0142
 1883SOL    HW117285   1.385   2.218  12.698 -1.4829  1.6611  0.4559
 1883SOL    HW217286   1.307   2.091  12.697 -0.7136 -2.1019  2.9070
 1884SOL     OW17287   2.754   3.668   7.844  0.0187  0.1163 -0.0133
 1884SOL    HW117288   2.737   3.574   7.838  1.7485 -0.1529 -0.8085
 1884SOL    HW217289   2.685   3.689   7.907  2.0630 -0.2608  2.3377
 1885SOL     OW17290   2.434   2.119   8.170  0.6725  0.2028  0.1129
 1885SOL    HW117291   2.432   2.166   8.254 -0.5756 -0.1806  0.2971
 1885SOL    HW217292   2.453   2.029   8.196 -0.5476 -0.6725 -2.0833
 1886SOL     OW17293   2.461   3.285   7.395  0.0655 -0.0109  0.0607
 1886SOL    HW117294   2.403   3.337   7.339  2.5694  2.1174 -0.5507
 1886SOL    HW217295   2.476   3.201   7.352  0.4931  0.2995 -0.3900
 1887SOL     OW17296   3.048   0.299   7.187 -0.3757  0.1349 -0.0738
 1887SOL    HW117297   3.036   0.237   7.114 -0.2578 -1.1881  1.0282
 1887SOL    HW217298   2.956   0.310   7.213  0.0101  0.0387  1.2812
 1888SOL     OW17299   1.959   4.420   4.491  0.4965 -0.3581 -0.0176
 1888SOL    HW117300   1.890   4.487   4.499 -1.8311 -2.2529 -3.9598
 1888SOL    HW217301   1.905   4.342   4.481 -0.6928  0.5077 -0.3286
 1889SOL     OW17302   0.217   0.420  13.053  0.5317 -0.0530 -0.0904
 1889SOL    HW117303   0.231   0.447  13.144 -0.7907  0.6234 -0.0903
 1889SOL    HW217304   0.272   0.342  13.049  1.5785  0.4990  3.0620
 1890SOL     OW17305   3.565   2.836  15.148  0.4167 -0.1801  0.5729
 1890SOL    HW117306   3.484   2.888  15.144  0.3000 -0.3623  0.5616
 1890SOL    HW217307   3.566   2.815  15.241  0.9382  1.5674  0.9703
 1891SOL     OW17308   1.240   1.935  12.611 -0.2887  0.6498 -0.0633
 1891SOL    HW117309   1.271   1.844  12.608 -0.6181  0.5602 -0.8450
 1891SOL    HW217310   1.167   1.934  12.673 -1.3443  1.5133 -1.3051
 1892SOL     OW17311   0.465   0.753   7.916  0.0896  0.2643 -0.0716
 1892SOL    HW117312   0.387   0.698   7.915 -0.3700  0.9236 -0.3007
 1892SOL    HW217313   0.458   0.807   7.994  0.0092  1.3159 -0.8000
 1893SOL     OW17314   1.925   1.030   7.216  0.3866  1.1855  0.3780
 1893SOL    HW117315   1.972   1.047   7.134  0.8799 -0.3359  0.3502
 1893SOL    HW217316   1.957   0.944   7.243 -0.7790 -0.7877 -4.4737
 1894SOL     OW17317   4.325   0.630   2.397 -0.0707 -0.5207  0.2260
 1894SOL    HW117318   4.280   0.548   2.415 -0.9854 -0.0905 -0.1230
 1894SOL    HW217319   4.338   0.618   2.303 -0.5485  2.8127 -0.2651
 1895SOL     OW17320   3.431   4.688   2.439  0.5125 -0.6010 -0.0581
 1895SOL    HW117321   3.499   4.698   2.506 -0.7387  0.2071  1.0805
 1895SOL    HW217322   3.475   4.685   2.354 -0.3624  0.8291 -0.5522
 1896SOL     OW17323   4.469   2.705   1.967 -0.0502 -0.1086 -0.2865
 1896SOL    HW117324   4.448   2.641   1.899  2.6048 -0.4435 -0.7663
 1896SOL    HW217325   4.540   2.756   1.929  0.6128 -0.7122  0.1514
 1897SOL     OW17326   0.476   2.303   3.955  0.0436  0.0800  0.8103
 1897SOL    HW117327   0.465   2.279   4.047  3.0960  0.6519  1.3063
 1897SOL    HW217328   0.386   2.322   3.929  1.1569  0.0198 -3.2364
 1898SOL     OW17329   1.949   3.207  10.140 -0.3028 -0.1536  0.2867
 1898SOL    HW117330   1.914   3.154  10.211  0.6338 -0.0600  0.8224
 1898SOL    HW217331   1.904   3.291  10.150  0.0597  0.2015 -1.0311
 1899SOL     OW17332   4.504   0.713   6.309  0.0692  0.0310  0.3544
 1899SOL    HW117333   4.431   0.745   6.361  0.4570 -2.6067  2.5766
 1899SOL    HW217334   4.580   0.730   6.365  0.8016 -1.0476 -0.3110
 1900SOL     OW17335   1.785   2.042  17.571  0.2141  0.5345  0.0868
 1900SOL    HW117336   1.854   2.054  17.505 -1.9589 -0.1693 -2.3131
 1900SOL    HW217337   1.741   2.126  17.561 -1.0828  0.2478  3.5589
 1901SOL     OW17338   0.066   2.861   9.752  0.0721  0.0285 -0.1507
 1901SOL    HW117339   0.050   2.768   9.736  0.9074  0.5287 -3.9328
 1901SOL    HW217340   0.155   2.856   9.786  0.5432  2.5230 -1.0370
 1902SOL     OW17341   0.500   2.204   5.406  0.0529 -0.6144 -0.3051
 1902SOL    HW117342   0.440   2.143   5.449 -0.7433  0.2037 -0.2592
 1902SOL    HW217343   0.479   2.176   5.317  0.0015 -1.6007  0.0193
 1903SOL     OW17344   0.953   3.734   9.332  0.4615 -0.3099  0.1385
 1903SOL    HW117345   0.875   3.679   9.340  1.1153 -1.0690  1.3779
 1903SOL    HW217346   0.925   3.798   9.267 -2.6148 -0.3496  1.4568
 1904SOL     OW17347   4.680   4.211   9.082  0.2376  0.2583  0.3976
 1904SOL    HW117348   4.631   4.183   9.005  1.5084 -1.9002  0.3871
 1904SOL    HW217349   4.663   4.138   9.142 -1.0849  2.0032  2.1353
 1905SOL     OW17350   0.739   2.624   1.814  0.4762  0.2649 -0.3106
 1905SOL    HW117351   0.733   2.529   1.815 -2.8162  0.4881  0.0238
 1905SOL    HW217352   0.707   2.648   1.727  0.4510 -2.2222 -0.9770
 1906SOL     OW17353   2.355   0.133  10.197 -0.8382 -0.3407 -0.2923
 1906SOL    HW117354   2.401   0.152  10.279 -0.9057 -2.5035  0.2464
 1906SOL    HW217355   2.267   0.108  10.224 -0.2663 -1.4183  0.5859
 1907SOL     OW17356   0.585   3.905   3.390 -0.1528 -0.0295 -0.0109
 1907SOL    HW117357   0.517   3.923   3.455  0.9867 -1.9145  1.6964
 1907SOL    HW217358   0.610   3.816   3.416 -1.4100 -0.8043 -1.3704
 1908SOL     OW17359   0.070   1.573   5.376 -0.2786 -0.0916  0.6185
 1908SOL    HW117360   0.015   1.620   5.315 -1.3019  0.8330  2.2463
 1908SOL    HW217361   0.150   1.624   5.385 -0.2740 -0.3692  2.3171
 1909SOL     OW17362   1.930   1.833   3.538 -0.1080  0.1645 -0.4665
 1909SOL    HW117363   1.917   1.761   3.600 -2.0580  0.2981 -0.7321
 1909SOL    HW217364   1.892   1.786   3.464 -0.7970  0.1865 -0.1249
 1910SOL     OW17365   1.545   1.962  11.849  0.1544  0.1573  0.2481
 1910SOL    HW117366   1.579   1.872  11.854  1.0041  0.4859  0.3074
 1910SOL    HW217367   1.486   1.948  11.774  0.2399 -1.6580  0.5101
 1911SOL     OW17368   0.477   3.847   4.461 -0.3258 -0.5308 -0.1244
 1911SOL    HW117369   0.462   3.915   4.526 -1.5832 -1.3056  0.3967
 1911SOL    HW217370   0.483   3.766   4.512 -0.8719 -0.8011 -0.4878
 1912SOL     OW17371   2.254   3.628   6.281 -0.0869 -0.1530 -0.4755
 1912SOL    HW117372   2.197   3.555   6.301 -2.3128  1.7246 -0.0163
 1912SOL    HW217373   2.196   3.674   6.221  1.2948  0.8396 -1.0613
 1913SOL     OW17374   1.445   4.131   4.574  0.4158  0.0970  0.4907
 1913SOL    HW117375   1.485   4.135   4.487  1.0367 -1.5160  0.7131
 1913SOL    HW217376   1.474   4.042   4.593 -2.5196 -0.4227  2.6745
 1914SOL     OW17377   2.913   3.474  14.677 -0.3097 -0.2674  0.6241
 1914SOL    HW117378   2.985   3.452  14.618  0.2332  1.6642  0.5533
 1914SOL    HW217379   2.921   3.570  14.681 -2.0373  0.0025 -2.9538
 1915SOL     OW17380   1.082   0.114   6.630  0.1256  0.7259 -0.3098
 1915SOL    HW117381   0.991   0.100   6.656  1.4047 -3.5594  1.8260
 1915SOL    HW217382   1.099   0.202   6.664  2.0119 -0.1140  0.9450
 1916SOL     OW17383   1.807   3.834   5.404 -0.0036  0.3630  0.3896
 1916SOL    HW117384   1.796   3.867   5.315  2.5101 -1.1944 -0.5167
 1916SOL    HW217385   1.807   3.914   5.457 -3.4999  0.7067 -0.1258
 1917SOL     OW17386   2.613   2.933   8.674  0.3263 -0.3451 -0.1033
 1917SOL    HW117387   2.604   3.014   8.624 -2.8948 -0.0078  1.0504
 1917SOL    HW217388   2.691   2.890   8.640  1.8092  0.9650  1.6231
 1918SOL     OW17389   3.314   1.111  16.916 -0.6958  0.4663  0.4812
 1918SOL    HW117390   3.236   1.128  16.969 -0.5845 -0.3224  0.8906
 1918SOL    HW217391   3.280   1.147  16.833 -1.4690 -0.3640  0.4450
 1919SOL     OW17392   0.809   3.654   4.798  0.6066 -0.5134 -0.3078
 1919SOL    HW117393   0.867   3.723   4.765  1.3591 -0.6982  0.6475
 1919SOL    HW217394   0.772   3.692   4.878  1.3769 -0.5299  0.0497
 1920SOL     OW17395   0.889   2.621  16.065  0.6341 -0.3904  0.6529
 1920SOL    HW117396   0.923   2.534  16.083 -1.9551 -1.8629 -1.5379
 1920SOL    HW217397   0.872   2.659  16.152  1.7505  2.0853 -0.2060
 1921SOL     OW17398   3.464   2.660   6.046  0.5124 -0.9388  0.2476
 1921SOL    HW117399   3.553   2.679   6.015  0.4935 -0.6062  0.3957
 1921SOL    HW217400   3.476   2.598   6.118  0.1628 -0.5875  0.6053
 1922SOL     OW17401   2.315   4.371   6.987  0.7820  0.0077  0.0487
 1922SOL    HW117402   2.369   4.446   6.961  0.1195  0.7945  0.9041
 1922SOL    HW217403   2.307   4.391   7.081  0.4742  3.4030 -0.7073
 1923SOL     OW17404   1.912   3.115   6.728 -0.1165  0.0192 -0.0426
 1923SOL    HW117405   1.993   3.069   6.707 -0.1261 -0.8327  1.8105
 1923SOL    HW217406   1.904   3.118   6.823  3.4611  0.5867  0.2317
 1924SOL     OW17407   3.184   1.131  17.541  0.5245  0.9065 -0.5263
 1924SOL    HW117408   3.221   1.056  17.494  0.0458  1.4980 -1.8626
 1924SOL    HW217409   3.093   1.107  17.558 -0.1890  1.3969 -3.6321
 1925SOL     OW17410   1.388   3.296   4.759  0.1900 -0.2284  0.2564
 1925SOL    HW117411   1.307   3.335   4.726  1.2201  0.6614 -1.2082
 1925SOL    HW217412   1.367   3.291   4.852  0.0590  1.3395  0.3201
 1926SOL     OW17413   2.473   2.292   2.389  0.1237  0.2429  0.7668
 1926SOL    HW117414   2.526   2.229   2.340  0.3260  0.3138  0.8886
 1926SOL    HW217415   2.482   2.258   2.479 -1.1689  0.5118  0.9895
 1927SOL     OW17416   2.145   3.826   2.654  0.4447  0.0413  0.4161
 1927SOL    HW117417   2.098   3.797   2.732  2.6821 -0.7035  1.5179
 1927SOL    HW217418   2.107   3.913   2.650  1.7007  0.6933  2.6761
 1928SOL     OW17419   4.219   2.843   9.881  0.4570  0.1460 -0.4036
 1928SOL    HW117420   4.212   2.872   9.972 -1.8770 -0.7009 -0.2950
 1928SOL    HW217421   4.287   2.776   9.885  0.1326 -0.1948 -0.4881
 1929SOL     OW17422   3.427   4.092   2.477  0.0827  0.4095  0.0258
 1929SOL    HW117423   3.417   4.029   2.549 -1.4891 -0.1122 -0.6629
 1929SOL    HW217424   3.458   4.171   2.522  1.4336 -0.1459  0.0946
 1930SOL     OW17425   2.925   2.625   5.678  0.4135  0.1924 -0.2342
 1930SOL    HW117426   2.940   2.602   5.586  0.9926  1.4727 -0.4615
 1930SOL    HW217427   3.005   2.676   5.697  1.8075 -1.7310 -0.9546
 1931SOL     OW17428   3.537   3.606  12.106  0.3787 -0.2681 -0.0033
 1931SOL    HW117429   3.545   3.516  12.139 -0.1770 -0.8989 -1.5942
 1931SOL    HW217430   3.628   3.617  12.081  0.3512 -1.1653 -0.4995
 1932SOL     OW17431   0.785   1.716   8.020 -0.0781 -0.0234  0.2278
 1932SOL    HW117432   0.819   1.652   7.958 -0.1341 -2.0014  2.2220
 1932SOL    HW217433   0.859   1.776   8.013  0.7331 -0.8016  2.2352
 1933SOL     OW17434   2.861   4.101   7.543  0.0141 -0.3220 -0.7027
 1933SOL    HW117435   2.853   4.034   7.611 -2.2840  1.6136  0.9025
 1933SOL    HW217436   2.782   4.074   7.497 -0.4915 -0.3462  0.1739
 1934SOL     OW17437   0.580   1.687  12.508  0.0154 -1.0803 -0.0276
 1934SOL    HW117438   0.570   1.608  12.561 -1.3511 -1.2083 -0.4721
 1934SOL    HW217439   0.515   1.673  12.438  0.9765  2.1344 -1.5798
 1935SOL     OW17440   3.377   3.014   7.413 -0.0452  0.1789  0.0504
 1935SOL    HW117441   3.358   3.034   7.321  1.4295 -2.7136 -0.8580
 1935SOL    HW217442   3.356   3.103   7.442  1.0267  0.3265  0.3466
 1936SOL     OW17443   3.442   2.670   5.046 -0.4736  0.6163  0.1578
 1936SOL    HW117444   3.359   2.665   4.999  0.5953  0.8523 -1.7384
 1936SOL    HW217445   3.413   2.660   5.137  0.6243  0.2350  0.4683
 1937SOL     OW17446   0.872   4.321   5.118  0.0230 -0.4805  0.1729
 1937SOL    HW117447   0.790   4.326   5.069  0.3414 -0.9519 -0.4022
 1937SOL    HW217448   0.888   4.413   5.139  2.1539 -1.6116  3.6157
 1938SOL     OW17449   3.762   2.357  12.989  0.1589 -0.3469 -0.7469
 1938SOL    HW117450   3.679   2.338  13.032  0.3504 -1.0068 -0.6561
 1938SOL    HW217451   3.755   2.451  12.976 -1.4001 -0.2931  0.5361
 1939SOL     OW17452   0.238   2.091   8.571  0.0508  0.1641  0.3241
 1939SOL    HW117453   0.276   2.041   8.499  1.7560  2.5259 -0.4373
 1939SOL    HW217454   0.202   2.019   8.623 -3.1132  1.7406  0.3557
 1940SOL     OW17455   2.355   0.268  15.641 -0.0121 -0.1562  0.4834
 1940SOL    HW117456   2.379   0.317  15.562 -3.0397  1.8088  0.7933
 1940SOL    HW217457   2.378   0.333  15.707 -2.7583 -0.7661  2.0227
 1941SOL     OW17458   2.564   0.924  15.286  0.7499 -0.0011 -0.2780
 1941SOL    HW117459   2.541   0.832  15.279 -2.1419  0.8277 -1.4022
 1941SOL    HW217460   2.548   0.946  15.194  1.5991  3.3373  0.3550
 1942SOL     OW17461   2.030   1.449   5.861  0.6531  0.1806 -0.2879
 1942SOL    HW117462   1.957   1.387   5.853 -0.3618  1.1796  1.1624
 1942SOL    HW217463   2.057   1.437   5.952 -0.7797  0.9243  0.2418
 1943SOL     OW17464   4.603   3.358   1.748  0.1070  0.4367 -0.4470
 1943SOL    HW117465   4.571   3.322   1.831  3.8286 -0.5650  0.5544
 1943SOL    HW217466   4.624   3.444   1.786  0.7647 -1.0974  2.6726
 1944SOL     OW17467   2.295   2.947   6.834  0.6882  0.0314 -0.0065
 1944SOL    HW117468   2.227   2.966   6.770  0.6992  0.1071  0.0042
 1944SOL    HW217469   2.368   2.893   6.803 -0.1071 -0.4256 -1.0884
 1945SOL     OW17470   1.044   1.312   8.927  0.1707  0.1590  0.6946
 1945SOL    HW117471   1.138   1.304   8.909 -0.1199 -0.4978 -0.4690
 1945SOL    HW217472   1.019   1.223   8.951  0.6314  0.0178  0.6496
 1946SOL     OW17473   3.488   1.942   5.672  0.2770 -0.2295 -0.3483
 1946SOL    HW117474   3.509   1.852   5.698 -2.7336 -0.1768  2.1688
 1946SOL    HW217475   3.394   1.947   5.691  0.6988  0.3140  1.6039
 1947SOL     OW17476   4.510   3.363   7.681  0.5898  0.9165 -0.0736
 1947SOL    HW117477   4.516   3.320   7.766  0.6011  0.5723 -0.2467
 1947SOL    HW217478   4.425   3.330   7.652  1.5869 -0.7071 -1.1628
 1948SOL     OW17479   2.254   4.202   1.024 -0.2682  0.1009 -0.2359
 1948SOL    HW117480   2.259   4.277   0.964 -1.4840  0.7950  0.5260
 1948SOL    HW217481   2.285   4.131   0.968 -0.0926  1.1689 -1.4863
 1949SOL     OW17482   1.762   1.916  12.439  0.0096  0.6724  0.2550
 1949SOL    HW117483   1.690   1.853  12.438  3.1893 -2.9125 -0.3638
 1949SOL    HW217484   1.782   1.914  12.532 -2.4649  2.4554  0.8227
 1950SOL     OW17485   1.941   1.854   2.894  0.6115  0.0162  0.1136
 1950SOL    HW117486   1.865   1.911   2.907  0.0352 -0.9438  0.8906
 1950SOL    HW217487   1.958   1.861   2.800  0.1669  2.2950  0.2001
 1951SOL     OW17488   4.661   4.446   9.290  0.5129  0.0617 -0.3765
 1951SOL    HW117489   4.642   4.391   9.215 -2.4725 -1.2193  1.3014
 1951SOL    HW217490   4.736   4.495   9.258  0.8414 -0.2618 -0.0941
 1952SOL     OW17491   3.038   0.441   2.215 -0.4174 -0.4481  0.2919
 1952SOL    HW117492   2.981   0.450   2.139 -1.2098  0.5048  0.9997
 1952SOL    HW217493   3.114   0.426   2.159  0.0287 -0.1134  0.7965
 1953SOL     OW17494   0.438   1.465   2.235  0.3133 -0.3192  0.7367
 1953SOL    HW117495   0.481   1.523   2.172 -1.3233  1.1172  0.9688
 1953SOL    HW217496   0.359   1.509   2.266  0.1934  0.1290 -0.2178
 1954SOL     OW17497   3.915   2.535   7.054 -0.6973 -0.0884 -0.1314
 1954SOL    HW117498   3.823   2.521   7.033 -1.2907  1.7058  1.2742
 1954SOL    HW217499   3.935   2.481   7.131 -0.5202  1.6416  1.0135
 1955SOL     OW17500   0.871   1.899   3.218  0.0755 -0.6651  0.6254
 1955SOL    HW117501   0.803   1.964   3.235  1.5047  1.0461 -0.2896
 1955SOL    HW217502   0.891   1.914   3.126 -1.3612  0.2108  0.4508
 1956SOL     OW17503   1.797   3.149   5.395  0.2468  0.2027  0.6183
 1956SOL    HW117504   1.741   3.193   5.459  0.8263  1.5895  0.1720
 1956SOL    HW217505   1.774   3.196   5.314  1.2290 -0.2962  0.0539
 1957SOL     OW17506   4.172   1.854   4.705 -0.6559 -0.3120  0.2406
 1957SOL    HW117507   4.231   1.902   4.763  1.5146 -1.3018 -1.1604
 1957SOL    HW217508   4.203   1.764   4.719 -2.8958 -1.3865 -1.8261
 1958SOL     OW17509   1.769   1.092  10.860  0.2653 -0.3714  0.0557
 1958SOL    HW117510   1.777   0.998  10.875  0.7379 -0.3660 -0.1895
 1958SOL    HW217511   1.840   1.129  10.913  0.3502 -0.1182 -0.2334
 1959SOL     OW17512   2.836   4.626   4.431 -0.4680 -0.2788 -0.1306
 1959SOL    HW117513   2.805   4.556   4.373 -0.4177 -0.7533  0.4179
 1959SOL    HW217514   2.781   4.701   4.407 -2.3320 -1.7069 -0.3856
 1960SOL     OW17515   2.054   3.076   7.257 -0.0532 -0.2246 -0.3264
 1960SOL    HW117516   2.025   3.014   7.324 -3.8022 -0.7827 -2.4584
 1960SOL    HW217517   2.145   3.046   7.251  0.6572  1.2504  2.6304
 1961SOL     OW17518   3.041   1.331   5.415  0.2138 -0.1707 -0.0191
 1961SOL    HW117519   3.059   1.321   5.508 -4.4047 -0.1868  0.8858
 1961SOL    HW217520   3.051   1.426   5.408  1.4537 -0.2603  0.6944
 1962SOL     OW17521   0.562   0.936   6.972 -0.3538  0.4229 -0.4585
 1962SOL    HW117522   0.511   0.951   7.051 -0.2560 -1.7864  0.0051
 1962SOL    HW217523   0.494   0.965   6.911  0.1216  3.6857  0.5641
 1963SOL     OW17524   2.268   2.924   7.108 -0.1009  0.1857  0.1035
 1963SOL    HW117525   2.362   2.904   7.115 -0.4392 -0.8886  1.4172
 1963SOL    HW217526   2.251   2.935   7.014 -0.0075  0.7792  0.1575
 1964SOL     OW17527   1.405   2.001   5.925  0.0958  0.4762 -0.2061
 1964SOL    HW117528   1.470   2.070   5.911 -1.8043  2.3541  0.0525
 1964SOL    HW217529   1.419   1.992   6.019  2.0632  0.3899 -0.5111
 1965SOL     OW17530   2.136   2.275   2.792  0.0359  0.0490  0.2225
 1965SOL    HW117531   2.184   2.229   2.861 -0.8372  0.4218  1.0729
 1965SOL    HW217532   2.136   2.209   2.722  0.3231  1.2820 -0.9389
 1966SOL     OW17533   2.081   1.677   6.067 -0.4140  0.1055  0.2233
 1966SOL    HW117534   2.081   1.613   5.997  1.1070 -0.4850  0.7513
 1966SOL    HW217535   1.993   1.679   6.104  0.1205 -1.8784  1.5496
 1967SOL     OW17536   3.596   1.040   7.850 -0.2351 -0.3263 -0.2688
 1967SOL    HW117537   3.589   0.982   7.775 -0.3410 -2.0505  1.0724
 1967SOL    HW217538   3.661   0.997   7.906  0.3078  1.5032  0.5093
 1968SOL     OW17539   1.107   2.026   7.282  0.1862  0.3318 -0.0647
 1968SOL    HW117540   1.048   2.071   7.343  1.0418 -0.2432  1.1894
 1968SOL    HW217541   1.053   2.012   7.205  0.8527 -1.6353 -0.1685
 1969SOL     OW17542   2.215   3.406   7.496  0.0864  0.1306 -0.0982
 1969SOL    HW117543   2.219   3.502   7.495 -1.5607  0.2211  3.2496
 1969SOL    HW217544   2.181   3.394   7.407  1.0146 -0.0197 -0.4256
 1970SOL     OW17545   3.262   4.022   4.215 -0.5296 -0.0787  0.0765
 1970SOL    HW117546   3.207   4.100   4.219 -1.8719 -1.0241  0.0440
 1970SOL    HW217547   3.243   3.988   4.128  1.8946  0.1698 -0.5408
 1971SOL     OW17548   1.073   1.088   5.052 -0.7182 -0.1156  0.4652
 1971SOL    HW117549   1.116   1.126   4.975  1.2534 -0.3167  1.4805
 1971SOL    HW217550   1.062   1.157   5.117  0.9221 -0.0901  0.7022
 1972SOL     OW17551   3.953   4.229   4.576 -0.0076  0.3034  0.4021
 1972SOL    HW117552   4.023   4.195   4.631 -0.1188 -0.7124 -0.0797
 1972SOL    HW217553   3.946   4.146   4.528 -1.4625 -0.0275  1.1819
 1973SOL     OW17554   3.154   3.914   7.582  0.1441 -0.0054  0.0479
 1973SOL    HW117555   3.103   3.995   7.581 -0.4746 -0.3961  0.2234
 1973SOL    HW217556   3.135   3.872   7.499  0.8818  1.3824 -0.8183
 1974SOL     OW17557   2.879   3.159   8.276  0.1249 -0.0333 -0.0901
 1974SOL    HW117558   2.929   3.161   8.358 -2.9486  0.2691  1.7978
 1974SOL    HW217559   2.920   3.236   8.239  1.9225 -1.4504 -1.0286
 1975SOL     OW17560   2.452   2.745   9.417 -0.2675 -0.7950 -0.6505
 1975SOL    HW117561   2.481   2.733   9.508 -0.1522 -0.5001 -0.6499
 1975SOL    HW217562   2.528   2.766   9.362 -0.5939  0.2310 -0.7088
 1976SOL     OW17563   1.788   0.859   3.335 -0.1723  0.4709 -0.7887
 1976SOL    HW117564   1.818   0.803   3.407  1.7411 -0.3770 -2.2384
 1976SOL    HW217565   1.793   0.792   3.266  1.7703 -0.0196 -0.1960
 1977SOL     OW17566   1.756   4.076   3.350 -0.1278 -0.3134 -0.9350
 1977SOL    HW117567   1.812   4.134   3.401  0.7905 -2.1993  0.1749
 1977SOL    HW217568   1.812   4.052   3.276  1.7116  1.0859  0.0168
 1978SOL     OW17569   0.403   1.172  16.172 -0.0811 -0.4371 -0.4933
 1978SOL    HW117570   0.350   1.244  16.138  0.7282  0.0656 -0.7225
 1978SOL    HW217571   0.351   1.153  16.250 -0.6029 -1.9973 -1.2457
 1979SOL     OW17572   3.002   0.176   5.990  0.2743  0.1958 -0.3621
 1979SOL    HW117573   3.017   0.135   5.905 -0.1120  2.7331 -1.6677
 1979SOL    HW217574   3.079   0.153   6.043  0.0498 -1.8215 -0.9283
 1980SOL     OW17575   2.962   0.817   6.245 -0.0792  0.5871 -0.7199
 1980SOL    HW117576   3.007   0.864   6.315  0.2996  1.6630 -1.6952
 1980SOL    HW217577   3.029   0.818   6.177  1.6578 -0.5759  0.9846
 1981SOL     OW17578   0.064   2.823  16.278 -0.6811  0.4238  0.2554
 1981SOL    HW117579   0.073   2.914  16.248  1.7876 -1.6748 -5.2448
 1981SOL    HW217580   4.712   2.819  16.312 -0.3601  0.3530  1.0901
 1982SOL     OW17581   2.353   0.063   0.228  0.2873 -0.1439  0.1788
 1982SOL    HW117582   2.374   0.033   0.140  0.3459 -1.8256  0.7731
 1982SOL    HW217583   2.445   0.064   0.256 -0.4684  0.7567  2.6114
 1983SOL     OW17584   3.901   3.521   9.288 -0.2086  0.5984 -0.6434
 1983SOL    HW117585   3.894   3.430   9.257 -1.6241  0.4012  0.2328
 1983SOL    HW217586   3.894   3.507   9.383 -0.2538 -4.0348 -1.3358
 1984SOL     OW17587   3.799   4.227  10.183 -0.1035  0.4191 -0.0414
 1984SOL    HW117588   3.767   4.251  10.096  0.5093 -0.8323 -0.6068
 1984SOL    HW217589   3.865   4.294  10.199  1.8404 -1.1387 -1.5453
 1985SOL     OW17590   2.572   2.309   7.960 -0.4014 -0.4169 -0.1867
 1985SOL    HW117591   2.557   2.395   7.999 -1.8521 -0.1873 -1.2542
 1985SOL    HW217592   2.517   2.265   8.025 -0.3605  2.9423  2.0954
 1986SOL     OW17593   0.321   2.897  16.608  0.5341  0.2374  0.3223
 1986SOL    HW117594   0.251   2.962  16.609 -0.7006 -1.0729 -0.0177
 1986SOL    HW217595   0.325   2.862  16.697 -1.2677  0.4101  0.4708
 1987SOL     OW17596   3.100   0.666  16.656  0.3456  0.0482 -0.1879
 1987SOL    HW117597   3.113   0.744  16.601  0.7333  0.6046  0.6831
 1987SOL    HW217598   3.133   0.690  16.743 -0.3771 -0.8095  0.3216
 1988SOL     OW17599   0.141   3.520   0.616 -0.5012  0.5263  0.0500
 1988SOL    HW117600   0.058   3.497   0.575 -0.5196  2.2556 -0.8774
 1988SOL    HW217601   0.192   3.453   0.570 -0.5420  1.1699 -0.9367
 1989SOL     OW17602   3.728   2.962   7.726 -0.4320  0.2690 -0.2278
 1989SOL    HW117603   3.656   2.992   7.670 -0.4012  0.1298 -0.3424
 1989SOL    HW217604   3.782   3.041   7.728  2.1844 -1.5552  0.9838
 1990SOL     OW17605   3.380   3.491   4.938 -0.4166 -0.6701 -0.2663
 1990SOL    HW117606   3.417   3.427   4.876 -0.9066  0.7780 -2.0740
 1990SOL    HW217607   3.304   3.537   4.903  0.5347  0.9416 -0.2330
 1991SOL     OW17608   1.184   1.335   2.437 -0.4021  0.0172  0.4802
 1991SOL    HW117609   1.251   1.401   2.455  0.5681 -1.2054  1.2943
 1991SOL    HW217610   1.140   1.376   2.362  1.2195  2.1102  0.6712
 1992SOL     OW17611   2.716   1.868   3.441 -0.2381  0.5422  0.2875
 1992SOL    HW117612   2.670   1.795   3.483 -0.6322  0.9346  0.5280
 1992SOL    HW217613   2.713   1.836   3.350 -1.0481  1.9360 -0.1708
 1993SOL     OW17614   2.197   2.124  15.220 -0.5419 -0.3233 -0.1955
 1993SOL    HW117615   2.101   2.115  15.214 -0.6002 -0.0107  0.3164
 1993SOL    HW217616   2.223   2.037  15.188 -1.5801 -1.5775  2.3835
 1994SOL     OW17617   2.437   1.536   6.987  0.0489  0.0447  0.3708
 1994SOL    HW117618   2.440   1.577   7.073  1.3163 -0.4142  0.5385
 1994SOL    HW217619   2.401   1.604   6.930  0.7844 -0.2285 -0.4149
 1995SOL     OW17620   3.196   4.343   8.348 -0.3869 -0.6247  0.1439
 1995SOL    HW117621   3.111   4.299   8.360  0.1598 -1.0267  2.4388
 1995SOL    HW217622   3.179   4.420   8.293  0.7258 -0.3741  0.1527
 1996SOL     OW17623   3.153   0.860  12.687 -0.1500 -0.7064  0.0808
 1996SOL    HW117624   3.204   0.912  12.625 -0.7833  1.6582  1.5511
 1996SOL    HW217625   3.064   0.859  12.652  0.4440  0.3475 -1.4723
 1997SOL     OW17626   2.262   1.896   5.241 -0.0521  0.1977  0.2283
 1997SOL    HW117627   2.245   1.833   5.171  1.0020  0.1671 -0.0023
 1997SOL    HW217628   2.259   1.983   5.200 -1.4775  0.8195  1.6674
 1998SOL     OW17629   3.457   2.597   7.603  0.4724 -0.2846  0.6781
 1998SOL    HW117630   3.412   2.627   7.682  0.2368 -0.6004  0.6584
 1998SOL    HW217631   3.408   2.640   7.533 -0.2998 -0.7066  0.9701
 1999SOL     OW17632   1.395   2.357   2.010  0.0418  0.1467  0.1373
 1999SOL    HW117633   1.435   2.426   2.062  1.2035  1.0307 -1.8910
 1999SOL    HW217634   1.401   2.286   2.074  1.6856  1.7798  1.7582
 2000SOL     OW17635   3.796   0.847  17.340 -0.5726  0.4442 -0.3663
 2000SOL    HW117636   3.814   0.938  17.362 -1.9407  0.8256 -0.8323
 2000SOL    HW217637   3.880   0.810  17.365 -0.8743 -0.4919 -0.7420
 2001SOL     OW17638   0.532   4.320   1.759 -0.3559  0.6526  0.0892
 2001SOL    HW117639   0.588   4.266   1.703 -2.2409 -0.4769 -0.7120
 2001SOL    HW217640   0.596   4.350   1.825  1.1479 -0.3266 -0.9222
 2002SOL     OW17641   4.318   1.622   4.767  0.4478  0.5879 -0.4925
 2002SOL    HW117642   4.345   1.647   4.856 -0.0403  0.6899 -0.3756
 2002SOL    HW217643   4.370   1.543   4.752 -1.7971 -1.0419  0.4570
 2003SOL     OW17644   0.132   1.168   3.569 -0.3842  0.0521  0.2726
 2003SOL    HW117645   0.107   1.206   3.485  1.6154  0.8929  0.0483
 2003SOL    HW217646   0.205   1.117   3.533  0.1586 -0.4228  2.0307
 2004SOL     OW17647   4.472   2.715   2.245 -0.1505  0.1709  0.0383
 2004SOL    HW117648   4.533   2.789   2.246 -0.1874  0.1537  3.1051
 2004SOL    HW217649   4.457   2.726   2.151 -0.7974  2.6411  0.4246
 2005SOL     OW17650   1.545   1.463   8.723  0.4154 -0.1073 -0.0742
 2005SOL    HW117651   1.472   1.443   8.665  0.6079  0.0778 -0.3818
 2005SOL    HW217652   1.542   1.559   8.725  0.4777 -0.1093  0.0966
 2006SOL     OW17653   4.620   0.799  12.901  0.0174  0.1311  0.0280
 2006SOL    HW117654   4.680   0.726  12.885 -1.9524 -1.4376 -0.1747
 2006SOL    HW217655   4.623   0.809  12.996 -1.6412  0.6093  0.0181
 2007SOL     OW17656   2.062   4.192  15.389  0.9130  0.1957  0.4017
 2007SOL    HW117657   2.051   4.098  15.398  3.3018 -0.3119 -1.8045
 2007SOL    HW217658   2.158   4.190  15.390  0.9374  0.9030 -0.0971
 2008SOL     OW17659   1.093   1.972  14.557 -0.1755  0.1192 -0.2652
 2008SOL    HW117660   1.157   1.951  14.625  0.0240  0.6317 -0.2940
 2008SOL    HW217661   1.016   2.006  14.603 -1.4850 -0.0869 -2.3554
 2009SOL     OW17662   0.495   1.371   2.727  0.3434  0.1582  0.4799
 2009SOL    HW117663   0.533   1.458   2.741  0.8148  0.3436 -2.1111
 2009SOL    HW217664   0.405   1.379   2.760 -0.0556 -2.2947 -0.0175
 2010SOL     OW17665   3.974   1.763   7.167 -0.1689  0.4849  0.5828
 2010SOL    HW117666   3.996   1.672   7.188 -2.8068 -0.5358 -1.0621
 2010SOL    HW217667   4.055   1.813   7.178 -0.1441  0.9308 -1.6258
 2011SOL     OW17668   1.667   1.397   2.741 -0.6605  0.1985 -0.0255
 2011SOL    HW117669   1.601   1.461   2.766  1.6708  2.0590  1.4213
 2011SOL    HW217670   1.637   1.313   2.775 -1.7759  0.0197 -1.4373
 2012SOL     OW17671   3.332   3.087   4.551 -0.4610 -0.0891 -0.3781
 2012SOL    HW117672   3.417   3.100   4.509 -0.7306  0.7557 -0.6675
 2012SOL    HW217673   3.296   3.020   4.493  0.4608 -1.4323  0.5872
 2013SOL     OW17674   0.989   0.935   2.306  0.3604 -0.2539  0.1178
 2013SOL    HW117675   0.917   0.892   2.259  0.6411 -0.0830 -0.4610
 2013SOL    HW217676   1.046   0.858   2.310 -0.3029 -0.7592 -0.0996
 2014SOL     OW17677   2.113   3.443   7.239 -0.4569  0.5796 -0.7686
 2014SOL    HW117678   2.131   3.537   7.229  0.8256  0.5265  0.9907
 2014SOL    HW217679   2.057   3.425   7.164 -0.8554  1.7546 -0.7476
 2015SOL     OW17680   3.922   4.619  15.535  0.2155 -0.2622  0.2503
 2015SOL    HW117681   4.010   4.582  15.539  0.4198  0.3615  1.6461
 2015SOL    HW217682   3.875   4.553  15.485  3.6737 -1.4009 -1.4741
 2016SOL     OW17683   0.069   1.068   7.541  0.4820  0.2369  0.0888
 2016SOL    HW117684   0.028   1.099   7.621 -0.0743 -0.3095  0.0195
 2016SOL    HW217685   0.049   0.974   7.549  0.3503  0.3190  0.7126
 2017SOL     OW17686   4.449   3.317   9.376 -0.3194 -0.2812  0.2414
 2017SOL    HW117687   4.487   3.325   9.463  1.2847 -0.5382 -0.4379
 2017SOL    HW217688   4.525   3.266   9.348 -0.5346 -0.7917  0.6033
 2018SOL     OW17689   1.705   0.922   0.612  0.1558 -0.1066 -0.5902
 2018SOL    HW117690   1.782   0.894   0.662  0.2999  0.0381 -0.7316
 2018SOL    HW217691   1.679   0.835   0.584  0.2598  0.9031 -3.8417
 2019SOL     OW17692   3.626   0.557   5.301  0.3434  0.0085  0.7421
 2019SOL    HW117693   3.674   0.475   5.307 -1.8458 -1.3565 -0.2168
 2019SOL    HW217694   3.615   0.587   5.392  0.1998 -2.1831  1.4405
 2020SOL     OW17695   1.058   0.636   0.684  0.7151 -0.6016  0.1245
 2020SOL    HW117696   1.109   0.715   0.704  1.3403 -0.5617 -1.5842
 2020SOL    HW217697   0.977   0.684   0.665  0.4976 -0.8731  0.3783
 2021SOL     OW17698   1.093   3.887   8.093 -0.2706  0.0035  0.3013
 2021SOL    HW117699   1.187   3.889   8.075 -0.2902 -2.3168 -0.0264
 2021SOL    HW217700   1.098   3.838   8.175 -1.5288 -0.1860  0.2635
 2022SOL     OW17701   0.515   1.510   5.218  0.2995  0.0317 -0.5635
 2022SOL    HW117702   0.426   1.494   5.185  0.5285 -1.6823 -0.3404
 2022SOL    HW217703   0.493   1.574   5.285 -0.2530 -1.6477  0.8431
 2023SOL     OW17704   1.570   4.588   8.754  0.1423  0.2042 -0.5212
 2023SOL    HW117705   1.522   4.644   8.814  1.3898  0.1924  0.4807
 2023SOL    HW217706   1.498   4.584   8.691 -0.5029 -2.1018  0.3851
 2024SOL     OW17707   2.444   1.675   3.863  0.3720  0.2972  0.6304
 2024SOL    HW117708   2.504   1.601   3.859 -1.3792 -0.9754 -2.2793
 2024SOL    HW217709   2.478   1.721   3.940  0.8579 -0.0011  0.5924
 2025SOL     OW17710   4.144   0.182   3.340  0.5914  0.0387  0.2670
 2025SOL    HW117711   4.209   0.246   3.309 -0.2228  0.6578 -0.1687
 2025SOL    HW217712   4.206   0.112   3.362 -2.5811 -2.8338  0.0114
 2026SOL     OW17713   2.808   1.712   9.885  0.0864  0.5735  0.2074
 2026SOL    HW117714   2.876   1.775   9.862  1.7599 -1.8930 -1.6041
 2026SOL    HW217715   2.821   1.638   9.825  2.3366 -0.1779  1.6360
 2027SOL     OW17716   1.850   2.601  12.028  0.6640 -0.5933  0.7747
 2027SOL    HW117717   1.920   2.598  12.094 -0.1181 -0.2177  1.6152
 2027SOL    HW217718   1.809   2.518  12.051  1.9468 -1.1539  1.0116
 2028SOL     OW17719   2.747   0.835   6.433 -0.0228 -0.4422  0.5967
 2028SOL    HW117720   2.723   0.746   6.459 -0.3409 -0.2729  0.8770
 2028SOL    HW217721   2.815   0.806   6.371  0.1152  1.5942 -0.1942
 2029SOL     OW17722   0.589   3.078   5.428  0.3267 -0.8527 -0.2020
 2029SOL    HW117723   0.550   2.994   5.451  0.4756 -0.3199  1.9279
 2029SOL    HW217724   0.544   3.138   5.487  1.8816 -0.4252  0.5326
 2030SOL     OW17725   0.921   3.278  14.619 -0.2574  0.2283  0.2424
 2030SOL    HW117726   0.886   3.272  14.530  1.0901  1.0397 -0.3410
 2030SOL    HW217727   0.972   3.198  14.629 -1.2340 -0.4297 -0.0564
 2031SOL     OW17728   1.394   1.786  11.685 -0.3925 -0.4836 -0.4445
 2031SOL    HW117729   1.341   1.775  11.764 -2.4283  0.9404 -1.6001
 2031SOL    HW217730   1.329   1.770  11.617 -1.6525  2.1566  0.1676
 2032SOL     OW17731   4.609   4.269  11.860 -0.2297 -0.1565 -0.4122
 2032SOL    HW117732   4.586   4.320  11.783  0.8968 -0.0698 -0.6886
 2032SOL    HW217733   4.604   4.338  11.927  0.3534 -0.3326 -0.1844
 2033SOL     OW17734   1.197   4.600   4.242 -0.0230  0.0063 -0.0546
 2033SOL    HW117735   1.285   4.584   4.206  0.0809 -0.4821  0.4195
 2033SOL    HW217736   1.153   4.604   4.157 -1.8463  0.3655  0.9184
 2034SOL     OW17737   4.609   1.564  12.492  0.2280  0.3558 -0.5446
 2034SOL    HW117738   4.602   1.543  12.399 -3.1524 -1.4098  0.0794
 2034SOL    HW217739   4.656   1.647  12.488  0.0245  0.4048 -1.9285
 2035SOL     OW17740   0.812   4.530   8.648  0.3917 -0.2198 -0.1007
 2035SOL    HW117741   0.854   4.481   8.719  2.8104  0.9479 -0.7216
 2035SOL    HW217742   0.731   4.481   8.645  0.3679 -0.1509 -0.6038
 2036SOL     OW17743   3.562   3.310   2.741 -0.1709 -0.0201 -0.0341
 2036SOL    HW117744   3.658   3.312   2.743 -0.1468 -0.3196 -1.0431
 2036SOL    HW217745   3.548   3.215   2.737  0.2261  0.0410 -2.8472
 2037SOL     OW17746   4.552   3.710   1.270  0.3848  0.2365  0.1182
 2037SOL    HW117747   4.599   3.652   1.330  1.0668  1.6847  0.9826
 2037SOL    HW217748   4.606   3.789   1.268  0.6763  0.0473  0.4948
 2038SOL     OW17749   4.029   2.887  11.408 -0.2252  0.3620  0.0938
 2038SOL    HW117750   4.013   2.794  11.426 -2.7408  0.4200 -1.9810
 2038SOL    HW217751   3.953   2.920  11.360 -0.1215  0.3051 -0.1109
 2039SOL     OW17752   4.561   3.994   2.782  0.5001  0.3329  0.1283
 2039SOL    HW117753   4.584   4.010   2.690  0.3762 -0.2895 -0.0094
 2039SOL    HW217754   4.609   3.915   2.806 -2.1532 -0.9052  1.3505
 2040SOL     OW17755   3.940   0.954  15.354 -0.2500  0.5149 -0.3524
 2040SOL    HW117756   4.006   0.885  15.361 -2.0989 -1.2067  0.0871
 2040SOL    HW217757   3.961   0.972  15.263  0.2269 -2.3019 -0.8045
 2041SOL     OW17758   4.443   3.630   6.771  0.4839  0.0176  0.3909
 2041SOL    HW117759   4.415   3.551   6.816 -0.8060 -0.1337 -0.6889
 2041SOL    HW217760   4.536   3.617   6.793  0.6305 -1.8823 -1.4100
 2042SOL     OW17761   2.527   3.198  14.997  0.5084  0.7504 -0.4074
 2042SOL    HW117762   2.544   3.107  15.022 -1.2858  0.2836 -0.8520
 2042SOL    HW217763   2.438   3.193  14.961  0.6681  0.0193 -0.7093
 2043SOL     OW17764   1.409   2.917   1.600 -0.0397 -0.0209  0.0979
 2043SOL    HW117765   1.348   2.849   1.572 -1.5490  1.9110 -1.2903
 2043SOL    HW217766   1.347   2.988   1.612 -0.8220 -0.5628 -0.7271
 2044SOL     OW17767   0.461   0.085   3.722 -0.3797 -0.3468  0.3848
 2044SOL    HW117768   0.478   0.103   3.814 -1.6161  1.5006  0.2542
 2044SOL    HW217769   0.367   0.069   3.715 -0.2818 -0.8153  0.0941
 2045SOL     OW17770   0.880   3.738   7.003  0.1286  0.1073 -0.0041
 2045SOL    HW117771   0.878   3.727   7.098 -0.7238  3.2514  0.3319
 2045SOL    HW217772   0.873   3.649   6.968  1.8140 -0.3904  0.9485
 2046SOL     OW17773   1.687   1.539   2.076 -0.3205  0.6827  0.2130
 2046SOL    HW117774   1.693   1.456   2.124  2.0639  1.2882  0.9405
 2046SOL    HW217775   1.759   1.527   2.014 -1.3121 -1.7191 -0.4741
 2047SOL     OW17776   0.653   0.724   8.770 -0.7613  0.7759 -0.1039
 2047SOL    HW117777   0.732   0.712   8.823  0.5674  0.9063 -2.0231
 2047SOL    HW217778   0.592   0.673   8.823 -0.2680  0.8924  0.5737
 2048SOL     OW17779   4.501   1.427   5.092 -0.5260 -0.1208 -0.6286
 2048SOL    HW117780   4.481   1.452   5.182  0.5018 -2.3202  0.2101
 2048SOL    HW217781   4.426   1.371   5.074  0.2329 -2.2298  2.9049
 2049SOL     OW17782   1.995   3.928   7.290 -0.2688  0.1900  0.3833
 2049SOL    HW117783   2.030   3.874   7.219 -1.7636  0.2642 -0.4117
 2049SOL    HW217784   1.900   3.913   7.292 -0.0949 -0.7915  1.2170
 2050SOL     OW17785   1.065   2.802   2.793  0.0058 -0.2717 -0.1044
 2050SOL    HW117786   1.023   2.817   2.877  1.8684 -1.5309  1.0795
 2050SOL    HW217787   1.143   2.753   2.822  0.3628  0.0464 -0.5249
 2051SOL     OW17788   4.199   3.276   7.833 -0.3080 -0.3867  0.0795
 2051SOL    HW117789   4.238   3.188   7.826 -1.5636 -0.9384  0.0168
 2051SOL    HW217790   4.209   3.289   7.928 -1.0679  1.3416 -0.0882
 2052SOL     OW17791   1.314   2.427   5.335  0.8944 -0.4377  0.3883
 2052SOL    HW117792   1.281   2.354   5.282  0.1888  1.9799 -2.5256
 2052SOL    HW217793   1.274   2.506   5.299  2.8928 -0.7013 -2.4136
 2053SOL     OW17794   2.720   3.700   2.504 -0.4600 -0.2398 -0.0268
 2053SOL    HW117795   2.645   3.729   2.452 -0.5911 -1.6462 -0.6299
 2053SOL    HW217796   2.690   3.614   2.532  0.7329  0.0939  2.3160
 2054SOL     OW17797   3.765   1.599  11.251  0.2763  0.1723 -0.1311
 2054SOL    HW117798   3.831   1.602  11.321 -2.1083  0.5331  2.1240
 2054SOL    HW217799   3.808   1.644  11.178 -3.0029  1.0421 -1.5200
 2055SOL     OW17800   0.587   1.914   5.991 -0.1547 -0.3338  0.1493
 2055SOL    HW117801   0.601   1.869   6.074 -3.7067 -1.7698 -0.0236
 2055SOL    HW217802   0.530   1.850   5.948  0.8927 -0.6866 -0.7149
 2056SOL     OW17803   4.415   3.447   0.546  0.6413 -0.0838 -1.0289
 2056SOL    HW117804   4.339   3.500   0.523  1.1767  0.6216 -1.1664
 2056SOL    HW217805   4.442   3.493   0.625  0.1756 -0.5183 -0.6162
 2057SOL     OW17806   4.018   3.361   6.867 -1.0419 -0.1619 -0.2871
 2057SOL    HW117807   3.988   3.280   6.909 -1.5538 -0.4171 -1.1524
 2057SOL    HW217808   4.031   3.318   6.783 -0.3984  1.1106 -0.8349
 2058SOL     OW17809   3.982   3.864   4.646 -0.3629 -0.0512  0.4580
 2058SOL    HW117810   4.023   3.778   4.637 -1.1218 -0.6533  2.7316
 2058SOL    HW217811   4.050   3.925   4.618 -2.0986  1.1379 -1.1908
 2059SOL     OW17812   1.082   4.426   2.532  0.3049 -0.5318  0.1486
 2059SOL    HW117813   1.175   4.404   2.528  0.2442 -0.6910 -0.3677
 2059SOL    HW217814   1.059   4.349   2.585  2.5146 -1.7918 -0.7038
 2060SOL     OW17815   3.204   0.934   3.652  0.2045  0.2424  0.5315
 2060SOL    HW117816   3.222   0.851   3.697 -3.0959 -0.8044 -0.1210
 2060SOL    HW217817   3.271   0.936   3.584 -1.3519  2.9291 -0.8993
 2061SOL     OW17818   0.593   0.422   9.247 -0.1835  0.0516  0.2734
 2061SOL    HW117819   0.644   0.341   9.259  1.4475  0.5369 -3.2793
 2061SOL    HW217820   0.603   0.451   9.338 -0.9711  1.0164  0.0512
 2062SOL     OW17821   0.021   2.170   2.530  0.3532  0.4089 -0.4357
 2062SOL    HW117822   4.686   2.220   2.494  0.3353  0.2866 -0.5695
 2062SOL    HW217823   0.060   2.122   2.457  1.0251  2.6288 -1.5362
 2063SOL     OW17824   0.953   0.300   1.072  0.3560 -0.0905  0.3124
 2063SOL    HW117825   0.914   0.213   1.061  1.7285 -0.3791 -2.4129
 2063SOL    HW217826   0.887   0.364   1.049  0.7488  0.7979  1.6700
 2064SOL     OW17827   0.070   3.709  10.424 -0.0941  0.2885  0.1068
 2064SOL    HW117828   0.016   3.692  10.346 -0.2097 -0.7219  0.4031
 2064SOL    HW217829   0.007   3.677  10.489 -0.0181 -1.3113 -0.6035
 2065SOL     OW17830   1.280   1.187   3.281 -0.6027 -0.2323 -0.3062
 2065SOL    HW117831   1.239   1.246   3.218  0.4491  1.9208  1.0488
 2065SOL    HW217832   1.248   1.102   3.249 -1.2745 -0.7945  1.8590
 2066SOL     OW17833   0.349   2.763   9.370 -0.0686  0.3947 -0.1339
 2066SOL    HW117834   0.385   2.675   9.379 -2.5741 -0.7055 -0.9790
 2066SOL    HW217835   0.417   2.818   9.408  0.2965  0.3783 -0.7734
 2067SOL     OW17836   0.637   0.212   2.653 -0.5825  0.8199  0.3210
 2067SOL    HW117837   0.668   0.130   2.691  0.2633  0.9709 -0.0381
 2067SOL    HW217838   0.717   0.264   2.656 -0.0827 -0.0080  1.5197
 2068SOL     OW17839   3.153   2.691   6.524  0.1768  0.4439  0.5797
 2068SOL    HW117840   3.177   2.761   6.463  0.4353  0.6567  0.9269
 2068SOL    HW217841   3.063   2.703   6.555  0.2758  0.4486  0.8615
 2069SOL     OW17842   4.334   1.598   5.803  0.0873  0.0955 -0.2322
 2069SOL    HW117843   4.320   1.609   5.897 -3.1986  0.1600 -0.7213
 2069SOL    HW217844   4.413   1.544   5.807 -1.0976 -1.7721 -2.2922
 2070SOL     OW17845   2.105   2.512   1.727  0.0667 -0.9528 -0.0586
 2070SOL    HW117846   2.041   2.571   1.687  0.5145 -0.2325  0.2922
 2070SOL    HW217847   2.184   2.565   1.732 -1.9853  2.2121 -2.0135
 2071SOL     OW17848   1.401   2.826   3.582  0.3402 -0.0745 -0.1424
 2071SOL    HW117849   1.429   2.799   3.494 -0.5133 -0.0737 -0.4083
 2071SOL    HW217850   1.331   2.888   3.564  1.0046  0.7504  0.1036
 2072SOL     OW17851   1.420   0.903   0.341  0.6226 -0.0894  0.4445
 2072SOL    HW117852   1.493   0.957   0.370  0.1004 -0.1484  1.8632
 2072SOL    HW217853   1.394   0.942   0.257 -1.0291 -0.0130  0.9918
 2073SOL     OW17854   2.027   2.755  10.714  0.5441  0.3050  0.0744
 2073SOL    HW117855   2.031   2.803  10.631  2.1911  0.0885  0.0310
 2073SOL    HW217856   2.119   2.757  10.741  0.0667  1.2561  1.5687
 2074SOL     OW17857   1.682   0.388  12.141 -0.4609  0.0101  0.3085
 2074SOL    HW117858   1.642   0.474  12.129  3.1479  1.6632  0.0577
 2074SOL    HW217859   1.606   0.332  12.154  0.2902 -1.0118  0.3090
 2075SOL     OW17860   3.611   2.399  10.827 -0.1165 -0.5407 -0.2302
 2075SOL    HW117861   3.519   2.376  10.841 -0.2504  0.8406  1.1596
 2075SOL    HW217862   3.652   2.315  10.848  2.9421  0.8218 -0.8299
 2076SOL     OW17863   4.111   2.647   4.474  0.6077  0.3139  0.8615
 2076SOL    HW117864   4.197   2.654   4.517  0.3499 -0.5125  1.5051
 2076SOL    HW217865   4.119   2.574   4.412 -2.0996  1.5312 -0.9311
 2077SOL     OW17866   0.319   4.407   2.498 -0.8178  0.0973 -0.0961
 2077SOL    HW117867   0.358   4.379   2.580 -0.1174  0.2967 -0.3607
 2077SOL    HW217868   0.400   4.412   2.447 -0.8185 -1.9976 -0.3169
 2078SOL     OW17869   0.132   0.599   4.611 -0.0745  0.4269  0.0559
 2078SOL    HW117870   0.190   0.599   4.535  1.1940 -0.7309  1.0477
 2078SOL    HW217871   0.184   0.620   4.688  2.1082  0.7025 -1.4970
 2079SOL     OW17872   2.735   3.629   3.660  0.3253  0.6337 -0.4731
 2079SOL    HW117873   2.776   3.597   3.740 -1.8524 -2.7683 -0.6999
 2079SOL    HW217874   2.724   3.545   3.615 -0.6723 -0.2940  1.5073
 2080SOL     OW17875   4.563   1.835   5.713 -0.4062  0.3227  0.1813
 2080SOL    HW117876   4.581   1.846   5.620 -2.0743  2.0398  0.0720
 2080SOL    HW217877   4.495   1.770   5.701 -1.5161  1.1805  1.7319
 2081SOL     OW17878   4.109   0.176  16.738 -0.0448  0.0966 -0.0421
 2081SOL    HW117879   4.162   0.144  16.666  1.2560 -0.5130  1.1787
 2081SOL    HW217880   4.129   0.109  16.804  0.7916 -0.2361 -0.6322
 2082SOL     OW17881   4.122   1.133  10.575  0.0291 -0.1223  0.8745
 2082SOL    HW117882   4.131   1.228  10.573  2.0654 -0.2895  1.6605
 2082SOL    HW217883   4.029   1.120  10.560  0.2849 -1.6931  0.6368
 2083SOL     OW17884   0.624   0.153   3.207 -0.7025  0.6849  0.8074
 2083SOL    HW117885   0.604   0.061   3.185  3.3350  0.2003 -0.8638
 2083SOL    HW217886   0.571   0.159   3.286  0.1743 -0.0705  1.4590
 2084SOL     OW17887   3.270   3.250   6.643 -0.3777 -0.0365  0.6945
 2084SOL    HW117888   3.300   3.219   6.558  0.9695 -1.6354  1.7411
 2084SOL    HW217889   3.288   3.171   6.694  0.3134 -0.9281 -0.9393
 2085SOL     OW17890   4.459   1.235   5.994 -0.3157 -0.3544 -0.3151
 2085SOL    HW117891   4.502   1.316   5.966 -0.4368 -0.3832 -0.5833
 2085SOL    HW217892   4.379   1.244   5.943 -0.1670  1.4814 -0.2223
 2086SOL     OW17893   1.320   0.122  16.798 -0.5544 -0.7163  0.5336
 2086SOL    HW117894   1.338   0.129  16.892 -0.0897  2.3526  0.2407
 2086SOL    HW217895   1.366   0.043  16.772 -0.3590 -0.8491  1.2866
 2087SOL     OW17896   2.528   4.311  17.428 -0.7216 -0.4526 -0.0903
 2087SOL    HW117897   2.561   4.303  17.517  0.9205 -1.9442 -0.8130
 2087SOL    HW217898   2.612   4.312  17.381 -0.2116 -0.8495  0.8019
 2088SOL     OW17899   1.911   2.379   0.165  0.2189  0.6138 -0.2084
 2088SOL    HW117900   1.996   2.383   0.210  0.0312 -1.8481  0.3845
 2088SOL    HW217901   1.897   2.286   0.150  0.4614  0.4156  0.7882
 2089SOL     OW17902   2.142   0.248  16.948 -0.2538  0.3499 -0.5336
 2089SOL    HW117903   2.141   0.279  16.857 -1.8738  0.7989 -0.3619
 2089SOL    HW217904   2.091   0.318  16.989  1.9068  2.0585 -0.7329
 2090SOL     OW17905   2.655   2.682   2.925 -0.2845 -0.3230  0.3575
 2090SOL    HW117906   2.716   2.611   2.941  0.2208  0.1659  0.6051
 2090SOL    HW217907   2.594   2.629   2.874  0.2621  1.1441 -1.8350
 2091SOL     OW17908   0.229   4.307  15.112 -0.0428 -0.5981  0.0647
 2091SOL    HW117909   0.322   4.290  15.095 -0.6540 -0.5075 -3.3848
 2091SOL    HW217910   0.190   4.220  15.105  0.4691 -1.0043  2.3612
 2092SOL     OW17911   4.649   2.048   2.858 -0.1116  0.2934 -1.0578
 2092SOL    HW117912   4.637   2.000   2.940 -2.5474 -1.0849 -2.2296
 2092SOL    HW217913   4.562   2.054   2.819  0.8256 -1.3177 -3.4126
 2093SOL     OW17914   2.832   4.596   1.429 -0.5709 -0.1667 -0.6524
 2093SOL    HW117915   2.765   4.545   1.474 -1.8714  1.2648 -0.9590
 2093SOL    HW217916   2.875   4.521   1.389  2.1094  1.9676 -1.7708
 2094SOL     OW17917   3.041   1.216   2.640 -0.4506 -0.1409 -0.0450
 2094SOL    HW117918   3.115   1.266   2.674 -1.1528 -0.5814  2.1257
 2094SOL    HW217919   3.028   1.256   2.555  1.5123 -0.6929 -0.6232
 2095SOL     OW17920   2.844   4.212   4.247 -0.6969 -0.2076  0.2620
 2095SOL    HW117921   2.789   4.209   4.168  0.3263 -1.4218 -0.4009
 2095SOL    HW217922   2.817   4.302   4.264 -1.6676 -0.7430  1.5201
 2096SOL     OW17923   1.045   2.248  16.231 -0.5324  0.4513 -0.0555
 2096SOL    HW117924   1.085   2.329  16.197 -1.6342  1.5403  1.2567
 2096SOL    HW217925   1.041   2.196  16.151 -1.6160 -0.4624  0.5987
 2097SOL     OW17926   3.276   4.219   1.326  0.2344  0.1647  0.4772
 2097SOL    HW117927   3.313   4.178   1.248  2.4093  1.1894  0.9923
 2097SOL    HW217928   3.345   4.277   1.357  0.1150 -0.5103  1.9818
 2098SOL     OW17929   3.365   3.183   2.459  0.1671  0.5661 -0.5398
 2098SOL    HW117930   3.348   3.151   2.370  0.5674  0.2436 -0.5003
 2098SOL    HW217931   3.274   3.200   2.484  0.5040  0.9790  0.4080
 2099SOL     OW17932   2.493   1.639   9.337 -0.2858 -0.0453 -0.0643
 2099SOL    HW117933   2.487   1.544   9.349  0.6346  0.4213  4.0674
 2099SOL    HW217934   2.434   1.671   9.405 -0.4270  1.1395 -0.7499
 2100SOL     OW17935   0.469   0.571   8.880 -0.3606 -0.2847  0.2093
 2100SOL    HW117936   0.476   0.486   8.923 -3.0053 -1.2424 -1.2415
 2100SOL    HW217937   0.384   0.555   8.838 -0.9855  4.9472 -0.5350
 2101SOL     OW17938   0.910   0.668   8.226 -0.3789 -0.2842  0.2157
 2101SOL    HW117939   0.865   0.631   8.151  0.7601  0.3125 -0.7598
 2101SOL    HW217940   0.845   0.735   8.246  1.5909  1.9549 -0.8652
 2102SOL     OW17941   3.271   1.573   8.817 -0.1955  0.2329 -0.2983
 2102SOL    HW117942   3.202   1.507   8.815 -0.9435  0.9913  0.9137
 2102SOL    HW217943   3.311   1.551   8.733  1.0857  0.9722  0.1178
 2103SOL     OW17944   1.793   1.234  17.009  0.5339 -0.2849 -0.1046
 2103SOL    HW117945   1.782   1.154  17.060 -0.1012  0.2371  0.5794
 2103SOL    HW217946   1.840   1.287  17.073  0.7640 -1.3509  0.6042
 2104SOL     OW17947   2.980   0.297   8.070 -0.0265 -0.2710  0.3043
 2104SOL    HW117948   2.893   0.296   8.030  0.2481 -0.4438 -0.2830
 2104SOL    HW217949   3.026   0.217   8.043  1.3963  0.3067  0.9979
 2105SOL     OW17950   0.090   3.518   7.321  0.5537  0.2472  0.8829
 2105SOL    HW117951   0.002   3.496   7.351 -0.0993  1.7963  0.1500
 2105SOL    HW217952   0.120   3.582   7.386  2.5526 -1.1549  1.3421
 2106SOL     OW17953   2.089   3.198   9.912 -0.6787 -0.2016  0.2102
 2106SOL    HW117954   2.170   3.249   9.916 -1.5339  1.1387  0.3893
 2106SOL    HW217955   2.049   3.212   9.998 -1.1490 -1.1754  0.1530
 2107SOL     OW17956   4.282   1.530   3.561 -0.0357 -0.2908 -0.0947
 2107SOL    HW117957   4.236   1.478   3.495  1.0234 -3.0502  1.3234
 2107SOL    HW217958   4.326   1.466   3.617 -0.7058  1.0383  1.9323
 2108SOL     OW17959   0.664   4.713   9.076 -0.3042  0.2597 -0.2082
 2108SOL    HW117960   0.634   4.684   8.991 -0.5990 -0.8623  0.2832
 2108SOL    HW217961   0.759   4.714   9.063 -0.3997 -2.7739 -1.1451
 2109SOL     OW17962   0.738   1.169   0.170  0.5421 -0.5384  0.0299
 2109SOL    HW117963   0.789   1.099   0.129 -1.0838 -0.7806 -1.5856
 2109SOL    HW217964   0.686   1.212   0.102  0.3975  0.7348  0.9594
 2110SOL     OW17965   1.315   4.350   2.634 -0.3404  0.0034  0.1985
 2110SOL    HW117966   1.324   4.410   2.708 -3.5274  0.8193 -0.0758
 2110SOL    HW217967   1.334   4.276   2.691  1.3900  0.3952  0.1398
 2111SOL     OW17968   4.042   3.768  10.024  0.2249 -0.5606  0.7590
 2111SOL    HW117969   4.011   3.859  10.025 -0.4733 -0.8407  2.8355
 2111SOL    HW217970   3.965   3.723  10.058 -1.8769  2.3257 -0.1539
 2112SOL     OW17971   3.424   2.415   8.112  0.8199  0.3541 -0.4032
 2112SOL    HW117972   3.509   2.391   8.075  1.6660  2.4232  0.2101
 2112SOL    HW217973   3.437   2.396   8.204  0.9768  0.8560 -0.3263
 2113SOL     OW17974   2.716   4.320   0.378  0.2406  0.7638  0.2877
 2113SOL    HW117975   2.636   4.359   0.342 -0.5460 -0.0188  1.1894
 2113SOL    HW217976   2.735   4.372   0.456  1.1959 -0.1027  0.6175
 2114SOL     OW17977   4.044   4.229   3.538 -0.4590 -0.0492 -0.0810
 2114SOL    HW117978   4.061   4.196   3.450  0.9590 -1.0764  0.5774
 2114SOL    HW217979   3.969   4.286   3.523 -0.5534 -0.2698 -0.4422
 2115SOL     OW17980   1.240   2.445   1.786 -0.2194 -0.2764 -0.3576
 2115SOL    HW117981   1.189   2.506   1.839  1.4637  0.4695  0.4119
 2115SOL    HW217982   1.302   2.431   1.859 -0.9109  0.0678  0.2925
 2116SOL     OW17983   2.193   1.304  12.706 -0.2993  0.8875 -0.1800
 2116SOL    HW117984   2.160   1.382  12.661 -1.4310  0.1952 -0.5521
 2116SOL    HW217985   2.119   1.243  12.700  2.0030 -2.0144  0.9550
 2117SOL     OW17986   3.929   4.025   2.570 -0.3755 -0.0143 -0.3369
 2117SOL    HW117987   3.963   4.080   2.641  2.7989 -0.9407 -1.1572
 2117SOL    HW217988   3.881   4.086   2.515 -0.0481  0.0817 -0.5146
 2118SOL     OW17989   3.907   1.673   8.114  0.2963  0.0085  0.3426
 2118SOL    HW117990   3.840   1.624   8.162 -1.2842 -0.9142 -2.8143
 2118SOL    HW217991   3.874   1.760   8.137 -2.4824 -1.4489  1.8383
 2119SOL     OW17992   1.019   0.374   2.298 -0.3694  0.2710  0.1900
 2119SOL    HW117993   0.926   0.392   2.307 -0.3760 -0.5443  1.7543
 2119SOL    HW217994   1.016   0.296   2.242 -0.5435 -0.7033  1.5551
 2120SOL     OW17995   0.764   4.698   7.686  0.5842  0.1594  0.2782
 2120SOL    HW117996   0.764   0.009   7.604  0.9064 -0.4011 -0.0601
 2120SOL    HW217997   0.856   4.672   7.691  1.0413  1.7158 -0.2002
 2121SOL     OW17998   4.322   1.309   7.543  0.1401  0.0551  0.1125
 2121SOL    HW117999   4.243   1.273   7.504  0.8801 -1.1888 -0.2326
 2121SOL    HW218000   4.351   1.235   7.595 -0.4646 -0.7145 -0.6463
 2122SOL     OW18001   4.166   0.548   5.753 -0.2140 -0.3765 -0.2513
 2122SOL    HW118002   4.194   0.618   5.695 -1.5233  0.1373 -0.2508
 2122SOL    HW218003   4.167   0.467   5.701 -1.8442 -0.7361  0.2703
 2123SOL     OW18004   1.850   1.250  16.724  0.4625 -0.4066  0.8329
 2123SOL    HW118005   1.826   1.229  16.814  0.9372  3.9267  1.9580
 2123SOL    HW218006   1.803   1.175  16.688 -1.4428  0.7409  0.9580
 2124SOL     OW18007   2.124   1.042  16.806  0.5862 -0.2943  0.3852
 2124SOL    HW118008   2.072   1.040  16.725  2.5957  2.4436 -0.9498
 2124SOL    HW218009   2.182   0.967  16.804 -0.2343 -0.8721 -1.7307
 2125SOL     OW18010   3.732   0.987  12.097  0.4158 -0.3926 -0.2096
 2125SOL    HW118011   3.775   1.046  12.159 -1.3711 -0.3543  1.0200
 2125SOL    HW218012   3.771   1.019  12.016 -1.6071  1.2512 -0.5280
 2126SOL     OW18013   1.781   0.831   3.748  0.1683  0.0231  0.1292
 2126SOL    HW118014   1.784   0.776   3.826  1.7916 -0.8498 -0.5524
 2126SOL    HW218015   1.799   0.772   3.675 -1.5637  1.0630 -1.1243
 2127SOL     OW18016   4.307   2.369   6.873  0.5792 -0.5817  0.2872
 2127SOL    HW118017   4.383   2.405   6.827  1.1165  0.1886  1.8084
 2127SOL    HW218018   4.353   2.300   6.920 -0.3977 -0.6177  1.1839
 2128SOL     OW18019   3.250   4.267  17.077 -0.4324  0.0557  0.3489
 2128SOL    HW118020   3.310   4.293  17.006  0.0828 -0.6164  0.5372
 2128SOL    HW218021   3.199   4.347  17.091 -0.8432  0.1416 -1.5697
 2129SOL     OW18022   2.829   0.236   3.918  0.5850  0.7427  0.0498
 2129SOL    HW118023   2.828   0.145   3.946  0.3393 -0.2054 -3.0714
 2129SOL    HW218024   2.783   0.235   3.834 -1.7267  3.0771  1.2625
 2130SOL     OW18025   2.889   1.180   4.591  0.2956 -0.1428 -0.6161
 2130SOL    HW118026   2.807   1.133   4.607 -0.0522  0.2631 -1.2167
 2130SOL    HW218027   2.949   1.139   4.653 -1.3752 -1.2728  0.2788
 2131SOL     OW18028   3.242   1.640   4.838 -0.3950  0.3705 -0.2340
 2131SOL    HW118029   3.279   1.651   4.926  0.5057  0.5261 -0.6322
 2131SOL    HW218030   3.264   1.550   4.814  0.2021  0.1612  1.0915
 2132SOL     OW18031   0.520   1.771   7.688 -0.0165  0.2023 -0.1287
 2132SOL    HW118032   0.545   1.806   7.773 -0.7739 -0.5699  0.4171
 2132SOL    HW218033   0.514   1.844   7.627 -0.5139  0.0822 -0.2267
 2133SOL     OW18034   3.715   2.083   3.425  0.2621 -1.0327  0.3957
 2133SOL    HW118035   3.782   2.143   3.393 -0.3033 -0.2177  0.7571
 2133SOL    HW218036   3.664   2.152   3.467 -0.3174 -2.0330  1.3261
 2134SOL     OW18037   1.354   0.128   6.952 -0.1431  0.1155  0.2444
 2134SOL    HW118038   1.318   0.206   6.994 -1.7575 -0.7377  0.4318
 2134SOL    HW218039   1.347   0.156   6.861  1.4235 -0.3746 -0.0259
 2135SOL     OW18040   0.190   2.879   2.886 -0.2032  0.0429  0.0158
 2135SOL    HW118041   0.269   2.900   2.935 -0.9585  0.8912  0.8662
 2135SOL    HW218042   0.204   2.790   2.854  0.6454  0.5954 -1.1373
 2136SOL     OW18043   2.589   1.638   8.648 -0.2577 -0.2496  0.1675
 2136SOL    HW118044   2.599   1.578   8.722 -3.7486 -0.3709  0.5138
 2136SOL    HW218045   2.645   1.708   8.684 -0.4057  0.0848 -0.2588
 2137SOL     OW18046   2.737   2.492   3.777 -0.5476 -0.4333 -0.4075
 2137SOL    HW118047   2.660   2.533   3.738  0.0321 -0.5866 -1.7219
 2137SOL    HW218048   2.724   2.402   3.747  1.5504 -0.9875  0.3383
 2138SOL     OW18049   2.994   2.523   5.433  0.0417 -0.0884  0.0060
 2138SOL    HW118050   3.083   2.494   5.453  0.7651  0.9547 -1.7454
 2138SOL    HW218051   3.004   2.543   5.340 -0.0369  0.8189  0.1860
 2139SOL     OW18052   4.597   4.100   3.326 -0.2712 -0.0047  0.3778
 2139SOL    HW118053   4.527   4.149   3.284  0.8157 -0.6464 -2.2554
 2139SOL    HW218054   4.608   4.147   3.408 -2.7419  1.3581 -0.0846
 2140SOL     OW18055   2.504   4.637   5.873  0.5011  0.0125 -0.0309
 2140SOL    HW118056   2.558   4.658   5.948 -0.1688  0.5316  0.3029
 2140SOL    HW218057   2.443   4.577   5.916  1.6162 -0.7554  0.4709
 2141SOL     OW18058   2.063   2.644   4.807 -0.4526 -0.2162  0.4517
 2141SOL    HW118059   2.026   2.557   4.820  1.7697 -0.9421  1.8336
 2141SOL    HW218060   1.987   2.677   4.760  1.1050  1.0548 -1.2026
 2142SOL     OW18061   0.444   1.511  15.693  0.1591 -0.9290 -0.8897
 2142SOL    HW118062   0.475   1.542  15.608  3.7739 -0.7635  0.5054
 2142SOL    HW218063   0.423   1.420  15.672 -0.9358 -0.7039 -0.7886
 2143SOL     OW18064   4.087   1.536   2.727 -0.1600  0.2759  0.1964
 2143SOL    HW118065   3.993   1.554   2.724 -0.1997 -0.0484 -0.3871
 2143SOL    HW218066   4.102   1.482   2.804  0.4633  2.0106  1.2970
 2144SOL     OW18067   4.406   2.433  12.661  0.1116  0.7417  0.0986
 2144SOL    HW118068   4.361   2.425  12.745 -3.0719 -1.8615 -1.8736
 2144SOL    HW218069   4.491   2.470  12.686  0.6106  0.0662 -0.6125
 2145SOL     OW18070   2.632   3.198   8.120  0.0126  0.2581 -0.4531
 2145SOL    HW118071   2.671   3.169   8.202 -0.1353 -0.6757 -0.7106
 2145SOL    HW218072   2.650   3.292   8.112  1.2701 -0.0408 -1.0896
 2146SOL     OW18073   3.057   4.314   7.600 -0.0366  0.2473 -0.1286
 2146SOL    HW118074   2.972   4.275   7.576  0.5100  0.5493 -2.5760
 2146SOL    HW218075   3.121   4.254   7.562 -0.4588 -1.2322  1.4607
 2147SOL     OW18076   4.613   2.682   6.475 -0.2208  0.0774  0.0452
 2147SOL    HW118077   4.580   2.771   6.461 -0.5882  0.3003  2.3231
 2147SOL    HW218078   4.599   2.663   6.568  0.5470  2.9378  0.7438
 2148SOL     OW18079   2.938   2.471   2.134  0.3209  0.6243  0.3287
 2148SOL    HW118080   2.863   2.451   2.190 -0.3004 -0.0892 -0.7592
 2148SOL    HW218081   2.991   2.518   2.198 -0.1382 -0.4605  1.5157
 2149SOL     OW18082   2.199   0.552   8.146 -0.4557 -0.2886  0.3786
 2149SOL    HW118083   2.204   0.530   8.239  0.8740  0.3188  0.4446
 2149SOL    HW218084   2.293   0.544   8.129 -0.3991 -1.4571  1.1939
 2150SOL     OW18085   4.625   0.384   9.439  0.5747  0.2490 -0.3883
 2150SOL    HW118086   4.717   0.410   9.431  1.2400 -1.6035  1.0661
 2150SOL    HW218087   4.635   0.293   9.468  2.0961 -0.2811 -2.5557
 2151SOL     OW18088   3.215   4.728   0.816  0.6432 -0.3672  0.2927
 2151SOL    HW118089   3.145   4.684   0.864  0.7338 -1.4674 -0.5931
 2151SOL    HW218090   3.193   0.083   0.831 -0.9599 -1.0470  2.1172
 2152SOL     OW18091   1.760   1.680   7.530  0.2862 -0.6811  0.1730
 2152SOL    HW118092   1.751   1.731   7.449 -0.7345 -0.2613  0.5493
 2152SOL    HW218093   1.822   1.740   7.572 -0.0154  0.4761 -1.0190
 2153SOL     OW18094   1.829   2.726   4.708 -0.7496  1.0289 -0.4944
 2153SOL    HW118095   1.773   2.664   4.754  0.6771  0.0884 -0.0225
 2153SOL    HW218096   1.765   2.773   4.654 -1.4877 -0.1751 -0.6753
 2154SOL     OW18097   0.934   4.455  12.843 -0.3627  0.3881  0.1225
 2154SOL    HW118098   0.938   4.481  12.751 -1.6917 -1.2340 -0.3979
 2154SOL    HW218099   0.983   4.525  12.887  0.3255  0.8698 -1.4235
 2155SOL     OW18100   2.332   0.611   8.972 -0.2415 -0.1368  0.0178
 2155SOL    HW118101   2.330   0.681   9.038  0.2448  3.6159 -4.0045
 2155SOL    HW218102   2.256   0.558   8.999  0.5826 -1.5502 -0.4826
 2156SOL     OW18103   2.080   0.090   4.726 -0.0467  0.1892  0.8327
 2156SOL    HW118104   2.156   0.058   4.774 -0.9773 -0.6818  1.7069
 2156SOL    HW218105   2.102   0.043   4.645 -0.3884  0.3360  0.6535
 2157SOL     OW18106   0.689   3.634   9.288 -0.0867 -0.0367 -0.4278
 2157SOL    HW118107   0.652   3.578   9.220 -2.3406  0.9599 -0.0282
 2157SOL    HW218108   0.653   3.722   9.276 -0.9797 -0.1554  1.3596
 2158SOL     OW18109   4.285   4.317   8.446 -0.0778 -0.2934 -0.3134
 2158SOL    HW118110   4.233   4.277   8.515  0.0320 -0.3618 -0.2717
 2158SOL    HW218111   4.288   4.240   8.390 -1.6563 -0.7743  0.2555
 2159SOL     OW18112   3.829   3.513  14.081  0.2039 -0.4536 -0.8853
 2159SOL    HW118113   3.851   3.440  14.139  1.0417  0.2626 -0.2966
 2159SOL    HW218114   3.915   3.553  14.067 -0.5231  1.1393 -0.8270
 2160SOL     OW18115   1.520   2.853   5.563  0.0358 -0.0783 -0.3045
 2160SOL    HW118116   1.447   2.916   5.567 -0.8484 -1.0718 -0.9156
 2160SOL    HW218117   1.495   2.788   5.497 -0.8309  1.1285 -1.1898
 2161SOL     OW18118   2.650   4.276   9.453 -0.4656  0.0422 -0.1202
 2161SOL    HW118119   2.591   4.200   9.453  1.1108 -1.1669 -1.2131
 2161SOL    HW218120   2.643   4.284   9.358 -0.3791 -3.6744 -0.4184
 2162SOL     OW18121   3.871   1.876   5.408 -0.1624  0.2561  0.6879
 2162SOL    HW118122   3.806   1.940   5.437 -0.1167  1.0716 -1.0021
 2162SOL    HW218123   3.856   1.881   5.314  0.3377 -2.1162  0.4833
 2163SOL     OW18124   3.810   1.572   2.713  0.1919  0.2189  0.0369
 2163SOL    HW118125   3.773   1.484   2.714 -3.2423  1.6653 -0.5981
 2163SOL    HW218126   3.749   1.615   2.653  0.2947  0.9559  0.4567
 2164SOL     OW18127   2.149   2.173   7.921 -0.3726  0.0891  0.2482
 2164SOL    HW118128   2.154   2.231   7.997 -2.4337  1.3891 -0.6050
 2164SOL    HW218129   2.222   2.111   7.927 -1.5092 -1.2520  0.1578
 2165SOL     OW18130   3.965   4.725   0.962  0.6277  0.0893  0.3539
 2165SOL    HW118131   4.016   4.723   0.881 -0.3384 -1.7229 -0.2097
 2165SOL    HW218132   3.877   4.699   0.934  0.2522  3.4826 -1.5608
 2166SOL     OW18133   0.022   1.019  10.411 -0.5843  0.5009  0.0484
 2166SOL    HW118134   4.720   1.037  10.496 -0.4568  0.1495  0.1829
 2166SOL    HW218135   0.008   1.107  10.375  3.4669  1.3651  0.4667
 2167SOL     OW18136   3.445   0.020   4.814  0.0239  0.8187  0.1495
 2167SOL    HW118137   3.474   0.070   4.738  3.0451 -2.6483 -0.9944
 2167SOL    HW218138   3.411   4.683   4.765 -1.6541  0.5784  1.6476
 2168SOL     OW18139   0.167   1.717  16.310  0.3427 -0.2289  0.3463
 2168SOL    HW118140   0.261   1.733  16.299  0.4782 -1.6542 -0.6248
 2168SOL    HW218141   0.157   1.738  16.402 -0.3024 -0.6800  0.3798
 2169SOL     OW18142   2.039   0.952   3.700 -0.4915  0.0100 -0.0546
 2169SOL    HW118143   2.091   0.895   3.643 -1.5164  1.2933 -2.2749
 2169SOL    HW218144   1.977   0.890   3.739  2.3574 -2.3732  0.7127
 2170SOL     OW18145   4.536   1.260  12.101 -0.1818  0.1970 -0.2251
 2170SOL    HW118146   4.538   1.166  12.113 -1.9204  0.0878 -0.7309
 2170SOL    HW218147   4.505   1.267  12.011 -0.7329 -0.1236 -0.0564
 2171SOL     OW18148   0.533   2.338   9.584 -0.5157 -0.1740  0.2826
 2171SOL    HW118149   0.563   2.429   9.586 -0.5234 -0.1783  0.5856
 2171SOL    HW218150   0.460   2.325   9.523  0.8637  2.2915 -1.8946
 2172SOL     OW18151   1.762   3.632   3.248  0.1927  0.4344  0.2230
 2172SOL    HW118152   1.678   3.590   3.268  0.9734 -0.1269  2.4141
 2172SOL    HW218153   1.746   3.723   3.271  0.6074 -0.2305  3.1485
 2173SOL     OW18154   1.694   3.682   6.676  0.7043 -0.2984 -0.5187
 2173SOL    HW118155   1.599   3.671   6.684  0.5346  0.5637 -1.3601
 2173SOL    HW218156   1.718   3.604   6.726 -0.5763 -0.9580 -0.9326
 2174SOL     OW18157   0.238   1.210  11.293 -0.2364  0.5880 -0.6016
 2174SOL    HW118158   0.315   1.206  11.236 -0.1800  0.1257 -0.4916
 2174SOL    HW218159   0.252   1.141  11.357  1.8929  0.7441 -0.9084
 2175SOL     OW18160   3.177   0.121  11.160  0.0758 -0.0917  0.4185
 2175SOL    HW118161   3.108   0.098  11.099  0.5513  0.8551 -0.4926
 2175SOL    HW218162   3.141   0.195  11.209 -1.1639  0.6649 -1.6324
 2176SOL     OW18163   4.160   1.031  13.742 -0.3799  0.2838  0.0088
 2176SOL    HW118164   4.196   0.954  13.696  1.5973  0.4140  1.3233
 2176SOL    HW218165   4.079   0.984  13.761 -0.5531  0.7860  0.5072
 2177SOL     OW18166   1.518   2.022  14.452 -0.1185  0.0905  0.4313
 2177SOL    HW118167   1.486   1.935  14.474 -0.2002  0.7570  2.9501
 2177SOL    HW218168   1.591   2.030  14.513  0.0418  1.1828  0.0972
 2178SOL     OW18169   3.848   3.315   6.550  0.0588 -0.0010  0.1819
 2178SOL    HW118170   3.825   3.223   6.536 -0.8900  0.4727 -1.3673
 2178SOL    HW218171   3.941   3.305   6.568 -0.4222 -2.0725  1.6010
 2179SOL     OW18172   3.096   2.694  15.932 -0.2761 -0.1456  0.2075
 2179SOL    HW118173   3.156   2.713  16.004  1.7767 -1.2768 -1.2005
 2179SOL    HW218174   3.115   2.760  15.866  1.2437 -0.5051  0.2750
 2180SOL     OW18175   0.883   4.475   3.452  0.2883 -0.4950 -0.1266
 2180SOL    HW118176   0.927   4.498   3.534  1.9968 -0.4630 -1.0496
 2180SOL    HW218177   0.864   4.382   3.468 -2.7633  0.5784  2.5360
 2181SOL     OW18178   4.070   0.495  11.305  0.0347 -0.0918 -0.3616
 2181SOL    HW118179   4.161   0.498  11.275  0.2746 -0.1209  0.3429
 2181SOL    HW218180   4.043   0.403  11.315 -1.3185  0.3403 -0.1201
 2182SOL     OW18181   2.627   2.475   3.214  0.0206  0.3555  0.0606
 2182SOL    HW118182   2.574   2.494   3.136  1.1705 -0.0804 -0.8374
 2182SOL    HW218183   2.568   2.501   3.284  0.1283  0.6104  0.0564
 2183SOL     OW18184   0.675   3.310   4.186  0.6829  0.2016  0.0429
 2183SOL    HW118185   0.602   3.366   4.212  1.2256  0.5573  0.7978
 2183SOL    HW218186   0.638   3.258   4.114 -0.8818  1.1897  0.1423
 2184SOL     OW18187   3.734   3.309   3.492  0.3542  0.1350  0.3120
 2184SOL    HW118188   3.687   3.301   3.575  0.2662  0.0293  0.2517
 2184SOL    HW218189   3.690   3.238   3.445 -0.6988 -1.2955  3.4519
 2185SOL     OW18190   1.846   3.390   4.548 -0.1498  0.2510 -0.2446
 2185SOL    HW118191   1.877   3.299   4.546 -0.8788 -0.0363  1.6274
 2185SOL    HW218192   1.825   3.394   4.454  0.6063  1.0918 -0.3782
 2186SOL     OW18193   1.110   0.340   3.051 -0.1851 -0.7970 -0.4392
 2186SOL    HW118194   1.051   0.400   3.006 -0.7704  0.3910  1.8874
 2186SOL    HW218195   1.052   0.274   3.088 -1.0790 -0.1132 -0.6314
 2187SOL     OW18196   3.025   0.768  11.944 -0.6314 -0.4138  0.3080
 2187SOL    HW118197   3.043   0.697  11.882 -0.9378  0.1370 -0.4109
 2187SOL    HW218198   3.064   0.732  12.024 -0.7101 -1.2659 -0.0365
 2188SOL     OW18199   4.365   2.615   9.809  0.3395  0.1188 -1.0347
 2188SOL    HW118200   4.379   2.522   9.829 -2.3128  0.1709  1.0110
 2188SOL    HW218201   4.449   2.647   9.843  0.7521 -0.3023 -1.6675
 2189SOL     OW18202   3.456   4.549   4.215 -0.9009 -0.1780 -0.3854
 2189SOL    HW118203   3.513   4.615   4.177 -1.0670  0.8906  1.2283
 2189SOL    HW218204   3.416   4.506   4.139 -1.3439  2.0518 -1.4193
 2190SOL     OW18205   4.399   0.278   7.234 -0.2382 -0.9453  0.2435
 2190SOL    HW118206   4.432   0.366   7.251  3.6528 -2.2222 -0.8530
 2190SOL    HW218207   4.451   0.253   7.158 -0.6593  2.8828 -1.2935
 2191SOL     OW18208   0.257   3.426  13.617 -0.5357 -0.6542  0.3846
 2191SOL    HW118209   0.324   3.397  13.555  0.2266 -0.5526  1.1636
 2191SOL    HW218210   0.303   3.398  13.696 -1.6502 -2.7019  0.2920
 2192SOL     OW18211   4.487   2.499   4.620 -0.2610  0.0267 -0.3861
 2192SOL    HW118212   4.577   2.473   4.600  0.9144 -0.0527  4.9198
 2192SOL    HW218213   4.472   2.561   4.549  0.1108 -2.1865 -2.4351
 2193SOL     OW18214   0.113   2.019   2.305  0.1776  0.2011  0.3301
 2193SOL    HW118215   0.064   1.951   2.352 -1.3923  2.3911  1.8809
 2193SOL    HW218216   0.091   1.998   2.214 -1.1303 -2.4114  1.2496
 2194SOL     OW18217   2.708   4.454  10.196 -0.4730 -0.4948 -0.3524
 2194SOL    HW118218   2.721   4.373  10.247 -1.2546  0.5375  1.4788
 2194SOL    HW218219   2.796   4.477  10.168 -1.0640 -0.0177 -1.8276
 2195SOL     OW18220   2.526   1.198   6.086 -0.3445  0.0381  0.0067
 2195SOL    HW118221   2.592   1.130   6.102 -0.2606  0.4973  1.6246
 2195SOL    HW218222   2.461   1.137   6.051 -0.8890  0.4154  0.3597
 2196SOL     OW18223   1.915   0.546   0.326  0.1384  0.5568 -0.3744
 2196SOL    HW118224   1.894   0.452   0.332  0.9619  0.2439 -2.5465
 2196SOL    HW218225   1.837   0.578   0.281 -0.9635 -0.7515  0.5880
 2197SOL     OW18226   1.935   4.350   8.794 -0.0837 -0.6135 -0.2182
 2197SOL    HW118227   1.992   4.279   8.767  0.6154 -0.4194  0.7537
 2197SOL    HW218228   1.963   4.362   8.885  0.7460 -0.0871 -0.5517
 2198SOL     OW18229   0.040   3.497   8.147  0.1655 -0.2485 -0.3290
 2198SOL    HW118230   0.055   3.404   8.131 -0.8880 -0.8538  2.1318
 2198SOL    HW218231   4.688   3.505   8.115 -0.6824  0.8540  2.3234
 2199SOL     OW18232   0.592   3.972  12.289 -0.1679 -0.1762  0.3547
 2199SOL    HW118233   0.510   3.996  12.246  0.5079  0.2430 -0.6860
 2199SOL    HW218234   0.549   3.943  12.370 -3.4072  0.5695 -1.0667
 2200SOL     OW18235   3.886   3.188   7.730  0.1256 -0.3224  0.0107
 2200SOL    HW118236   3.863   3.221   7.817 -0.4669 -0.3739 -0.1208
 2200SOL    HW218237   3.980   3.203   7.726  0.1742  0.1784  2.9380
 2201SOL     OW18238   0.511   3.216   7.472 -0.1294 -0.0473 -0.4117
 2201SOL    HW118239   0.595   3.188   7.438 -0.1759 -1.3944  0.5642
 2201SOL    HW218240   0.488   3.162   7.548 -0.0123  0.4440 -0.0290
 2202SOL     OW18241   1.125   3.908   3.432 -0.8060  0.5617 -0.1606
 2202SOL    HW118242   1.033   3.929   3.446 -0.8250  0.5695 -0.2920
 2202SOL    HW218243   1.119   3.884   3.339 -1.2062  1.5417 -0.3914
 2203SOL     OW18244   2.135   1.218   1.418 -0.1321  0.0522  0.6879
 2203SOL    HW118245   2.140   1.130   1.455  1.5167 -0.3963 -0.6316
 2203SOL    HW218246   2.182   1.208   1.335 -0.9449  1.1925  0.0854
 2204SOL     OW18247   2.081   2.613   6.669 -0.7599  0.1092  0.3665
 2204SOL    HW118248   2.081   2.517   6.675 -2.2682  0.0020 -1.4846
 2204SOL    HW218249   1.986   2.620   6.658 -0.6898  0.1843 -0.1666
 2205SOL     OW18250   0.080   1.026  17.040  0.4736  0.0968 -0.0118
 2205SOL    HW118251   0.083   1.055  17.132  1.4660  1.0418 -0.3465
 2205SOL    HW218252   0.148   1.077  16.997 -0.8753  1.3089 -0.7193
 2206SOL     OW18253   0.721   2.465  16.331  0.3517 -0.1605 -0.3083
 2206SOL    HW118254   0.713   2.370  16.320 -1.1058 -0.0414 -0.2102
 2206SOL    HW218255   0.633   2.501  16.322 -0.2851 -1.6222  0.1962
 2207SOL     OW18256   1.976   0.157   3.761 -0.2875 -0.0593 -0.0055
 2207SOL    HW118257   1.920   0.092   3.804  0.7627 -0.5996  0.5416
 2207SOL    HW218258   2.063   0.119   3.774 -1.2114 -1.2036  2.7859
 2208SOL     OW18259   3.487   2.487   4.466 -0.1146  0.2027 -0.1132
 2208SOL    HW118260   3.435   2.529   4.535 -0.8198 -2.8617  1.2102
 2208SOL    HW218261   3.563   2.544   4.452 -1.7403  2.7143  1.2177
 2209SOL     OW18262   0.858   1.714   2.577 -0.1926 -0.1708 -0.4165
 2209SOL    HW118263   0.795   1.655   2.535  0.6878 -2.2158  1.1386
 2209SOL    HW218264   0.861   1.787   2.515 -2.7479  0.7351  0.5292
 2210SOL     OW18265   4.475   2.651  11.643 -0.0187 -0.2654  0.5269
 2210SOL    HW118266   4.396   2.609  11.608 -0.6334  1.2100  0.1600
 2210SOL    HW218267   4.477   2.624  11.735  1.2375 -2.7142 -0.2232
 2211SOL     OW18268   2.265   4.522   2.954  0.3067 -0.0493  0.0870
 2211SOL    HW118269   2.354   4.503   2.984 -0.7222 -1.7041  2.0493
 2211SOL    HW218270   2.252   4.615   2.976  1.8100  0.8124 -2.6218
 2212SOL     OW18271   2.271   1.353   8.194  0.0194 -0.6211  0.0137
 2212SOL    HW118272   2.316   1.306   8.124  1.5901  0.4172  0.3379
 2212SOL    HW218273   2.202   1.289   8.212 -0.0602 -0.1946  1.2185
 2213SOL     OW18274   3.010   1.423   0.175 -0.2041 -0.5124  0.0480
 2213SOL    HW118275   2.993   1.357   0.109 -0.1090  0.8448 -1.3364
 2213SOL    HW218276   3.103   1.444   0.160 -0.2404  0.1565  0.7113
 2214SOL     OW18277   4.160   3.482   9.138 -0.2802 -0.4142 -0.2294
 2214SOL    HW118278   4.066   3.490   9.150 -0.2613  0.0853 -0.3948
 2214SOL    HW218279   4.199   3.532   9.211 -2.7728  3.8294 -1.7869
 2215SOL     OW18280   0.690   0.667   4.053 -0.0933 -0.5505 -0.4324
 2215SOL    HW118281   0.728   0.582   4.029  0.9517  0.2952 -1.7817
 2215SOL    HW218282   0.642   0.653   4.134 -0.0163  0.1966 -0.2647
 2216SOL     OW18283   1.298   4.142  10.841 -0.0338 -0.1314  0.8743
 2216SOL    HW118284   1.251   4.060  10.856  0.2964 -0.3065  0.9448
 2216SOL    HW218285   1.270   4.156  10.751 -1.1319 -3.0884  0.7595
 2217SOL     OW18286   1.571   3.938   8.767  0.4838 -0.3592  0.0529
 2217SOL    HW118287   1.554   3.978   8.682 -0.5839 -0.3327  0.2789
 2217SOL    HW218288   1.483   3.945   8.805  0.9369 -0.6254  1.1419
 2218SOL     OW18289   4.370   4.010   5.347  0.7599 -0.1766  0.1436
 2218SOL    HW118290   4.330   3.927   5.372  0.3792  0.5027  1.8278
 2218SOL    HW218291   4.463   3.986   5.349  0.6762 -0.7181 -3.4056
 2219SOL     OW18292   3.794   0.896   2.542 -0.0827 -0.2292 -0.2054
 2219SOL    HW118293   3.833   0.812   2.567 -0.4354 -0.4248 -0.3030
 2219SOL    HW218294   3.705   0.890   2.579 -0.4207  1.2745 -0.7898
 2220SOL     OW18295   4.632   0.465   8.766  0.2182 -0.2807 -0.1794
 2220SOL    HW118296   4.709   0.509   8.731  0.7411 -0.6045  0.5662
 2220SOL    HW218297   4.596   0.521   8.834  1.1827  0.7165 -0.4943
 2221SOL     OW18298   0.657   2.280   7.755  0.2945 -0.4450  0.0069
 2221SOL    HW118299   0.654   2.374   7.771 -2.5983 -0.6631  0.6189
 2221SOL    HW218300   0.602   2.256   7.680  0.4415  0.1805 -0.3024
 2222SOL     OW18301   0.932   0.439   5.842 -0.2390 -0.0882  0.0593
 2222SOL    HW118302   0.923   0.491   5.921 -2.7062  0.2012 -0.4164
 2222SOL    HW218303   0.860   0.475   5.791 -1.2584 -0.7024  1.0544
 2223SOL     OW18304   2.423   0.065  15.097  0.6333  0.0169 -0.1417
 2223SOL    HW118305   2.467   0.150  15.097  2.2712 -0.8341 -1.5741
 2223SOL    HW218306   2.446   0.035  15.009  2.8518 -1.3870  0.9083
 2224SOL     OW18307   1.970   0.498  11.312 -0.8515  0.5343  0.6936
 2224SOL    HW118308   1.999   0.419  11.265 -2.7885  0.9046 -1.0825
 2224SOL    HW218309   1.990   0.474  11.402  0.0680  1.2522  0.6831
 2225SOL     OW18310   2.395   1.146   8.029 -0.5060 -0.2781  0.4795
 2225SOL    HW118311   2.350   1.066   8.056 -1.8537 -0.4839 -2.3474
 2225SOL    HW218312   2.475   1.136   8.081  0.9706 -0.7190 -1.8649
 2226SOL     OW18313   1.407   1.898   8.396 -0.1672  0.1710 -0.0122
 2226SOL    HW118314   1.418   1.924   8.487 -0.0752 -0.0762  0.0473
 2226SOL    HW218315   1.389   1.982   8.352  0.3949  0.7790  0.9320
 2227SOL     OW18316   4.428   3.980   7.795 -0.1165 -0.5559  0.3517
 2227SOL    HW118317   4.463   3.895   7.768 -1.0120 -0.4258 -1.2029
 2227SOL    HW218318   4.482   3.989   7.873  1.2492 -0.2585 -0.6230
 2228SOL     OW18319   0.745   1.410  17.317  0.0417 -0.5486 -0.0270
 2228SOL    HW118320   0.654   1.440  17.317 -0.2156 -1.3666  2.1956
 2228SOL    HW218321   0.757   1.383  17.226  0.2596  1.4660 -0.6005
 2229SOL     OW18322   0.912   2.814   0.716 -0.9598 -0.1476  0.4126
 2229SOL    HW118323   0.841   2.848   0.661 -0.7799 -1.5090 -0.6574
 2229SOL    HW218324   0.866   2.808   0.800 -3.0025  2.2910 -0.5280
 2230SOL     OW18325   0.972   0.075   3.407 -0.1835 -0.1999 -0.2771
 2230SOL    HW118326   1.003   0.010   3.469  0.9121  0.4264 -0.1733
 2230SOL    HW218327   0.914   0.124   3.466 -0.6677  0.3912 -1.2419
 2231SOL     OW18328   0.130   4.351   3.065  0.2083 -0.1385 -0.8899
 2231SOL    HW118329   0.100   4.298   2.990  1.5976 -0.3926 -1.2666
 2231SOL    HW218330   0.204   4.295   3.091  0.9750  1.6553  0.7426
 2232SOL     OW18331   3.965   1.641  11.444 -0.3042 -0.0275  0.3333
 2232SOL    HW118332   3.908   1.652  11.520 -0.0843 -0.1650  0.5188
 2232SOL    HW218333   4.028   1.703  11.481  1.5888 -1.6252 -0.2478
 2233SOL     OW18334   3.027   3.553   3.623  0.2678 -0.6175 -0.1388
 2233SOL    HW118335   3.122   3.552   3.631  0.2035 -0.6089  0.6099
 2233SOL    HW218336   3.004   3.483   3.685  3.2722 -2.3423 -0.9308
 2234SOL     OW18337   4.267   3.105  17.654  0.3873  0.1296 -0.3233
 2234SOL    HW118338   4.245   3.198  17.658 -0.8613 -0.1608 -0.5758
 2234SOL    HW218339   4.341   3.099  17.593  0.4423  2.8501 -0.5425
 2235SOL     OW18340   4.300   0.307  15.081  0.5502  0.5990  0.0887
 2235SOL    HW118341   4.219   0.354  15.102  1.0928  2.0928 -1.1283
 2235SOL    HW218342   4.310   0.303  14.986 -1.2576 -1.3495 -0.0110
 2236SOL     OW18343   2.740   2.062   4.449 -0.3103  0.4669 -0.1499
 2236SOL    HW118344   2.689   2.014   4.514  0.7750  0.0291  0.3941
 2236SOL    HW218345   2.796   1.995   4.410 -0.4416  0.8761 -1.0435
 2237SOL     OW18346   2.575   0.795   5.069  0.6025  0.2256  0.6115
 2237SOL    HW118347   2.634   0.870   5.073  0.8550  0.0629  0.0116
 2237SOL    HW218348   2.601   0.741   4.994  0.6440 -1.0122  1.5182
 2238SOL     OW18349   1.088   3.653  17.629  0.1893 -0.3010  0.2035
 2238SOL    HW118350   1.122   3.725  17.682 -2.3461  1.6239 -0.7784
 2238SOL    HW218351   1.050   3.693  17.551 -1.4575 -2.6001 -0.1706
 2239SOL     OW18352   0.577   4.397   8.545  0.0319  0.0305 -0.2632
 2239SOL    HW118353   0.605   4.475   8.497  0.7219 -0.2107 -0.2561
 2239SOL    HW218354   0.567   4.336   8.471 -0.3575 -0.1292 -0.0800
 2240SOL     OW18355   4.570   0.828   2.167  0.4239 -0.5006 -0.8715
 2240SOL    HW118356   4.548   0.743   2.128 -0.5046 -1.3102  1.3876
 2240SOL    HW218357   4.656   0.802   2.200 -0.0180 -0.8037  0.0280
 2241SOL     OW18358   0.507   0.110   0.614  0.2855  0.4126  0.2906
 2241SOL    HW118359   0.464   0.196   0.618 -2.5937 -1.1097  1.8910
 2241SOL    HW218360   0.476   0.077   0.530 -0.3627 -1.6388  1.3295
 2242SOL     OW18361   3.337   4.586   3.750  0.0984  0.2481 -0.2239
 2242SOL    HW118362   3.411   4.642   3.729 -1.2050  2.6627  1.6160
 2242SOL    HW218363   3.272   4.616   3.687 -0.9278 -2.2026 -0.3359
 2243SOL     OW18364   4.088   2.915  14.786  1.0612 -0.1154  0.3468
 2243SOL    HW118365   4.139   2.899  14.866 -0.4815  1.1138  1.5724
 2243SOL    HW218366   4.089   2.829  14.744 -1.9752  1.6255 -3.1838
 2244SOL     OW18367   4.726   0.808   7.017 -0.3662  0.3339 -0.4232
 2244SOL    HW118368   0.008   0.898   7.041  0.3258 -0.8374  3.2977
 2244SOL    HW218369   0.065   0.763   7.053  0.7071  0.4636 -2.5603
 2245SOL     OW18370   2.427   3.215  10.320 -0.0686  0.0432  0.1968
 2245SOL    HW118371   2.507   3.242  10.274  0.4524 -2.5821 -0.4095
 2245SOL    HW218372   2.466   3.194  10.404 -0.1659 -0.8425  0.0225
 2246SOL     OW18373   0.695   0.165   9.286  0.4433 -0.3121 -0.5070
 2246SOL    HW118374   0.681   0.102   9.215 -0.4074  2.4227 -2.7358
 2246SOL    HW218375   0.789   0.155   9.299  0.2200 -1.1750  0.4908
 2247SOL     OW18376   3.513   2.626   2.766 -0.4822 -0.2069  0.1550
 2247SOL    HW118377   3.435   2.662   2.722 -1.4684  0.1274  2.1616
 2247SOL    HW218378   3.557   2.565   2.708  0.4505 -1.6173  2.3301
 2248SOL     OW18379   3.740   1.605  11.924 -0.1405  0.7064  0.3324
 2248SOL    HW118380   3.786   1.528  11.957 -1.3426 -0.3939 -0.5679
 2248SOL    HW218381   3.692   1.630  12.003  1.3588  0.8765  1.1758
 2249SOL     OW18382   1.730   0.281   5.583 -0.1945 -0.1066  0.8117
 2249SOL    HW118383   1.685   0.246   5.661 -2.3848  0.9069 -0.0133
 2249SOL    HW218384   1.679   0.237   5.515  1.6160  1.9444 -1.8375
 2250SOL     OW18385   0.488   1.539  15.416 -0.0014  0.2704  0.0990
 2250SOL    HW118386   0.429   1.615  15.424 -1.3891 -0.9367  1.3181
 2250SOL    HW218387   0.545   1.574  15.347  0.2850  0.1928  0.3000
 2251SOL     OW18388   0.214   1.575   7.438 -0.3447 -0.3085  0.2383
 2251SOL    HW118389   0.232   1.590   7.530  0.8987 -1.0327  0.1203
 2251SOL    HW218390   0.272   1.502   7.413  1.7446  0.9707  1.4157
 2252SOL     OW18391   0.023   1.170   8.836 -0.4619 -0.1396  0.3667
 2252SOL    HW118392   0.102   1.220   8.858 -1.2785  2.3137 -2.2527
 2252SOL    HW218393   0.019   1.184   8.741  1.7887  1.7016  0.5401
 2253SOL     OW18394   1.276   1.436   1.424  0.4765 -0.3429  0.0750
 2253SOL    HW118395   1.360   1.436   1.470 -0.0702  2.0276  1.0912
 2253SOL    HW218396   1.271   1.528   1.398 -0.4791 -0.1471  0.9517
 2254SOL     OW18397   2.884   3.317  13.731  0.0555 -0.1800  0.0612
 2254SOL    HW118398   2.830   3.274  13.797  0.6940  0.3358  0.9331
 2254SOL    HW218399   2.971   3.277  13.742  0.5597  0.9050 -0.0010
 2255SOL     OW18400   0.358   4.682  15.884 -0.3860  0.5191  0.1334
 2255SOL    HW118401   0.424   0.001  15.925  0.4956 -2.0953  2.3736
 2255SOL    HW218402   0.390   4.591  15.890  1.7243  1.3091  1.0738
 2256SOL     OW18403   4.527   1.700  14.443  0.0135  0.1904  0.0321
 2256SOL    HW118404   4.492   1.692  14.355 -0.0278 -0.7145  0.1226
 2256SOL    HW218405   4.620   1.714  14.425  0.3756 -2.0358  0.1415
 2257SOL     OW18406   2.518   3.314  10.561  0.6372  0.6346 -0.4046
 2257SOL    HW118407   2.486   3.400  10.532 -1.1908  0.2417  0.4454
 2257SOL    HW218408   2.478   3.321  10.648 -0.9020  0.2016 -1.0800
 2258SOL     OW18409   2.349   1.891  10.837  0.3167 -0.3619 -0.3697
 2258SOL    HW118410   2.304   1.897  10.753 -2.5417  0.0362  1.1743
 2258SOL    HW218411   2.419   1.957  10.833  1.1057 -1.2422 -1.0176
 2259SOL     OW18412   4.645   3.201  17.205  1.1733  0.1756 -0.1713
 2259SOL    HW118413   4.600   3.201  17.121 -1.4725 -1.8184  1.2238
 2259SOL    HW218414   4.672   3.292  17.213 -0.6104  0.7852 -1.1037
 2260SOL     OW18415   1.323   1.578   3.384  0.2225  0.2376 -0.4146
 2260SOL    HW118416   1.237   1.589   3.425  0.0194 -1.6443 -0.3749
 2260SOL    HW218417   1.318   1.637   3.308 -0.8553 -0.0720 -0.5835
 2261SOL     OW18418   1.885   2.997   9.490  0.2334 -0.0086  0.2485
 2261SOL    HW118419   1.845   3.080   9.462 -0.6901  0.1209  1.9291
 2261SOL    HW218420   1.878   3.015   9.584  2.0083 -0.4855  0.4553
 2262SOL     OW18421   2.565   2.249   8.954 -0.4053 -0.2446 -0.3331
 2262SOL    HW118422   2.562   2.321   8.890  0.4802  0.0207 -0.0770
 2262SOL    HW218423   2.620   2.187   8.907  0.4845  0.6144 -0.4409
 2263SOL     OW18424   3.780   4.202   7.494  0.3434 -0.5199  0.6660
 2263SOL    HW118425   3.771   4.201   7.590  1.3026  0.2576  0.7725
 2263SOL    HW218426   3.723   4.276   7.475 -0.3257 -0.5916  2.3130
 2264SOL     OW18427   4.571   4.326  12.462 -0.5489 -0.4914  0.0213
 2264SOL    HW118428   4.519   4.265  12.409  0.3084  0.0134 -1.3996
 2264SOL    HW218429   4.515   4.327  12.540 -0.6924  0.1879 -0.0894
 2265SOL     OW18430   2.287   1.934   7.847 -1.0643  0.0301  0.0093
 2265SOL    HW118431   2.286   1.856   7.902  0.5044  0.9127  1.2631
 2265SOL    HW218432   2.382   1.942   7.848 -1.1375  0.9536 -0.7752
 2266SOL     OW18433   0.593   3.725  11.488  0.1154 -0.4722  0.3909
 2266SOL    HW118434   0.566   3.776  11.412 -0.8993 -2.1085 -0.3556
 2266SOL    HW218435   0.678   3.769  11.495  0.8471 -2.3327  3.2940
 2267SOL     OW18436   1.778   0.052  17.338  0.1238 -0.3383  0.1567
 2267SOL    HW118437   1.693   0.071  17.299 -0.1397 -1.8833 -0.0085
 2267SOL    HW218438   1.768   4.695  17.336 -1.8435 -0.1639  1.3655
 2268SOL     OW18439   4.431   1.392   5.379  0.6522  0.1167  0.7737
 2268SOL    HW118440   4.498   1.414   5.443  0.9729  3.9491 -0.8402
 2268SOL    HW218441   4.353   1.393   5.435  0.1984 -0.5081  0.1496
 2269SOL     OW18442   3.477   1.423   5.844  0.0044 -0.5984  0.6747
 2269SOL    HW118443   3.382   1.416   5.842  0.1492 -2.3325  0.0221
 2269SOL    HW218444   3.478   1.431   5.939 -1.8545  0.8115  0.5718
 2270SOL     OW18445   1.292   3.714   1.756 -0.5789 -0.0481  0.0036
 2270SOL    HW118446   1.246   3.791   1.723  1.2716  1.7924  1.7346
 2270SOL    HW218447   1.247   3.704   1.840 -0.3690  1.4519  0.2844
 2271SOL     OW18448   4.735   2.440  10.071  0.3502  0.2247 -0.5645
 2271SOL    HW118449   0.083   2.436  10.114 -0.3956  0.3375  0.9281
 2271SOL    HW218450   4.704   2.365  10.123 -1.1162  1.7374  0.7188
 2272SOL     OW18451   3.316   1.127   2.053  0.2075  0.2364 -0.0809
 2272SOL    HW118452   3.300   1.032   2.054 -0.7263  0.3735 -1.6032
 2272SOL    HW218453   3.247   1.151   2.114  0.3386 -0.3280  0.2888
 2273SOL     OW18454   3.601   4.231   1.286 -0.0960  0.3995  0.5028
 2273SOL    HW118455   3.668   4.297   1.271  0.7790 -0.5598  0.1847
 2273SOL    HW218456   3.655   4.167   1.332 -0.8033 -1.0562 -0.6817
 2274SOL     OW18457   1.421   3.566   8.092 -0.1219  0.0293 -0.1792
 2274SOL    HW118458   1.434   3.496   8.156 -5.7620 -1.0223 -0.2034
 2274SOL    HW218459   1.456   3.525   8.013 -0.4204  1.0893 -0.8535
 2275SOL     OW18460   4.384   4.073   4.479 -0.3779 -0.0012  0.6145
 2275SOL    HW118461   4.451   4.053   4.414 -0.9648  1.0604 -0.3162
 2275SOL    HW218462   4.402   4.006   4.544  2.2956 -0.2409 -0.3496
 2276SOL     OW18463   0.467   3.345   3.805 -0.6991  0.3384 -0.3650
 2276SOL    HW118464   0.449   3.424   3.856 -3.3851 -0.2640 -0.3885
 2276SOL    HW218465   0.509   3.372   3.724  0.6650  2.3222  1.0108
 2277SOL     OW18466   0.974   1.968   7.913 -0.2338  0.1283  0.2590
 2277SOL    HW118467   1.015   2.033   7.969 -1.5037  0.0899  1.2419
 2277SOL    HW218468   1.041   1.914   7.872 -0.5653  0.0249 -0.1436
 2278SOL     OW18469   4.366   0.801   9.929  0.8908  0.7877  0.2283
 2278SOL    HW118470   4.330   0.718   9.962  1.7157 -1.2373 -3.9546
 2278SOL    HW218471   4.298   0.831   9.869  1.8164 -1.9047 -2.1773
 2279SOL     OW18472   2.228   4.462   8.976 -0.7478 -0.2774  0.0212
 2279SOL    HW118473   2.162   4.400   9.008 -1.1660 -0.3415 -0.9830
 2279SOL    HW218474   2.169   4.520   8.928 -1.7557 -2.7057 -1.6770
 2280SOL     OW18475   2.347   2.873   8.751 -0.1352  0.4632  0.4714
 2280SOL    HW118476   2.364   2.779   8.742  0.2595  0.3226  2.6496
 2280SOL    HW218477   2.423   2.898   8.700 -0.5933 -0.8257 -0.8541
 2281SOL     OW18478   1.492   1.542   0.852 -0.0447  0.3188  0.4239
 2281SOL    HW118479   1.524   1.620   0.897  1.2430 -0.4843  0.9055
 2281SOL    HW218480   1.404   1.574   0.831 -0.0151 -0.3649 -0.7617
 2282SOL     OW18481   3.116   0.538   2.707 -0.5351 -0.0400  0.1627
 2282SOL    HW118482   3.178   0.610   2.700  1.6849 -1.9364  0.1124
 2282SOL    HW218483   3.080   0.542   2.618 -1.1072 -0.6557  0.3667
 2283SOL     OW18484   0.573   0.145  14.318 -0.1362 -0.0617 -0.4833
 2283SOL    HW118485   0.503   0.082  14.300 -1.3513  0.8594  1.0243
 2283SOL    HW218486   0.514   0.219  14.329  1.1646  0.9049  0.1034
 2284SOL     OW18487   3.996   3.253   3.505 -0.5073 -0.0977 -0.3337
 2284SOL    HW118488   4.039   3.321   3.453 -1.6190  0.0899 -1.0100
 2284SOL    HW218489   3.906   3.274   3.482 -0.5689  0.0467  0.0558
 2285SOL     OW18490   3.981   0.241  16.296 -0.4367  0.2862  0.0715
 2285SOL    HW118491   3.979   0.327  16.254 -0.9995 -0.4733 -1.4635
 2285SOL    HW218492   3.902   0.197  16.265 -0.2027 -0.6500  0.7846
 2286SOL     OW18493   2.075   3.551  17.419 -0.0219 -0.9999 -0.2476
 2286SOL    HW118494   2.036   3.596  17.344  0.4612 -1.2083 -0.6230
 2286SOL    HW218495   2.070   3.460  17.387 -2.8101 -1.0426  0.3273
 2287SOL     OW18496   3.031   1.484   3.838  0.2313 -0.1950  0.0019
 2287SOL    HW118497   2.999   1.487   3.928  1.4584 -1.1912  0.4754
 2287SOL    HW218498   3.125   1.489   3.854  0.4020 -0.0879 -1.0747
 2288SOL     OW18499   0.526   4.367   7.166  0.1944  0.1015 -0.1661
 2288SOL    HW118500   0.541   4.459   7.188 -0.0573  0.2844 -0.7730
 2288SOL    HW218501   0.439   4.365   7.126 -0.0976 -1.3715  0.5456
 2289SOL     OW18502   2.057   3.921  17.176  0.3648 -0.2848  0.3468
 2289SOL    HW118503   2.091   3.895  17.090  0.1916  2.2758 -0.4778
 2289SOL    HW218504   2.044   3.831  17.205 -0.0111  0.3003  1.9634
 2290SOL     OW18505   0.979   3.019   6.822 -0.2206  0.1861  0.1387
 2290SOL    HW118506   1.013   3.107   6.803  1.5938 -0.1469  1.8408
 2290SOL    HW218507   0.954   3.035   6.913  1.7387 -0.8532  0.8632
 2291SOL     OW18508   4.331   3.250  12.521  0.5789  0.0251 -0.5749
 2291SOL    HW118509   4.312   3.316  12.588  1.5104  0.6292 -0.9132
 2291SOL    HW218510   4.254   3.267  12.466 -0.3413 -1.9716  0.0672
 2292SOL     OW18511   3.431   3.017   3.585 -0.2097 -0.3239  0.0809
 2292SOL    HW118512   3.379   2.976   3.516  2.4298 -2.1616 -0.8461
 2292SOL    HW218513   3.462   3.090   3.532  2.2594 -0.0373  1.9180
 2293SOL     OW18514   3.613   3.196   4.400 -0.5728  0.5726  0.9348
 2293SOL    HW118515   3.671   3.141   4.452  0.1819  1.0679  0.6234
 2293SOL    HW218516   3.674   3.219   4.330  0.7140  1.2009  2.2538
 2294SOL     OW18517   4.093   0.714  14.311 -0.1582 -0.2246  0.5159
 2294SOL    HW118518   4.155   0.747  14.245  1.2207 -2.5272  0.6525
 2294SOL    HW218519   4.062   0.627  14.283  3.3114 -0.2634 -3.1952
 2295SOL     OW18520   1.061   2.231   6.651 -0.2106  0.2374 -0.1774
 2295SOL    HW118521   1.122   2.289   6.698 -1.2401  0.6556  0.6301
 2295SOL    HW218522   0.975   2.231   6.692  0.1467  0.1184  0.5801
 2296SOL     OW18523   0.023   0.568  12.932  0.9320 -0.3118 -0.2733
 2296SOL    HW118524   0.092   0.509  12.960 -0.8270 -0.7879  3.0848
 2296SOL    HW218525   4.697   0.515  12.884 -0.6809  1.3968 -0.0329
 2297SOL     OW18526   2.404   0.454  15.838 -0.0910  0.2773  0.7987
 2297SOL    HW118527   2.357   0.492  15.912  0.7882  1.8171  0.5513
 2297SOL    HW218528   2.495   0.437  15.863  0.4057  1.8797  0.0376
 2298SOL     OW18529   1.318   4.650   6.672 -0.0427  0.1763 -0.2769
 2298SOL    HW118530   1.252   4.716   6.691 -0.3569 -0.3307  0.3833
 2298SOL    HW218531   1.269   4.583   6.624  0.5161  0.0433 -0.6686
 2299SOL     OW18532   3.308   1.609   9.401 -0.5297 -0.3223 -0.2882
 2299SOL    HW118533   3.285   1.587   9.311  1.2954 -2.2984 -0.2637
 2299SOL    HW218534   3.225   1.651   9.425  0.4981  1.5262 -0.0198
 2300SOL     OW18535   1.230   3.005   3.504  0.1913 -0.2449  0.1092
 2300SOL    HW118536   1.239   3.093   3.540 -2.3429 -0.2439  0.7848
 2300SOL    HW218537   1.208   3.035   3.416  2.5288 -1.2543 -0.8168
 2301SOL     OW18538   4.025   4.218   5.633 -0.3284  0.0903 -0.5468
 2301SOL    HW118539   3.958   4.180   5.576 -0.0557 -0.0051 -0.7972
 2301SOL    HW218540   4.094   4.228   5.568  0.5922 -0.5384  0.3381
 2302SOL     OW18541   0.138   0.471   8.989 -0.0545  0.5437  0.0493
 2302SOL    HW118542   0.151   0.447   8.897 -2.0381  0.6151 -0.2620
 2302SOL    HW218543   0.099   0.558   8.979  0.2215  0.9789  2.7635
 2303SOL     OW18544   0.156   0.399   4.229 -0.9054  0.3759 -0.2628
 2303SOL    HW118545   0.217   0.331   4.257 -1.5955 -0.1803 -0.1083
 2303SOL    HW218546   0.147   0.381   4.135 -0.3958  0.9633 -0.4254
 2304SOL     OW18547   3.675   0.793   5.936  0.2217 -0.4623  0.2692
 2304SOL    HW118548   3.600   0.791   5.877  0.6771  1.1740 -0.3693
 2304SOL    HW218549   3.670   0.878   5.979 -1.7787 -0.1614 -0.6004
 2305SOL     OW18550   3.720   2.520   8.702 -0.5283 -0.0549 -0.1740
 2305SOL    HW118551   3.814   2.527   8.720 -0.3619  1.1072 -1.4259
 2305SOL    HW218552   3.707   2.429   8.726 -0.8586 -0.2757 -1.2096
 2306SOL     OW18553   0.165   2.671  15.886  0.1451  0.0088 -0.2568
 2306SOL    HW118554   0.134   2.758  15.911  1.0003 -0.0550  1.0126
 2306SOL    HW218555   0.085   2.625  15.860 -0.8379 -0.7685  4.1842
 2307SOL     OW18556   4.191   4.646  16.607 -0.3164  0.1471  0.2142
 2307SOL    HW118557   4.118   4.615  16.554  1.8123 -2.8808 -0.9362
 2307SOL    HW218558   4.186   4.601  16.691  1.2417  0.8490  0.6830
 2308SOL     OW18559   1.052   2.398   3.110  0.7197 -0.1162 -0.0696
 2308SOL    HW118560   1.087   2.483   3.081 -2.4493  1.3146  0.3058
 2308SOL    HW218561   0.963   2.406   3.075  0.9989 -0.0424 -0.7689
 2309SOL     OW18562   2.545   2.803   3.150  0.0572  0.4832 -0.0433
 2309SOL    HW118563   2.614   2.806   3.217 -2.2358  0.9016  2.3028
 2309SOL    HW218564   2.586   2.784   3.066  0.6708  0.1318  0.3285
 2310SOL     OW18565   2.386   1.914  13.079  0.2968  0.2513 -0.0799
 2310SOL    HW118566   2.457   1.926  13.142 -0.7674 -0.7557  1.3194
 2310SOL    HW218567   2.305   1.919  13.129  0.8230 -0.3675  0.8354
 2311SOL     OW18568   1.682   1.093   4.923 -1.1079 -0.4436  0.3949
 2311SOL    HW118569   1.675   1.054   5.010 -0.7157  0.0972  0.6766
 2311SOL    HW218570   1.743   1.165   4.941 -2.0530  0.3486  0.4221
 2312SOL     OW18571   2.608   3.473   4.214  0.1681  0.0694  0.5511
 2312SOL    HW118572   2.548   3.532   4.259 -0.7287 -1.3849  1.2616
 2312SOL    HW218573   2.667   3.543   4.185  3.7619 -2.8167  0.7565
 2313SOL     OW18574   1.437   2.186  13.596 -0.2254 -0.5419 -0.0007
 2313SOL    HW118575   1.391   2.268  13.576  1.0571  0.7770  2.4379
 2313SOL    HW218576   1.487   2.207  13.675  0.1074  1.5759 -0.7656
 2314SOL     OW18577   4.447   0.330   7.687 -0.4694  0.2531 -0.6745
 2314SOL    HW118578   4.440   0.279   7.768  2.5313  2.6096  1.0722
 2314SOL    HW218579   4.476   0.414   7.723  1.4702 -0.2244 -1.1063
 2315SOL     OW18580   4.037   4.481   6.402  0.4747 -0.3192 -0.3074
 2315SOL    HW118581   4.019   4.571   6.376  2.5965 -0.7400 -3.1724
 2315SOL    HW218582   3.984   4.424   6.347 -1.5678  2.5105 -1.2758
 2316SOL     OW18583   1.738   2.396  16.742 -0.7947  0.1610  0.5468
 2316SOL    HW118584   1.680   2.465  16.774 -0.2691 -0.5143  2.9427
 2316SOL    HW218585   1.732   2.330  16.811  2.0577 -1.5453 -0.8268
 2317SOL     OW18586   3.511   3.265   6.209 -0.0421  0.4635 -0.1648
 2317SOL    HW118587   3.552   3.178   6.200  1.5513  1.1770  0.2302
 2317SOL    HW218588   3.465   3.256   6.292  0.6071  0.9334  0.2438
 2318SOL     OW18589   3.978   2.259   2.844 -0.3737 -0.5157 -0.3709
 2318SOL    HW118590   3.918   2.233   2.914  1.6850 -0.6434  1.3481
 2318SOL    HW218591   3.977   2.188   2.780  2.8991  0.5986 -1.6419
 2319SOL     OW18592   4.444   4.010   6.375  0.1079  0.1138  0.1422
 2319SOL    HW118593   4.521   4.062   6.397  1.6080 -1.6546 -0.9961
 2319SOL    HW218594   4.451   3.993   6.281  0.5518  0.9991  0.0137
 2320SOL     OW18595   1.629   1.067  13.524  0.4264 -0.4638  0.3571
 2320SOL    HW118596   1.573   1.110  13.590 -1.6937 -0.4618 -1.4358
 2320SOL    HW218597   1.628   0.977  13.557  2.2549 -0.1103  1.3614
 2321SOL     OW18598   3.806   1.277   4.645  0.0005 -0.2613 -0.0019
 2321SOL    HW118599   3.857   1.196   4.638 -0.2937 -0.5057  0.7196
 2321SOL    HW218600   3.796   1.300   4.553 -0.3443 -3.0805 -0.6548
 2322SOL     OW18601   0.254   2.064  11.058  0.3198  0.0727  0.1460
 2322SOL    HW118602   0.214   2.138  11.104 -0.4846  0.6923 -1.5786
 2322SOL    HW218603   0.223   2.066  10.968 -0.1001  0.9630  0.3019
 2323SOL     OW18604   4.592   3.545   4.142 -0.1637 -0.1394  0.2259
 2323SOL    HW118605   4.602   3.451   4.125 -1.1716 -0.8030  3.3813
 2323SOL    HW218606   4.679   3.571   4.113 -0.4441  0.8834  0.3205
 2324SOL     OW18607   1.061   2.542   3.488  0.2395 -0.2147 -0.4080
 2324SOL    HW118608   0.974   2.535   3.449 -0.7205 -0.2607  1.7697
 2324SOL    HW218609   1.035   2.536   3.579  0.3640  0.0910 -0.3515
 2325SOL     OW18610   2.538   0.030   4.863 -0.2969  0.2603 -0.6356
 2325SOL    HW118611   2.575   0.081   4.790 -1.0565  1.6897 -0.0104
 2325SOL    HW218612   2.549   4.677   4.832  0.7147  0.5109 -1.0127
 2326SOL     OW18613   3.322   2.579   2.358 -0.5394 -0.0185  0.1308
 2326SOL    HW118614   3.400   2.631   2.377 -0.5223  0.1714 -0.4660
 2326SOL    HW218615   3.356   2.523   2.288  3.4812  0.0304  2.0500
 2327SOL     OW18616   1.790   4.646  10.615 -0.4380 -0.8185  0.1393
 2327SOL    HW118617   1.759   4.678  10.530  1.7067 -0.2096 -0.4166
 2327SOL    HW218618   1.871   4.694  10.634  0.6219 -1.7414 -2.0382
 2328SOL     OW18619   1.970   4.463   7.568  0.4644 -0.1223 -0.0850
 2328SOL    HW118620   1.957   4.379   7.524 -0.2243  1.3865 -2.7261
 2328SOL    HW218621   1.992   4.519   7.493  0.8454 -0.8178 -0.4881
 2329SOL     OW18622   3.706   4.630   0.859 -0.1610  0.3965 -0.1068
 2329SOL    HW118623   3.713   4.574   0.782  0.8448  1.4571 -0.7953
 2329SOL    HW218624   3.628   4.680   0.838 -0.2283  0.3566  0.0491
 2330SOL     OW18625   4.689   3.495   1.418 -0.6648 -0.1802  0.2023
 2330SOL    HW118626   4.712   3.542   1.499 -0.4314  1.1024 -0.6040
 2330SOL    HW218627   4.649   3.415   1.452  0.7269 -0.3655  1.4278
 2331SOL     OW18628   0.551   0.435   8.352  0.4095  0.3540 -0.2056
 2331SOL    HW118629   0.491   0.510   8.356 -0.9519 -0.7081 -0.5502
 2331SOL    HW218630   0.622   0.475   8.402 -1.4297  3.9092 -0.3931
 2332SOL     OW18631   2.685   1.345  11.437  0.4044  0.8119  1.3009
 2332SOL    HW118632   2.606   1.328  11.489  2.0494 -3.7418  2.3681
 2332SOL    HW218633   2.689   1.279  11.367 -2.5652  0.8138  1.1485
 2333SOL     OW18634   0.988   3.233  11.751  0.3377 -0.6987 -0.1155
 2333SOL    HW118635   0.981   3.161  11.814  1.2062 -0.0635  0.7070
 2333SOL    HW218636   0.960   3.307  11.804 -1.2701 -0.9730 -0.5947
 2334SOL     OW18637   2.327   1.025   5.057  0.6476 -0.0060 -0.5800
 2334SOL    HW118638   2.329   0.930   5.066 -0.4181  0.0203 -0.1483
 2334SOL    HW218639   2.409   1.045   5.102  1.8314 -1.7539 -1.9778
 2335SOL     OW18640   1.965   2.975   4.736  0.6872 -0.1278  0.2247
 2335SOL    HW118641   1.885   2.989   4.787  2.0632  3.3150  1.3850
 2335SOL    HW218642   1.941   2.889   4.700 -0.3216  0.3236 -0.1904
 2336SOL     OW18643   0.353   0.705  14.917  0.0093  0.0578 -0.6149
 2336SOL    HW118644   0.275   0.660  14.882  0.1872 -0.1643 -0.7278
 2336SOL    HW218645   0.322   0.744  14.998  0.0330 -0.0523 -0.5533
 2337SOL     OW18646   1.841   3.843   3.547  0.0713  0.2032  0.0426
 2337SOL    HW118647   1.909   3.905   3.521 -0.7675  1.2899  0.4391
 2337SOL    HW218648   1.775   3.864   3.481 -0.6738  0.2558  0.8119
 2338SOL     OW18649   4.662   4.629   5.000 -0.3711  0.3455  0.4256
 2338SOL    HW118650   4.693   4.681   4.926  1.6336 -1.0775  0.2741
 2338SOL    HW218651   4.633   4.694   5.065  0.2012  2.4488 -1.4175
 2339SOL     OW18652   1.384   2.582  10.396 -0.3425 -0.1819 -0.3665
 2339SOL    HW118653   1.414   2.541  10.315 -0.8309 -1.0817 -0.0856
 2339SOL    HW218654   1.294   2.610  10.376 -0.4523 -1.5461 -1.7678
 2340SOL     OW18655   3.852   0.512   8.319  0.0170  0.4100 -0.3031
 2340SOL    HW118656   3.785   0.455   8.357 -0.6594  1.9407  0.8061
 2340SOL    HW218657   3.825   0.588   8.370 -1.1360  0.7096 -1.3708
 2341SOL     OW18658   0.772   2.910   2.124  0.1227 -0.3146 -0.2333
 2341SOL    HW118659   0.687   2.918   2.167  0.4110 -1.3335  0.5085
 2341SOL    HW218660   0.810   2.998   2.129 -0.1449 -0.3382  2.0560
 2342SOL     OW18661   4.174   1.151   5.371 -0.1639  0.0605 -0.0010
 2342SOL    HW118662   4.255   1.135   5.322 -0.4026 -1.9275  0.2334
 2342SOL    HW218663   4.126   1.069   5.359  0.3155 -0.3263  0.6532
 2343SOL     OW18664   4.588   4.319   7.857  0.3981  0.0554 -0.1471
 2343SOL    HW118665   4.643   4.378   7.805 -1.7929 -0.4917 -3.0849
 2343SOL    HW218666   4.503   4.325   7.814 -0.4534  0.5044  1.6060
 2344SOL     OW18667   2.225   2.387   6.820  0.2710  0.4149  0.5846
 2344SOL    HW118668   2.267   2.407   6.736 -0.5200  3.1236  0.8375
 2344SOL    HW218669   2.287   2.419   6.886 -0.5373 -0.6998  1.8806
 2345SOL     OW18670   2.283   0.130   1.726 -0.1524  0.7663 -0.0067
 2345SOL    HW118671   2.354   0.193   1.712  0.5388  0.2072  1.0112
 2345SOL    HW218672   2.331   0.054   1.760 -0.1074  0.9380  0.3058
 2346SOL     OW18673   3.058   3.575   4.815 -0.8628  0.2272 -0.2014
 2346SOL    HW118674   3.060   3.481   4.831  0.2671  0.7466  2.5875
 2346SOL    HW218675   2.990   3.596   4.879 -0.4659 -1.8485  0.9014
 2347SOL     OW18676   2.200   3.995   1.769 -0.2733  0.6029  0.9725
 2347SOL    HW118677   2.197   4.028   1.859 -0.9929  3.6885 -0.1689
 2347SOL    HW218678   2.211   3.903   1.791 -0.4760  0.0020 -1.4446
 2348SOL     OW18679   4.691   1.733   4.520  0.2500 -0.1002 -0.3992
 2348SOL    HW118680   4.734   1.755   4.438  1.3055  0.8068  0.3871
 2348SOL    HW218681   4.697   1.637   4.519 -1.5378 -0.1706 -3.1376
 2349SOL     OW18682   0.291   4.246  17.356 -0.6287 -0.6904 -0.7808
 2349SOL    HW118683   0.265   4.293  17.276 -1.1851 -0.5898 -0.5459
 2349SOL    HW218684   0.368   4.198  17.327  0.9750  1.5909 -0.2325
 2350SOL     OW18685   0.188   3.146  14.979  0.3254 -0.0744 -0.3741
 2350SOL    HW118686   0.248   3.213  15.010 -1.0300 -0.3123  2.7682
 2350SOL    HW218687   0.243   3.087  14.927  1.1890  0.2997  0.1314
 2351SOL     OW18688   0.774   1.498   0.671 -0.3865 -0.5309  0.0315
 2351SOL    HW118689   0.784   1.488   0.576 -4.2420 -1.2965 -0.3339
 2351SOL    HW218690   0.708   1.431   0.691  0.2010 -1.2532 -0.4547
 2352SOL     OW18691   3.013   1.844  16.405 -0.3465 -0.0815  0.3202
 2352SOL    HW118692   3.063   1.859  16.324 -1.0916  0.7323  0.0055
 2352SOL    HW218693   2.929   1.810  16.374  0.5709 -2.1802  0.1224
 2353SOL     OW18694   2.003   3.372   6.132  0.0501  0.1035 -0.3017
 2353SOL    HW118695   1.974   3.332   6.214 -2.2410  0.6631 -0.8438
 2353SOL    HW218696   2.029   3.291   6.087  0.0349  0.1450 -0.3852
 2354SOL     OW18697   3.255   1.526   8.546 -0.1977  0.0101  0.0577
 2354SOL    HW118698   3.190   1.472   8.501 -0.9053  2.1782 -1.4828
 2354SOL    HW218699   3.326   1.507   8.486  1.2263  1.5672  1.2400
 2355SOL     OW18700   2.760   0.979   6.664 -0.7477  0.3222 -0.0506
 2355SOL    HW118701   2.741   0.934   6.582 -0.0766  0.0339 -0.0443
 2355SOL    HW218702   2.844   1.020   6.644 -1.1122  0.7468 -0.7177
 2356SOL     OW18703   2.857   0.842   9.322 -0.6987 -0.5434 -0.6458
 2356SOL    HW118704   2.846   0.816   9.414 -2.2162  0.4909 -0.5428
 2356SOL    HW218705   2.906   0.924   9.334  0.0532 -1.1335  0.3073
 2357SOL     OW18706   3.440   1.749   8.394  0.4158  0.1145 -0.1844
 2357SOL    HW118707   3.401   1.707   8.471  0.7128  1.3661  0.6604
 2357SOL    HW218708   3.465   1.672   8.344 -0.4948 -0.9793  1.0645
 2358SOL     OW18709   3.664   3.582   5.691 -0.3100 -0.1629 -0.0354
 2358SOL    HW118710   3.733   3.554   5.631 -0.7589  0.3400 -0.7838
 2358SOL    HW218711   3.586   3.589   5.636 -0.2060  0.6363 -0.0776
 2359SOL     OW18712   2.697   3.782   8.435  0.1132  0.0506 -0.3704
 2359SOL    HW118713   2.714   3.688   8.443 -1.5081 -0.2070  0.0562
 2359SOL    HW218714   2.721   3.807   8.525 -1.6317  0.3441  0.0266
 2360SOL     OW18715   3.959   2.382  17.697  0.2801 -0.0604  0.0890
 2360SOL    HW118716   3.903   2.384  17.619 -1.4843 -0.6807  1.3437
 2360SOL    HW218717   3.902   2.359   0.021 -0.1957 -0.3596 -0.3766
 2361SOL     OW18718   2.630   4.143   5.522 -0.0092  0.9797  0.4575
 2361SOL    HW118719   2.703   4.168   5.579  1.2518 -0.9997 -0.2754
 2361SOL    HW218720   2.563   4.188   5.574 -2.2392  0.8232 -2.2990
 2362SOL     OW18721   2.884   2.814   2.294  0.1437 -0.7469 -0.5724
 2362SOL    HW118722   2.947   2.743   2.307 -1.0926 -1.1708  3.2320
 2362SOL    HW218723   2.803   2.767   2.272  1.3084 -2.1383 -1.8717
 2363SOL     OW18724   2.681   4.470   6.525 -0.4220  0.2162 -0.0540
 2363SOL    HW118725   2.586   4.486   6.526 -0.3262  0.7579  0.2477
 2363SOL    HW218726   2.712   4.415   6.597  1.7739 -0.3993 -1.4842
 2364SOL     OW18727   3.693   3.998   5.800 -0.0405  0.4477 -0.3172
 2364SOL    HW118728   3.677   3.937   5.873  2.6753  0.3614  0.1881
 2364SOL    HW218729   3.605   4.005   5.763  0.4276  1.5072 -1.1971
 2365SOL     OW18730   2.183   0.615  17.572 -0.7731  0.3373 -0.1336
 2365SOL    HW118731   2.268   0.659  17.565  0.4458 -1.7519  1.5784
 2365SOL    HW218732   2.132   0.684  17.614  2.0625  0.7511  2.6043
 2366SOL     OW18733   2.471   0.548   8.072  0.0569  0.1120  0.0954
 2366SOL    HW118734   2.559   0.543   8.109 -0.3419  1.1775  1.1887
 2366SOL    HW218735   2.493   0.588   7.989  1.9572 -1.7702 -0.3200
 2367SOL     OW18736   0.625   4.194   1.519 -0.1419 -0.5587  0.3409
 2367SOL    HW118737   0.671   4.118   1.485 -1.9021 -2.1563  1.5518
 2367SOL    HW218738   0.686   4.267   1.504  1.4669 -1.7578  1.1084
 2368SOL     OW18739   0.559   1.737  15.021 -0.1622  0.0290 -0.0766
 2368SOL    HW118740   0.630   1.787  14.981 -0.5012  0.1639 -0.5275
 2368SOL    HW218741   0.486   1.752  14.960  1.0174  1.7009 -1.0656
 2369SOL     OW18742   0.319   3.395   9.187 -0.1886  0.5017 -0.7140
 2369SOL    HW118743   0.269   3.320   9.154 -0.9157  1.1725 -1.1118
 2369SOL    HW218744   0.274   3.465   9.140  0.9631  1.0975 -0.9350
 2370SOL     OW18745   0.350   0.494   9.892  0.5129  0.6632  0.3081
 2370SOL    HW118746   0.297   0.414   9.885  2.8200 -0.6438 -2.5633
 2370SOL    HW218747   0.317   0.545   9.965  1.5017  1.1607  0.3962
 2371SOL     OW18748   0.392   2.721   5.149 -0.3013  0.4723  0.0566
 2371SOL    HW118749   0.380   2.627   5.132  0.4696  0.7676 -2.1610
 2371SOL    HW218750   0.486   2.728   5.134 -0.4041  3.8459  1.1122
 2372SOL     OW18751   3.266   0.687   3.822  0.6078 -0.3910  0.2883
 2372SOL    HW118752   3.183   0.674   3.867  0.4798 -2.3128 -0.5176
 2372SOL    HW218753   3.307   0.748   3.884 -1.3373  1.0048  0.1889
 2373SOL     OW18754   0.800   4.521   1.195 -0.1942  0.6022  1.0756
 2373SOL    HW118755   0.865   4.451   1.211 -0.9700 -0.0329  1.4484
 2373SOL    HW218756   0.747   4.513   1.274 -0.6290 -1.2842  0.6009
 2374SOL     OW18757   2.897   3.320   2.703 -0.0559  0.1616  0.3068
 2374SOL    HW118758   2.825   3.260   2.718 -0.1986  0.4707  0.8464
 2374SOL    HW218759   2.969   3.264   2.731  0.2555  1.1300  1.4675
 2375SOL     OW18760   2.216   4.185   9.303  0.4210 -0.3138  0.4340
 2375SOL    HW118761   2.190   4.274   9.326  0.7181  0.0262 -0.5326
 2375SOL    HW218762   2.271   4.183   9.225  1.3221 -0.4720  1.0819
 2376SOL     OW18763   2.966   1.603   3.083  0.4557  0.3614  0.1787
 2376SOL    HW118764   3.005   1.543   3.019 -0.8863 -0.1124 -0.1824
 2376SOL    HW218765   2.884   1.627   3.040  1.2700 -2.7213 -3.0367
 2377SOL     OW18766   2.942   0.934   4.016  0.7160 -0.7784  0.4781
 2377SOL    HW118767   3.012   1.000   4.026  2.0582 -2.2971  1.1221
 2377SOL    HW218768   2.881   0.949   4.089  1.0604  0.5748  0.4892
 2378SOL     OW18769   2.005   2.896  10.466 -0.0671 -0.2047 -0.3797
 2378SOL    HW118770   1.982   2.853  10.383 -1.3454 -2.1793  1.0143
 2378SOL    HW218771   2.068   2.960  10.434 -0.1112 -0.0960 -0.2468
 2379SOL     OW18772   1.976   1.931   6.620  0.5604 -0.4219  0.0132
 2379SOL    HW118773   2.070   1.951   6.625  0.1627  1.1410  1.4590
 2379SOL    HW218774   1.953   1.960   6.709 -0.3272 -0.7734 -0.1009
 2380SOL     OW18775   3.627   4.696  16.364 -0.0678  0.7723 -0.5758
 2380SOL    HW118776   3.626   0.013  16.442 -1.9991 -0.4651  0.2449
 2380SOL    HW218777   3.663   0.023  16.302  2.6045  0.9650  1.1674
 2381SOL     OW18778   2.010   4.076   1.142 -0.5239  0.4319 -0.1217
 2381SOL    HW118779   2.006   4.000   1.200  1.0005  0.2240 -0.2698
 2381SOL    HW218780   2.100   4.065   1.112 -0.3911  2.7116 -0.5621
 2382SOL     OW18781   3.711   2.342   8.240  0.0248 -0.8120  0.2769
 2382SOL    HW118782   3.688   2.335   8.333  0.5316  1.7289  0.6167
 2382SOL    HW218783   3.778   2.278   8.218 -0.7758 -0.8114 -2.1237
 2383SOL     OW18784   0.345   0.246   5.575  0.4106  0.5754  0.7326
 2383SOL    HW118785   0.293   0.294   5.510  1.2077  0.7988  0.2567
 2383SOL    HW218786   0.284   0.190   5.624  0.7911 -1.2664 -0.8853
 2384SOL     OW18787   1.158   2.164   4.521 -0.1773  0.2067  0.8051
 2384SOL    HW118788   1.198   2.246   4.492  0.3855 -0.9247 -1.6476
 2384SOL    HW218789   1.090   2.159   4.453  1.5415 -3.4405 -0.6111
 2385SOL     OW18790   4.032   0.785  14.004 -0.3145 -0.0924 -0.7209
 2385SOL    HW118791   3.989   0.843  13.941  1.5043  1.5197 -0.4513
 2385SOL    HW218792   4.098   0.839  14.047 -1.5906  1.2790 -0.4796
 2386SOL     OW18793   4.346   0.875  12.107  0.3973  0.1564 -0.2027
 2386SOL    HW118794   4.439   0.888  12.088  0.4061  1.5951  0.8394
 2386SOL    HW218795   4.303   0.928  12.040 -0.1926  0.0518  0.0993
 2387SOL     OW18796   4.546   3.449  15.244  0.3027  0.0071  0.3892
 2387SOL    HW118797   4.642   3.447  15.242  0.3077  2.5827 -3.2582
 2387SOL    HW218798   4.536   3.541  15.218  2.5541 -0.3165 -1.6592
 2388SOL     OW18799   1.449   0.697   3.688  0.1990 -0.4748 -0.4239
 2388SOL    HW118800   1.504   0.625   3.718 -1.0640 -1.0736  0.4952
 2388SOL    HW218801   1.486   0.717   3.602  1.8434  0.6518  0.5520
 2389SOL     OW18802   4.520   4.331   5.549 -0.0353  0.1752  0.0759
 2389SOL    HW118803   4.560   4.265   5.492 -0.9924 -1.0242  0.8010
 2389SOL    HW218804   4.567   4.407   5.514  0.3448  0.4062  1.0863
 2390SOL     OW18805   2.712   3.603  10.603 -0.1577  0.1733 -0.1110
 2390SOL    HW118806   2.617   3.593  10.612 -0.3082  0.9858 -0.7708
 2390SOL    HW218807   2.736   3.511  10.614 -0.9513  0.0402  0.5200
 2391SOL     OW18808   2.070   2.371   0.757 -0.0760 -0.0263 -0.4391
 2391SOL    HW118809   1.980   2.358   0.786 -0.1445 -1.4201 -1.3017
 2391SOL    HW218810   2.102   2.283   0.736 -0.9329 -0.3462 -0.4003
 2392SOL     OW18811   2.396   0.790  17.570 -0.4673  0.4095  0.1558
 2392SOL    HW118812   2.483   0.770  17.535 -1.1101 -1.1724 -0.5015
 2392SOL    HW218813   2.403   0.831  17.657 -1.3132  1.6177 -0.3431
 2393SOL     OW18814   4.589   0.549   7.103 -0.1826  0.2157 -0.5305
 2393SOL    HW118815   4.644   0.626   7.086  0.1976  0.4306  1.7332
 2393SOL    HW218816   4.656   0.482   7.119 -0.9698 -0.5884 -0.5903
 2394SOL     OW18817   4.165   4.468   3.793  0.8036  0.1673  0.2058
 2394SOL    HW118818   4.087   4.420   3.819  0.6360  2.1561  3.3018
 2394SOL    HW218819   4.222   4.400   3.757  0.6080 -0.2813  0.7342
 2395SOL     OW18820   4.279   2.174  13.419  0.4255 -0.3114 -0.0894
 2395SOL    HW118821   4.264   2.129  13.336  0.2941 -1.7124  0.6984
 2395SOL    HW218822   4.251   2.260  13.387  1.4922  0.9096  2.2061
 2396SOL     OW18823   4.630   1.583   1.898  0.1360  0.5673  0.0033
 2396SOL    HW118824   4.696   1.650   1.916  0.2536  0.4463  0.0236
 2396SOL    HW218825   4.672   1.516   1.952  0.1805  0.7990  0.2552
 2397SOL     OW18826   3.135   0.995   4.550 -0.1073  0.1045 -0.5116
 2397SOL    HW118827   3.163   1.005   4.459 -0.4059  0.5641 -0.5537
 2397SOL    HW218828   3.175   1.075   4.584  0.5097 -1.0735  1.5042
 2398SOL     OW18829   2.915   2.624   6.060  0.0734  0.1859  0.0193
 2398SOL    HW118830   2.995   2.571   6.061 -1.8943 -2.7999 -1.1086
 2398SOL    HW218831   2.937   2.687   6.129  1.8721  0.0807 -0.4536
 2399SOL     OW18832   3.527   4.551   6.539 -0.5961  0.2219 -0.3669
 2399SOL    HW118833   3.591   4.608   6.495  0.5906 -0.8488 -0.0362
 2399SOL    HW218834   3.518   4.479   6.476 -1.4015 -0.8000  0.9117
 2400SOL     OW18835   2.384   3.561   3.586  0.6140 -0.4316 -0.0474
 2400SOL    HW118836   2.456   3.500   3.600  1.5868  0.3692 -1.5464
 2400SOL    HW218837   2.370   3.528   3.497 -2.1101 -2.1051  0.9896
 2401SOL     OW18838   4.625   0.757   4.558  0.1723  0.2982 -0.0838
 2401SOL    HW118839   4.695   0.819   4.577  0.2533 -0.1620  1.1403
 2401SOL    HW218840   4.666   0.687   4.508 -2.5762 -1.7000  0.4767
 2402SOL     OW18841   3.062   1.695   9.542 -0.4823  0.2493  0.0054
 2402SOL    HW118842   3.036   1.769   9.596 -3.0802 -0.4569 -0.2985
 2402SOL    HW218843   3.039   1.631   9.610  1.4977  0.4645  0.8971
 2403SOL     OW18844   1.182   0.742   8.474  0.0288 -0.0944  0.7487
 2403SOL    HW118845   1.252   0.794   8.435  0.7314  0.0907  2.2410
 2403SOL    HW218846   1.112   0.807   8.462 -0.6449 -0.8043  0.8145
 2404SOL     OW18847   4.039   0.677   2.821  0.4701 -0.2014 -0.2885
 2404SOL    HW118848   4.043   0.626   2.902 -2.5363  0.5378  0.3160
 2404SOL    HW218849   4.131   0.699   2.806 -0.2160  1.3592 -2.1269
 2405SOL     OW18850   4.355   4.193   5.123  0.0325 -0.1674 -0.1953
 2405SOL    HW118851   4.268   4.176   5.087  0.8081 -1.0051 -1.7007
 2405SOL    HW218852   4.355   4.114   5.177  1.3762  1.8435  2.7623
 2406SOL     OW18853   0.575   1.897   2.004 -0.1834 -0.1440  0.2128
 2406SOL    HW118854   0.497   1.936   2.044  0.6291 -1.1511  2.8106
 2406SOL    HW218855   0.564   1.809   2.039  1.3738 -0.9864 -1.4404
 2407SOL     OW18856   3.536   0.856   8.157  0.4389  0.3308 -0.1349
 2407SOL    HW118857   3.560   0.927   8.217 -0.5498  0.8794 -0.3848
 2407SOL    HW218858   3.606   0.860   8.093 -0.8210  0.8482 -1.4954
 2408SOL     OW18859   3.184   1.838   8.555  0.0874 -0.1238 -0.2571
 2408SOL    HW118860   3.203   1.746   8.570  2.2640  0.3805  0.0655
 2408SOL    HW218861   3.161   1.837   8.462 -0.1951 -0.2509 -0.1867
 2409SOL     OW18862   0.011   1.551   3.338 -0.3464 -0.3456 -0.3048
 2409SOL    HW118863   4.665   1.594   3.358  0.5984  1.5125 -0.3908
 2409SOL    HW218864   0.001   1.550   3.243  1.7760  1.4380 -0.5388
 2410SOL     OW18865   2.030   3.945   5.649  0.1285  0.1664  0.5197
 2410SOL    HW118866   2.122   3.959   5.626  0.2616  1.1588  1.6389
 2410SOL    HW218867   1.999   4.029   5.616 -1.8947 -0.4494  0.8739
 2411SOL     OW18868   1.961   0.106  16.263  0.4752  0.2424  0.0375
 2411SOL    HW118869   1.956   0.149  16.177  2.1621 -0.8688 -0.6142
 2411SOL    HW218870   2.019   0.168  16.307  1.0179  0.0809 -0.4563
 2412SOL     OW18871   1.030   3.456   2.130  0.4737  0.5627 -0.0539
 2412SOL    HW118872   0.959   3.512   2.161  1.4012  0.2280  2.6545
 2412SOL    HW218873   1.101   3.502   2.175 -0.8283  3.2967 -0.7505
 2413SOL     OW18874   2.812   3.908   6.723  0.2118  0.1018 -0.5828
 2413SOL    HW118875   2.763   3.836   6.682 -0.5708 -0.7394  1.8523
 2413SOL    HW218876   2.738   3.929   6.780  0.4107  0.0635 -0.3084
 2414SOL     OW18877   2.124   2.955   1.416  0.0938  0.5420 -0.3013
 2414SOL    HW118878   2.201   3.009   1.434 -0.8385  1.2330  1.5729
 2414SOL    HW218879   2.074   2.981   1.493 -0.3826 -1.3527  0.0319
 2415SOL     OW18880   1.638   4.034  15.104  0.3071 -0.2922 -0.3950
 2415SOL    HW118881   1.591   3.983  15.038 -1.1907 -0.1551  0.5561
 2415SOL    HW218882   1.720   4.049  15.058  0.4075  0.0735 -0.0952
 2416SOL     OW18883   4.588   2.023   2.004  0.3115 -0.0492 -0.0842
 2416SOL    HW118884   4.680   1.999   2.015 -0.0927 -2.0687 -1.0421
 2416SOL    HW218885   4.551   1.946   2.047 -1.2998  1.3621  1.0525
 2417SOL     OW18886   1.431   4.724   4.023  0.1660  0.5879 -0.6391
 2417SOL    HW118887   1.421   4.630   4.036  0.6490  0.6887  0.4335
 2417SOL    HW218888   1.420   4.728   3.927  0.0049 -1.5064 -0.7052
 2418SOL     OW18889   1.320   4.725   5.859  0.0220  0.4609 -0.4478
 2418SOL    HW118890   1.238   4.724   5.909  1.0832 -1.9182  1.2495
 2418SOL    HW218891   1.316   4.657   5.792 -0.6744  1.7555 -1.7219
 2419SOL     OW18892   1.982   4.268   8.017  0.0275 -0.2461 -0.0143
 2419SOL    HW118893   2.023   4.225   8.092 -0.3098 -4.3816 -2.2006
 2419SOL    HW218894   2.058   4.286   7.963 -0.2791  1.2534  0.0494
 2420SOL     OW18895   1.509   2.968   7.060 -0.2270  0.2835 -0.2102
 2420SOL    HW118896   1.528   2.886   7.107  1.8481  0.0422 -1.4452
 2420SOL    HW218897   1.414   2.966   7.075 -0.3340  2.9535 -0.6327
 2421SOL     OW18898   3.792   3.294   9.968 -0.6502 -0.2440  0.2805
 2421SOL    HW118899   3.793   3.198   9.971 -1.4018 -0.2394  0.4517
 2421SOL    HW218900   3.868   3.313   9.913  0.8363 -2.8632  1.4003
 2422SOL     OW18901   1.522   2.474   7.140  0.0660  0.3061 -0.6222
 2422SOL    HW118902   1.562   2.542   7.195  2.8341 -1.5845 -0.2758
 2422SOL    HW218903   1.524   2.395   7.194 -0.1603 -0.4180 -1.6770
 2423SOL     OW18904   1.406   2.207   2.242  0.5110 -0.3845  0.4507
 2423SOL    HW118905   1.394   2.264   2.318  1.2097  1.4065 -0.7707
 2423SOL    HW218906   1.500   2.187   2.242  0.7131  0.5377  1.0658
 2424SOL     OW18907   0.154   4.028   8.254  0.5309 -0.2682 -0.6814
 2424SOL    HW118908   0.147   4.073   8.338  0.5684 -0.3651 -0.6267
 2424SOL    HW218909   0.135   4.111   8.210  0.0669 -0.8568 -1.5928
 2425SOL     OW18910   0.011   0.483   5.226 -0.1724  0.2565 -0.1219
 2425SOL    HW118911   4.718   0.564   5.265  0.7282  0.4442  0.2063
 2425SOL    HW218912   0.057   0.523   5.153 -0.5983  0.6610 -0.1637
 2426SOL     OW18913   0.716   1.424   7.820  0.1706  0.1120 -0.2532
 2426SOL    HW118914   0.804   1.386   7.819 -0.3749 -1.1098 -2.2315
 2426SOL    HW218915   0.690   1.410   7.911 -1.3637 -0.2564 -0.7575
 2427SOL     OW18916   0.980   0.116   2.876 -0.1038  0.4716  0.4036
 2427SOL    HW118917   0.962   0.137   2.967 -0.3919 -1.4468  0.7849
 2427SOL    HW218918   0.932   0.173   2.816 -0.6773  0.5669  0.9535
 2428SOL     OW18919   2.475   0.698  14.995 -0.1025  0.3637  0.1551
 2428SOL    HW118920   2.435   0.681  15.080 -1.5070 -0.5773 -0.6974
 2428SOL    HW218921   2.548   0.636  14.997  0.8063  1.3916 -0.8437
 2429SOL     OW18922   1.679   0.792   2.423 -0.1083  0.5425 -0.4031
 2429SOL    HW118923   1.670   0.698   2.414  1.5843  0.2452  1.0745
 2429SOL    HW218924   1.617   0.799   2.495  1.4872 -2.2633  1.2129
 2430SOL     OW18925   1.983   0.738  14.649  0.5134 -0.7014  0.5755
 2430SOL    HW118926   1.939   0.688  14.580  2.5377 -0.3765 -0.9549
 2430SOL    HW218927   1.976   0.826  14.611  1.9659 -1.6624 -1.9421
 2431SOL     OW18928   0.601   2.178   4.844 -0.2441  0.7863 -0.4884
 2431SOL    HW118929   0.662   2.202   4.774 -1.1407 -2.1817 -2.2999
 2431SOL    HW218930   0.654   2.161   4.921 -2.1529 -2.0810  0.1889
 2432SOL     OW18931   0.653   2.062   7.292 -0.1454  0.0427  0.2260
 2432SOL    HW118932   0.735   2.109   7.276 -0.0070 -0.3830 -0.3224
 2432SOL    HW218933   0.632   2.040   7.201 -1.4024 -1.6800  0.9186
 2433SOL     OW18934   3.407   4.105   1.110  0.0386  0.7624 -0.8451
 2433SOL    HW118935   3.481   4.163   1.127 -0.3300  0.8489  0.5220
 2433SOL    HW218936   3.444   4.031   1.062 -0.2664  0.0208  0.0542
 2434SOL     OW18937   3.172   4.187   5.958  0.0540  0.0529 -0.7020
 2434SOL    HW118938   3.205   4.277   5.954  1.0751 -0.2721  0.7065
 2434SOL    HW218939   3.240   4.141   5.908  0.6131  0.0895  0.0200
 2435SOL     OW18940   3.795   1.291   3.716  0.3685 -0.9477 -0.5801
 2435SOL    HW118941   3.766   1.356   3.780 -0.2231  0.7707 -2.5894
 2435SOL    HW218942   3.748   1.315   3.636  1.4842  0.4363 -0.8155
 2436SOL     OW18943   4.366   0.380   3.262 -0.0729  0.2643 -0.0155
 2436SOL    HW118944   4.381   0.447   3.329  0.2310  0.1549  0.0232
 2436SOL    HW218945   4.438   0.318   3.271  0.6551  0.6715 -2.8144
 2437SOL     OW18946   0.684   2.132   2.363 -1.0891 -0.7908 -0.0566
 2437SOL    HW118947   0.702   2.124   2.270 -0.6745  2.1247 -0.2188
 2437SOL    HW218948   0.749   2.071   2.398  0.8524  1.3015  0.0080
 2438SOL     OW18949   4.657   0.640   3.014 -0.8792  0.3450  0.1475
 2438SOL    HW118950   4.594   0.588   2.964 -0.1474  1.0763 -1.5578
 2438SOL    HW218951   4.594   0.684   3.071  0.5001 -0.6771  2.4808
 2439SOL     OW18952   3.024   2.710   9.477 -0.1401 -0.1433 -0.5265
 2439SOL    HW118953   3.060   2.798   9.466  0.8547 -0.5742 -0.7927
 2439SOL    HW218954   3.108   2.664   9.480  0.9715  1.8825 -0.2009
 2440SOL     OW18955   0.422   0.276   5.136 -0.6604  0.3485  0.0609
 2440SOL    HW118956   0.478   0.347   5.168  0.8216 -0.8325  0.0676
 2440SOL    HW218957   0.419   0.295   5.042  0.4830  1.6963  0.2862
 2441SOL     OW18958   4.260   4.043   9.106  0.6065  0.4381 -0.1486
 2441SOL    HW118959   4.263   4.113   9.171 -1.3108  1.5914 -1.3080
 2441SOL    HW218960   4.184   4.082   9.064  0.0107 -0.2211  0.3175
 2442SOL     OW18961   0.073   3.614   4.010  0.0058 -0.0295 -0.2139
 2442SOL    HW118962   0.096   3.605   3.918 -0.9307  0.9685 -0.5504
 2442SOL    HW218963   0.125   3.688   4.040  0.0822 -0.1227 -0.1182
 2443SOL     OW18964   0.926   2.143  10.678 -0.4164  0.2682 -0.0822
 2443SOL    HW118965   0.901   2.151  10.771  3.0668  5.4145  0.4057
 2443SOL    HW218966   0.978   2.063  10.673 -0.7966 -0.0942  1.4577
 2444SOL     OW18967   1.091   2.132   8.161 -0.1232 -0.3022  0.0877
 2444SOL    HW118968   1.156   2.200   8.142 -1.9119  0.6181 -2.5841
 2444SOL    HW218969   1.136   2.055   8.127  0.6996  0.2346 -0.0443
 2445SOL     OW18970   4.253   1.945   6.343 -0.6903  0.1401 -0.2066
 2445SOL    HW118971   4.346   1.967   6.352 -0.7110  0.7015 -1.3880
 2445SOL    HW218972   4.260   1.850   6.354 -0.6102  0.1435 -0.2310
 2446SOL     OW18973   1.805   2.826   9.200  0.0646 -0.6264  0.0436
 2446SOL    HW118974   1.885   2.775   9.186 -0.5081 -1.8738  1.3425
 2446SOL    HW218975   1.816   2.848   9.293  1.2968  0.9230 -0.4674
 2447SOL     OW18976   3.024   0.837   7.410  0.5055  0.2134 -0.3637
 2447SOL    HW118977   3.115   0.808   7.406  0.0754 -1.4784  2.0775
 2447SOL    HW218978   3.017   0.892   7.488  1.3937 -1.2860  0.7889
 2448SOL     OW18979   0.316   0.238   2.508 -0.4375  0.3608  0.1176
 2448SOL    HW118980   0.294   0.156   2.463  1.6429  0.6606 -1.4288
 2448SOL    HW218981   0.375   0.228   2.582  0.9300  3.1651 -0.5654
 2449SOL     OW18982   2.054   3.834   7.039 -0.1226  0.2138 -0.4051
 2449SOL    HW118983   2.077   3.910   6.986 -1.2028  1.5990  1.1529
 2449SOL    HW218984   2.001   3.783   6.977  0.3058 -1.2879  0.4448
 2450SOL     OW18985   2.853   1.957  17.135 -0.0205 -0.3167  0.3364
 2450SOL    HW118986   2.868   1.872  17.177  0.3632 -0.1036  0.6248
 2450SOL    HW218987   2.768   1.964  17.092 -0.1079 -1.6629  0.2710
 2451SOL     OW18988   2.835   3.890   4.128 -0.4470 -0.2616 -0.1323
 2451SOL    HW118989   2.922   3.865   4.159 -0.1411 -0.1170 -0.8712
 2451SOL    HW218990   2.841   3.985   4.114  1.4524  0.0067  2.3823
 2452SOL     OW18991   4.508   1.690   3.418 -0.1372 -0.1287 -0.2409
 2452SOL    HW118992   4.440   1.662   3.478  0.6219 -2.1820 -0.3236
 2452SOL    HW218993   4.448   1.707   3.346 -0.1985 -1.1869 -0.4512
 2453SOL     OW18994   0.769   4.589   4.694  0.0259  0.7124 -0.1712
 2453SOL    HW118995   0.789   4.668   4.642  0.1886  0.0235 -1.1617
 2453SOL    HW218996   0.844   4.589   4.754 -0.1910 -3.1693  0.0502
 2454SOL     OW18997   0.868   2.766   3.929 -0.5704 -0.3141  0.6270
 2454SOL    HW118998   0.932   2.786   3.861 -1.1427 -0.8849 -0.0900
 2454SOL    HW218999   0.843   2.852   3.960  1.5140  0.4067  0.3247
 2455SOL     OW19000   0.608   0.713  16.278 -0.2891  0.0298 -0.5998
 2455SOL    HW119001   0.650   0.792  16.244 -0.6652  1.1976  1.6594
 2455SOL    HW219002   0.518   0.745  16.287 -0.5331 -1.1641  1.2804
 2456SOL     OW19003   2.178   4.525   1.762  0.2616 -0.1295 -0.0266
 2456SOL    HW119004   2.198   4.532   1.855 -0.2967  0.3339  0.0599
 2456SOL    HW219005   2.111   4.593   1.755  1.2837  0.9864  1.1304
 2457SOL     OW19006   1.571   1.969  13.492  0.0911  0.3058 -0.0874
 2457SOL    HW119007   1.517   2.045  13.514  1.3817  0.0354  4.0519
 2457SOL    HW219008   1.553   1.914  13.569  0.0478  0.1676 -0.1951
 2458SOL     OW19009   0.364   4.077   2.330  0.5588  0.1005  0.0228
 2458SOL    HW119010   0.411   4.042   2.406 -0.3781  2.3123  1.6571
 2458SOL    HW219011   0.356   4.166   2.366 -1.2117 -0.4332  0.9179
 2459SOL     OW19012   0.180   0.953   0.483  0.3011  0.0849 -0.0210
 2459SOL    HW119013   0.183   0.858   0.486  2.0134  0.0661 -2.3140
 2459SOL    HW219014   0.157   0.981   0.571 -2.4250  0.3950 -0.8356
 2460SOL     OW19015   1.939   2.610  15.263 -0.7040  0.7222  0.0466
 2460SOL    HW119016   1.907   2.606  15.173 -0.9201  2.6558  0.0343
 2460SOL    HW219017   1.947   2.704  15.281  1.7044  0.0918  2.2511
 2461SOL     OW19018   3.839   4.145   5.000  0.2032 -0.7160 -0.5087
 2461SOL    HW119019   3.931   4.140   4.972  0.8523 -0.0672  1.4924
 2461SOL    HW219020   3.809   4.234   4.979  0.7173 -0.4862 -0.2622
 2462SOL     OW19021   0.114   3.989  11.733  0.1267 -0.0507 -0.1714
 2462SOL    HW119022   0.054   4.022  11.799 -0.9631 -2.0963 -0.1181
 2462SOL    HW219023   0.170   3.945  11.798  1.5328  2.2464  0.1574
 2463SOL     OW19024   2.946   2.817   5.427 -0.5648  0.1240  0.1331
 2463SOL    HW119025   3.007   2.835   5.498 -2.5137  1.5815  1.4285
 2463SOL    HW219026   2.962   2.722   5.423 -0.2174  0.1445  1.3412
 2464SOL     OW19027   0.796   3.771  13.431  0.3121  0.2057  0.7031
 2464SOL    HW119028   0.824   3.834  13.497 -0.1777  0.6587  0.4718
 2464SOL    HW219029   0.791   3.687  13.478 -1.5119 -0.5304 -0.8157
 2465SOL     OW19030   2.370   1.748   9.540  0.2361 -0.5891 -0.2413
 2465SOL    HW119031   2.429   1.750   9.615  0.0243 -1.2403 -0.0556
 2465SOL    HW219032   2.303   1.814   9.560 -0.1260 -0.3857 -2.1822
 2466SOL     OW19033   4.406   1.485  17.468  0.0847 -0.5360  0.0544
 2466SOL    HW119034   4.420   1.425  17.541  1.2709  2.1378  1.9990
 2466SOL    HW219035   4.496   1.502  17.441  0.1237  0.8992  1.1274
 2467SOL     OW19036   2.374   3.216   7.889 -0.5071  0.0365  0.1445
 2467SOL    HW119037   2.394   3.309   7.903 -0.4274 -0.2146  1.7173
 2467SOL    HW219038   2.318   3.230   7.812 -1.5460  1.3306  1.1359
 2468SOL     OW19039   1.291   2.986   2.514 -0.1686 -0.4962 -0.0629
 2468SOL    HW119040   1.339   2.951   2.439  2.7797 -0.6396  1.9091
 2468SOL    HW219041   1.214   2.933   2.494 -0.5241  0.5377 -1.4479
 2469SOL     OW19042   2.688   1.462  11.919 -0.3643 -0.8049  0.2150
 2469SOL    HW119043   2.715   1.503  11.837 -1.3212  1.1285  0.8609
 2469SOL    HW219044   2.714   1.530  11.982 -0.6670  0.4607 -1.0272
 2470SOL     OW19045   1.976   1.551   9.990 -0.1112  0.5329  0.0358
 2470SOL    HW119046   1.901   1.571  10.046 -0.5281 -0.0111 -0.3358
 2470SOL    HW219047   1.975   1.623   9.927 -1.0648  0.7608  0.3072
 2471SOL     OW19048   1.888   1.323   1.471  0.1496  0.0896 -0.6784
 2471SOL    HW119049   1.979   1.311   1.444  0.5467 -1.9047  1.5289
 2471SOL    HW219050   1.837   1.331   1.391  0.7413 -0.7812 -1.1328
 2472SOL     OW19051   3.042   0.393  14.704  0.1146 -0.2716  0.1918
 2472SOL    HW119052   2.952   0.420  14.691 -0.1721 -2.0271 -1.4604
 2472SOL    HW219053   3.040   0.334  14.629  0.6861  1.1095 -0.9204
 2473SOL     OW19054   2.367   0.699  13.683  0.0427 -0.3054  0.2576
 2473SOL    HW119055   2.279   0.660  13.683 -1.0516  2.1206  2.4252
 2473SOL    HW219056   2.412   0.647  13.618 -0.6147 -0.1948 -0.2883
 2474SOL     OW19057   3.311   0.116   6.114  0.0493 -0.1613  0.1214
 2474SOL    HW119058   3.267   0.166   6.182 -0.3793  1.3727 -1.2513
 2474SOL    HW219059   3.292   0.027   6.141 -2.2462 -0.1850 -1.5788
 2475SOL     OW19060   1.715   2.737  17.144  0.3742 -0.3487  0.2415
 2475SOL    HW119061   1.729   2.827  17.116 -2.0384  0.4482  1.6027
 2475SOL    HW219062   1.624   2.725  17.118  0.3273 -1.7154  1.0024
 2476SOL     OW19063   2.607   0.687   6.784 -0.2847  0.7385  0.3417
 2476SOL    HW119064   2.618   0.638   6.702  1.5895 -0.9485  1.6124
 2476SOL    HW219065   2.621   0.778   6.757  1.4864 -0.0984 -1.5400
 2477SOL     OW19066   2.267   4.486   3.985  0.3620  0.2147  0.0125
 2477SOL    HW119067   2.265   4.481   4.080  0.8060 -0.0738  0.0023
 2477SOL    HW219068   2.177   4.511   3.963  0.1743  0.2296  0.7991
 2478SOL     OW19069   3.523   1.332   1.767  0.2073  0.5185 -0.7035
 2478SOL    HW119070   3.581   1.302   1.697  0.2685  2.0647 -1.3276
 2478SOL    HW219071   3.444   1.283   1.745 -0.1199  1.0728 -0.7623
 2479SOL     OW19072   4.161   4.404   5.245  0.5593 -0.4242  0.0625
 2479SOL    HW119073   4.150   4.310   5.261 -0.7755  0.1302  2.4337
 2479SOL    HW219074   4.206   4.439   5.322 -0.2524  1.9245 -0.5367
 2480SOL     OW19075   3.481   3.112   1.843 -0.0934 -0.7846  0.3602
 2480SOL    HW119076   3.506   3.062   1.765  2.7928 -0.1101  0.8841
 2480SOL    HW219077   3.561   3.088   1.889  0.9070 -1.3289 -1.6509
 2481SOL     OW19078   4.410   2.290  12.446  0.1962  0.0334  0.1617
 2481SOL    HW119079   4.506   2.286  12.438  0.4131 -0.6496  3.1334
 2481SOL    HW219080   4.406   2.341  12.527  1.6961  0.4802 -0.0288
 2482SOL     OW19081   0.383   0.931  17.579 -0.1560 -0.1272 -0.0664
 2482SOL    HW119082   0.457   0.987  17.557 -0.4842  0.0515 -0.7122
 2482SOL    HW219083   0.356   0.921  17.488 -0.7412  2.1629 -0.1481
 2483SOL     OW19084   4.016   0.396  14.300 -0.4504 -0.7265 -0.0849
 2483SOL    HW119085   3.965   0.399  14.219 -0.2780  0.0118 -0.1685
 2483SOL    HW219086   4.019   0.302  14.314  0.9139 -0.6620  0.0688
 2484SOL     OW19087   4.528   1.806   7.248 -0.2502 -0.0953 -0.1699
 2484SOL    HW119088   4.511   1.852   7.166 -0.6274 -0.3809 -0.2517
 2484SOL    HW219089   4.590   1.741   7.216  1.7093  0.9911  1.3583
 2485SOL     OW19090   0.242   4.417   7.136 -0.4068  0.0950  0.0898
 2485SOL    HW119091   0.264   4.402   7.228 -0.4793  2.6710  0.5534
 2485SOL    HW219092   0.215   4.329   7.114 -0.2456  0.5578 -1.9073
 2486SOL     OW19093   0.027   0.394  16.039  0.0515  0.0696  0.2446
 2486SOL    HW119094   0.108   0.354  16.007 -0.3877 -0.5191 -0.1339
 2486SOL    HW219095   4.697   0.328  16.023 -1.3918  1.7050 -0.3803
 2487SOL     OW19096   0.624   3.872   3.672 -0.4271  0.2631  0.4754
 2487SOL    HW119097   0.635   3.954   3.720 -4.8264 -0.4321  2.6931
 2487SOL    HW219098   0.538   3.852   3.709 -0.1459 -1.4379  0.2095
 2488SOL     OW19099   1.816   4.206   9.524 -0.5427 -0.1016  0.0883
 2488SOL    HW119100   1.897   4.198   9.473  1.5122 -2.4297  3.6501
 2488SOL    HW219101   1.808   4.126   9.576  0.8878 -0.8975 -0.9178
 2489SOL     OW19102   2.440   3.861   9.555  0.2699 -0.0862 -0.2285
 2489SOL    HW119103   2.376   3.815   9.501  1.6575 -0.3161 -1.6573
 2489SOL    HW219104   2.505   3.794   9.574  0.7792  0.6550  0.6367
 2490SOL     OW19105   0.236   0.791  15.140 -0.5950  0.0408 -0.3332
 2490SOL    HW119106   0.320   0.815  15.180  0.8668 -2.5020 -1.8952
 2490SOL    HW219107   0.189   0.775  15.222 -0.8612  2.0196 -0.0939
 2491SOL     OW19108   1.144   2.103  13.350 -0.0290 -0.1498  0.0595
 2491SOL    HW119109   1.234   2.092  13.319  0.8859  2.8355  1.5545
 2491SOL    HW219110   1.144   2.052  13.431  3.0791  0.4692  0.4569
 2492SOL     OW19111   1.389   1.312   4.240 -0.2025 -0.0862  0.4619
 2492SOL    HW119112   1.439   1.392   4.252 -2.4822  1.1885  1.4121
 2492SOL    HW219113   1.301   1.347   4.225 -0.3006 -0.9000 -0.8551
 2493SOL     OW19114   0.540   3.376   6.616  0.9336  0.4580 -0.1074
 2493SOL    HW119115   0.588   3.361   6.534  1.9338  0.2442  0.5210
 2493SOL    HW219116   0.595   3.335   6.683  1.3984 -0.8074 -1.2546
 2494SOL     OW19117   3.241   2.250   3.697  0.1136 -0.0680  0.7334
 2494SOL    HW119118   3.213   2.172   3.746 -1.3342 -1.2429 -1.9403
 2494SOL    HW219119   3.256   2.310   3.770  1.0157  0.1377  0.3864
 2495SOL     OW19120   1.960   3.383   9.754 -0.1218  0.1170  0.6447
 2495SOL    HW119121   1.874   3.391   9.795  0.2450 -1.5577  1.7168
 2495SOL    HW219122   1.995   3.308   9.801 -2.3517  0.1187  2.3034
 2496SOL     OW19123   4.101   3.209   2.882 -0.2745  0.6158  0.4376
 2496SOL    HW119124   4.169   3.252   2.830 -2.2001  0.6007 -2.1226
 2496SOL    HW219125   4.163   3.171   2.943 -1.8232 -1.3903  0.7489
 2497SOL     OW19126   1.344   1.461  15.159  0.5399  0.3273 -0.1709
 2497SOL    HW119127   1.252   1.481  15.142  0.1736 -2.7960 -1.8825
 2497SOL    HW219128   1.345   1.435  15.251 -3.2856  0.4395 -0.1032
 2498SOL     OW19129   1.964   3.370   5.121 -0.4992  0.0013  0.7603
 2498SOL    HW119130   2.022   3.295   5.133  0.5739  0.2272 -3.1013
 2498SOL    HW219131   2.016   3.445   5.152 -1.6151  0.4503  1.5671
 2499SOL     OW19132   1.073   0.528   0.097 -0.0119  0.1260 -0.2185
 2499SOL    HW119133   1.152   0.495   0.054  0.4478  1.7636 -0.6288
 2499SOL    HW219134   1.087   0.506   0.189 -0.5989 -2.8431 -0.8405
 2500SOL     OW19135   2.185   3.513   3.802 -0.1572  0.3364  0.1306
 2500SOL    HW119136   2.233   3.571   3.743 -0.7849  2.6495  1.8570
 2500SOL    HW219137   2.092   3.524   3.779  0.3683  1.2705 -1.6171
 2501SOL     OW19138   1.046   3.097   8.433  0.0736  0.5584 -0.3101
 2501SOL    HW119139   1.036   3.110   8.338  2.5080 -0.4911 -0.7094
 2501SOL    HW219140   1.031   3.181   8.477  1.9789  0.6173  0.2493
 2502SOL     OW19141   2.623   2.821   6.924  0.2173 -0.6785  0.3184
 2502SOL    HW119142   2.634   2.911   6.895 -1.5695  0.0528  1.8653
 2502SOL    HW219143   2.600   2.775   6.843  0.8205 -1.3515  0.5232
 2503SOL     OW19144   4.479   3.748   7.673  0.6687  1.0596 -0.2981
 2503SOL    HW119145   4.529   3.668   7.691 -2.8608 -0.8485  0.8382
 2503SOL    HW219146   4.426   3.713   7.601  1.8874 -1.6154  0.1077
 2504SOL     OW19147   4.373   2.909   4.121  0.4564 -0.5677  0.0368
 2504SOL    HW119148   4.400   2.995   4.154  3.5759 -2.3442  2.1462
 2504SOL    HW219149   4.358   2.925   4.028  2.3324  0.2278 -0.1270
 2505SOL     OW19150   1.952   0.625  12.346  0.4112  0.1785 -0.5538
 2505SOL    HW119151   2.024   0.686  12.364  0.0096  0.2139  0.8587
 2505SOL    HW219152   1.878   0.682  12.327  1.5548  2.2834  1.3211
 2506SOL     OW19153   3.237   4.360  15.383  0.1693 -0.4941 -0.5509
 2506SOL    HW119154   3.153   4.319  15.405 -0.2606  1.2118  0.9725
 2506SOL    HW219155   3.208   4.420  15.314  1.8364 -1.8276 -2.4065
 2507SOL     OW19156   3.222   3.198   3.146 -0.5728 -0.0948 -0.3972
 2507SOL    HW119157   3.138   3.171   3.111 -0.4373  0.6209 -1.2976
 2507SOL    HW219158   3.237   3.272   3.086 -1.3392  0.3623 -0.0249
 2508SOL     OW19159   4.462   3.201  15.325 -0.8410  0.0849 -0.2877
 2508SOL    HW119160   4.492   3.285  15.292  1.2033 -1.2892 -1.9627
 2508SOL    HW219161   4.493   3.137  15.260 -1.4337 -2.1832  1.6301
 2509SOL     OW19162   3.175   1.537   6.153  0.2096  0.4485 -0.4287
 2509SOL    HW119163   3.115   1.611   6.164 -2.3656 -1.0675 -4.1713
 2509SOL    HW219164   3.180   1.504   6.243 -1.3814 -0.4595 -0.6672
 2510SOL     OW19165   2.157   2.366  17.495  0.1108  0.0840  0.3204
 2510SOL    HW119166   2.166   2.459  17.471  0.8168 -0.2381 -0.6621
 2510SOL    HW219167   2.238   2.323  17.470 -0.7392 -0.1302 -2.0641
 2511SOL     OW19168   1.378   4.222   6.932  0.6897  0.1549  0.3339
 2511SOL    HW119169   1.413   4.220   7.021  1.6801  2.2414 -0.0059
 2511SOL    HW219170   1.287   4.249   6.944  1.0001  0.3750  2.2014
 2512SOL     OW19171   1.251   2.111  11.838 -0.2608 -0.2750 -0.1416
 2512SOL    HW119172   1.182   2.171  11.810  1.1170  0.7723 -1.2559
 2512SOL    HW219173   1.198   2.032  11.829 -0.2647 -0.0443 -2.2181
 2513SOL     OW19174   1.787   4.499  15.554  0.2901 -0.1257  0.2041
 2513SOL    HW119175   1.706   4.532  15.593 -1.5680 -0.8639 -3.0256
 2513SOL    HW219176   1.828   4.443  15.620 -0.1650  0.6036  1.1005
 2514SOL     OW19177   2.993   1.291   4.991 -0.3498  0.2240 -0.6451
 2514SOL    HW119178   2.988   1.387   4.999 -3.3465 -0.1473  2.2560
 2514SOL    HW219179   2.945   1.263   5.069 -1.2104  2.9143 -0.1970
 2515SOL     OW19180   4.504   4.285  16.789  0.1415 -0.2127  0.4109
 2515SOL    HW119181   4.594   4.258  16.809  0.6369  2.1567  1.3358
 2515SOL    HW219182   4.474   4.308  16.877  0.1033 -0.2619  0.4105
 2516SOL     OW19183   1.387   2.606   3.776 -0.0383  0.3092  0.8917
 2516SOL    HW119184   1.449   2.551   3.728 -3.0067 -1.8149 -0.5392
 2516SOL    HW219185   1.385   2.685   3.723 -0.3587 -1.2258 -1.4075
 2517SOL     OW19186   3.139   1.844  11.690  0.0458 -0.2203 -0.6727
 2517SOL    HW119187   3.216   1.797  11.722  1.6685  2.5696 -0.4712
 2517SOL    HW219188   3.122   1.913  11.753  2.0035  0.5508 -0.9933
 2518SOL     OW19189   3.899   1.715   5.845 -0.0261 -0.0567 -0.1824
 2518SOL    HW119190   3.922   1.719   5.753 -1.3983 -0.2604 -0.5380
 2518SOL    HW219191   3.880   1.622   5.861 -0.1322 -0.1236 -0.7042
 2519SOL     OW19192   3.874   0.632  17.168 -0.3190  0.2550 -0.3746
 2519SOL    HW119193   3.788   0.642  17.209  0.0357  2.2289 -0.1245
 2519SOL    HW219194   3.914   0.623  17.255  1.0285  1.8713 -0.8235
 2520SOL     OW19195   4.286   0.914  11.445 -0.9599 -0.2855 -0.4258
 2520SOL    HW119196   4.339   0.934  11.367 -0.1816 -1.5511 -0.2191
 2520SOL    HW219197   4.348   0.868  11.501 -1.6421  0.3712  0.8542
 2521SOL     OW19198   3.568   4.717   5.637  0.0497  0.0627 -0.0012
 2521SOL    HW119199   3.546   0.036   5.562 -0.3886 -1.9511 -1.3854
 2521SOL    HW219200   3.485   4.669   5.634 -0.3658  0.7907 -0.4252
 2522SOL     OW19201   4.661   3.152   4.927  0.5842 -0.2149  0.0970
 2522SOL    HW119202   4.671   3.150   5.022  2.2061  2.6276 -0.0169
 2522SOL    HW219203   4.696   3.064   4.912  1.5592  0.3225 -0.7654
 2523SOL     OW19204   3.643   3.245  10.327 -0.5744  0.1204 -0.0624
 2523SOL    HW119205   3.636   3.150  10.342  3.0949 -0.1218  0.2279
 2523SOL    HW219206   3.556   3.272  10.299 -0.2599 -1.5542 -2.6500
 2524SOL     OW19207   2.544   2.883  17.672  0.0738  0.2829  0.7142
 2524SOL    HW119208   2.582   2.799  17.695 -0.7952  0.5924  3.2604
 2524SOL    HW219209   2.492   2.902   0.001 -1.7388  3.0516 -1.1835
 2525SOL     OW19210   3.948   4.153   0.319  0.3348 -0.1086 -0.6340
 2525SOL    HW119211   3.908   4.085   0.266  1.5557 -0.9626 -0.4484
 2525SOL    HW219212   4.034   4.169   0.281 -0.1151  1.5301 -0.9766
 2526SOL     OW19213   0.907   4.056  10.112  0.1981 -0.5705  0.6855
 2526SOL    HW119214   0.858   4.114  10.053 -0.7762 -1.3028  0.7873
 2526SOL    HW219215   0.942   4.119  10.176 -1.8104  1.1403  0.0752
 2527SOL     OW19216   0.357   4.696   9.086  0.4591 -0.2617  0.1662
 2527SOL    HW119217   0.348   4.732   8.998 -0.6848  1.7651  1.1263
 2527SOL    HW219218   0.450   4.703   9.105  0.2560 -1.0147  1.4898
 2528SOL     OW19219   0.175   1.837   3.130 -0.0696  0.3506 -0.1474
 2528SOL    HW119220   0.201   1.921   3.095  3.2977 -0.8610 -0.5033
 2528SOL    HW219221   0.127   1.853   3.212 -1.2668 -0.4836 -0.6830
 2529SOL     OW19222   4.092   0.684   8.558 -0.3516  0.0340  0.0599
 2529SOL    HW119223   4.022   0.728   8.606  0.2238  1.4234 -0.3688
 2529SOL    HW219224   4.133   0.637   8.631 -0.8084  0.7781  0.7973
 2530SOL     OW19225   0.705   2.106   9.084  0.0892  0.1500 -0.3606
 2530SOL    HW119226   0.705   2.166   9.159 -0.6371 -2.0626  1.4232
 2530SOL    HW219227   0.683   2.021   9.123  2.0024 -0.1267  0.1691
 2531SOL     OW19228   3.633   2.559   6.963  0.4285  0.5621 -1.1404
 2531SOL    HW119229   3.560   2.610   6.997 -0.0585 -1.0095  0.1669
 2531SOL    HW219230   3.597   2.470   6.956 -0.7538  0.7743  2.1954
 2532SOL     OW19231   2.793   0.017   1.108  0.4005 -0.0770 -0.3294
 2532SOL    HW119232   2.706   0.037   1.074  0.9365  0.8488 -1.1347
 2532SOL    HW219233   2.779   4.670   1.150 -0.5600  0.9051  1.3106
 2533SOL     OW19234   1.142   4.284   3.562  0.2042 -0.1156 -0.1027
 2533SOL    HW119235   1.109   4.238   3.640  2.2144  2.6576  2.3964
 2533SOL    HW219236   1.227   4.241   3.558  0.0881 -0.4837  1.1436
 2534SOL     OW19237   4.722   4.700   9.584  0.2692 -0.0986 -0.2141
 2534SOL    HW119238   0.008   4.622   9.534  2.8849 -0.2743  1.3109
 2534SOL    HW219239   0.022   4.667   9.666 -2.2538  1.7679  1.6927
 2535SOL     OW19240   0.863   3.497  14.454 -0.0357  0.7625 -0.1025
 2535SOL    HW119241   0.954   3.497  14.424 -0.6063  1.5204 -1.8467
 2535SOL    HW219242   0.830   3.507  14.364 -0.6363 -1.3445 -0.1241
 2536SOL     OW19243   3.924   1.563  10.703 -0.0248  0.7627  0.0478
 2536SOL    HW119244   3.899   1.647  10.666 -2.0617  1.2182  2.4869
 2536SOL    HW219245   4.013   1.568  10.668 -0.0546 -1.9590 -0.4606
 2537SOL     OW19246   0.478   2.274   1.478 -0.0407  0.7052 -0.6659
 2537SOL    HW119247   0.499   2.265   1.385 -2.5385 -2.3222 -0.8945
 2537SOL    HW219248   0.554   2.240   1.526 -0.9969 -3.0242 -1.8387
 2538SOL     OW19249   2.175   4.733   7.186 -0.2201 -0.0374  0.2933
 2538SOL    HW119250   2.186   0.003   7.092  1.7265 -0.0931  0.5236
 2538SOL    HW219251   2.252   0.041   7.221  0.1312 -0.4287  0.0187
 2539SOL     OW19252   4.259   3.118   2.318 -0.3618  0.0268 -0.7710
 2539SOL    HW119253   4.253   3.209   2.347  0.4087 -0.3503  0.5486
 2539SOL    HW219254   4.169   3.094   2.338 -0.2404 -0.0357 -0.3105
 2540SOL     OW19255   0.089   2.040   6.887  0.3245  0.5787  0.5294
 2540SOL    HW119256   0.009   2.005   6.846 -0.7134  0.9763  2.2476
 2540SOL    HW219257   0.145   1.966   6.913  1.4123  0.7758 -1.2407
 2541SOL     OW19258   0.955   3.208   1.327  0.0923  0.1254  0.4781
 2541SOL    HW119259   0.990   3.278   1.381  0.5806  0.5660 -0.4217
 2541SOL    HW219260   1.028   3.145   1.324 -0.3944 -0.4612  0.8078
 2542SOL     OW19261   2.565   2.087   5.762  0.0205  0.0077 -0.1358
 2542SOL    HW119262   2.611   2.142   5.698  0.5064 -2.5187 -1.9634
 2542SOL    HW219263   2.479   2.126   5.744 -0.5683 -1.3134 -0.1650
 2543SOL     OW19264   1.915   0.149   7.729 -0.4251  0.0228  0.3528
 2543SOL    HW119265   1.870   0.133   7.646  1.9270  3.4906 -1.5808
 2543SOL    HW219266   1.852   0.204   7.775  0.2415  1.6212 -0.6380
 2544SOL     OW19267   4.090   4.735   8.286  0.6207 -0.0841 -0.3022
 2544SOL    HW119268   4.120   4.720   8.376  1.8103 -1.4740 -0.9432
 2544SOL    HW219269   4.087   4.643   8.261 -2.5132  0.1181 -0.7632
 2545SOL     OW19270   4.430   1.417   6.430  0.4543 -0.3080  0.3991
 2545SOL    HW119271   4.377   1.337   6.431 -0.1952  0.1253  0.3986
 2545SOL    HW219272   4.490   1.397   6.501  0.7130  1.3187  0.6439
 2546SOL     OW19273   1.770   4.503   9.618  0.0051 -0.2764  0.3944
 2546SOL    HW119274   1.722   4.557   9.680 -0.0967  0.0323  0.0440
 2546SOL    HW219275   1.709   4.439   9.581  1.5828 -0.8152 -1.2918
 2547SOL     OW19276   4.549   3.699   3.534 -0.2165 -0.1278  0.3350
 2547SOL    HW119277   4.458   3.704   3.505  0.5638  1.1435 -1.8573
 2547SOL    HW219278   4.556   3.756   3.610 -1.6895 -0.1221  0.4709
 2548SOL     OW19279   2.797   3.661  10.258  0.1528  0.3711 -0.1126
 2548SOL    HW119280   2.807   3.659  10.353  0.6815 -2.9895 -0.2417
 2548SOL    HW219281   2.847   3.740  10.240 -0.3525  0.4554 -1.2237
 2549SOL     OW19282   3.481   3.973   2.250  0.3668 -0.1251 -0.1799
 2549SOL    HW119283   3.467   4.020   2.332 -2.2693 -0.5046 -0.3852
 2549SOL    HW219284   3.468   4.044   2.186 -2.8023 -1.7263 -1.3504
 2550SOL     OW19285   0.775   4.098   7.241 -0.2328 -0.7121 -0.6589
 2550SOL    HW119286   0.810   4.139   7.162  0.8833  1.1859  0.8285
 2550SOL    HW219287   0.853   4.070   7.288 -0.0138 -0.7767 -1.0577
 2551SOL     OW19288   3.342   0.579   5.105 -0.3785  0.2572 -0.2806
 2551SOL    HW119289   3.368   0.488   5.118  1.4080  1.1748  2.5016
 2551SOL    HW219290   3.325   0.618   5.190  0.0415  0.4169 -0.2743
 2552SOL     OW19291   3.703   2.170  17.089 -0.2094 -0.2053 -0.1944
 2552SOL    HW119292   3.733   2.079  17.101 -2.6306 -1.5002 -3.9625
 2552SOL    HW219293   3.647   2.154  17.013 -1.2219 -1.2904  0.7724
 2553SOL     OW19294   1.556   0.019   7.626  0.6207 -0.6036  0.0888
 2553SOL    HW119295   1.615   0.087   7.592  0.1694 -0.8319 -1.1282
 2553SOL    HW219296   1.620   4.699   7.667 -0.0863 -0.3034  1.6502
 2554SOL     OW19297   1.397   1.086   8.367 -0.4181  0.3638 -0.3048
 2554SOL    HW119298   1.416   1.011   8.422  0.8811  1.1054  0.2476
 2554SOL    HW219299   1.486   1.101   8.334 -0.7838  0.9728 -1.0357
 2555SOL     OW19300   0.081   3.962   7.653  0.7824 -0.0219  0.6717
 2555SOL    HW119301   0.048   3.895   7.714 -1.0950 -1.8351 -2.2957
 2555SOL    HW219302   0.087   4.032   7.717  1.5775 -0.2996  0.9020
 2556SOL     OW19303   1.381   3.030   6.185  0.3842  0.2304 -0.1672
 2556SOL    HW119304   1.435   2.979   6.124  0.0926 -1.1642  0.7458
 2556SOL    HW219305   1.354   3.105   6.133 -1.2767 -0.5999 -0.4793
 2557SOL     OW19306   0.294   2.723   0.132 -0.0225  0.4188 -0.2529
 2557SOL    HW119307   0.232   2.796   0.128  0.0296  0.4580 -0.3640
 2557SOL    HW219308   0.233   2.663   0.090 -0.0777  0.6849 -0.5564
 2558SOL     OW19309   4.099   1.103   9.759 -0.0871  0.0337  0.1002
 2558SOL    HW119310   4.063   1.184   9.794  0.9938  0.1184  1.0049
 2558SOL    HW219311   4.194   1.114   9.754 -0.1127 -0.3709 -1.2473
 2559SOL     OW19312   1.175   1.212   3.535  0.3887 -0.6995  0.2440
 2559SOL    HW119313   1.239   1.172   3.595 -0.6808  0.7316  2.3563
 2559SOL    HW219314   1.224   1.201   3.454 -0.2659  2.3173 -0.5268
 2560SOL     OW19315   1.468   3.155   0.706  0.3078 -0.2672 -0.0749
 2560SOL    HW119316   1.539   3.177   0.767 -1.0412  0.7664  1.1147
 2560SOL    HW219317   1.414   3.233   0.715  1.5079  0.8427 -2.4999
 2561SOL     OW19318   1.971   3.143   4.518  0.0859  0.2461  0.0571
 2561SOL    HW119319   1.991   3.099   4.601 -1.0433 -1.4069 -0.5620
 2561SOL    HW219320   2.061   3.160   4.490  0.0764 -0.6550 -0.5126
 2562SOL     OW19321   3.095   2.192   4.421  0.3460 -0.4228 -0.7353
 2562SOL    HW119322   3.176   2.176   4.371  1.4360  0.4675  0.7620
 2562SOL    HW219323   3.048   2.109   4.430  0.2036 -0.2924 -0.2871
 2563SOL     OW19324   4.461   2.958   9.392 -0.0700 -0.0286 -0.4970
 2563SOL    HW119325   4.537   2.965   9.450 -0.0417  0.5449 -0.6006
 2563SOL    HW219326   4.473   3.033   9.334 -1.1633  0.4825 -0.0679
 2564SOL     OW19327   3.702   4.370   4.896 -0.1834 -0.2745 -0.6247
 2564SOL    HW119328   3.655   4.364   4.813 -0.1895 -0.0701 -0.6351
 2564SOL    HW219329   3.784   4.417   4.884  0.6886 -1.0559  2.1104
 2565SOL     OW19330   0.745   4.230   6.374  0.3501 -0.2077  0.7314
 2565SOL    HW119331   0.672   4.291   6.366  0.3301 -0.0478  2.0958
 2565SOL    HW219332   0.697   4.149   6.390  1.0709 -0.6243  0.7918
 2566SOL     OW19333   1.954   0.100  10.746  0.2178 -0.6790 -1.0453
 2566SOL    HW119334   1.954   0.137  10.658  0.4733  0.6420 -0.4850
 2566SOL    HW219335   1.879   0.144  10.785  0.9236 -0.0102 -0.4730
 2567SOL     OW19336   3.288   2.753  16.128  0.0169  0.4342 -0.0395
 2567SOL    HW119337   3.299   2.658  16.134 -4.1264  0.0307  1.0475
 2567SOL    HW219338   3.255   2.780  16.213 -1.6354  0.5971 -0.7288
 2568SOL     OW19339   0.165   1.022   5.275 -0.1025 -0.5522 -0.1326
 2568SOL    HW119340   0.113   0.995   5.351  2.6057 -1.5818  1.3681
 2568SOL    HW219341   0.096   1.004   5.212 -0.4828 -1.9880  0.6998
 2569SOL     OW19342   4.614   1.670   8.962 -0.1583 -0.2212 -0.0051
 2569SOL    HW119343   4.674   1.734   9.002  0.7071  0.0021 -1.6814
 2569SOL    HW219344   4.679   1.617   8.916  0.8349  1.4380 -0.5125
 2570SOL     OW19345   2.489   2.538   5.872  0.5126  0.5839  0.4162
 2570SOL    HW119346   2.544   2.616   5.866  2.0239 -0.4280  1.2515
 2570SOL    HW219347   2.498   2.498   5.786 -0.7700 -0.3113  0.6912
 2571SOL     OW19348   0.513   0.668   6.958 -0.0478  0.0569  0.1884
 2571SOL    HW119349   0.530   0.644   6.867  0.7176 -1.0968  0.6320
 2571SOL    HW219350   0.545   0.758   6.964  0.4661 -0.0481 -0.8734
 2572SOL     OW19351   3.920   2.451  14.285  0.1934  0.1533  0.4783
 2572SOL    HW119352   3.973   2.459  14.206  2.0857 -1.9043  1.5453
 2572SOL    HW219353   3.872   2.533  14.275  0.5718  0.5182  1.6142
 2573SOL     OW19354   2.383   0.166   4.413  0.4470 -0.0890  0.3083
 2573SOL    HW119355   2.300   0.212   4.428  0.2806  0.4156 -2.2292
 2573SOL    HW219356   2.444   0.240   4.409  1.7368 -1.1965 -0.2342
 2574SOL     OW19357   0.662   4.411   1.975  0.1888 -0.2090 -0.5186
 2574SOL    HW119358   0.621   4.356   2.042  0.6914 -1.4009 -1.1935
 2574SOL    HW219359   0.752   4.402   2.007 -0.6233  1.9476  2.4096
 2575SOL     OW19360   3.974   3.211   5.491  0.1075  0.4996 -0.3675
 2575SOL    HW119361   3.898   3.153   5.481 -0.9353  1.7624  0.3545
 2575SOL    HW219362   4.010   3.186   5.576  0.0899  0.8390 -0.2630
 2576SOL     OW19363   2.798   0.386   4.564  0.1821 -0.4289 -0.0030
 2576SOL    HW119364   2.848   0.396   4.483 -0.7478 -0.8537 -0.6279
 2576SOL    HW219365   2.767   0.476   4.574 -0.4394 -0.3242 -2.8950
 2577SOL     OW19366   4.684   2.638   1.131 -0.6671  0.1211 -0.2354
 2577SOL    HW119367   4.637   2.665   1.052 -0.9202 -2.6796 -1.0392
 2577SOL    HW219368   4.725   2.556   1.104 -3.6686 -0.9226 -1.5831
 2578SOL     OW19369   3.751   3.745  13.071 -0.1076 -0.3839 -0.5628
 2578SOL    HW119370   3.754   3.650  13.058 -0.2105 -0.4005 -0.4692
 2578SOL    HW219371   3.675   3.773  13.019 -0.5728  0.2640  0.4667
 2579SOL     OW19372   0.708   2.718  15.894 -0.4098  0.2605 -0.1569
 2579SOL    HW119373   0.711   2.811  15.916  0.1718  0.4455 -1.0651
 2579SOL    HW219374   0.758   2.685  15.969  0.7878  0.3060 -0.9460
 2580SOL     OW19375   3.911   2.093   2.647  0.2496  0.2229  0.7356
 2580SOL    HW119376   3.825   2.130   2.627 -0.5594 -0.4152  3.0214
 2580SOL    HW219377   3.888   2.000   2.647 -0.8690  0.4940  2.1769
 2581SOL     OW19378   2.120   4.344   9.532 -0.4657  0.0868 -0.5267
 2581SOL    HW119379   2.040   4.353   9.583 -1.0009 -0.6328 -1.2229
 2581SOL    HW219380   2.118   4.412   9.464  2.4691  0.3675 -0.3518
 2582SOL     OW19381   1.316   2.809   3.196 -0.0078 -1.0289 -0.3756
 2582SOL    HW119382   1.346   2.854   3.117 -1.0080  0.0830 -0.1257
 2582SOL    HW219383   1.402   2.774   3.217 -0.6853 -2.7940 -0.5085
 2583SOL     OW19384   1.860   1.560  10.544 -0.0177  0.4452  0.0031
 2583SOL    HW119385   1.817   1.594  10.623  1.5406 -1.5008  1.6980
 2583SOL    HW219386   1.887   1.482  10.592  0.4483  0.4859 -0.1892
 2584SOL     OW19387   3.955   0.447   3.646  0.0032 -0.3970 -0.4880
 2584SOL    HW119388   4.012   0.461   3.721  0.7020  1.7110 -1.4224
 2584SOL    HW219389   3.919   0.361   3.668 -0.4658  0.3469  1.6194
 2585SOL     OW19390   0.427   4.511   2.972 -0.3237 -0.6722 -0.0367
 2585SOL    HW119391   0.373   4.589   2.986  0.8801  0.2198 -0.3075
 2585SOL    HW219392   0.449   4.473   3.057 -0.9523  1.1702  0.9468
 2586SOL     OW19393   2.840   1.108   0.240 -0.3064  0.4651 -0.0719
 2586SOL    HW119394   2.840   1.199   0.208  0.9676 -0.1246 -1.7634
 2586SOL    HW219395   2.923   1.071   0.210 -0.5267  0.3484 -0.5327
 2587SOL     OW19396   4.608   1.126   0.552 -0.3935  0.2521 -0.0582
 2587SOL    HW119397   4.542   1.156   0.615  0.8470 -1.4233  2.0315
 2587SOL    HW219398   4.670   1.080   0.608 -0.1110  0.5111 -0.1565
 2588SOL     OW19399   2.108   4.341   3.090  0.3954  0.3165 -0.2239
 2588SOL    HW119400   2.191   4.386   3.076 -1.0882  2.6724 -1.5190
 2588SOL    HW219401   2.070   4.388   3.164  1.2329  1.5653 -0.5820
 2589SOL     OW19402   3.658   1.896   7.919 -0.0570  0.2774  0.5234
 2589SOL    HW119403   3.589   1.962   7.910 -0.5704 -0.1277  1.4407
 2589SOL    HW219404   3.696   1.912   8.006  0.5915 -1.0204  0.4788
 2590SOL     OW19405   2.126   3.188   5.755  0.1678  0.0901 -0.3673
 2590SOL    HW119406   2.216   3.216   5.775 -0.1535  0.2562  0.8384
 2590SOL    HW219407   2.080   3.272   5.757 -0.4771 -0.2573 -0.5895
 2591SOL     OW19408   2.326   3.115   6.403 -0.5544  0.0941  0.0326
 2591SOL    HW119409   2.400   3.174   6.383 -1.3914  1.1640  0.0869
 2591SOL    HW219410   2.294   3.079   6.320  0.0274  1.7121 -0.9233
 2592SOL     OW19411   0.739   4.281   2.915 -0.3936  0.1047  0.3854
 2592SOL    HW119412   0.771   4.237   2.994  2.1956 -0.6586 -1.0903
 2592SOL    HW219413   0.751   4.374   2.932  0.3037  0.2514 -0.9276
 2593SOL     OW19414   0.855   1.370   3.279  0.1326  0.0560  0.2894
 2593SOL    HW119415   0.856   1.465   3.270 -0.7300  0.3768  3.8342
 2593SOL    HW219416   0.868   1.348   3.186 -2.5352  1.7663 -0.4991
 2594SOL     OW19417   3.707   3.241   7.518  0.1551  0.4368 -0.6339
 2594SOL    HW119418   3.657   3.314   7.552 -0.1543 -0.0051 -0.1317
 2594SOL    HW219419   3.777   3.241   7.584 -3.0054 -0.5957  2.7018
 2595SOL     OW19420   3.641   1.043  16.430  0.3483  0.4105 -0.7180
 2595SOL    HW119421   3.704   1.093  16.379 -0.7378  0.6516 -1.8142
 2595SOL    HW219422   3.565   1.031  16.372 -0.3483  1.1250  0.0514
 2596SOL     OW19423   2.019   0.598   8.824 -0.3446  0.3821  0.1971
 2596SOL    HW119424   2.038   0.686   8.857  0.9127  0.3584 -0.4777
 2596SOL    HW219425   1.927   0.584   8.847  0.4109 -2.3119  1.5864
 2597SOL     OW19426   0.549   1.291  15.383  0.1762  0.2879  0.1140
 2597SOL    HW119427   0.640   1.319  15.374  0.1237  0.4955  0.2345
 2597SOL    HW219428   0.521   1.382  15.394 -0.9513  0.1485 -1.5809
 2598SOL     OW19429   0.152   3.419   2.027  0.3334  0.1373  0.6866
 2598SOL    HW119430   0.097   3.496   2.036 -0.5674 -0.3215 -0.9663
 2598SOL    HW219431   0.189   3.436   1.940  2.4228 -0.1445  1.5174
 2599SOL     OW19432   3.563   2.290   3.505  0.5613 -0.2796  0.0804
 2599SOL    HW119433   3.499   2.308   3.574 -0.6409 -0.0100 -1.0890
 2599SOL    HW219434   3.614   2.370   3.509  0.7288 -0.3639 -0.3133
 2600SOL     OW19435   2.448   3.607   6.461 -0.5005  0.3298  0.2543
 2600SOL    HW119436   2.385   3.628   6.392 -2.1503 -2.8587  0.7885
 2600SOL    HW219437   2.452   3.512   6.451 -1.5881  0.5782 -2.3815
 2601SOL     OW19438   0.258   3.846   8.633  0.2864  0.3314 -0.1948
 2601SOL    HW119439   0.169   3.812   8.630 -1.0823  4.0911 -1.1639
 2601SOL    HW219440   0.238   3.910   8.565  0.2085  1.6297  1.0329
 2602SOL     OW19441   1.141   2.833  11.882 -0.7924 -0.5320  0.3768
 2602SOL    HW119442   1.050   2.865  11.889 -0.0597  1.5752  0.4054
 2602SOL    HW219443   1.187   2.916  11.871  2.2481 -2.2954  0.0445
 2603SOL     OW19444   1.605   0.669   4.946 -0.3827  0.1465 -0.6145
 2603SOL    HW119445   1.587   0.613   4.871  1.3849 -0.2726 -0.7230
 2603SOL    HW219446   1.620   0.755   4.906 -1.4054 -0.4111 -2.1954
 2604SOL     OW19447   3.697   2.202   2.308 -0.1069  0.6686 -0.4140
 2604SOL    HW119448   3.781   2.178   2.268  0.9211  0.2470  1.9940
 2604SOL    HW219449   3.687   2.295   2.287 -1.2883  1.4172  3.5196
 2605SOL     OW19450   1.464   4.718   6.408  0.0867 -0.4191  0.4547
 2605SOL    HW119451   1.500   4.650   6.465  1.1634 -1.2980 -1.2691
 2605SOL    HW219452   1.370   4.710   6.423  0.1439 -0.0021  1.0731
 2606SOL     OW19453   2.560   0.791   7.265 -0.3565  0.6077 -0.4363
 2606SOL    HW119454   2.549   0.822   7.355  0.9417 -1.9047  0.5820
 2606SOL    HW219455   2.639   0.741   7.284 -0.9674  0.3110  1.3196
 2607SOL     OW19456   1.559   0.370   6.371 -0.9823  0.0246  0.7032
 2607SOL    HW119457   1.639   0.377   6.423  0.1788 -0.1969 -1.0697
 2607SOL    HW219458   1.583   0.297   6.314 -1.0177  1.4781 -1.1538
 2608SOL     OW19459   4.355   1.729   3.935  0.3141  0.0847 -0.0031
 2608SOL    HW119460   4.273   1.698   3.973 -0.8480  2.2043 -0.7808
 2608SOL    HW219461   4.328   1.750   3.845 -2.3765 -0.8475  0.5818
 2609SOL     OW19462   2.858   3.747   9.888 -0.0970 -0.0777 -0.0342
 2609SOL    HW119463   2.804   3.757   9.966  1.2225 -0.1655  0.8779
 2609SOL    HW219464   2.839   3.830   9.844 -1.8538 -1.1087 -1.2043
 2610SOL     OW19465   2.995   4.603   0.918 -0.4033 -0.2252  0.0909
 2610SOL    HW119466   3.042   4.537   0.970 -2.3657 -0.5683  1.4613
 2610SOL    HW219467   2.955   4.654   0.989 -1.0168 -2.0919  1.0956
 2611SOL     OW19468   4.542   1.771   4.142  0.4803  0.9555 -0.2914
 2611SOL    HW119469   4.484   1.784   4.218  0.4695  1.8165 -0.4448
 2611SOL    HW219470   4.483   1.747   4.070  0.5858  0.6256 -0.2642
 2612SOL     OW19471   2.440   4.450  10.321  0.8566 -0.1488 -0.6732
 2612SOL    HW119472   2.415   4.506  10.247 -0.6978  0.3375  0.2016
 2612SOL    HW219473   2.524   4.490  10.345 -0.2840  3.1589 -2.1662
 2613SOL     OW19474   3.245   3.344  12.742 -0.3905  0.5177  0.2971
 2613SOL    HW119475   3.244   3.264  12.690 -0.0603  0.4502  0.3922
 2613SOL    HW219476   3.295   3.397  12.680 -1.7495  1.6623  0.1745
 2614SOL     OW19477   1.627   2.712  10.504  0.1091 -0.2872 -0.0921
 2614SOL    HW119478   1.564   2.743  10.569  0.2906  0.0695 -0.0823
 2614SOL    HW219479   1.567   2.649  10.465  0.5025 -0.0947 -1.0076
 2615SOL     OW19480   4.362   3.555   2.891 -0.0726 -0.4020  0.4237
 2615SOL    HW119481   4.363   3.650   2.900 -0.8821 -0.3460 -0.0968
 2615SOL    HW219482   4.364   3.547   2.796  2.0641  0.3375  0.4065
 2616SOL     OW19483   4.342   2.272  10.119  1.0451  0.3919 -0.1248
 2616SOL    HW119484   4.324   2.347  10.175  1.4507  0.1938  0.2752
 2616SOL    HW219485   4.334   2.209  10.191  3.3478 -0.4634 -0.5995
 2617SOL     OW19486   2.622   2.760   9.173  0.0956  0.6918 -0.2839
 2617SOL    HW119487   2.640   2.807   9.091 -1.7268 -0.1430 -1.1480
 2617SOL    HW219488   2.621   2.667   9.151  3.3804  0.3958  0.7516
 2618SOL     OW19489   0.206   2.582  15.631  0.6125  0.4622  0.0648
 2618SOL    HW119490   0.191   2.597  15.724 -0.4908 -1.5470  0.2007
 2618SOL    HW219491   0.126   2.538  15.602  0.8427 -0.6974  1.2607
 2619SOL     OW19492   3.695   0.819   3.201  0.6267 -0.5108 -0.5146
 2619SOL    HW119493   3.783   0.822   3.238  0.1743  1.1098  0.4382
 2619SOL    HW219494   3.711   0.738   3.153  1.8362  0.3566 -1.5705
 2620SOL     OW19495   1.642   3.608   8.783 -0.1646  0.3914  0.6703
 2620SOL    HW119496   1.563   3.647   8.745 -0.3929  0.0221  0.7670
 2620SOL    HW219497   1.709   3.668   8.750  0.7576 -1.5046 -0.9369
 2621SOL     OW19498   1.481   2.685  14.266 -0.1975  0.0145  0.3219
 2621SOL    HW119499   1.391   2.692  14.296 -0.1698  1.1320  0.1463
 2621SOL    HW219500   1.474   2.684  14.170  0.5370  1.8970  0.2472
 2622SOL     OW19501   0.072   2.544   3.071  0.2714 -0.3229 -0.3143
 2622SOL    HW119502   0.167   2.546   3.068  0.3296 -2.1573  0.4101
 2622SOL    HW219503   0.063   2.462   3.022  1.6656 -0.6161 -0.0694
 2623SOL     OW19504   4.301   4.522  16.930 -0.3787 -0.0134 -0.0133
 2623SOL    HW119505   4.221   4.470  16.937 -2.1494  3.0251  2.1402
 2623SOL    HW219506   4.358   4.465  16.981  0.5057  2.7636  2.0954
 2624SOL     OW19507   1.550   4.479   5.661  0.0527 -0.6198  0.5073
 2624SOL    HW119508   1.456   4.461   5.653 -0.0096 -0.2318  0.3663
 2624SOL    HW219509   1.560   4.445   5.750  1.1303  2.3656  1.5277
 2625SOL     OW19510   0.365   4.357  12.285  0.0968  0.2631  0.0876
 2625SOL    HW119511   0.329   4.443  12.263  1.8778  1.2552  1.0641
 2625SOL    HW219512   0.413   4.369  12.367 -1.0913 -2.2722  1.1885
 2626SOL     OW19513   3.606   1.225   7.460 -0.6895  0.2905  0.2321
 2626SOL    HW119514   3.656   1.253   7.536 -0.0528 -0.8828  0.2418
 2626SOL    HW219515   3.630   1.296   7.401  0.6204  0.1238  0.5646
 2627SOL     OW19516   4.323   2.903  10.638  0.0118 -0.2106  0.3049
 2627SOL    HW119517   4.342   2.833  10.701  1.1426  0.2586  0.4712
 2627SOL    HW219518   4.386   2.969  10.665  1.1911 -1.8376  1.5212
 2628SOL     OW19519   1.095   1.340   6.603  0.4078  0.1485  0.9087
 2628SOL    HW119520   1.064   1.426   6.574  1.2932  0.2881  0.3436
 2628SOL    HW219521   1.012   1.309   6.638 -1.9599  1.8356 -3.1856
 2629SOL     OW19522   1.575   1.106   4.258  0.3089 -0.3451 -0.5065
 2629SOL    HW119523   1.521   1.185   4.264 -1.4507 -1.5614 -0.2552
 2629SOL    HW219524   1.530   1.059   4.188 -0.4731  0.6081 -0.6572
 2630SOL     OW19525   2.410   4.397  14.848  0.4098 -0.0656  0.2368
 2630SOL    HW119526   2.503   4.379  14.864  0.7021 -0.4116 -1.7411
 2630SOL    HW219527   2.376   4.366  14.932 -1.0086  3.0806  0.8178
 2631SOL     OW19528   0.732   4.123   4.934  0.1878 -0.2132  0.2729
 2631SOL    HW119529   0.771   4.075   5.007  0.5608 -1.7944 -0.9749
 2631SOL    HW219530   0.803   4.106   4.872 -1.5363  1.5237 -2.1796
 2632SOL     OW19531   4.416   1.365  11.545  0.7317 -0.4502  0.1078
 2632SOL    HW119532   4.327   1.346  11.575  0.2298 -0.4951 -1.4395
 2632SOL    HW219533   4.456   1.283  11.517 -0.9054 -0.4267 -2.2505
 2633SOL     OW19534   0.069   2.394   6.255 -0.2087  0.5886 -0.4976
 2633SOL    HW119535   0.060   2.411   6.162 -1.4628 -1.1513 -0.6956
 2633SOL    HW219536   0.113   2.308   6.253  0.9429  1.1892 -0.8038
 2634SOL     OW19537   1.943   0.444   3.693  0.0887 -0.7075 -0.0985
 2634SOL    HW119538   1.975   0.401   3.614  2.1048 -1.2962  1.0305
 2634SOL    HW219539   1.972   0.382   3.760  1.5287  0.1713  0.1021
 2635SOL     OW19540   0.724   3.598   3.358 -0.7071  0.2589 -0.2809
 2635SOL    HW119541   0.777   3.630   3.285  1.1034 -2.2461 -0.0552
 2635SOL    HW219542   0.656   3.550   3.310 -0.2111 -0.2051 -0.5303
 2636SOL     OW19543   3.763   1.452   5.022 -0.7705  0.2344  0.3826
 2636SOL    HW119544   3.736   1.448   5.114  2.0761  1.0047  1.2419
 2636SOL    HW219545   3.851   1.488   5.036 -1.2401  0.1543  3.7084
 2637SOL     OW19546   2.797   2.040   7.197  0.4073 -0.1676 -0.1605
 2637SOL    HW119547   2.778   2.131   7.221 -0.0893 -0.0053 -1.1279
 2637SOL    HW219548   2.850   2.017   7.273 -0.9565 -2.1647  0.1893
 2638SOL     OW19549   0.640   1.037   4.501 -0.2796 -0.1415  0.2952
 2638SOL    HW119550   0.708   1.033   4.434 -2.7072  0.8067 -2.2232
 2638SOL    HW219551   0.668   0.966   4.560  0.8323 -0.1564 -0.2680
 2639SOL     OW19552   0.621   2.708   7.210  0.4623 -0.0407  0.8637
 2639SOL    HW119553   0.704   2.731   7.167 -0.3908  0.9852 -0.2187
 2639SOL    HW219554   0.558   2.772   7.178  0.2607 -0.0005  1.3403
 2640SOL     OW19555   2.007   1.540   2.072 -0.3747  0.5223 -0.8370
 2640SOL    HW119556   2.045   1.457   2.043 -0.1386  1.9836 -4.7183
 2640SOL    HW219557   2.093   1.574   2.098  0.2189  1.0805 -3.5087
 2641SOL     OW19558   3.177   0.324   4.528 -0.1007 -0.1277  0.3046
 2641SOL    HW119559   3.097   0.365   4.495 -1.5176 -1.8636  1.5426
 2641SOL    HW219560   3.178   0.245   4.474  0.6311  0.4118 -0.4765
 2642SOL     OW19561   3.605   0.565  17.251  0.1194 -0.2331  0.3092
 2642SOL    HW119562   3.567   0.603  17.330  1.0978 -1.4908  1.3881
 2642SOL    HW219563   3.536   0.590  17.189 -0.6642  0.0797  1.3114
 2643SOL     OW19564   4.354   1.282  12.926  0.2923  0.2376 -0.0624
 2643SOL    HW119565   4.393   1.200  12.955  1.5544  1.0988  0.7075
 2643SOL    HW219566   4.274   1.273  12.978  1.7894 -2.4467  1.7497
 2644SOL     OW19567   3.093   1.295  12.137  0.6337  0.3311  0.1020
 2644SOL    HW119568   3.182   1.283  12.102  1.2323  0.4262  1.6130
 2644SOL    HW219569   3.059   1.206  12.136 -1.3507  1.1167 -1.2519
 2645SOL     OW19570   0.581   4.416  13.192 -0.2834  0.0457  0.1430
 2645SOL    HW119571   0.638   4.408  13.116  2.0322 -2.2999  2.1467
 2645SOL    HW219572   0.613   4.503  13.218  0.1282 -0.2819  0.7471
 2646SOL     OW19573   0.070   4.024  13.081  0.3324 -0.4592  0.0820
 2646SOL    HW119574   0.015   4.009  13.004 -0.4289 -0.5987  0.6510
 2646SOL    HW219575   0.015   4.085  13.129  3.3980  1.1438  1.6063
 2647SOL     OW19576   3.483   4.034   1.780  0.0420  0.2663  0.3865
 2647SOL    HW119577   3.515   3.945   1.793  2.9933  1.5880  2.3766
 2647SOL    HW219578   3.428   4.022   1.703  1.0675  0.4511 -0.3881
 2648SOL     OW19579   0.569   0.129   4.591  0.6637  0.6698 -0.0188
 2648SOL    HW119580   0.592   0.179   4.670  3.3209 -0.2876 -0.2086
 2648SOL    HW219581   0.654   0.089   4.574  0.4833  0.1086  0.4283
 2649SOL     OW19582   3.155   2.305   9.626 -0.8544 -0.0220 -0.6848
 2649SOL    HW119583   3.235   2.256   9.645 -1.5805 -0.9011  0.0822
 2649SOL    HW219584   3.101   2.260   9.560 -1.2611 -0.0538 -0.3335
 2650SOL     OW19585   2.558   0.315   9.542  0.0903  0.0739 -0.4822
 2650SOL    HW119586   2.514   0.354   9.467  1.0505  1.6800 -0.2132
 2650SOL    HW219587   2.581   0.234   9.497  1.0898  1.4022 -2.3489
 2651SOL     OW19588   2.952   0.034   2.404 -0.0418 -0.1865 -1.0406
 2651SOL    HW119589   2.863   0.031   2.439 -0.9899  1.6460 -3.3169
 2651SOL    HW219590   2.926   0.033   2.311  0.2773  1.5657 -1.1579
 2652SOL     OW19591   2.053   2.585   8.163 -0.7050  0.3116  0.1579
 2652SOL    HW119592   2.009   2.570   8.247  1.9061 -0.3347  1.4172
 2652SOL    HW219593   2.142   2.615   8.185  0.4190 -1.0079 -2.7036
 2653SOL     OW19594   2.763   1.210   4.285 -0.4191 -0.1175 -0.0768
 2653SOL    HW119595   2.741   1.203   4.192  0.0674  2.6223 -0.4079
 2653SOL    HW219596   2.753   1.121   4.317 -0.5430  0.0474  0.3419
 2654SOL     OW19597   0.625   0.695   3.072  0.0265 -0.4116  0.2369
 2654SOL    HW119598   0.576   0.701   2.990  0.0819 -0.0336  0.2295
 2654SOL    HW219599   0.579   0.622   3.114  1.8563 -0.7558  1.6211
 2655SOL     OW19600   3.072   0.569  12.162 -0.3121 -0.1446 -0.1359
 2655SOL    HW119601   3.060   0.605  12.249  0.7184 -1.4065  0.5353
 2655SOL    HW219602   3.156   0.523  12.161 -0.3406 -0.1959 -0.3963
 2656SOL     OW19603   1.601   2.741   2.660 -0.3453  0.4704  0.4610
 2656SOL    HW119604   1.519   2.695   2.640  0.1328 -1.0107  1.9309
 2656SOL    HW219605   1.567   2.829   2.673 -0.5966  0.0902  2.4049
 2657SOL     OW19606   3.318   1.159   8.619 -0.7183  0.1223  0.0771
 2657SOL    HW119607   3.344   1.078   8.575  0.8121  0.0601  1.0974
 2657SOL    HW219608   3.286   1.216   8.550  0.8144  2.1746  1.0644
 2658SOL     OW19609   4.359   0.237   2.262  0.1076  0.6805  0.2917
 2658SOL    HW119610   4.399   0.277   2.339 -0.7257  1.1485  0.4731
 2658SOL    HW219611   4.267   0.256   2.278  0.8181  2.1056  2.5982
 2659SOL     OW19612   0.493   3.486   7.423  0.3575 -0.1848 -0.7929
 2659SOL    HW119613   0.539   3.529   7.495 -0.7932  0.8692 -0.6916
 2659SOL    HW219614   0.478   3.397   7.456  0.2795  0.2940  0.4341
 2660SOL     OW19615   0.396   4.329   9.138  0.2241  0.0441  0.2697
 2660SOL    HW119616   0.389   4.398   9.204  0.0604 -0.1706  0.4790
 2660SOL    HW219617   0.321   4.358   9.088 -0.5859  0.7450  1.8756
 2661SOL     OW19618   3.935   0.169   5.928  0.2393 -0.2450 -0.2106
 2661SOL    HW119619   3.931   0.262   5.905  1.8779 -0.1269 -0.0544
 2661SOL    HW219620   3.911   0.122   5.848 -0.8766  1.6642 -1.0269
 2662SOL     OW19621   2.866   3.990   8.031 -0.2449  0.3552  0.1516
 2662SOL    HW119622   2.785   4.019   8.073 -0.8572 -1.7517  0.3973
 2662SOL    HW219623   2.925   4.061   8.055 -0.7583  1.6792 -2.4569
 2663SOL     OW19624   3.147   0.210   6.667  0.4559 -0.0597  0.3536
 2663SOL    HW119625   3.209   0.155   6.619  0.5135  2.0047 -1.9035
 2663SOL    HW219626   3.206   0.283   6.685  1.6556 -0.3008 -2.6415
 2664SOL     OW19627   1.650   4.537   1.418  0.0414  0.1227  0.0911
 2664SOL    HW119628   1.708   4.486   1.475 -0.6864 -0.8489 -0.0468
 2664SOL    HW219629   1.690   4.623   1.431  2.9208 -1.0829 -0.6688
 2665SOL     OW19630   4.569   2.848  10.084 -0.8865  0.0728  0.2035
 2665SOL    HW119631   4.590   2.891  10.001 -1.3861  0.2473  0.1667
 2665SOL    HW219632   4.573   2.924  10.143  0.1503  0.4500 -0.3539
 2666SOL     OW19633   0.588   2.477  15.480  0.7744 -0.1878  0.0685
 2666SOL    HW119634   0.630   2.533  15.544  1.9918  0.7738 -1.5793
 2666SOL    HW219635   0.553   2.406  15.534 -2.5898  2.9798  2.0301
 2667SOL     OW19636   2.844   0.173   5.643 -0.1837  0.6808 -0.3170
 2667SOL    HW119637   2.770   0.113   5.653  0.6721  0.3114  3.6247
 2667SOL    HW219638   2.795   0.251   5.669 -2.1864 -0.2590 -1.2864
 2668SOL     OW19639   3.381   2.684   7.044 -0.1283 -0.3132 -1.1462
 2668SOL    HW119640   3.297   2.728   7.053 -0.6962 -1.2147 -2.0528
 2668SOL    HW219641   3.356   2.593   7.030 -1.2245 -0.2367  0.3041
 2669SOL     OW19642   0.130   3.175   3.243  0.7908 -0.0341  0.1574
 2669SOL    HW119643   0.078   3.098   3.219 -1.1329  0.9231  1.3321
 2669SOL    HW219644   0.079   3.247   3.207 -0.1465 -0.2039  1.1700
 2670SOL     OW19645   2.296   2.570   9.755  0.1977  0.1785 -0.3669
 2670SOL    HW119646   2.259   2.627   9.688  0.3932 -1.9729 -2.3054
 2670SOL    HW219647   2.382   2.546   9.720  0.8898 -0.5400  1.7691
 2671SOL     OW19648   1.082   0.674   3.899 -0.0577 -0.4220 -0.1841
 2671SOL    HW119649   1.068   0.741   3.966 -1.7144  0.3182 -1.2750
 2671SOL    HW219650   1.028   0.694   3.823  1.3743 -0.7807 -1.3134
 2672SOL     OW19651   4.032   1.261  12.520  0.0857 -0.3682 -1.0305
 2672SOL    HW119652   4.085   1.239  12.597  0.3128 -0.4232 -1.2048
 2672SOL    HW219653   4.004   1.173  12.496 -1.8879 -0.3217  1.0562
 2673SOL     OW19654   0.338   1.380   4.178 -0.0564  0.4363  0.6242
 2673SOL    HW119655   0.302   1.293   4.198 -0.5380  0.2887 -0.8549
 2673SOL    HW219656   0.327   1.383   4.082  1.1708 -0.0944  0.4709
 2674SOL     OW19657   4.471   4.104   9.379  0.0363  0.1232 -0.2824
 2674SOL    HW119658   4.546   4.162   9.391  0.9204 -1.4387  1.7885
 2674SOL    HW219659   4.402   4.163   9.349  0.6235  1.3765  0.8464
 2675SOL     OW19660   0.665   4.601   3.637 -0.1353  0.0222 -0.4510
 2675SOL    HW119661   0.658   4.664   3.709  1.3017  0.4357 -0.6724
 2675SOL    HW219662   0.727   4.537   3.671  0.0835  0.6401  0.3122
 2676SOL     OW19663   0.974   1.575  16.471 -0.1762 -0.4408 -0.4659
 2676SOL    HW119664   1.053   1.626  16.452  0.0238  0.0098  1.6529
 2676SOL    HW219665   0.971   1.517  16.394  2.6904 -0.3788 -0.6549
 2677SOL     OW19666   1.092   0.782   6.690 -0.6321 -0.0527  0.2039
 2677SOL    HW119667   1.135   0.854   6.735 -1.0839  0.1117  0.3773
 2677SOL    HW219668   1.042   0.759   6.768  0.6425  0.2785  1.1023
 2678SOL     OW19669   4.395   3.399   6.876 -0.0037 -0.1496  0.0251
 2678SOL    HW119670   4.400   3.305   6.858 -0.8900 -0.3160  0.6061
 2678SOL    HW219671   4.340   3.391   6.955 -0.0960  0.0384 -0.0189
 2679SOL     OW19672   3.731   1.566   8.282  0.1304 -0.1701 -1.0314
 2679SOL    HW119673   3.640   1.537   8.289  0.1651 -0.5824 -2.3322
 2679SOL    HW219674   3.743   1.598   8.371  0.1681 -0.2129 -1.0215
 2680SOL     OW19675   0.940   0.165  11.983 -0.1450 -0.0195  0.6806
 2680SOL    HW119676   1.013   0.164  11.921 -2.9205  0.8908 -2.6043
 2680SOL    HW219677   0.975   0.227  12.047  1.3501 -0.1650  0.0163
 2681SOL     OW19678   2.458   4.436  10.642 -0.1158  0.4880 -0.4838
 2681SOL    HW119679   2.453   4.343  10.620 -1.3045  0.1874  1.0148
 2681SOL    HW219680   2.367   4.462  10.630 -0.1224  0.2827 -0.8696
 2682SOL     OW19681   2.147   2.258   1.826 -0.6919  0.2468  0.0328
 2682SOL    HW119682   2.185   2.227   1.744  1.7255  2.1592  0.4384
 2682SOL    HW219683   2.119   2.346   1.801  0.2907  0.7298  0.6334
 2683SOL     OW19684   3.021   0.693   7.123 -0.1580 -0.2939  0.0230
 2683SOL    HW119685   3.095   0.633   7.133  1.5478  1.6568 -0.7841
 2683SOL    HW219686   2.972   0.680   7.204 -0.4107  1.4914  0.1523
 2684SOL     OW19687   0.928   2.426   9.691  0.3190  0.0885 -0.1263
 2684SOL    HW119688   0.922   2.430   9.786 -2.2285 -2.2500 -0.2123
 2684SOL    HW219689   1.023   2.413   9.682  0.0209 -1.7279 -0.5921
 2685SOL     OW19690   3.647   2.166   4.199 -0.1260  0.3121 -0.3637
 2685SOL    HW119691   3.645   2.262   4.190 -1.5617  0.2984 -0.2798
 2685SOL    HW219692   3.727   2.138   4.155  0.9661  0.6133  1.4241
 2686SOL     OW19693   2.677   3.624   6.665 -0.9939  0.4927 -0.7417
 2686SOL    HW119694   2.617   3.623   6.591 -0.3963  2.9695 -1.2753
 2686SOL    HW219695   2.641   3.547   6.710  1.7258  1.0011  2.3571
 2687SOL     OW19696   0.600   4.094   5.278 -0.1297  0.2390  0.1165
 2687SOL    HW119697   0.622   4.030   5.346 -1.0890 -0.3033 -0.0820
 2687SOL    HW219698   0.680   4.109   5.228 -0.3335  1.8827  0.2765
 2688SOL     OW19699   1.525   3.694   2.870  0.4516 -0.1757  0.0470
 2688SOL    HW119700   1.430   3.707   2.864  0.1878 -2.3513 -0.6190
 2688SOL    HW219701   1.534   3.619   2.928  1.4773 -1.0121 -1.1834
 2689SOL     OW19702   0.828   0.983   7.014 -0.0243 -0.2090 -0.4133
 2689SOL    HW119703   0.742   0.969   6.973 -0.2774 -0.7311  0.2733
 2689SOL    HW219704   0.815   0.930   7.093 -0.3738  0.2856 -0.1406
 2690SOL     OW19705   1.931   1.433   8.815 -0.3932  0.1575 -0.1654
 2690SOL    HW119706   1.972   1.383   8.745  1.1637  0.4871  0.5178
 2690SOL    HW219707   1.941   1.525   8.789  0.2254 -0.3333 -1.6251
 2691SOL     OW19708   1.915   4.006   8.907  0.3352 -0.0209 -0.4854
 2691SOL    HW119709   1.941   4.021   8.998  1.2375  1.2866 -0.9613
 2691SOL    HW219710   1.924   3.912   8.891  1.6264  0.0584 -0.2654
 2692SOL     OW19711   3.680   4.736   4.133  0.9144 -0.3083  0.0850
 2692SOL    HW119712   3.752   4.676   4.116 -0.4336 -2.3414  1.4981
 2692SOL    HW219713   3.727   0.058   4.190  0.5440  0.1560 -0.0934
 2693SOL     OW19714   2.171   0.919  10.219 -0.1333 -0.0705  0.1576
 2693SOL    HW119715   2.104   0.912  10.150  1.6137 -0.3586 -1.4937
 2693SOL    HW219716   2.223   0.997  10.203  0.0296 -0.6899 -2.2478
 2694SOL     OW19717   3.293   2.578   9.501 -0.0651  0.1487  0.5474
 2694SOL    HW119718   3.331   2.617   9.422 -0.0215 -1.6536 -0.3095
 2694SOL    HW219719   3.337   2.495   9.519  0.2290  0.5195  1.5089
 2695SOL     OW19720   1.318   1.582   8.117  0.6551  0.2191 -0.4972
 2695SOL    HW119721   1.302   1.489   8.102  2.3075 -0.2375  0.5326
 2695SOL    HW219722   1.408   1.579   8.150  0.1040 -0.8946  0.8904
 2696SOL     OW19723   1.315   0.582   5.226 -0.5096 -0.2620 -0.1566
 2696SOL    HW119724   1.227   0.573   5.190 -0.3978 -1.6784 -0.0651
 2696SOL    HW219725   1.373   0.585   5.150 -0.2861 -0.6669 -0.0047
 2697SOL     OW19726   1.764   3.396   9.398  0.2201 -0.7224 -0.6505
 2697SOL    HW119727   1.732   3.353   9.319  2.2485 -0.6193 -1.5326
 2697SOL    HW219728   1.755   3.486   9.366 -2.5709 -0.9304 -0.4486
 2698SOL     OW19729   0.227   2.759   7.849  0.1447 -0.5866  0.8821
 2698SOL    HW119730   0.287   2.684   7.843  0.1996 -0.2419 -2.7108
 2698SOL    HW219731   0.184   2.738   7.933 -1.9287  1.0356  0.2219
 2699SOL     OW19732   1.809   0.096   8.075 -0.4601  0.3422 -0.0505
 2699SOL    HW119733   1.802   0.039   7.998  0.0613  0.4912 -0.2111
 2699SOL    HW219734   1.860   0.042   8.135 -1.3364 -1.4836 -0.9530
 2700SOL     OW19735   3.828   4.008   3.172  0.3518  0.2594  0.5727
 2700SOL    HW119736   3.795   4.082   3.224  1.8425  1.3673 -0.0540
 2700SOL    HW219737   3.876   3.960   3.240 -1.7669  0.1434  1.9794
 2701SOL     OW19738   2.918   3.476   6.964 -0.6733 -0.2007 -0.2921
 2701SOL    HW119739   2.931   3.554   7.017 -1.1872 -0.9059  0.8729
 2701SOL    HW219740   2.965   3.510   6.888 -0.9005  2.1147  0.5995
 2702SOL     OW19741   2.540   1.298   3.711  0.0611  0.2177  0.1790
 2702SOL    HW119742   2.479   1.230   3.683 -0.4299  0.6219  0.2854
 2702SOL    HW219743   2.600   1.295   3.636 -1.4128 -2.5156 -0.8886
 2703SOL     OW19744   4.725   4.546  16.875  0.0130  0.3566 -0.1918
 2703SOL    HW119745   0.040   4.466  16.875 -0.6621 -0.0878 -0.5038
 2703SOL    HW219746   4.699   4.550  16.783 -0.9642 -1.1499  0.0195
 2704SOL     OW19747   1.291   0.393  17.142 -0.3498  0.3592  0.0021
 2704SOL    HW119748   1.379   0.429  17.130  0.1016 -0.8525 -0.2538
 2704SOL    HW219749   1.240   0.425  17.068  1.0532  1.9446 -0.2968
 2705SOL     OW19750   2.553   0.646   5.389 -0.0627 -0.7108  0.2325
 2705SOL    HW119751   2.474   0.593   5.397 -0.8562  0.1303 -2.0752
 2705SOL    HW219752   2.600   0.602   5.317 -0.7856 -0.5844 -0.3142
 2706SOL     OW19753   4.588   0.767  16.623 -0.1588  0.2295  0.3812
 2706SOL    HW119754   4.601   0.673  16.634  0.2391  0.2316 -0.0724
 2706SOL    HW219755   4.506   0.776  16.672 -0.0407  0.1208  0.5964
 2707SOL     OW19756   4.323   3.275  10.110  0.5362 -0.3370 -0.4897
 2707SOL    HW119757   4.365   3.206  10.163 -2.4265 -0.7013  1.3904
 2707SOL    HW219758   4.234   3.267  10.143  1.4625  0.1106  2.2176
 2708SOL     OW19759   4.618   0.735   7.911  0.1511  0.3497  0.0236
 2708SOL    HW119760   4.535   0.729   7.958 -0.0927  0.9817 -0.3211
 2708SOL    HW219761   4.676   0.747   7.986 -1.0033  0.1225  0.9397
 2709SOL     OW19762   2.761   0.509   4.017  0.3918  0.1301  0.3330
 2709SOL    HW119763   2.776   0.420   3.986  2.5774  0.8283 -0.6508
 2709SOL    HW219764   2.675   0.527   3.979 -0.5966 -1.4540  1.8576
 2710SOL     OW19765   1.486   2.375   6.161 -0.3939  0.0127  0.8164
 2710SOL    HW119766   1.514   2.403   6.248 -0.0820  1.1314  0.3565
 2710SOL    HW219767   1.395   2.359   6.187 -0.4638  1.6352  1.5751
 2711SOL     OW19768   1.352   3.774  12.541  0.3647  0.1070  0.5730
 2711SOL    HW119769   1.373   3.686  12.570 -0.2639 -0.0318  0.5964
 2711SOL    HW219770   1.271   3.784  12.590 -0.7492 -0.6831 -1.1155
 2712SOL     OW19771   4.094   0.330  10.640 -0.3723  0.2788  0.0473
 2712SOL    HW119772   4.162   0.398  10.647 -0.0466  0.0762 -1.1663
 2712SOL    HW219773   4.150   0.253  10.628 -0.0402 -0.1757  4.2504
 2713SOL     OW19774   4.418   3.863   3.914  0.2025 -0.1642 -0.0654
 2713SOL    HW119775   4.422   3.896   3.825 -2.5861  0.2431 -0.0285
 2713SOL    HW219776   4.347   3.799   3.918  0.7010 -0.6038  1.8394
 2714SOL     OW19777   2.651   1.096   4.746  0.5322  0.0456  0.0115
 2714SOL    HW119778   2.630   1.003   4.739  1.6449 -0.2333  0.4545
 2714SOL    HW219779   2.571   1.132   4.708 -0.1928 -2.4565 -0.8019
 2715SOL     OW19780   1.579   1.680   8.309 -0.5597 -0.0729 -0.8287
 2715SOL    HW119781   1.539   1.748   8.363 -1.4854 -0.4423 -1.0332
 2715SOL    HW219782   1.671   1.705   8.312 -0.1414 -1.7728  0.6309
 2716SOL     OW19783   2.624   4.674   2.440 -0.7086 -0.1876 -0.1960
 2716SOL    HW119784   2.543   4.644   2.482 -0.4383  0.5075  0.8340
 2716SOL    HW219785   2.658   4.608   2.380 -3.9574 -0.2419 -1.9541
 2717SOL     OW19786   2.731   0.879  17.470 -0.5432  0.3838  0.4409
 2717SOL    HW119787   2.727   0.913  17.560  3.6406  0.0319  0.7313
 2717SOL    HW219788   2.762   0.790  17.485 -0.9968 -0.1459 -1.7240
 2718SOL     OW19789   0.943   2.862   5.080  0.3567  0.4071 -0.1307
 2718SOL    HW119790   0.935   2.770   5.053  0.9851 -0.2003  1.7780
 2718SOL    HW219791   1.035   2.877   5.056  0.2230  0.7041 -0.4618
 2719SOL     OW19792   0.441   4.029  12.498  0.0511  0.3312  0.0454
 2719SOL    HW119793   0.512   4.089  12.522 -0.9482  1.6022 -0.1348
 2719SOL    HW219794   0.368   4.077  12.539  0.9914  0.9348  1.0146
 2720SOL     OW19795   0.856   0.147   9.593  0.3563  0.1304 -0.4079
 2720SOL    HW119796   0.804   0.156   9.673  1.9492 -1.0016  0.7655
 2720SOL    HW219797   0.922   0.213   9.614  1.4960 -2.4159  3.9805
 2721SOL     OW19798   4.608   2.339   9.184 -0.3977 -0.5079  0.2239
 2721SOL    HW119799   4.660   2.262   9.205  3.1831  1.9786  0.6169
 2721SOL    HW219800   4.679   2.404   9.177 -0.4484 -0.4622  0.1279
 2722SOL     OW19801   4.395   4.074   6.070 -0.1504  0.4327 -0.2788
 2722SOL    HW119802   4.376   4.132   5.997  2.0520  0.2961 -0.9708
 2722SOL    HW219803   4.319   4.015   6.067  0.2442 -0.2622  3.1884
 2723SOL     OW19804   2.739   0.917   9.762 -0.5951  0.7886  0.9287
 2723SOL    HW119805   2.646   0.937   9.752 -0.2976  1.5680 -0.4024
 2723SOL    HW219806   2.770   0.946   9.848  1.4502 -1.2126  0.8429
 2724SOL     OW19807   2.929   1.006   9.923  0.1608 -0.0770  0.7701
 2724SOL    HW119808   2.933   1.086   9.975 -2.1093  0.1712  0.5904
 2724SOL    HW219809   3.002   0.953   9.954 -0.1107 -0.9325 -0.0126
 2725SOL     OW19810   4.293   4.058   8.185 -0.1372 -0.2207 -0.1679
 2725SOL    HW119811   4.387   4.051   8.171 -0.1102  0.2497 -0.2222
 2725SOL    HW219812   4.249   4.051   8.100 -0.9294  0.3201  0.2013
 2726SOL     OW19813   0.227   2.403  15.082  0.8704 -0.3412  0.2649
 2726SOL    HW119814   0.262   2.445  15.160 -0.5965 -1.3177  1.4519
 2726SOL    HW219815   0.301   2.346  15.058  0.8843 -0.3240  0.2676
 2727SOL     OW19816   3.019   1.499  16.385 -0.2877  0.0842 -0.0744
 2727SOL    HW119817   2.980   1.578  16.347 -3.1321 -0.4429  1.7148
 2727SOL    HW219818   3.014   1.434  16.316 -2.4427  0.0696  0.0842
 2728SOL     OW19819   0.655   0.767   3.807  0.1110  0.5568 -0.1592
 2728SOL    HW119820   0.661   0.745   3.900  2.3239  1.9791  0.0390
 2728SOL    HW219821   0.570   0.728   3.789  0.9533 -0.6028 -1.5916
 2729SOL     OW19822   4.414   4.192  12.640 -0.2023 -0.3516 -0.1472
 2729SOL    HW119823   4.461   4.142  12.707 -0.4679  1.4225  1.3743
 2729SOL    HW219824   4.382   4.119  12.588 -0.1533 -0.5415  0.0891
 2730SOL     OW19825   1.542   2.516   6.401  0.2870 -0.3469 -0.1943
 2730SOL    HW119826   1.614   2.518   6.464  0.9761 -0.9917 -0.9624
 2730SOL    HW219827   1.462   2.519   6.455  0.7116 -5.7588  0.7148
 2731SOL     OW19828   1.240   3.680   5.393 -0.5639 -0.1756 -0.4082
 2731SOL    HW119829   1.167   3.741   5.380  1.5635  2.3628 -0.4627
 2731SOL    HW219830   1.247   3.634   5.309 -0.9213  2.0553 -1.6735
 2732SOL     OW19831   2.540   2.967   5.891 -0.3010  0.4835  0.0749
 2732SOL    HW119832   2.611   2.927   5.841 -0.3752 -1.1427  1.2823
 2732SOL    HW219833   2.577   3.054   5.905  1.9158 -0.2830 -0.9426
 2733SOL     OW19834   3.743   2.375   7.196  0.3713  0.4452 -0.3498
 2733SOL    HW119835   3.661   2.334   7.169  1.6363 -2.7783  0.7315
 2733SOL    HW219836   3.714   2.455   7.239  0.6819  0.3500  0.0326
 2734SOL     OW19837   3.377   0.015   4.398  0.0374 -0.5690 -0.3213
 2734SOL    HW119838   3.406   4.682   4.340 -2.1450 -2.0484  0.3984
 2734SOL    HW219839   3.292   4.716   4.423  0.3484 -1.0870 -0.0276
 2735SOL     OW19840   1.280   1.998  11.483 -0.2192  0.5740 -0.0939
 2735SOL    HW119841   1.231   1.931  11.435 -0.1315 -0.9469  1.9429
 2735SOL    HW219842   1.262   1.986  11.576 -0.1288  0.0961 -0.1395
 2736SOL     OW19843   1.604   0.364   7.558 -0.1301 -0.1686  0.4452
 2736SOL    HW119844   1.685   0.345   7.512 -0.7397  0.1503 -0.7676
 2736SOL    HW219845   1.627   0.354   7.650 -2.2374 -0.7433  0.9156
 2737SOL     OW19846   3.426   0.280   5.164 -0.6601 -0.0663  0.1556
 2737SOL    HW119847   3.493   0.291   5.096 -0.2406 -0.3022  0.5324
 2737SOL    HW219848   3.363   0.227   5.115 -0.1604  1.6365 -2.3459
 2738SOL     OW19849   1.402   1.726   7.872  0.2171  0.3513  0.4469
 2738SOL    HW119850   1.458   1.686   7.804 -2.7756  0.1106 -1.8637
 2738SOL    HW219851   1.365   1.646   7.909  1.3242  0.4515  1.7888
 2739SOL     OW19852   1.697   2.195   1.599  0.6868 -0.0368  0.2516
 2739SOL    HW119853   1.635   2.182   1.670  0.1527  1.5623  0.0810
 2739SOL    HW219854   1.661   2.271   1.552  2.2020 -0.0052 -0.8772
 2740SOL     OW19855   3.724   3.035  15.093  0.2905 -0.4823  0.7194
 2740SOL    HW119856   3.675   2.956  15.115 -0.2116 -1.2534 -3.0907
 2740SOL    HW219857   3.792   2.998  15.036 -0.8762 -1.1542 -0.2323
 2741SOL     OW19858   3.358   3.688  14.145  0.4764 -0.5719 -0.2042
 2741SOL    HW119859   3.391   3.770  14.108  0.3204 -0.3180  0.2153
 2741SOL    HW219860   3.443   3.645  14.149 -0.1876 -1.9313 -1.1196
 2742SOL     OW19861   1.172   2.350   2.814 -0.2203  0.7130  1.4207
 2742SOL    HW119862   1.120   2.338   2.893  0.5087 -0.0424  1.7883
 2742SOL    HW219863   1.230   2.426   2.823  0.2088  0.5996 -0.4617
 2743SOL     OW19864   1.897   4.309   9.772  0.2458 -0.3373  0.7806
 2743SOL    HW119865   1.821   4.262   9.738  1.9501 -1.5359 -1.3553
 2743SOL    HW219866   1.886   4.397   9.736 -0.7439 -1.1451 -0.8976
 2744SOL     OW19867   1.260   1.358  14.156  0.6710  0.2108 -0.8191
 2744SOL    HW119868   1.318   1.393  14.223 -2.1669  1.4452  0.9927
 2744SOL    HW219869   1.190   1.313  14.203  0.1263 -0.4890 -2.2760
 2745SOL     OW19870   2.651   2.282   5.593 -0.3373  0.0333  0.0554
 2745SOL    HW119871   2.697   2.272   5.510  1.1209 -0.5493  0.9106
 2745SOL    HW219872   2.594   2.354   5.568 -0.4309  0.1103  0.4874
 2746SOL     OW19873   4.096   0.744  16.019 -0.1887 -0.5528 -0.0946
 2746SOL    HW119874   4.038   0.815  15.991  0.2933 -1.2815 -3.0107
 2746SOL    HW219875   4.170   0.795  16.052 -0.8056  0.1309  0.2264
 2747SOL     OW19876   3.099   4.711   3.249  0.6483  0.4923 -0.2546
 2747SOL    HW119877   3.015   4.707   3.203  0.1249 -1.9792  0.9377
 2747SOL    HW219878   3.104   0.069   3.259 -0.3022  0.6015 -0.7985
 2748SOL     OW19879   4.334   0.616  14.458  0.4518  0.3154 -0.2251
 2748SOL    HW119880   4.388   0.663  14.523  0.8868  1.8085 -1.6461
 2748SOL    HW219881   4.243   0.636  14.481  1.3515  1.4555  2.3730
 2749SOL     OW19882   0.927   2.034   8.920 -0.2468  0.3360 -0.5820
 2749SOL    HW119883   0.856   2.074   8.968 -1.7709  0.4718 -2.9604
 2749SOL    HW219884   0.943   2.096   8.849  2.5545 -0.2031 -0.4477
 2750SOL     OW19885   3.070   3.598   5.152  0.1493 -0.4728  0.0736
 2750SOL    HW119886   3.125   3.521   5.148  0.1245 -0.4085 -1.6867
 2750SOL    HW219887   3.014   3.579   5.227 -0.7724 -0.8051 -0.7009
 2751SOL     OW19888   2.320   2.674   5.032 -0.4018 -0.2186 -0.2868
 2751SOL    HW119889   2.331   2.627   4.949 -0.8937 -0.2967 -0.3115
 2751SOL    HW219890   2.238   2.626   5.049  0.8540 -2.5335 -0.8408
 2752SOL     OW19891   2.074   4.653  11.456 -0.2178  0.1260  0.1442
 2752SOL    HW119892   2.141   4.587  11.438 -0.5466 -0.4683  1.1021
 2752SOL    HW219893   2.008   4.590  11.486  0.9195 -1.7433 -1.2522
 2753SOL     OW19894   1.359   0.309   2.206 -0.0687 -0.2944 -0.5026
 2753SOL    HW119895   1.320   0.264   2.281 -0.0469 -0.0027 -0.3134
 2753SOL    HW219896   1.296   0.289   2.138  0.4463  0.8676 -1.3286
 2754SOL     OW19897   1.211   0.998  10.632  0.4929  0.5255  0.5934
 2754SOL    HW119898   1.279   0.961  10.575  2.1505  0.7885  2.3958
 2754SOL    HW219899   1.263   1.059  10.683 -0.9598  1.5906  0.8036
 2755SOL     OW19900   4.716   0.892   2.881  0.5274  0.0618  0.2263
 2755SOL    HW119901   4.646   0.928   2.936  1.0642  0.7320  0.4745
 2755SOL    HW219902   4.679   0.806   2.861  4.2140 -1.1219 -1.4463
 2756SOL     OW19903   4.677   3.695   1.637 -0.0336 -0.1364  0.2872
 2756SOL    HW119904   4.601   3.714   1.691  0.5881 -2.6216  2.0631
 2756SOL    HW219905   4.698   3.781   1.601 -1.2946  0.1857  0.3176
 2757SOL     OW19906   2.245   2.706  10.001  0.5900 -0.3535 -0.2226
 2757SOL    HW119907   2.236   2.791   9.958  1.5687 -0.2260 -0.1672
 2757SOL    HW219908   2.236   2.646   9.927 -0.0973 -0.9667  0.3537
 2758SOL     OW19909   3.627   3.764   5.925 -0.0752 -0.5254  0.4114
 2758SOL    HW119910   3.704   3.731   5.971  0.6205 -1.5150 -1.5097
 2758SOL    HW219911   3.593   3.687   5.880  0.9753  1.6785 -4.1674
 2759SOL     OW19912   3.961   3.049   5.011  0.1522 -0.0992  0.1021
 2759SOL    HW119913   3.980   3.089   5.096  0.6404  1.0412 -0.5549
 2759SOL    HW219914   3.948   2.959   5.041  0.2149 -0.2874 -0.4368
 2760SOL     OW19915   2.386   2.296  14.038 -0.3181 -0.4168 -0.1215
 2760SOL    HW119916   2.295   2.288  14.007 -0.2414  0.2929 -0.5472
 2760SOL    HW219917   2.377   2.370  14.098  0.2337  0.7946 -1.5306
 2761SOL     OW19918   4.268   0.793   6.433 -0.7511 -0.2085  0.1422
 2761SOL    HW119919   4.174   0.811   6.423 -0.3817  1.6264  0.0429
 2761SOL    HW219920   4.288   0.815   6.524 -1.5862 -2.4456  0.8827
 2762SOL     OW19921   3.786   1.668   6.245 -0.6336 -0.1823 -0.2858
 2762SOL    HW119922   3.745   1.713   6.320 -1.4213 -1.3740  0.0011
 2762SOL    HW219923   3.779   1.728   6.171 -0.2523  0.1737 -0.0368
 2763SOL     OW19924   1.919   1.300  10.609  0.0549 -0.5934 -0.0087
 2763SOL    HW119925   1.962   1.220  10.639 -3.4143 -1.2320  3.1665
 2763SOL    HW219926   1.841   1.255  10.575 -0.0221  1.3860 -2.4270
 2764SOL     OW19927   2.893   0.250   0.974  0.2726 -0.0972  0.0116
 2764SOL    HW119928   2.862   0.231   0.885 -0.3823 -1.6939  0.5732
 2764SOL    HW219929   2.863   0.172   1.021 -0.4764  0.9628  1.2652
 2765SOL     OW19930   4.186   4.736   4.606  0.4206 -0.2230 -0.4353
 2765SOL    HW119931   4.167   0.046   4.687 -0.9867  1.4339 -1.7476
 2765SOL    HW219932   4.128   4.660   4.605 -0.9491  0.8600 -1.7294
 2766SOL     OW19933   3.774   4.446   7.159  0.4068 -0.1952  0.5016
 2766SOL    HW119934   3.727   4.457   7.241  2.0493  4.0607  0.8715
 2766SOL    HW219935   3.865   4.430   7.185  1.4655  0.1404 -2.8899
 2767SOL     OW19936   0.858   1.782   0.659  0.1687 -0.0019  0.4278
 2767SOL    HW119937   0.837   1.688   0.664  0.0556  0.0682  1.1599
 2767SOL    HW219938   0.837   1.812   0.747 -3.1824  1.5471 -0.8828
 2768SOL     OW19939   1.868   0.261   8.914  0.1924  0.4350 -0.4322
 2768SOL    HW119940   1.864   0.187   8.975 -2.7646  0.4660 -0.5554
 2768SOL    HW219941   1.895   0.223   8.831 -0.4462  1.4038 -1.0845
 2769SOL     OW19942   2.673   4.257   3.493  0.0069  0.1640  0.3397
 2769SOL    HW119943   2.672   4.314   3.416  0.5773  2.8359  2.3301
 2769SOL    HW219944   2.665   4.175   3.444 -2.7117 -0.2427  1.4750
 2770SOL     OW19945   2.790   4.588  14.664  0.0058 -0.1810 -0.1728
 2770SOL    HW119946   2.833   4.671  14.644 -1.7031  0.6777 -0.3288
 2770SOL    HW219947   2.825   4.567  14.750 -0.9298  2.3045  0.8025
 2771SOL     OW19948   1.850   3.487   8.242  0.7237 -0.4016 -0.1387
 2771SOL    HW119949   1.809   3.416   8.193  0.5280 -0.0097 -0.5408
 2771SOL    HW219950   1.917   3.429   8.280  1.0295 -1.5695 -2.4876
 2772SOL     OW19951   2.732   2.555   4.965  0.2777 -0.1099 -0.2192
 2772SOL    HW119952   2.753   2.630   5.022  0.1947  0.0407 -0.3884
 2772SOL    HW219953   2.770   2.478   5.007  1.1372  0.7923  0.6795
 2773SOL     OW19954   2.260   4.352  17.352  0.5345  0.2570  0.3050
 2773SOL    HW119955   2.280   4.421  17.289  4.5384 -0.7545  0.4929
 2773SOL    HW219956   2.350   4.322  17.367  0.3776 -1.2367 -1.6396
 2774SOL     OW19957   1.945   2.704   6.293  0.5274  0.3303 -0.3186
 2774SOL    HW119958   1.863   2.726   6.250  0.5899  0.0906 -0.5583
 2774SOL    HW219959   1.955   2.610   6.283 -1.0459  0.2058 -0.6454
 2775SOL     OW19960   4.387   3.053   6.287 -0.8252 -0.2891  0.2568
 2775SOL    HW119961   4.370   3.142   6.317 -4.0192 -0.1044 -1.9815
 2775SOL    HW219962   4.457   3.016   6.340 -1.0343  0.9177  1.3514
 2776SOL     OW19963   0.323   2.456   7.216  0.2765 -0.6162 -0.0295
 2776SOL    HW119964   0.375   2.387   7.176 -0.6909 -1.0559 -0.5315
 2776SOL    HW219965   0.315   2.512   7.139  0.5816 -0.2600  0.1981
 2777SOL     OW19966   2.937   4.305   8.899 -0.3779 -0.0232  0.3426
 2777SOL    HW119967   2.981   4.382   8.863 -1.3669  0.4706  0.1895
 2777SOL    HW219968   2.980   4.290   8.983 -1.5120 -2.2962  0.5207
 2778SOL     OW19969   2.557   4.148   6.223 -0.0879  0.1739  0.1429
 2778SOL    HW119970   2.590   4.073   6.274 -2.5628  1.3772  3.5596
 2778SOL    HW219971   2.466   4.157   6.253 -0.4540  1.0634 -1.2654
 2779SOL     OW19972   3.164   2.626   4.951  0.2550  0.0180 -0.3884
 2779SOL    HW119973   3.101   2.684   4.909 -0.6408 -0.4505  0.2994
 2779SOL    HW219974   3.151   2.553   4.890 -1.6791 -0.6184  0.7860
 2780SOL     OW19975   0.869   2.898   8.659 -0.3606 -0.0750 -0.0805
 2780SOL    HW119976   0.812   2.968   8.691 -0.1109 -0.0479  0.3072
 2780SOL    HW219977   0.865   2.922   8.567 -1.5867  1.5873  0.4108
 2781SOL     OW19978   1.307   3.409  11.074  0.0047  0.6843  0.4249
 2781SOL    HW119979   1.379   3.450  11.121  0.8726 -0.9532  0.4921
 2781SOL    HW219980   1.304   3.321  11.111 -2.2046  0.0971 -1.1592
 2782SOL     OW19981   4.303   0.024   3.074 -0.0134  0.3571 -0.3989
 2782SOL    HW119982   4.300   0.008   3.168 -2.0938 -0.6412 -0.6308
 2782SOL    HW219983   4.393   0.054   3.063  0.6555 -0.7904  1.9739
 2783SOL     OW19984   2.047   0.272   8.299  0.4273  0.0010  0.0216
 2783SOL    HW119985   1.986   0.243   8.367  2.0156 -1.9518  0.6141
 2783SOL    HW219986   1.987   0.317   8.240 -0.8143  0.1981  1.4419
 2784SOL     OW19987   3.505   3.097  13.950 -0.3486 -0.6537  0.9357
 2784SOL    HW119988   3.453   3.017  13.948 -2.5956  0.8234  0.2516
 2784SOL    HW219989   3.468   3.144  13.875  0.4332  1.1568  1.6795
 2785SOL     OW19990   1.899   2.243   7.824 -0.3221  0.1753 -0.1654
 2785SOL    HW119991   1.876   2.150   7.817 -0.4674  0.3178 -1.6204
 2785SOL    HW219992   1.993   2.240   7.843 -0.3005 -0.1275 -0.3188
 2786SOL     OW19993   2.874   2.432   6.664 -0.1849  0.0564  0.2538
 2786SOL    HW119994   2.791   2.409   6.622 -0.2100  0.8794 -0.1507
 2786SOL    HW219995   2.863   2.397   6.753 -2.4486  2.3378  0.8489
 2787SOL     OW19996   0.747   0.262   9.835  1.2768 -0.5216  0.6843
 2787SOL    HW119997   0.652   0.259   9.845  1.3452  3.5665  2.3588
 2787SOL    HW219998   0.779   0.256   9.925  0.0853 -1.0633  1.0778
 2788SOL     OW19999   4.204   1.679   7.991  0.3159 -0.2283  0.2912
 2788SOL    HW120000   4.116   1.682   8.028  0.1154  1.5466 -0.3258
 2788SOL    HW220001   4.187   1.601   7.938 -2.0384 -0.3904  1.3007
 2789SOL     OW20002   3.164   0.886  14.871  0.6335  0.1866  0.3104
 2789SOL    HW120003   3.216   0.966  14.880  0.6821  0.1144  0.6484
 2789SOL    HW220004   3.200   0.835  14.944  0.9420  0.1326  0.1242
 2790SOL     OW20005   3.871   2.787   5.100 -0.1521  0.2077 -0.1216
 2790SOL    HW120006   3.852   2.806   5.192 -0.7163  0.8224 -0.3699
 2790SOL    HW220007   3.787   2.805   5.058 -0.2025  0.4411  0.0780
 2791SOL     OW20008   2.239   2.959   9.815 -0.3175  0.8178  0.5927
 2791SOL    HW120009   2.165   3.008   9.851 -0.2283  0.8321  0.7563
 2791SOL    HW220010   2.194   2.907   9.748  0.7706  1.3930 -0.5769
 2792SOL     OW20011   3.912   4.013  10.312  0.3186  0.1047  0.3298
 2792SOL    HW120012   3.829   3.967  10.302  1.7519 -2.3807 -0.3299
 2792SOL    HW220013   3.891   4.088  10.256 -0.9836 -1.1993 -0.9253
 2793SOL     OW20014   2.118   3.580   5.171  0.1932  0.1860 -0.0742
 2793SOL    HW120015   2.045   3.630   5.137  2.6014  3.0499 -1.0243
 2793SOL    HW220016   2.164   3.651   5.215  1.1477 -0.1256 -0.5568
 2794SOL     OW20017   0.663   0.565   5.758 -0.7021  0.0650 -0.3569
 2794SOL    HW120018   0.637   0.497   5.820  2.7970  0.5430  1.6728
 2794SOL    HW220019   0.620   0.538   5.677  2.9530 -1.7558 -1.7497
 2795SOL     OW20020   0.379   2.636  12.717  0.7552 -0.1714 -0.1671
 2795SOL    HW120021   0.352   2.723  12.748 -2.2300 -1.4926  0.8976
 2795SOL    HW220022   0.421   2.600  12.795 -2.2911 -1.5166  0.8567
 2796SOL     OW20023   2.196   4.339   0.457  0.5480 -0.2618 -0.1904
 2796SOL    HW120024   2.148   4.393   0.394 -0.1323 -1.6368 -0.8298
 2796SOL    HW220025   2.203   4.260   0.404 -0.4170 -0.1373 -0.5042
 2797SOL     OW20026   0.264   0.885   0.920  0.6658  0.3100  0.0074
 2797SOL    HW120027   0.331   0.894   0.852 -1.2291 -0.6494 -2.0114
 2797SOL    HW220028   0.315   0.829   0.978  0.8075  0.1788 -0.2425
 2798SOL     OW20029   1.324   1.685  12.706 -0.4706 -0.3394  0.1319
 2798SOL    HW120030   1.280   1.611  12.663  3.5347 -2.5362 -0.1627
 2798SOL    HW220031   1.283   1.685  12.792  0.2836 -0.3326  0.4946
 2799SOL     OW20032   1.929   2.423   3.982  0.9930  0.4698  0.7491
 2799SOL    HW120033   1.975   2.470   3.913 -3.2325  0.3441 -2.1915
 2799SOL    HW220034   1.988   2.446   4.054  1.1144  2.2967  0.0524
 2800SOL     OW20035   2.606   4.601   8.681 -0.3915 -0.0783  0.1122
 2800SOL    HW120036   2.656   4.627   8.603 -0.9216 -0.9367 -0.5216
 2800SOL    HW220037   2.545   4.675   8.690 -0.2782  0.1266 -0.7775
 2801SOL     OW20038   1.771   2.177  17.185 -0.5381  0.1662  0.5478
 2801SOL    HW120039   1.830   2.181  17.260  2.1045 -0.2704 -1.4908
 2801SOL    HW220040   1.689   2.172  17.232 -0.8712 -0.6403 -0.1227
 2802SOL     OW20041   4.040   3.982   7.244  0.1295 -0.2660  0.1208
 2802SOL    HW120042   4.070   3.892   7.232 -1.2141 -0.7387  0.3091
 2802SOL    HW220043   4.119   4.036   7.237 -0.2659  0.2668 -0.2131
 2803SOL     OW20044   4.224   3.242   4.115 -0.1499 -0.2015 -0.0166
 2803SOL    HW120045   4.312   3.205   4.124 -1.0197 -2.4064 -0.4232
 2803SOL    HW220046   4.187   3.205   4.195 -0.6398 -2.6365 -1.3524
 2804SOL     OW20047   2.592   3.596   1.116  0.3864 -0.3034  0.0898
 2804SOL    HW120048   2.676   3.621   1.078  0.0586  0.6784  0.0156
 2804SOL    HW220049   2.584   3.659   1.188  3.2509  0.6090 -0.4212
 2805SOL     OW20050   0.350   0.637  11.009 -0.0751  0.8146  0.2794
 2805SOL    HW120051   0.328   0.726  11.036 -1.5500 -0.4670  3.1896
 2805SOL    HW220052   0.330   0.652  10.916  2.7719  1.7145 -0.2142
 2806SOL     OW20053   4.340   3.136   8.324  0.5403 -0.2513  0.6784
 2806SOL    HW120054   4.261   3.189   8.311  1.9861  1.3920 -1.2269
 2806SOL    HW220055   4.305   3.056   8.284  1.3943 -0.2576 -0.0594
 2807SOL     OW20056   1.979   0.239   8.647  0.0195  0.8632 -0.1735
 2807SOL    HW120057   1.922   0.303   8.604  1.5390  1.9451 -0.5721
 2807SOL    HW220058   2.058   0.293   8.657 -0.9320  2.6139 -2.2323
 2808SOL     OW20059   0.524   2.327   2.924 -0.0573  0.0389 -0.3760
 2808SOL    HW120060   0.562   2.414   2.935  1.4571 -0.6511 -0.2187
 2808SOL    HW220061   0.493   2.332   2.834 -1.1042 -1.2779 -0.1062
 2809SOL     OW20062   3.815   0.857   4.898 -0.0345  0.0515  0.3445
 2809SOL    HW120063   3.773   0.773   4.913  0.1280 -0.0855  0.0091
 2809SOL    HW220064   3.906   0.828   4.899  0.4708  1.6236  1.4762
 2810SOL     OW20065   3.421   0.006   3.395 -0.1035  0.1688  0.1663
 2810SOL    HW120066   3.359   4.673   3.374  1.3460 -0.9196 -0.4284
 2810SOL    HW220067   3.466   0.015   3.311  0.6102 -0.6200  0.4693
 2811SOL     OW20068   3.778   2.850   2.393  0.2454  0.2935  0.2689
 2811SOL    HW120069   3.820   2.797   2.462  0.8390  0.3677 -0.0374
 2811SOL    HW220070   3.843   2.860   2.324 -0.3878  0.4601 -0.3027
 2812SOL     OW20071   0.695   0.272  17.028  0.3851 -0.4220 -0.7583
 2812SOL    HW120072   0.688   0.252  16.935 -1.4235  1.2520 -0.9945
 2812SOL    HW220073   0.787   0.259  17.049  0.4998  1.4890 -0.0970
 2813SOL     OW20074   4.276   4.212   5.473 -0.0692 -0.0830  0.5732
 2813SOL    HW120075   4.347   4.276   5.466 -1.5420  1.7537  2.3029
 2813SOL    HW220076   4.300   4.137   5.419 -1.5727  0.0411 -0.2588
 2814SOL     OW20077   3.034   2.821  10.840  0.0746 -0.5556  0.0269
 2814SOL    HW120078   3.066   2.799  10.752 -1.5160  0.1920 -0.7235
 2814SOL    HW220079   3.042   2.737  10.885  2.8569 -0.1709  0.2701
 2815SOL     OW20080   0.907   4.398   0.464  0.0380 -0.4503 -0.6111
 2815SOL    HW120081   0.919   4.402   0.559  0.8928 -0.4263 -0.7146
 2815SOL    HW220082   0.819   4.434   0.470 -0.1620 -0.9700 -0.4234
 2816SOL     OW20083   2.000   2.979   2.274  0.0439 -0.7156 -0.3548
 2816SOL    HW120084   1.913   2.939   2.280 -0.0110 -0.7483 -1.4351
 2816SOL    HW220085   1.987   3.070   2.250  2.3219 -0.4345 -0.5864
 2817SOL     OW20086   2.986   1.103  11.275 -0.8218  0.3648  0.2466
 2817SOL    HW120087   3.005   1.163  11.203 -0.6638 -0.2639 -0.2293
 2817SOL    HW220088   3.075   1.085  11.306 -1.3775  0.7875  2.1241
 2818SOL     OW20089   4.069   0.985   2.011 -0.2849 -0.0438  0.1337
 2818SOL    HW120090   4.133   1.056   2.009  0.1299 -0.3993  0.6214
 2818SOL    HW220091   4.133   0.916   2.028  0.2750  0.9398  2.0040
 2819SOL     OW20092   2.098   3.756   3.136 -0.3744  0.4561  0.1568
 2819SOL    HW120093   2.066   3.718   3.218  0.5480  2.6913  1.5768
 2819SOL    HW220094   2.186   3.718   3.137 -1.0882 -1.1481  2.1730
 2820SOL     OW20095   2.116   3.160   9.310  0.1152  0.0706  0.2372
 2820SOL    HW120096   2.095   3.205   9.228  1.3124  2.0696  1.0190
 2820SOL    HW220097   2.089   3.224   9.376  1.2834  1.8348 -0.9990
 2821SOL     OW20098   2.574   2.574  14.120  0.2439 -0.6159  0.0300
 2821SOL    HW120099   2.559   2.542  14.031  2.5862 -1.7846  0.0596
 2821SOL    HW220100   2.498   2.550  14.173  0.2209 -0.0954  0.2313
 2822SOL     OW20101   1.805   3.004   1.876 -0.1095 -0.3816 -0.1871
 2822SOL    HW120102   1.715   3.035   1.868  0.4283  1.1205 -0.2534
 2822SOL    HW220103   1.785   2.910   1.876 -1.0330 -0.1917 -1.0856
 2823SOL     OW20104   3.212   3.036   1.477  0.2245 -0.2610  0.0370
 2823SOL    HW120105   3.193   3.114   1.529  2.8572  1.3507 -1.4393
 2823SOL    HW220106   3.272   2.986   1.533  1.2062  0.3500 -0.4726
 2824SOL     OW20107   0.794   2.486  15.744  0.2663  0.4718  0.3497
 2824SOL    HW120108   0.759   2.559  15.795 -1.7050 -2.3889  3.1077
 2824SOL    HW220109   0.843   2.540  15.682 -0.3285  2.0921  1.2889
 2825SOL     OW20110   2.767   0.859  11.890 -0.1650  0.1988  0.4988
 2825SOL    HW120111   2.847   0.819  11.923 -0.9101 -3.3462 -1.9953
 2825SOL    HW220112   2.803   0.927  11.832 -1.7618  0.4864 -0.1705
 2826SOL     OW20113   4.509   0.103   2.474  0.1215 -0.5386  0.0021
 2826SOL    HW120114   4.549   0.174   2.523  0.9576 -0.4896 -0.7445
 2826SOL    HW220115   4.431   0.074   2.521 -0.4376  2.0331  0.6851
 2827SOL     OW20116   1.105   0.828   4.130 -0.5651 -0.4612 -0.3490
 2827SOL    HW120117   1.086   0.907   4.081 -2.3501  0.1530  1.3526
 2827SOL    HW220118   1.026   0.830   4.184 -0.4889  0.0715 -0.2609
 2828SOL     OW20119   2.978   1.880   4.858 -0.1366  0.0154 -0.1812
 2828SOL    HW120120   2.999   1.929   4.779  0.6779  2.8681  1.8157
 2828SOL    HW220121   2.884   1.870   4.840  0.2060 -1.2638 -1.2946
 2829SOL     OW20122   1.584   1.778  12.862 -0.2049 -0.0728  0.4825
 2829SOL    HW120123   1.510   1.835  12.881  1.5994  2.0890  1.0886
 2829SOL    HW220124   1.539   1.708  12.816  1.9879 -0.7580 -0.6251
 2830SOL     OW20125   4.577   0.535  17.041  0.0618 -0.3199 -0.4183
 2830SOL    HW120126   4.625   0.453  17.036 -0.1176 -0.2947 -2.5189
 2830SOL    HW220127   4.653   0.593  17.046  0.2903 -0.7835  1.6912
 2831SOL     OW20128   0.504   2.363   0.312  0.6693  0.1849  0.5302
 2831SOL    HW120129   0.491   2.313   0.231  1.6635  0.7534  0.0092
 2831SOL    HW220130   0.425   2.416   0.304 -0.1685 -1.0867  0.4674
 2832SOL     OW20131   1.211   0.560   6.357  0.5117  0.2240 -0.4255
 2832SOL    HW120132   1.116   0.566   6.355  0.5388  0.3345 -1.7037
 2832SOL    HW220133   1.224   0.473   6.394 -0.7109  0.0940 -0.3161
 2833SOL     OW20134   1.466   1.416   6.515 -0.5009  0.0461 -0.3272
 2833SOL    HW120135   1.424   1.394   6.432 -1.2233  1.9836 -0.4585
 2833SOL    HW220136   1.447   1.509   6.510 -3.0909 -0.4157  1.2835
 2834SOL     OW20137   2.068   1.624  14.919  0.7378  0.0891  0.4289
 2834SOL    HW120138   2.144   1.576  14.885  2.6693  2.1245  1.8508
 2834SOL    HW220139   2.000   1.557  14.921  1.0517 -0.2569 -0.9719
 2835SOL     OW20140   3.612   4.614   7.008  0.1842  0.1225 -0.2779
 2835SOL    HW120141   3.564   4.555   6.950 -0.6677  1.0994 -0.5748
 2835SOL    HW220142   3.653   4.549   7.064  0.9239  1.8266  1.1770
 2836SOL     OW20143   3.129   0.672   7.903  0.0492  0.3005 -0.3589
 2836SOL    HW120144   3.048   0.635   7.866  1.5069 -2.1571 -1.1002
 2836SOL    HW220145   3.144   0.616   7.979 -0.7919  0.4238 -0.0992
 2837SOL     OW20146   4.457   0.877   7.303 -0.0061  0.4070 -0.8166
 2837SOL    HW120147   4.446   0.945   7.237  0.3263  0.8937 -0.3670
 2837SOL    HW220148   4.517   0.916   7.366 -0.5315  1.8272 -1.2029
 2838SOL     OW20149   2.720   1.257  16.359  0.4837  0.2915 -0.0426
 2838SOL    HW120150   2.632   1.251  16.396  0.9122 -0.0057  0.9229
 2838SOL    HW220151   2.700   1.284  16.269  1.0058  0.7985 -0.0052
 2839SOL     OW20152   3.217   4.122  17.294 -0.5788  0.0017  0.5845
 2839SOL    HW120153   3.233   4.177  17.218  2.1597 -1.8772 -0.2205
 2839SOL    HW220154   3.153   4.069  17.246 -0.1822 -0.4717  0.5743
 2840SOL     OW20155   2.091   0.022   4.179 -0.2095 -0.2376 -0.2458
 2840SOL    HW120156   2.026   4.689   4.183 -0.2000 -0.2710 -0.6718
 2840SOL    HW220157   2.074   0.049   4.269 -0.1297  0.8197 -0.5555
 2841SOL     OW20158   0.429   3.073   0.878 -0.2440  0.4870 -0.0764
 2841SOL    HW120159   0.409   3.112   0.963 -1.1393  0.9282 -0.4883
 2841SOL    HW220160   0.375   2.995   0.863  0.5611  0.3705 -2.4824
 2842SOL     OW20161   3.443   4.485   1.015  0.2043 -0.3533  0.1728
 2842SOL    HW120162   3.437   4.579   1.034  0.5236 -0.4053  0.5200
 2842SOL    HW220163   3.527   4.462   1.056  0.5190  1.0001  0.2882
 2843SOL     OW20164   4.148   2.228   9.614 -0.2958  0.1124 -0.2112
 2843SOL    HW120165   4.189   2.264   9.692  1.2979  2.1212 -1.9884
 2843SOL    HW220166   4.125   2.306   9.565 -0.2294  0.1260 -0.2200
 2844SOL     OW20167   4.438   0.240   3.738 -0.5319  0.3316  0.5325
 2844SOL    HW120168   4.516   0.293   3.756 -0.9229 -0.0420  3.4035
 2844SOL    HW220169   4.392   0.300   3.679 -1.2188 -0.5818  0.1359
 2845SOL     OW20170   1.023   4.055   0.486 -0.7428 -0.3266  0.3827
 2845SOL    HW120171   0.935   4.068   0.450 -0.3316 -1.8633 -1.1288
 2845SOL    HW220172   1.064   4.027   0.405  0.0899  1.5372  0.1457
 2846SOL     OW20173   2.868   2.494   2.860  0.2175 -0.0245  0.2688
 2846SOL    HW120174   2.947   2.445   2.838 -0.3529 -0.9403  0.2684
 2846SOL    HW220175   2.801   2.441   2.816  0.0286  0.4776 -0.0492
 2847SOL     OW20176   3.295   2.465   3.922 -0.0784 -0.1125  0.0051
 2847SOL    HW120177   3.298   2.460   4.017  1.4179 -2.0260 -0.1390
 2847SOL    HW220178   3.200   2.472   3.910  0.1726 -0.8535 -2.4985
 2848SOL     OW20179   2.016   4.674   2.693 -0.0213  0.3670  0.0012
 2848SOL    HW120180   1.970   4.712   2.767 -1.4844 -0.8659 -0.2601
 2848SOL    HW220181   2.024   4.586   2.730 -0.6159 -0.8811 -2.7853
 2849SOL     OW20182   0.378   2.717  15.492 -0.5034  0.2345  0.3884
 2849SOL    HW120183   0.314   2.657  15.530  1.1190 -1.4746  0.4336
 2849SOL    HW220184   0.447   2.695  15.555  0.1154 -2.2500 -1.1475
 2850SOL     OW20185   2.161   4.559   0.301  0.2215 -0.8705  0.1370
 2850SOL    HW120186   2.103   4.605   0.361  0.8631 -0.2036  0.2460
 2850SOL    HW220187   2.177   4.628   0.236 -0.5812  0.0429  0.9088
 2851SOL     OW20188   4.702   2.533  15.766  0.5872 -0.3086  0.1515
 2851SOL    HW120189   4.671   2.586  15.693 -2.1537 -1.2965  0.6159
 2851SOL    HW220190   4.626   2.483  15.796 -0.2363 -1.1780 -3.3998
 2852SOL     OW20191   4.231   1.882   8.694  0.0185  0.4932  0.1674
 2852SOL    HW120192   4.216   1.976   8.705 -0.4779  0.5938 -1.3207
 2852SOL    HW220193   4.232   1.886   8.598  2.2210 -1.0568  0.1339
 2853SOL     OW20194   0.980   2.790   6.665  0.1036  0.1162  0.0338
 2853SOL    HW120195   0.970   2.878   6.702 -0.0968  0.2793 -0.3995
 2853SOL    HW220196   1.075   2.787   6.675  0.0148 -2.0128  0.1337
 2854SOL     OW20197   4.182   2.332   9.895  0.2223 -0.2407  0.1177
 2854SOL    HW120198   4.153   2.320   9.985 -0.6168  0.5122 -0.0405
 2854SOL    HW220199   4.274   2.312   9.909 -0.2524 -3.0801 -0.8445
 2855SOL     OW20200   3.126   2.948   5.933 -0.2341 -0.5210 -0.2088
 2855SOL    HW120201   3.032   2.966   5.943  0.5853  2.5899  1.6862
 2855SOL    HW220202   3.121   2.888   5.858 -1.2770 -1.5457  0.6642
 2856SOL     OW20203   0.339   4.340  13.263 -0.0597  0.3015 -0.3291
 2856SOL    HW120204   0.425   4.376  13.244  0.1952  0.4515  1.0743
 2856SOL    HW220205   0.313   4.396  13.336  0.8240  1.1979 -0.7101
 2857SOL     OW20206   1.594   0.652   6.687 -0.1924 -0.6264  0.2998
 2857SOL    HW120207   1.508   0.671   6.648  0.7382  1.7632 -0.5613
 2857SOL    HW220208   1.593   0.699   6.770 -0.4104 -0.4493  0.1967
 2858SOL     OW20209   1.313   3.347  10.256  0.0995 -0.0340 -0.0101
 2858SOL    HW120210   1.382   3.299  10.300  0.0565 -0.3425 -0.2806
 2858SOL    HW220211   1.288   3.284  10.187 -1.5945  0.9680 -0.3100
 2859SOL     OW20212   1.389   2.342   3.473 -0.0424  0.7465 -0.2477
 2859SOL    HW120213   1.346   2.402   3.412 -2.2056  1.5498  2.0492
 2859SOL    HW220214   1.439   2.403   3.527 -0.3486 -0.6597  1.6268
 2860SOL     OW20215   4.291   1.687  16.567  0.2424  0.0628  0.1587
 2860SOL    HW120216   4.324   1.746  16.635 -2.1283 -0.2222  1.5824
 2860SOL    HW220217   4.248   1.622  16.624 -0.5669 -0.7315 -1.3656
 2861SOL     OW20218   4.735   1.922   8.601 -0.1711 -0.2521 -0.4520
 2861SOL    HW120219   4.669   1.890   8.662  1.0940 -0.3541  0.8592
 2861SOL    HW220220   4.701   1.883   8.520 -1.2480 -2.0148  0.8755
 2862SOL     OW20221   0.965   4.102   6.253 -0.0861  0.4694  1.1108
 2862SOL    HW120222   0.922   4.158   6.319  0.4866  1.5666  0.5582
 2862SOL    HW220223   1.020   4.173   6.221 -1.5989  0.4750 -1.4569
 2863SOL     OW20224   2.211   0.840   9.779  0.2212  0.5337  0.0645
 2863SOL    HW120225   2.139   0.854   9.718 -1.4276 -1.4913  1.5481
 2863SOL    HW220226   2.159   0.826   9.858  1.5337 -1.2369  0.6077
 2864SOL     OW20227   0.528   0.349  13.478  0.4355  0.3064 -0.1880
 2864SOL    HW120228   0.564   0.434  13.455 -0.1960  0.8069  0.7002
 2864SOL    HW220229   0.589   0.290  13.433 -1.6298 -1.7905 -0.2621
 2865SOL     OW20230   1.411   1.854   2.063 -0.2460  0.2545 -0.4450
 2865SOL    HW120231   1.493   1.893   2.092 -1.0517  0.3471  1.7443
 2865SOL    HW220232   1.416   1.856   1.967 -1.4284  0.5686 -0.5020
 2866SOL     OW20233   2.018   3.664   6.790  0.2826  0.8006 -0.1341
 2866SOL    HW120234   1.931   3.628   6.771  0.7491 -0.9971  1.2287
 2866SOL    HW220235   2.011   3.741   6.733 -0.3758  0.2865 -0.7436
 2867SOL     OW20236   4.133   1.350   4.057 -0.2048  0.2997  0.1855
 2867SOL    HW120237   4.190   1.406   4.109  3.3687  0.2217 -3.6485
 2867SOL    HW220238   4.124   1.280   4.122  1.3230 -1.2204 -1.2367
 2868SOL     OW20239   4.082   0.855  16.400 -0.1202 -0.3125  0.5468
 2868SOL    HW120240   4.034   0.925  16.445  0.5516  0.4419  0.0973
 2868SOL    HW220241   4.013   0.816  16.346 -0.4461  1.4991 -0.3494
 2869SOL     OW20242   4.180   4.421   2.218  0.2126 -0.0420 -0.5095
 2869SOL    HW120243   4.117   4.349   2.224 -0.8994  1.0518  0.7904
 2869SOL    HW220244   4.194   4.425   2.123  1.3254 -0.5776 -0.3635
 2870SOL     OW20245   2.049   4.188   0.716  0.4285 -0.5034 -0.1815
 2870SOL    HW120246   2.098   4.118   0.758 -0.4396 -0.5166  0.8336
 2870SOL    HW220247   2.085   4.196   0.628 -0.5872 -0.5879 -0.6078
 2871SOL     OW20248   2.366   2.602   8.718 -0.3201 -0.2938 -0.5495
 2871SOL    HW120249   2.292   2.541   8.721 -1.5569  1.1751 -1.4705
 2871SOL    HW220250   2.381   2.619   8.811 -1.3733  0.6253 -0.5565
 2872SOL     OW20251   2.355   1.002   6.008 -0.4270  0.3820 -0.2404
 2872SOL    HW120252   2.318   0.980   5.922 -2.0528 -0.7851  0.7610
 2872SOL    HW220253   2.331   0.924   6.057  0.7172  2.1878  3.1941
 2873SOL     OW20254   0.222   0.818   7.295  0.0307 -0.4985  0.0715
 2873SOL    HW120255   0.310   0.800   7.328  0.0655 -0.6107 -0.0824
 2873SOL    HW220256   0.222   0.759   7.220  0.2081 -0.7317  0.2512
 2874SOL     OW20257   0.032   1.836   8.098 -0.4268  0.7880 -0.1262
 2874SOL    HW120258   0.087   1.906   8.133  1.0610  0.1999 -1.2792
 2874SOL    HW220259   0.088   1.761   8.115  0.0204  1.6545  2.2738
 2875SOL     OW20260   0.317   1.027  13.216 -0.4484 -0.0930 -0.4873
 2875SOL    HW120261   0.376   0.952  13.206  0.3970  0.5731 -0.4537
 2875SOL    HW220262   0.342   1.061  13.302 -0.9865  1.3925 -0.9302
 2876SOL     OW20263   0.386   1.047   3.454  0.0621  0.5265 -0.2429
 2876SOL    HW120264   0.433   0.963   3.456 -1.5365 -0.4156 -3.6353
 2876SOL    HW220265   0.454   1.095   3.407  0.4500 -1.8367 -2.1127
 2877SOL     OW20266   3.729   0.398   6.412 -0.8432 -0.0527  0.3472
 2877SOL    HW120267   3.765   0.369   6.328 -0.6619  1.0110  0.0658
 2877SOL    HW220268   3.730   0.315   6.460 -1.0131 -0.4121 -0.2686
 2878SOL     OW20269   2.391   4.090   5.725  0.8519 -0.1544 -0.1756
 2878SOL    HW120270   2.386   4.077   5.820  2.3167  0.7570  0.0131
 2878SOL    HW220271   2.343   4.172   5.718  0.8880  0.0320  1.5903
 2879SOL     OW20272   3.577   3.740  11.777  0.3818  0.1203 -0.1517
 2879SOL    HW120273   3.638   3.779  11.714  0.0490  0.2471 -0.3932
 2879SOL    HW220274   3.609   3.775  11.861  0.9490 -1.4346  0.2827
 2880SOL     OW20275   0.762   0.495   1.015  0.0369  0.4788 -0.6715
 2880SOL    HW120276   0.828   0.563   1.000  0.4640  0.1586 -0.2046
 2880SOL    HW220277   0.680   0.540   1.035 -0.0085 -0.1052  0.4585
 2881SOL     OW20278   1.793   3.192  14.827 -0.5795 -0.0377  0.3248
 2881SOL    HW120279   1.742   3.245  14.888  1.2451  1.7720  0.2917
 2881SOL    HW220280   1.873   3.159  14.867 -0.2492  1.3874  0.8613
 2882SOL     OW20281   2.771   2.434   2.346 -0.1307 -0.5391 -0.4774
 2882SOL    HW120282   2.729   2.354   2.318 -1.8977  0.6120 -1.1179
 2882SOL    HW220283   2.793   2.405   2.435 -0.8855  0.2002 -0.0356
 2883SOL     OW20284   0.531   0.393   5.961  0.3599 -0.1886 -0.6897
 2883SOL    HW120285   0.526   0.301   5.936  1.1657 -0.4733  0.1794
 2883SOL    HW220286   0.472   0.393   6.036  0.9763  0.8704 -0.2119
 2884SOL     OW20287   4.300   2.829   6.936  0.2959 -0.2536 -0.3224
 2884SOL    HW120288   4.314   2.913   6.893  0.8797  0.3500  1.0248
 2884SOL    HW220289   4.205   2.825   6.944  0.2082  1.5394 -0.4490
 2885SOL     OW20290   2.678   2.636   7.726  0.2172 -0.7332  0.2771
 2885SOL    HW120291   2.698   2.727   7.749  1.6347 -0.1280 -3.4079
 2885SOL    HW220292   2.759   2.584   7.730  0.1426 -0.8463  0.3171
 2886SOL     OW20293   1.438   1.764  14.469 -0.0664  0.2197 -0.4057
 2886SOL    HW120294   1.353   1.728  14.496  0.6801 -1.4577 -0.3427
 2886SOL    HW220295   1.458   1.709  14.394  0.6040  2.8703 -2.1475
 2887SOL     OW20296   2.209   3.693   8.484 -0.1284 -0.0159 -0.6475
 2887SOL    HW120297   2.201   3.638   8.407  0.0908  1.1927 -1.5409
 2887SOL    HW220298   2.138   3.659   8.538  1.0459 -1.8671 -0.2928
 2888SOL     OW20299   4.242   1.601   8.672 -0.0728  0.3680 -0.0724
 2888SOL    HW120300   4.266   1.566   8.585 -1.2040  1.5984 -0.8773
 2888SOL    HW220301   4.223   1.692   8.651 -1.5306 -0.0062 -0.3708
 2889SOL     OW20302   1.815   0.646   3.147  0.0505 -0.0045  0.2931
 2889SOL    HW120303   1.823   0.725   3.094 -3.2256  0.1305 -0.0206
 2889SOL    HW220304   1.749   0.594   3.101 -0.2631  0.5179  0.1498
 2890SOL     OW20305   1.864   4.515  17.422 -0.1831  0.1404 -0.4076
 2890SOL    HW120306   1.919   4.489  17.348 -0.5202 -0.8967 -0.2903
 2890SOL    HW220307   1.875   4.445  17.486 -2.5457  0.2618  0.1603
 2891SOL     OW20308   3.034   0.270  16.645 -0.3355  0.5545 -0.4298
 2891SOL    HW120309   3.115   0.235  16.608  0.5158  0.2833  1.6793
 2891SOL    HW220310   2.964   0.235  16.589 -0.5299  0.3277 -0.0481
 2892SOL     OW20311   3.511   2.805   7.306 -0.0371  0.0995 -0.6087
 2892SOL    HW120312   3.494   2.888   7.351 -0.6215 -0.4576  0.2236
 2892SOL    HW220313   3.421   2.788   7.276 -0.1502 -0.3851 -0.0015
 2893SOL     OW20314   3.474   0.394  10.449 -0.1247  0.0928 -0.3545
 2893SOL    HW120315   3.470   0.356  10.536 -2.1066  1.3576  0.1118
 2893SOL    HW220316   3.553   0.351  10.416 -0.2981  0.1817 -0.8831
 2894SOL     OW20317   1.188   3.230  14.331  0.3382  0.3055 -0.0617
 2894SOL    HW120318   1.191   3.239  14.236  1.8842 -0.2112 -0.0645
 2894SOL    HW220319   1.169   3.323  14.344  0.0575  0.0830  1.1148
 2895SOL     OW20320   4.073   1.161  16.424 -0.2740  0.1728 -0.8403
 2895SOL    HW120321   4.047   1.143  16.514 -0.4565 -0.8596 -1.1066
 2895SOL    HW220322   4.103   1.252  16.432  0.3179 -0.0345 -0.7135
 2896SOL     OW20323   4.125   3.213   5.271  0.1465 -0.2972  0.0888
 2896SOL    HW120324   4.211   3.207   5.312  0.1339 -2.3193 -0.1620
 2896SOL    HW220325   4.072   3.210   5.351  1.4987  2.2421  1.0573
 2897SOL     OW20326   2.071   3.755  15.593  0.4894  0.2009 -0.2888
 2897SOL    HW120327   2.045   3.824  15.533 -1.6617 -0.4562 -0.1151
 2897SOL    HW220328   2.163   3.777  15.612  0.3670 -1.0208  1.7044
 2898SOL     OW20329   1.568   2.200   3.976 -0.1831 -0.9116  0.5509
 2898SOL    HW120330   1.565   2.205   4.071 -1.8429  4.7721  0.1655
 2898SOL    HW220331   1.602   2.286   3.952  0.8203 -0.4981  3.4665
 2899SOL     OW20332   2.731   4.619   2.894  0.4599  0.3321 -0.2392
 2899SOL    HW120333   2.823   4.639   2.878  0.4497  0.7568  0.2443
 2899SOL    HW220334   2.709   4.666   2.974 -0.2230 -0.9484  0.3251
 2900SOL     OW20335   0.915   3.659   8.018  0.1599  0.2893  0.3502
 2900SOL    HW120336   0.908   3.732   8.079  2.0845  0.3684  0.4740
 2900SOL    HW220337   1.010   3.655   8.016  0.1428 -0.4285  0.9508
 2901SOL     OW20338   2.754   0.438  15.506  0.2517 -0.2531  0.0473
 2901SOL    HW120339   2.679   0.409  15.559 -1.6313  1.2024 -1.7869
 2901SOL    HW220340   2.722   0.526  15.485 -1.3611 -0.5257  1.3859
 2902SOL     OW20341   3.507   4.645   8.122 -0.8312  0.3320 -0.6617
 2902SOL    HW120342   3.482   4.676   8.035  0.6075 -2.0484 -1.9192
 2902SOL    HW220343   3.516   4.723   8.177 -3.0950  1.0656 -1.3444
 2903SOL     OW20344   4.032   4.706   8.747 -0.0428 -0.3810 -0.1160
 2903SOL    HW120345   3.985   0.036   8.699 -1.2617 -0.3948  1.0866
 2903SOL    HW220346   3.960   4.667   8.796  1.4309 -2.8970  0.0361
 2904SOL     OW20347   1.088   0.807   7.805  0.7160 -0.4287  0.1980
 2904SOL    HW120348   1.142   0.866   7.752  1.2458  0.9760  2.3196
 2904SOL    HW220349   1.044   0.864   7.869  2.2346 -0.0333  0.8724
 2905SOL     OW20350   1.436   1.483   1.968 -0.5182  0.2783 -0.1229
 2905SOL    HW120351   1.526   1.514   1.968 -0.7692  0.9834 -1.2773
 2905SOL    HW220352   1.402   1.505   2.055  0.9634 -0.6466  0.6804
 2906SOL     OW20353   2.061   4.105   2.946  0.2160  0.4790 -0.4892
 2906SOL    HW120354   2.061   4.123   2.852  0.7566 -2.2732 -1.0223
 2906SOL    HW220355   2.085   4.194   2.971 -0.1893  0.9393 -1.7151
 2907SOL     OW20356   1.602   2.033   7.475 -0.1724 -0.4485  0.6984
 2907SOL    HW120357   1.595   2.056   7.568  2.4799 -0.8713  0.9929
 2907SOL    HW220358   1.550   2.099   7.429  1.3597  0.7199  0.6276
 2908SOL     OW20359   4.467   0.544   3.458  0.2638  0.0265  0.3544
 2908SOL    HW120360   4.484   0.607   3.528 -0.7012  1.6204 -0.8620
 2908SOL    HW220361   4.546   0.546   3.404  0.3421  2.2597  0.5879
 2909SOL     OW20362   1.580   0.332   7.140  0.2525  0.1061  0.0885
 2909SOL    HW120363   1.621   0.252   7.173 -0.0172 -0.1533 -0.1994
 2909SOL    HW220364   1.643   0.401   7.161  2.3568 -2.0385  0.7619
 2910SOL     OW20365   1.763   3.209   3.138  0.1428 -0.7176 -0.6241
 2910SOL    HW120366   1.732   3.173   3.221  2.3520  2.7702  1.7384
 2910SOL    HW220367   1.829   3.260   3.185  0.5890 -1.4627 -0.4353
 2911SOL     OW20368   0.878   3.376   8.481  0.0881 -0.9711 -0.2543
 2911SOL    HW120369   0.837   3.456   8.514 -0.6686 -0.7572 -1.7459
 2911SOL    HW220370   0.952   3.361   8.541 -0.6853 -1.3256  0.6205
 2912SOL     OW20371   3.301   1.144  14.951 -0.5389 -0.1117  0.4102
 2912SOL    HW120372   3.370   1.082  14.974 -0.7425 -1.0259 -1.4785
 2912SOL    HW220373   3.300   1.202  15.028 -0.0820 -1.6771  1.5964
 2913SOL     OW20374   1.141   1.147  10.056  0.3395 -0.1743 -0.2037
 2913SOL    HW120375   1.213   1.133  10.118  1.0626  2.2233 -0.5089
 2913SOL    HW220376   1.075   1.120  10.119 -0.1293  0.4985 -0.4056
 2914SOL     OW20377   2.746   3.835   4.384  0.3909 -0.3670 -0.3411
 2914SOL    HW120378   2.824   3.885   4.407 -0.9491  1.0853  1.0508
 2914SOL    HW220379   2.743   3.842   4.289 -0.1679 -0.0360 -0.2993
 2915SOL     OW20380   3.093   0.646  12.431  0.1553  0.0939  0.3233
 2915SOL    HW120381   3.017   0.628  12.486  0.5797 -1.4362  0.4163
 2915SOL    HW220382   3.161   0.601  12.481 -0.7131  0.1093  1.5171
 2916SOL     OW20383   1.586   3.866   3.754  0.4324 -0.1788 -0.6062
 2916SOL    HW120384   1.548   3.806   3.690  1.5550 -2.0404  0.4454
 2916SOL    HW220385   1.661   3.893   3.701  0.6981  0.4744  0.1157
 2917SOL     OW20386   0.483   1.031  10.849  0.1771 -0.4676  0.2050
 2917SOL    HW120387   0.466   1.105  10.791  1.6343 -0.8648 -0.7370
 2917SOL    HW220388   0.546   1.064  10.913 -0.4920  1.4169 -0.1047
 2918SOL     OW20389   0.529   1.474  10.442 -0.0531  0.3088 -0.3604
 2918SOL    HW120390   0.579   1.543  10.399  2.1397 -0.9746  0.1570
 2918SOL    HW220391   0.450   1.524  10.461 -2.6482 -2.3568 -4.0275
 2919SOL     OW20392   2.513   3.220   4.220 -0.5160  0.1057  0.1883
 2919SOL    HW120393   2.576   3.194   4.287  1.5379  2.0238 -0.9625
 2919SOL    HW220394   2.512   3.312   4.246  2.2263  0.9262 -2.5519
 2920SOL     OW20395   0.859   3.418   4.672 -0.2678 -0.0479 -0.6611
 2920SOL    HW120396   0.858   3.512   4.689  0.8836  0.2122 -1.9814
 2920SOL    HW220397   0.847   3.411   4.578 -3.9245 -1.7296 -0.0644
 2921SOL     OW20398   1.069   0.907   7.423 -0.2008  0.5039  0.1575
 2921SOL    HW120399   1.104   0.824   7.455  0.3983  1.2767  1.4991
 2921SOL    HW220400   1.095   0.899   7.331  1.3779 -1.8062  0.8221
 2922SOL     OW20401   4.211   2.468   2.303 -0.4562 -0.0901 -0.1048
 2922SOL    HW120402   4.254   2.553   2.294 -2.3756  0.7126 -1.5277
 2922SOL    HW220403   4.212   2.461   2.399 -0.4222 -1.3263 -0.1892
 2923SOL     OW20404   1.266   0.245  14.739 -0.1032 -0.0942  0.3829
 2923SOL    HW120405   1.290   0.198  14.659  2.0809  0.3990  0.7672
 2923SOL    HW220406   1.317   0.189  14.798  0.7310  1.3922  1.0521
 2924SOL     OW20407   0.831   1.487   6.329  0.8966  0.3189  0.4434
 2924SOL    HW120408   0.910   1.503   6.276 -0.7517  2.2248 -1.4115
 2924SOL    HW220409   0.859   1.518   6.415  0.0687 -2.2185  1.6219
 2925SOL     OW20410   2.464   4.669   1.782  0.8883  0.2444  0.0914
 2925SOL    HW120411   2.504   4.583   1.773  2.7832  1.1651 -0.1777
 2925SOL    HW220412   2.540   4.708   1.740  1.3906 -0.5013  0.3168
 2926SOL     OW20413   0.268   3.409   4.118  0.3295  0.1475 -0.8307
 2926SOL    HW120414   0.221   3.366   4.047 -2.0551 -0.1401  0.9434
 2926SOL    HW220415   0.211   3.486   4.130  0.9231  0.5433 -0.5483
 2927SOL     OW20416   1.431   2.202   3.140  0.0064 -0.0943 -0.1115
 2927SOL    HW120417   1.380   2.127   3.171 -1.2896 -0.1742 -2.4523
 2927SOL    HW220418   1.401   2.264   3.206  0.7280 -0.9075  0.9767
 2928SOL     OW20419   4.130   0.840   9.820 -0.2371 -0.2599  0.2065
 2928SOL    HW120420   4.151   0.930   9.795  0.2729 -0.5088 -0.2360
 2928SOL    HW220421   4.064   0.850   9.889 -1.5311 -0.0522 -1.0508
 2929SOL     OW20422   1.691   2.906  14.819  0.1522 -0.0554  0.9121
 2929SOL    HW120423   1.646   2.945  14.745  3.0632  2.6472  0.5684
 2929SOL    HW220424   1.778   2.890  14.783 -1.0551  0.8812 -2.3649
 2930SOL     OW20425   4.519   0.427  14.637  0.2017  0.4461  0.0332
 2930SOL    HW120426   4.485   0.494  14.577 -0.0291 -0.0293 -0.3693
 2930SOL    HW220427   4.468   0.355  14.600 -1.8522  1.5664  0.6773
 2931SOL     OW20428   3.488   3.680   7.741  0.0981 -0.2403  0.2216
 2931SOL    HW120429   3.462   3.592   7.714 -0.4204  0.6353 -2.1152
 2931SOL    HW220430   3.407   3.723   7.768 -0.4719 -2.7000  2.3440
 2932SOL     OW20431   3.727   3.267   4.167  0.3348 -0.1015  0.1656
 2932SOL    HW120432   3.671   3.310   4.103  1.2093  0.4993 -0.2035
 2932SOL    HW220433   3.776   3.203   4.116 -0.5568  0.3311 -1.2361
 2933SOL     OW20434   2.793   3.714   0.938 -0.2712  0.4042  0.2775
 2933SOL    HW120435   2.774   3.769   0.862  1.6217 -1.0575 -1.2559
 2933SOL    HW220436   2.844   3.768   0.998  0.2790 -0.4503  0.5680
 2934SOL     OW20437   1.195   1.378  16.606  0.0433  0.2109  0.2270
 2934SOL    HW120438   1.102   1.391  16.621 -0.4230 -0.3575 -2.2009
 2934SOL    HW220439   1.212   1.442  16.537  0.5182  0.0384  0.1817
 2935SOL     OW20440   2.008   4.636   0.496 -0.1796 -0.2459 -0.1750
 2935SOL    HW120441   1.956   4.712   0.523  0.6030  1.5559 -3.7720
 2935SOL    HW220442   1.966   4.570   0.551 -1.6345  1.7491  1.1228
 2936SOL     OW20443   3.569   3.733   3.877  0.5656  0.9441 -0.3578
 2936SOL    HW120444   3.604   3.762   3.793  1.2363  1.4696  0.0884
 2936SOL    HW220445   3.494   3.681   3.849  0.2697  1.5334 -0.6517
 2937SOL     OW20446   4.176   1.861   5.900 -0.6852  0.0939  0.3634
 2937SOL    HW120447   4.111   1.885   5.965  0.9760 -1.5077  2.6380
 2937SOL    HW220448   4.199   1.773   5.930  3.8175  0.9474 -0.5691
 2938SOL     OW20449   2.582   3.554   9.734  0.5166 -0.4177  0.7373
 2938SOL    HW120450   2.549   3.475   9.691  3.1843 -1.4497  0.5865
 2938SOL    HW220451   2.631   3.585   9.658  0.5937 -1.2914  0.4348
 2939SOL     OW20452   2.316   4.178   6.340 -0.6387 -0.4395 -0.1851
 2939SOL    HW120453   2.294   4.102   6.395 -1.8038  0.1951  0.2363
 2939SOL    HW220454   2.232   4.215   6.312  1.2313  0.7431 -4.1635
 2940SOL     OW20455   4.284   4.320   6.208  0.0510 -0.4345 -0.1649
 2940SOL    HW120456   4.195   4.292   6.186  0.8482 -2.8433 -0.2816
 2940SOL    HW220457   4.340   4.270   6.150 -1.1951 -1.1145 -0.7800
 2941SOL     OW20458   3.776   3.708   6.646 -0.0982  0.2028  0.1639
 2941SOL    HW120459   3.838   3.778   6.666  0.3096 -0.8044  2.3780
 2941SOL    HW220460   3.704   3.765   6.619  1.8880  2.6366 -0.0014
 2942SOL     OW20461   0.497   4.228   4.488 -0.1239  0.2670  0.5915
 2942SOL    HW120462   0.463   4.258   4.572 -0.4241  1.5698 -0.0064
 2942SOL    HW220463   0.586   4.254   4.512  0.2911  1.4921 -2.3868
 2943SOL     OW20464   1.994   4.560   3.979 -0.0923  0.4936  0.2495
 2943SOL    HW120465   1.936   4.636   3.975 -1.2532 -0.4930 -1.4459
 2943SOL    HW220466   1.964   4.513   4.057  0.6924  1.4859  1.1587
 2944SOL     OW20467   2.171   2.685   7.277 -0.0862  0.3703 -0.1645
 2944SOL    HW120468   2.248   2.724   7.317 -0.4986  0.7760  0.2287
 2944SOL    HW220469   2.164   2.750   7.208 -1.0310  0.8721  0.4065
 2945SOL     OW20470   3.884   4.019   1.658 -0.0597 -0.8723 -0.1382
 2945SOL    HW120471   3.867   3.925   1.666  0.0620 -1.1976 -3.9486
 2945SOL    HW220472   3.924   4.039   1.743  0.4091 -0.5285 -0.4406
 2946SOL     OW20473   0.694   2.898   9.897  0.5144  0.2967 -0.7160
 2946SOL    HW120474   0.738   2.876   9.978 -0.4325 -0.6201 -0.4550
 2946SOL    HW220475   0.630   2.831   9.871 -1.6966  1.2967  2.1845
 2947SOL     OW20476   4.457   3.435   5.495 -0.2932 -0.1076 -0.1690
 2947SOL    HW120477   4.530   3.436   5.432  1.9409  0.7324  2.4035
 2947SOL    HW220478   4.404   3.374   5.445 -0.3194 -0.8358  0.7459
 2948SOL     OW20479   4.448   0.591   7.722  0.3818  0.1926 -0.0072
 2948SOL    HW120480   4.507   0.637   7.781 -0.6008  2.2553 -0.6373
 2948SOL    HW220481   4.373   0.648   7.702  0.1662  0.0623  0.4323
 2949SOL     OW20482   2.109   3.428  16.608  0.4493  0.2928  0.3441
 2949SOL    HW120483   2.177   3.361  16.596  0.1454 -0.0759  0.6820
 2949SOL    HW220484   2.085   3.448  16.517 -3.6387  1.6604  1.7272
 2950SOL     OW20485   0.549   2.396  13.982 -0.2285 -0.1165  0.0016
 2950SOL    HW120486   0.478   2.446  13.941 -0.4393 -1.6955 -1.5368
 2950SOL    HW220487   0.502   2.340  14.043  1.2625 -0.4383  0.8376
 2951SOL     OW20488   3.109   1.660   5.645 -0.6410 -0.0441  0.3468
 2951SOL    HW120489   3.066   1.608   5.577 -0.9712  0.4948  0.1469
 2951SOL    HW220490   3.131   1.741   5.599  2.0045 -0.8390  0.1926
 2952SOL     OW20491   1.177   1.350   8.338 -0.4531  0.0460 -0.2996
 2952SOL    HW120492   1.118   1.402   8.283  0.3413  0.0145 -1.1784
 2952SOL    HW220493   1.229   1.319   8.264  1.5702 -0.3365  1.2958
 2953SOL     OW20494   4.354   4.009  10.894  0.2460  0.7244  0.2471
 2953SOL    HW120495   4.269   4.055  10.895  1.4192  2.9057  0.7716
 2953SOL    HW220496   4.417   4.080  10.906 -1.8830  2.4820  1.1435
 2954SOL     OW20497   1.882   2.599   4.246  0.3830 -0.3535  0.6456
 2954SOL    HW120498   1.893   2.658   4.320  0.6211 -0.0880  0.3943
 2954SOL    HW220499   1.965   2.555   4.261  1.3427  1.9955  2.1948
 2955SOL     OW20500   2.199   3.627   4.136 -0.6101 -0.2253  0.3334
 2955SOL    HW120501   2.230   3.647   4.048  0.0306  0.4410  0.7120
 2955SOL    HW220502   2.110   3.593   4.128 -0.3168 -0.7388 -0.7255
 2956SOL     OW20503   1.199   4.054   8.554 -0.1724 -0.4482  0.3897
 2956SOL    HW120504   1.115   4.081   8.590  0.0456 -2.5800  2.5133
 2956SOL    HW220505   1.207   4.106   8.475 -1.8951 -0.0807  0.4542
 2957SOL     OW20506   1.077   3.939   6.466  0.6245  0.5363  0.4718
 2957SOL    HW120507   1.165   3.937   6.427 -1.5646 -0.5020 -4.3782
 2957SOL    HW220508   1.022   3.961   6.391 -3.2599 -2.7239  2.3668
 2958SOL     OW20509   3.041   3.575   4.074  0.1324  0.3496  0.2239
 2958SOL    HW120510   3.042   3.619   4.159  1.2559 -0.6618  0.7278
 2958SOL    HW220511   3.115   3.515   4.081 -0.4270 -0.2737  0.8512
 2959SOL     OW20512   4.661   3.508   2.698  0.3668  0.2426  0.2949
 2959SOL    HW120513   4.647   3.419   2.667 -2.6949  0.1188  1.9765
 2959SOL    HW220514   4.612   3.551   2.627  1.6433  0.7725 -0.2625
 2960SOL     OW20515   1.478   0.162  12.055  0.6198  0.7741 -0.6221
 2960SOL    HW120516   1.392   0.128  12.030  1.0953 -1.9295  1.4586
 2960SOL    HW220517   1.530   0.082  12.062 -0.8946 -0.0713  0.9296
 2961SOL     OW20518   1.578   1.879   1.471 -0.0535 -0.1265 -0.3657
 2961SOL    HW120519   1.620   1.813   1.417 -1.6810 -0.2538 -1.4653
 2961SOL    HW220520   1.574   1.953   1.411  1.2332 -0.5699 -0.9946
 2962SOL     OW20521   1.142   1.829   6.014 -0.0603  0.2057 -0.4958
 2962SOL    HW120522   1.061   1.875   5.991 -1.0665 -1.2601  0.1105
 2962SOL    HW220523   1.161   1.876   6.095  1.1817 -0.9406 -0.1219
 2963SOL     OW20524   3.744   3.856  16.861  0.0383  0.5045 -0.7160
 2963SOL    HW120525   3.690   3.825  16.788  0.6727  0.2186 -1.0624
 2963SOL    HW220526   3.700   3.919  16.918 -1.8910 -0.5094 -1.0821
 2964SOL     OW20527   2.275   3.105   8.877 -0.4727 -0.0895 -0.1423
 2964SOL    HW120528   2.329   3.159   8.819 -2.2293  2.0268  0.2055
 2964SOL    HW220529   2.287   3.013   8.854  0.0132 -0.5138  1.7857
 2965SOL     OW20530   4.293   3.348   4.420  0.5375 -0.3613  0.0749
 2965SOL    HW120531   4.233   3.309   4.483  1.0673 -0.2602  0.6388
 2965SOL    HW220532   4.376   3.346   4.468 -0.5511 -0.2622  1.9460
 2966SOL     OW20533   3.212   4.523  12.061 -0.0610  0.6191 -0.1396
 2966SOL    HW120534   3.293   4.562  12.027  1.3083 -0.2545  2.1802
 2966SOL    HW220535   3.249   4.473  12.134  0.3370 -0.4549 -1.0698
 2967SOL     OW20536   2.423   2.449   6.989 -0.6088  0.2909 -0.2204
 2967SOL    HW120537   2.490   2.386   6.961 -0.9744 -0.2038  0.0208
 2967SOL    HW220538   2.464   2.487   7.067 -0.9419 -1.7449  0.9679
 2968SOL     OW20539   0.119   2.898   6.742 -0.2011 -0.0763 -0.2903
 2968SOL    HW120540   0.144   2.836   6.673 -0.8185 -0.7330  0.0757
 2968SOL    HW220541   0.137   2.847   6.822  1.2189  1.7079  0.5443
 2969SOL     OW20542   3.442   4.430  16.365  0.1405  0.9031  0.6205
 2969SOL    HW120543   3.440   4.407  16.272  1.6777  1.2396  0.5026
 2969SOL    HW220544   3.468   4.522  16.359  0.6894  0.5578 -2.2654
 2970SOL     OW20545   3.667   2.506   3.747 -0.3830 -0.2800  0.0687
 2970SOL    HW120546   3.663   2.534   3.656 -5.8308  1.9073  1.0140
 2970SOL    HW220547   3.612   2.571   3.788  1.8868  1.4062  0.4584
 2971SOL     OW20548   4.140   3.788  15.288 -0.5573 -0.2435  0.0494
 2971SOL    HW120549   4.059   3.839  15.288  0.3554  1.1910  1.9210
 2971SOL    HW220550   4.180   3.812  15.205 -1.7783 -2.8436 -1.3250
 2972SOL     OW20551   3.819   4.237   2.462  0.2167 -0.0929 -0.5241
 2972SOL    HW120552   3.790   4.295   2.392  2.1985  2.1882  0.5347
 2972SOL    HW220553   3.830   4.292   2.540 -1.6552 -0.6441  0.1453
 2973SOL     OW20554   0.280   1.754   5.157  0.1813 -0.2295 -0.7069
 2973SOL    HW120555   0.246   1.675   5.116  3.0117 -2.0786  0.5002
 2973SOL    HW220556   0.325   1.789   5.080  0.6398  0.8466  0.0426
 2974SOL     OW20557   3.860   0.540  15.472  0.2107  0.6479  0.5598
 2974SOL    HW120558   3.827   0.505  15.555 -1.1182  0.2815 -0.1177
 2974SOL    HW220559   3.929   0.600  15.500 -0.8279  2.6244 -1.1340
 2975SOL     OW20560   1.677   2.160   3.029 -0.4631  0.2625  0.4006
 2975SOL    HW120561   1.594   2.172   3.075 -0.2520 -0.7651  1.0430
 2975SOL    HW220562   1.669   2.065   3.019 -0.4191  0.1338  1.6492
 2976SOL     OW20563   3.247   0.890   7.177 -0.0584  0.7436 -0.1285
 2976SOL    HW120564   3.228   0.796   7.186 -5.7544  1.9243  0.2807
 2976SOL    HW220565   3.247   0.918   7.269  1.6919 -0.7934  0.3328
 2977SOL     OW20566   4.339   3.883   9.958 -0.3298 -0.2813 -0.4411
 2977SOL    HW120567   4.261   3.853   9.911  0.0131  1.0379 -1.8403
 2977SOL    HW220568   4.385   3.804   9.988 -0.0391  0.7345  1.7556
 2978SOL     OW20569   1.397   0.611  12.409  0.0824  0.5714 -0.0697
 2978SOL    HW120570   1.386   0.676  12.339 -0.9632  0.4072 -0.0570
 2978SOL    HW220571   1.490   0.626  12.428 -0.4386 -0.7861  3.4390
 2979SOL     OW20572   4.684   1.383   4.757  0.3894  0.0503 -0.6480
 2979SOL    HW120573   0.021   1.324   4.752 -0.0849 -0.7503  1.7295
 2979SOL    HW220574   4.677   1.413   4.666  1.0444 -0.2736 -0.8039
 2980SOL     OW20575   2.734   4.151   0.909  0.0409  0.1211 -0.1752
 2980SOL    HW120576   2.826   4.178   0.912  0.3777 -0.8159 -1.7638
 2980SOL    HW220577   2.693   4.234   0.885 -0.2206  0.0040 -0.1302
 2981SOL     OW20578   1.254   1.205  11.373  0.3858  0.3314  0.1040
 2981SOL    HW120579   1.277   1.243  11.288  0.1049  1.9930  0.7744
 2981SOL    HW220580   1.290   1.270  11.434  2.1436 -1.4713  0.9571
 2982SOL     OW20581   4.304   0.298  12.466 -0.5021  0.5177 -0.1822
 2982SOL    HW120582   4.318   0.365  12.534  0.6590 -0.7594  0.8380
 2982SOL    HW220583   4.334   0.219  12.511  0.7337  0.9407 -0.2618
 2983SOL     OW20584   1.718   4.341   9.267 -0.2464 -0.0932  0.2200
 2983SOL    HW120585   1.709   4.269   9.328  0.2318 -0.4222 -0.0993
 2983SOL    HW220586   1.631   4.381   9.263 -0.8943 -1.7362 -2.2557
 2984SOL     OW20587   0.916   3.812  14.869  0.0134  0.1792 -0.6158
 2984SOL    HW120588   0.927   3.730  14.917 -0.7364 -0.8204 -2.1646
 2984SOL    HW220589   0.964   3.871  14.927  4.0215 -2.7444 -0.9723
 2985SOL     OW20590   0.439   0.089   8.861  0.3123  0.2560  0.3737
 2985SOL    HW120591   0.469   0.170   8.902  1.0078  0.7279 -1.0389
 2985SOL    HW220592   0.504   0.063   8.796  0.9147  1.7765  0.3538
 2986SOL     OW20593   1.402   2.018   8.989  0.3050 -0.4401 -0.8069
 2986SOL    HW120594   1.321   2.066   9.005  1.2875  1.2118 -0.8071
 2986SOL    HW220595   1.368   1.938   8.949  1.4590 -0.3569 -1.9311
 2987SOL     OW20596   0.378   3.261   7.044 -0.7513 -0.0396 -0.0694
 2987SOL    HW120597   0.328   3.341   7.028  0.7209  0.9002 -0.0278
 2987SOL    HW220598   0.364   3.210   6.964  1.9921  1.3382 -1.4558
 2988SOL     OW20599   0.864   1.731   4.524  0.1158 -0.2211 -0.6285
 2988SOL    HW120600   0.882   1.767   4.437  0.8863 -1.3939 -0.9567
 2988SOL    HW220601   0.796   1.788   4.560  0.3959 -0.5816  0.4482
 2989SOL     OW20602   0.333   0.198  10.746 -0.1682 -0.0792  0.1854
 2989SOL    HW120603   0.257   0.254  10.736  1.7873  2.4485 -0.5029
 2989SOL    HW220604   0.397   0.251  10.794  0.1931 -1.4339  1.2025
 2990SOL     OW20605   0.243   0.545   6.748 -0.0253 -0.4147  0.5466
 2990SOL    HW120606   0.181   0.482   6.710 -0.2488 -0.7302  1.4432
 2990SOL    HW220607   0.269   0.578   6.662 -1.9583  1.1928  0.5704
 2991SOL     OW20608   3.522   2.267   5.865  0.6016  0.0687  0.5142
 2991SOL    HW120609   3.569   2.266   5.948  0.0901  2.3461  0.8176
 2991SOL    HW220610   3.574   2.197   5.826  1.4147  1.3469 -0.6670
 2992SOL     OW20611   0.974   3.550   8.706 -0.6275 -0.0027 -0.1102
 2992SOL    HW120612   0.989   3.618   8.640 -2.2221 -0.0781 -0.5582
 2992SOL    HW220613   0.924   3.595   8.774 -1.1093  1.6778 -1.5584
 2993SOL     OW20614   0.253   1.148   5.045 -0.3984 -0.3371  0.3036
 2993SOL    HW120615   0.188   1.218   5.044  2.2542  2.1037 -1.5508
 2993SOL    HW220616   0.235   1.103   5.127 -0.4874  1.2118  1.1311
 2994SOL     OW20617   4.598   3.737   4.783 -0.2305  0.0427 -0.4914
 2994SOL    HW120618   4.584   3.643   4.793  0.3942 -0.0297 -0.2647
 2994SOL    HW220619   4.693   3.726   4.775 -0.3290 -1.3058  0.3034
 2995SOL     OW20620   3.158   4.124   0.601  0.6488 -0.0081  0.4602
 2995SOL    HW120621   3.069   4.113   0.568  0.8403 -0.5528  0.1231
 2995SOL    HW220622   3.150   4.135   0.696  1.8285  0.2916  0.5203
 2996SOL     OW20623   2.865   0.301   6.654 -0.3414  0.1769 -0.0804
 2996SOL    HW120624   2.943   0.249   6.633 -0.0267  1.0200 -1.0355
 2996SOL    HW220625   2.902   0.359   6.722  0.8477 -2.3141  1.3997
 2997SOL     OW20626   1.830   0.472  15.588 -0.6416  0.3135  0.1417
 2997SOL    HW120627   1.829   0.554  15.540 -2.7744  0.0604 -0.2770
 2997SOL    HW220628   1.791   0.516  15.664 -0.2980  2.1562 -0.7668
 2998SOL     OW20629   3.722   0.394   7.523  0.4949 -0.1559 -0.2536
 2998SOL    HW120630   3.663   0.318   7.516  2.6271 -1.9675  1.2564
 2998SOL    HW220631   3.805   0.347   7.528  0.1740 -0.6669  0.3078
 2999SOL     OW20632   3.917   1.631  10.947  0.0533 -0.6710  0.2426
 2999SOL    HW120633   3.913   1.548  10.995  0.7904  0.2455  1.8837
 2999SOL    HW220634   3.922   1.602  10.856 -1.3615  0.7781 -0.2918
 3000SOL     OW20635   2.112   1.045   6.978  0.4903 -0.2868  0.8999
 3000SOL    HW120636   2.186   0.984   6.980  1.8437  1.3953  1.1333
 3000SOL    HW220637   2.092   1.010   6.891  2.2053  0.6778  0.1422
 3001SOL     OW20638   0.783   1.502   3.676 -0.3540  0.4743 -0.8430
 3001SOL    HW120639   0.828   1.434   3.626  1.1667 -0.3359  1.6333
 3001SOL    HW220640   0.695   1.472   3.653 -0.4118 -1.0256  1.3850
 3002SOL     OW20641   2.335   3.512  16.012  0.4631 -0.0447 -0.1824
 3002SOL    HW120642   2.303   3.531  16.100  1.0613  3.3038 -0.6890
 3002SOL    HW220643   2.290   3.577  15.958  1.6112  0.4170 -0.5764
 3003SOL     OW20644   0.575   2.958   7.587 -0.2022  0.2663  0.0198
 3003SOL    HW120645   0.655   2.983   7.541 -0.3593 -0.8861 -0.8906
 3003SOL    HW220646   0.575   2.863   7.571 -0.4569  0.0734  1.1386
 3004SOL     OW20647   1.506   2.239   0.801  0.4928 -0.0938 -0.4850
 3004SOL    HW120648   1.462   2.318   0.769 -1.2279 -1.3077 -1.1425
 3004SOL    HW220649   1.457   2.180   0.744  1.8222  1.7055 -3.4696
 3005SOL     OW20650   1.018   0.839  14.563  0.3946  0.2846 -0.3764
 3005SOL    HW120651   0.943   0.827  14.621 -2.2161 -0.7534 -3.9640
 3005SOL    HW220652   1.032   0.747  14.540  1.5413  0.4820 -0.4661
 3006SOL     OW20653   0.826   1.970   1.524 -0.0711 -0.0583 -0.1772
 3006SOL    HW120654   0.898   1.973   1.587 -0.8408 -2.1547  0.7823
 3006SOL    HW220655   0.761   1.927   1.579 -1.2837  1.8971 -0.0584
 3007SOL     OW20656   0.521   0.276  13.184  0.1317 -0.1403 -0.3380
 3007SOL    HW120657   0.596   0.241  13.233  0.4951 -0.5647 -1.1926
 3007SOL    HW220658   0.550   0.366  13.170  4.7420 -2.0559 -3.1407
 3008SOL     OW20659   3.657   2.062   5.482  0.2470  0.6971 -0.2389
 3008SOL    HW120660   3.596   2.019   5.542  0.7432  0.1948 -0.0947
 3008SOL    HW220661   3.629   2.032   5.396 -2.4437  0.0187  0.8544
 3009SOL     OW20662   3.398   3.462   0.502  0.0081 -0.1809  0.3598
 3009SOL    HW120663   3.347   3.540   0.480 -3.2934 -2.9777 -1.9089
 3009SOL    HW220664   3.420   3.479   0.593 -1.8754  0.0594  0.7877
 3010SOL     OW20665   0.834   4.312   5.528  0.2946 -0.2051 -0.0083
 3010SOL    HW120666   0.915   4.296   5.479  0.1940 -0.8009  0.0155
 3010SOL    HW220667   0.864   4.376   5.593  1.2059 -1.0607  0.4212
 3011SOL     OW20668   2.033   1.384   6.663  0.9156  0.3190  0.3604
 3011SOL    HW120669   2.029   1.476   6.689 -0.5311  0.9082 -1.9022
 3011SOL    HW220670   1.940   1.367   6.646  1.1588 -0.3087 -0.3422
 3012SOL     OW20671   1.415   3.458  11.328  0.6565  0.0119  0.0118
 3012SOL    HW120672   1.390   3.368  11.348  1.4822 -0.0704  0.6545
 3012SOL    HW220673   1.439   3.496  11.413  1.0217 -2.1091  0.8442
 3013SOL     OW20674   3.647   0.434   1.491 -0.1389  0.0083 -0.1448
 3013SOL    HW120675   3.666   0.440   1.398 -1.0794 -4.0494 -0.6365
 3013SOL    HW220676   3.603   0.349   1.495  0.2267 -0.0310  2.9102
 3014SOL     OW20677   1.151   3.717   9.512 -0.2676  0.1191 -0.0783
 3014SOL    HW120678   1.162   3.624   9.532 -0.4176 -0.5233 -2.8931
 3014SOL    HW220679   1.080   3.715   9.447  0.7403  0.9955 -1.1967
 3015SOL     OW20680   0.506   1.564   7.228  0.3606  0.4096  0.0279
 3015SOL    HW120681   0.586   1.570   7.280  0.1804  1.4241  0.1927
 3015SOL    HW220682   0.476   1.492   7.283  1.4912 -0.7300 -0.8597
 3016SOL     OW20683   4.297   2.982  11.429  0.0692  0.0251 -0.2979
 3016SOL    HW120684   4.202   2.974  11.431 -0.0151 -0.1758 -3.8571
 3016SOL    HW220685   4.312   3.015  11.340 -1.6553 -0.0305 -0.6110
 3017SOL     OW20686   2.337   2.188   7.335 -0.2565 -0.2700  0.4710
 3017SOL    HW120687   2.302   2.262   7.386  0.4246  0.3354  0.0609
 3017SOL    HW220688   2.401   2.155   7.398  0.8205 -0.9458 -0.9908
 3018SOL     OW20689   0.354   2.754  10.129  0.0459 -0.2641  0.0165
 3018SOL    HW120690   0.426   2.715  10.178 -0.5587  0.1319  1.2133
 3018SOL    HW220691   0.300   2.762  10.207  0.2821  3.3608 -0.2053
 3019SOL     OW20692   0.921   2.539   8.202  0.8469  0.4538 -0.1765
 3019SOL    HW120693   0.989   2.502   8.259  2.3944  1.3539 -1.4107
 3019SOL    HW220694   0.924   2.631   8.229 -1.5885  0.6272 -0.5503
 3020SOL     OW20695   0.546   1.145   0.359  0.3017  0.3150 -0.7971
 3020SOL    HW120696   0.567   1.118   0.449  0.0472  0.7652 -0.6053
 3020SOL    HW220697   0.627   1.131   0.310  0.5272  1.2064 -0.6764
 3021SOL     OW20698   2.571   3.358   8.763 -0.2205 -0.1446 -0.1217
 3021SOL    HW120699   2.639   3.292   8.747 -1.3387 -1.8007  2.0305
 3021SOL    HW220700   2.546   3.385   8.674 -0.5063 -0.0760 -0.0194
 3022SOL     OW20701   2.270   2.850  13.033  0.2987  0.1715 -0.3614
 3022SOL    HW120702   2.199   2.846  13.097 -1.1484  0.7300 -1.9425
 3022SOL    HW220703   2.325   2.775  13.053  1.5607  0.9730 -0.7986
 3023SOL     OW20704   0.337   0.310   9.593  0.1292 -0.3271  0.5516
 3023SOL    HW120705   0.292   0.368   9.532 -0.6911 -1.4673  0.0900
 3023SOL    HW220706   0.278   0.327   9.667 -0.8596  0.4900 -0.4324
 3024SOL     OW20707   2.727   3.343   7.337 -0.6572  0.3499 -0.0286
 3024SOL    HW120708   2.652   3.310   7.386  0.1621 -1.0557  0.2758
 3024SOL    HW220709   2.687   3.348   7.250 -1.5475 -2.5203  0.2115
 3025SOL     OW20710   2.604   3.918   6.877  0.3809 -0.5280 -0.1530
 3025SOL    HW120711   2.652   3.869   6.943 -0.2944  0.6177  1.1918
 3025SOL    HW220712   2.533   3.947   6.934 -1.0412 -2.2834 -0.9860
 3026SOL     OW20713   0.078   0.948  15.614  0.2223  0.1197 -0.7077
 3026SOL    HW120714   0.118   0.964  15.699 -1.2456  1.7247 -0.3176
 3026SOL    HW220715   0.053   1.033  15.578 -1.0514  0.3025  0.5845
 3027SOL     OW20716   1.630   2.639   4.130 -0.0979  0.0502 -0.3518
 3027SOL    HW120717   1.712   2.603   4.163 -0.0379  0.5575  0.0496
 3027SOL    HW220718   1.637   2.734   4.144 -0.0650 -0.1045  0.6875
 3028SOL     OW20719   2.121   4.687  17.388 -0.1830 -0.0706  0.5983
 3028SOL    HW120720   2.074   0.032  17.381 -0.5065 -0.3122 -0.1055
 3028SOL    HW220721   2.086   4.650  17.469  0.0379  0.2238  0.8284
 3029SOL     OW20722   3.685   3.885   5.409 -0.3829  0.0874  0.0596
 3029SOL    HW120723   3.609   3.891   5.467 -0.5739  0.5072 -0.2362
 3029SOL    HW220724   3.647   3.859   5.325  0.8799  0.2492 -0.5580
 3030SOL     OW20725   3.433   0.035   0.354  0.2073 -0.0630 -0.2495
 3030SOL    HW120726   3.383   0.016   0.275  0.8813  1.0802 -0.9570
 3030SOL    HW220727   3.523   0.013   0.329 -0.2479 -1.3833 -0.7191
 3031SOL     OW20728   4.189   3.464   7.650 -0.1668  0.1555 -0.0283
 3031SOL    HW120729   4.099   3.460   7.617 -0.0603  0.2257 -0.3313
 3031SOL    HW220730   4.194   3.395   7.716  1.6254 -1.8470 -2.2557
 3032SOL     OW20731   2.514   2.267  11.444 -0.1779 -0.5973 -0.0099
 3032SOL    HW120732   2.489   2.350  11.485  0.0923  0.1692 -1.3952
 3032SOL    HW220733   2.496   2.203  11.512  1.1234 -1.7349 -0.7569
 3033SOL     OW20734   1.070   0.377  16.930  0.3168 -0.4945 -0.0993
 3033SOL    HW120735   1.041   0.308  16.990 -0.8853  0.6977  0.6872
 3033SOL    HW220736   1.020   0.352  16.853  0.2748  0.4326 -0.3712
 3034SOL     OW20737   1.714   4.265   1.904  0.1733 -0.2064  0.0076
 3034SOL    HW120738   1.698   4.297   1.993  0.8260 -1.3304  0.5259
 3034SOL    HW220739   1.779   4.199   1.927 -0.9481 -0.4927  2.3602
 3035SOL     OW20740   3.001   4.179   1.065  0.2135  0.1424  0.0839
 3035SOL    HW120741   3.045   4.258   1.098 -0.3886  0.1206  0.9263
 3035SOL    HW220742   2.929   4.163   1.126  0.0402  0.4359 -0.0466
 3036SOL     OW20743   0.155   1.293  10.507 -0.2152 -0.0733  0.1625
 3036SOL    HW120744   0.224   1.236  10.473 -0.6526  0.2083 -1.2105
 3036SOL    HW220745   0.165   1.266  10.598 -0.6590 -0.6888  0.0241
 3037SOL     OW20746   1.498   2.147   7.727 -0.3046 -0.1887 -0.3434
 3037SOL    HW120747   1.482   2.115   7.816  2.5356  1.4561  0.7532
 3037SOL    HW220748   1.408   2.154   7.695 -0.5810  0.7731  0.6563
 3038SOL     OW20749   4.245   3.410   3.889 -0.4682 -0.0411  0.2524
 3038SOL    HW120750   4.339   3.401   3.872 -0.3051  0.5428  0.8237
 3038SOL    HW220751   4.244   3.359   3.970  1.0997 -2.1420 -1.0828
 3039SOL     OW20752   2.120   3.888   7.710  0.1271 -0.3770 -0.7183
 3039SOL    HW120753   2.087   3.977   7.701  1.2338  0.0990 -0.0328
 3039SOL    HW220754   2.075   3.853   7.787  2.4840  0.5701  1.1160
 3040SOL     OW20755   1.150   3.624   5.822  0.4223  0.5799 -0.6683
 3040SOL    HW120756   1.146   3.716   5.850  3.3681  0.9778 -1.5022
 3040SOL    HW220757   1.243   3.618   5.844  0.0486 -0.5365  0.6054
 3041SOL     OW20758   2.905   0.502   5.303 -0.3770 -0.5117 -0.5676
 3041SOL    HW120759   2.919   0.490   5.397  0.3852  0.4058 -0.5567
 3041SOL    HW220760   2.931   0.594   5.299 -1.2956 -0.2547 -0.4618
 3042SOL     OW20761   0.006   4.514   7.752  0.1736  0.6076 -0.3421
 3042SOL    HW120762   0.038   4.526   7.662  1.6317 -1.8712 -0.1672
 3042SOL    HW220763   0.089   4.495   7.795  0.2967 -0.5037 -1.0572
 3043SOL     OW20764   3.047   0.409   5.509  0.0282 -0.2629  0.0900
 3043SOL    HW120765   3.089   0.444   5.587  1.1330  0.7549 -0.9517
 3043SOL    HW220766   3.126   0.374   5.468  0.3928  0.7888 -0.1198
 3044SOL     OW20767   1.739   2.839  12.707 -0.5503  0.3515 -0.3520
 3044SOL    HW120768   1.669   2.806  12.763 -1.2758  0.7310 -1.0293
 3044SOL    HW220769   1.825   2.809  12.736 -0.3869  2.2675  1.1571
 3045SOL     OW20770   1.426   0.719   7.262 -0.4798  0.3419  0.2488
 3045SOL    HW120771   1.497   0.784   7.265 -0.5111  0.3782  0.2124
 3045SOL    HW220772   1.420   0.670   7.343  1.4145 -1.0706 -0.4692
 3046SOL     OW20773   1.567   0.717   3.430  0.3717  0.8873 -0.7869
 3046SOL    HW120774   1.578   0.782   3.361 -0.8740  1.0188 -0.8568
 3046SOL    HW220775   1.602   0.638   3.388 -0.1343  0.1464  0.1744
 3047SOL     OW20776   2.253   0.294  16.296 -0.0973 -0.4388 -0.6723
 3047SOL    HW120777   2.212   0.315  16.212 -0.3324 -1.6597 -0.8616
 3047SOL    HW220778   2.313   0.226  16.266  0.5976 -0.4442  0.7381
 3048SOL     OW20779   2.968   4.097   5.208  0.5731 -0.0376 -0.1996
 3048SOL    HW120780   2.995   4.077   5.118 -0.0056  0.5829 -0.5090
 3048SOL    HW220781   2.873   4.109   5.204  0.2138 -1.6652  2.9819
 3049SOL     OW20782   3.961   3.964  17.495 -0.5628  0.4845  0.1179
 3049SOL    HW120783   4.049   3.944  17.527 -0.0256  3.1916  0.3505
 3049SOL    HW220784   3.907   3.951  17.573 -2.2387  0.8364 -0.9566
 3050SOL     OW20785   1.493   1.000   7.478  0.1434  0.1795  0.2068
 3050SOL    HW120786   1.511   1.094   7.471 -0.4446  0.2873  0.1121
 3050SOL    HW220787   1.562   0.975   7.417 -0.5264  0.0968 -0.5203
 3051SOL     OW20788   1.061   3.047   0.670 -0.1804  0.0849 -0.5054
 3051SOL    HW120789   1.000   2.979   0.700  1.7171 -0.7228  1.5393
 3051SOL    HW220790   0.995   3.105   0.633  1.9765  1.9361 -1.4514
 3052SOL     OW20791   1.797   3.755   3.937 -0.2938  0.1599 -0.7697
 3052SOL    HW120792   1.757   3.841   3.955 -0.8803 -0.3968  0.6079
 3052SOL    HW220793   1.730   3.697   3.902  2.8106 -1.8093 -3.3843
 3053SOL     OW20794   3.654   1.849   6.412  0.3061  0.5543 -0.0392
 3053SOL    HW120795   3.634   1.906   6.486 -1.0361 -1.1641  0.9329
 3053SOL    HW220796   3.625   1.910   6.345 -1.9971  0.8402  1.2160
 3054SOL     OW20797   2.523   0.958   6.313 -0.0215 -0.2633  0.3504
 3054SOL    HW120798   2.495   1.042   6.348  1.0943  1.0489 -1.8995
 3054SOL    HW220799   2.603   0.940   6.363  0.1928  0.2006  0.1778
 3055SOL     OW20800   4.106   0.576   4.690 -0.3296  0.4410 -0.1414
 3055SOL    HW120801   4.184   0.558   4.637  0.0273 -2.3235  1.3567
 3055SOL    HW220802   4.062   0.631   4.625  1.2906  0.8305 -0.9325
 3056SOL     OW20803   1.626   1.710  14.024  0.5768 -0.2794 -0.0783
 3056SOL    HW120804   1.689   1.642  14.048 -0.3915 -1.0318  0.3519
 3056SOL    HW220805   1.581   1.660  13.956  0.2271 -0.4435  0.2676
 3057SOL     OW20806   2.482   4.395   7.563 -0.4017  0.2709  0.1852
 3057SOL    HW120807   2.450   4.464   7.505 -2.6974 -0.3733  0.6866
 3057SOL    HW220808   2.570   4.384   7.528 -0.5849  0.6183 -0.3899
 3058SOL     OW20809   2.297   1.879   2.971 -0.0152  0.1456 -0.4330
 3058SOL    HW120810   2.220   1.934   2.982  0.8206  0.6916  2.8948
 3058SOL    HW220811   2.287   1.822   3.047 -0.8011  0.2812 -0.4371
 3059SOL     OW20812   1.232   1.911  16.102  0.1341  0.3233 -0.0952
 3059SOL    HW120813   1.326   1.913  16.084 -0.3110  1.2296 -2.3754
 3059SOL    HW220814   1.200   1.888  16.015  0.7740  0.8186 -0.4623
 3060SOL     OW20815   0.768   3.691  10.475 -0.0361  0.3765  0.0092
 3060SOL    HW120816   0.780   3.769  10.421  2.1341  0.2913  0.4053
 3060SOL    HW220817   0.795   3.620  10.416 -0.1834  0.4009 -0.0896
 3061SOL     OW20818   4.073   1.083   9.500  0.2262 -0.0478  0.5159
 3061SOL    HW120819   4.091   1.067   9.592 -0.2485  1.0824  0.8041
 3061SOL    HW220820   4.004   1.148   9.514 -0.5023 -0.6497 -0.2574
 3062SOL     OW20821   3.382   0.686   6.073 -0.2715 -0.2672 -0.3376
 3062SOL    HW120822   3.313   0.644   6.125 -1.6780  2.7042  0.1610
 3062SOL    HW220823   3.460   0.670   6.126 -1.2916  0.6284  1.4427
 3063SOL     OW20824   1.977   4.321  15.051 -0.0673 -0.1990  0.1145
 3063SOL    HW120825   1.928   4.337  15.132 -0.6768 -1.2602 -0.0456
 3063SOL    HW220826   1.947   4.231  15.039 -0.1769 -0.1483  0.0123
 3064SOL     OW20827   1.437   1.328  12.212 -0.2997  0.2843 -0.0521
 3064SOL    HW120828   1.513   1.336  12.269 -1.5924  2.7810  1.3096
 3064SOL    HW220829   1.377   1.293  12.277  0.6044 -1.2366 -0.0232
 3065SOL     OW20830   1.002   1.471   3.031  0.1603  0.0341  0.1453
 3065SOL    HW120831   1.038   1.537   2.972 -0.7961  0.1831 -0.2744
 3065SOL    HW220832   0.909   1.496   3.035  0.5722  1.4586  0.7745
 3066SOL     OW20833   2.104   0.280  16.068  0.7870 -0.2473  0.1633
 3066SOL    HW120834   2.170   0.224  16.028 -2.0431 -1.7359 -2.4034
 3066SOL    HW220835   2.081   0.347  16.003 -0.7874 -1.9462 -1.0200
 3067SOL     OW20836   0.878   2.879   9.659  0.4544  0.2681 -0.4109
 3067SOL    HW120837   0.969   2.880   9.690  0.3999  0.6229 -0.2603
 3067SOL    HW220838   0.821   2.878   9.736 -0.0589  0.3481 -0.7943
 3068SOL     OW20839   2.039   0.145  15.336  0.0722 -0.6420 -0.3330
 3068SOL    HW120840   1.982   0.068  15.341  0.0240 -0.7195 -1.9638
 3068SOL    HW220841   2.124   0.104  15.318 -0.7155 -2.2922 -0.3502
 3069SOL     OW20842   1.272   3.952   3.868 -0.0071 -0.0644 -0.5336
 3069SOL    HW120843   1.189   3.916   3.901  0.6877 -0.3608  0.8980
 3069SOL    HW220844   1.251   4.044   3.853 -2.0235  0.0913  3.1617
 3070SOL     OW20845   3.387   4.242   1.911 -0.2054  0.7807 -0.3375
 3070SOL    HW120846   3.419   4.181   1.845  0.0766  1.8725 -1.2047
 3070SOL    HW220847   3.333   4.181   1.961 -0.8056  1.4089 -0.2125
 3071SOL     OW20848   2.169   1.408   5.528 -0.2250  0.0544 -0.2752
 3071SOL    HW120849   2.138   1.491   5.565 -2.1594 -0.8327  0.0655
 3071SOL    HW220850   2.262   1.428   5.520 -0.3662  1.3189  1.2015
 3072SOL     OW20851   1.645   0.916   7.269  0.9152  0.0851  0.1586
 3072SOL    HW120852   1.687   0.833   7.243 -0.6583 -1.0626  1.2919
 3072SOL    HW220853   1.724   0.966   7.290  0.8421  0.4105 -0.3355
 3073SOL     OW20854   0.420   2.434   5.118  0.9798 -0.2040  0.4000
 3073SOL    HW120855   0.419   2.407   5.026 -0.3301 -0.3682  0.4675
 3073SOL    HW220856   0.498   2.389   5.151  0.7708 -1.1680 -0.4039
 3074SOL     OW20857   0.026   2.531  17.127  0.6048  0.3449  0.4038
 3074SOL    HW120858   0.031   2.537  17.223 -0.7458  2.1258  0.3690
 3074SOL    HW220859   4.679   2.487  17.118  0.3788  0.9220 -0.2712
 3075SOL     OW20860   1.598   0.632   9.784  0.1926 -0.2969 -0.2826
 3075SOL    HW120861   1.508   0.615   9.813 -0.8720  1.4863 -2.5055
 3075SOL    HW220862   1.621   0.543   9.758  1.7253  0.8510 -2.9051
 3076SOL     OW20863   0.779   3.891  10.287 -0.3565  0.0372 -0.3428
 3076SOL    HW120864   0.852   3.900  10.226 -0.7910  1.4125 -0.6744
 3076SOL    HW220865   0.707   3.924  10.232 -1.3968 -2.5994 -0.5453
 3077SOL     OW20866   4.734   4.247  16.903  0.2794 -0.2680  0.1036
 3077SOL    HW120867   0.074   4.191  16.905  0.3755 -0.1650 -1.1228
 3077SOL    HW220868   4.733   4.274  16.995  0.7222  0.8495 -0.2179
 3078SOL     OW20869   0.212   1.984   4.181 -0.4267  0.0514 -0.1132
 3078SOL    HW120870   0.192   1.903   4.228  1.0586  0.1347  0.6492
 3078SOL    HW220871   0.153   1.981   4.105  0.7786 -1.3693 -0.9898
 3079SOL     OW20872   2.365   2.009   2.351 -0.7402  0.2827 -0.1822
 3079SOL    HW120873   2.355   1.967   2.436  0.4586 -1.8609 -1.0975
 3079SOL    HW220874   2.333   2.099   2.363  1.5214  1.0974 -0.2573
 3080SOL     OW20875   1.705   0.992   5.458  0.3500 -0.2847  0.0683
 3080SOL    HW120876   1.654   0.913   5.479 -1.3005  0.9299  0.5954
 3080SOL    HW220877   1.641   1.061   5.440 -0.2339 -0.5957  0.9552
 3081SOL     OW20878   1.975   2.602   3.364 -0.2569 -0.2125 -0.3013
 3081SOL    HW120879   2.043   2.651   3.318 -0.6000  0.4216 -0.1367
 3081SOL    HW220880   2.020   2.553   3.432 -1.4508 -1.1309 -0.1699
 3082SOL     OW20881   4.407   0.115   6.815  0.4481  0.0432  0.6910
 3082SOL    HW120882   4.312   0.130   6.817  0.6200  1.1103  0.9596
 3082SOL    HW220883   4.440   0.184   6.873  0.2492  0.4649  0.2992
 3083SOL     OW20884   0.241   4.472  10.069  0.0359  0.4263 -0.4802
 3083SOL    HW120885   0.194   4.430  10.141 -0.7234  0.9098 -0.6900
 3083SOL    HW220886   0.287   4.396  10.034  0.5175  0.3679  0.2656
 3084SOL     OW20887   0.574   3.976   8.160  0.7471 -0.0708 -0.3387
 3084SOL    HW120888   0.601   4.049   8.104 -2.1959  1.8369  0.6836
 3084SOL    HW220889   0.499   3.939   8.114  1.6829 -3.1397  0.6410
 3085SOL     OW20890   1.925   1.679   2.416 -0.4728 -0.3496 -0.2744
 3085SOL    HW120891   1.982   1.700   2.342 -1.3706  0.9095 -0.6044
 3085SOL    HW220892   1.948   1.586   2.411 -0.3928 -0.4163  1.3790
 3086SOL     OW20893   1.149   1.922   5.099 -0.0140  0.1478  0.0719
 3086SOL    HW120894   1.130   2.001   5.049  1.1108  0.2697 -0.1653
 3086SOL    HW220895   1.226   1.887   5.056 -1.1670 -0.8953 -1.1394
 3087SOL     OW20896   3.642   3.313   6.761 -0.4974  0.2572  0.2508
 3087SOL    HW120897   3.652   3.394   6.812  0.4940  1.6113 -2.0847
 3087SOL    HW220898   3.711   3.318   6.695 -1.0512 -0.3608 -0.3723
 3088SOL     OW20899   3.356   4.192  13.135 -0.1721 -0.0009 -0.3989
 3088SOL    HW120900   3.428   4.255  13.140  1.8866 -2.3740  0.3703
 3088SOL    HW220901   3.349   4.177  13.230  1.5726 -1.7242 -0.5485
 3089SOL     OW20902   4.437   3.101   3.025 -0.5370 -0.0229 -0.6424
 3089SOL    HW120903   4.530   3.080   3.030 -0.4176  0.3643 -1.3591
 3089SOL    HW220904   4.389   3.032   2.980 -1.4454  0.8242 -0.9678
 3090SOL     OW20905   0.154   1.846  14.740 -0.0669  0.0443  0.1483
 3090SOL    HW120906   0.121   1.935  14.754 -0.6838 -0.3430  1.0846
 3090SOL    HW220907   0.192   1.857  14.652  2.0503 -0.2044  1.0156
 3091SOL     OW20908   0.643   4.683  15.973 -0.0671 -0.5401  0.0744
 3091SOL    HW120909   0.621   4.698  16.065  1.7059  1.9366  0.1130
 3091SOL    HW220910   0.648   0.033  15.934  2.8817  0.5965  2.9980
 3092SOL     OW20911   2.335   1.965   3.675  0.2880 -0.6336  0.1239
 3092SOL    HW120912   2.321   1.883   3.723 -1.7114 -0.4841 -0.2061
 3092SOL    HW220913   2.391   2.013   3.735  0.2142 -1.1732  0.6213
 3093SOL     OW20914   2.971   2.262   6.031 -0.6972 -0.9219  1.0815
 3093SOL    HW120915   2.956   2.202   5.959 -2.3196  0.8325 -0.0516
 3093SOL    HW220916   2.894   2.320   6.027 -0.3670 -0.6007 -0.5225
 3094SOL     OW20917   1.368   0.948   1.169  0.0321 -0.0577  1.0125
 3094SOL    HW120918   1.374   1.022   1.229  1.4437  0.1263  0.6699
 3094SOL    HW220919   1.312   0.886   1.215 -1.0003 -0.4183 -0.6968
 3095SOL     OW20920   4.098   2.600   8.463  0.5660 -0.0316  0.7845
 3095SOL    HW120921   4.173   2.650   8.495  0.1403  0.9387  0.2727
 3095SOL    HW220922   4.106   2.614   8.369 -0.2640  1.3529  0.9216
 3096SOL     OW20923   0.283   3.625   8.100 -0.4143 -0.0705 -0.1979
 3096SOL    HW120924   0.188   3.618   8.110 -0.6798  3.4409 -0.1656
 3096SOL    HW220925   0.306   3.567   8.027  2.9793  0.4009  0.4817
 3097SOL     OW20926   0.030   2.569   8.579 -0.8747  0.2719  0.2024
 3097SOL    HW120927   0.005   2.501   8.642 -0.2991 -0.5475 -0.4627
 3097SOL    HW220928   0.120   2.580   8.611  0.0667 -2.7948 -1.3914
 3098SOL     OW20929   2.858   0.219   7.684  0.2011 -0.2409  0.1862
 3098SOL    HW120930   2.810   0.137   7.675  0.6584 -0.6870  1.7855
 3098SOL    HW220931   2.832   0.251   7.771 -0.7765  1.7926 -0.8539
 3099SOL     OW20932   2.254   4.730  15.290 -0.1630 -0.0993 -0.2799
 3099SOL    HW120933   2.323   0.021  15.231  1.2428  0.2405  1.5057
 3099SOL    HW220934   2.302   4.727  15.373 -2.2678 -0.3035  0.9428
 3100SOL     OW20935   3.909   3.768   5.736 -0.1547 -0.7199  0.4025
 3100SOL    HW120936   3.910   3.764   5.831  1.3917  0.7461  0.4447
 3100SOL    HW220937   3.823   3.731   5.718  0.3508 -2.9574  2.6134
 3101SOL     OW20938   2.720   4.390   7.410  0.4641  0.2792  0.3975
 3101SOL    HW120939   2.758   4.305   7.388 -1.5345 -0.7613  0.9484
 3101SOL    HW220940   2.736   4.430   7.325  0.5129  1.1126  0.8027
 3102SOL     OW20941   2.778   2.588   7.076 -0.2696  0.2456  1.1036
 3102SOL    HW120942   2.698   2.552   7.115 -0.5898  0.1016  0.3070
 3102SOL    HW220943   2.739   2.660   7.028 -2.6585 -0.0467  2.5906
 3103SOL     OW20944   0.940   1.284   7.930 -0.0857  0.0110  0.3285
 3103SOL    HW120945   0.974   1.373   7.922  0.8409 -0.3533  0.1406
 3103SOL    HW220946   0.985   1.248   7.853 -0.7280 -1.2599  0.5557
 3104SOL     OW20947   4.259   0.405   8.118 -0.6641  0.0531  0.3141
 3104SOL    HW120948   4.207   0.331   8.087  1.9623 -0.5885 -2.5774
 3104SOL    HW220949   4.215   0.422   8.201 -0.3225  2.1834  0.0682
 3105SOL     OW20950   0.998   4.602  14.266  0.2787 -0.6567 -0.3953
 3105SOL    HW120951   0.915   4.641  14.292  0.7454 -0.5614  0.9099
 3105SOL    HW220952   0.985   4.509  14.282 -0.9267 -0.8105 -2.1950
 3106SOL     OW20953   3.873   0.144   8.151  0.1971 -0.1999  0.2893
 3106SOL    HW120954   3.940   0.079   8.173  0.7669 -0.2276 -1.5213
 3106SOL    HW220955   3.829   0.155   8.236  2.0670 -0.3752  1.2827
 3107SOL     OW20956   2.870   0.338  14.463  0.7303 -0.2549  0.5480
 3107SOL    HW120957   2.829   0.321  14.378 -1.6944  1.9056  1.2928
 3107SOL    HW220958   2.809   0.408  14.486 -2.2621 -2.6599 -0.1094
 3108SOL     OW20959   0.716   3.219   2.373 -0.2108  0.4674 -0.7054
 3108SOL    HW120960   0.708   3.142   2.430 -0.0219  0.0814 -1.2087
 3108SOL    HW220961   0.631   3.209   2.330 -1.8118  0.0707  2.5280
 3109SOL     OW20962   0.698   2.099   3.403 -0.4491  0.3205 -0.2045
 3109SOL    HW120963   0.715   2.171   3.342  2.7774  0.2593  0.6295
 3109SOL    HW220964   0.602   2.102   3.408 -0.5127 -0.6873 -0.7705
 3110SOL     OW20965   3.684   2.942   5.822  0.2983 -0.3285 -0.4158
 3110SOL    HW120966   3.619   3.011   5.831 -0.6511 -1.1562 -0.9621
 3110SOL    HW220967   3.641   2.890   5.754  0.2241  1.6699 -1.8884
 3111SOL     OW20968   0.835   2.786   8.929 -0.2094  0.1011 -0.5807
 3111SOL    HW120969   0.831   2.879   8.953 -1.3766  0.0455 -0.5810
 3111SOL    HW220970   0.826   2.787   8.834  2.3088 -1.4765 -0.8453
 3112SOL     OW20971   4.006   1.916   2.926 -0.3697  0.0587 -0.0482
 3112SOL    HW120972   3.952   1.839   2.947 -0.3998  0.2058  0.3961
 3112SOL    HW220973   4.042   1.928   3.014  1.4018  0.3657 -0.8114
 3113SOL     OW20974   4.546   3.083  15.953 -0.0968  0.0529  0.4782
 3113SOL    HW120975   4.567   3.025  15.880  1.3121  1.3136 -0.1388
 3113SOL    HW220976   4.503   3.157  15.910  0.5650  0.8108  1.1166
 3114SOL     OW20977   0.082   2.496   7.344 -0.1564 -0.3024  0.0412
 3114SOL    HW120978   0.065   2.415   7.392 -0.2591  0.3617  1.1454
 3114SOL    HW220979   0.167   2.481   7.305 -0.0627  1.5864 -0.5146
 3115SOL     OW20980   3.113   2.884  13.822 -0.0851  0.0793  0.9654
 3115SOL    HW120981   3.077   2.971  13.805 -1.4345 -1.0402 -1.8462
 3115SOL    HW220982   3.034   2.835  13.799  0.0244 -0.6138  2.0830
 3116SOL     OW20983   3.050   2.588   2.341  0.6879 -0.4921  0.2970
 3116SOL    HW120984   3.145   2.599   2.345  0.4322  0.9563  2.2263
 3116SOL    HW220985   3.035   2.547   2.426 -0.6168 -1.4990 -0.4098
 3117SOL     OW20986   4.682   2.922   2.424  0.5547 -0.0295  0.0464
 3117SOL    HW120987   4.693   2.908   2.518  1.1369  0.2909  0.0231
 3117SOL    HW220988   0.034   2.910   2.393  1.1580  2.5328  0.8535
 3118SOL     OW20989   3.794   0.800   0.307 -0.2471  0.0678 -0.4121
 3118SOL    HW120990   3.715   0.780   0.256  1.8629  1.9791 -4.3899
 3118SOL    HW220991   3.774   0.790   0.401  0.3988 -0.5221 -0.3377
 3119SOL     OW20992   0.274   0.022   4.092  0.6523 -0.1190 -0.4092
 3119SOL    HW120993   0.250   4.672   4.120  1.6261 -0.5634 -0.9664
 3119SOL    HW220994   0.234   0.006   4.006  1.2165  1.6822 -1.0198
 3120SOL     OW20995   1.739   1.057   1.322  0.1922  0.3494 -0.3152
 3120SOL    HW120996   1.774   0.991   1.380 -2.1758  0.2809  1.0086
 3120SOL    HW220997   1.681   1.111   1.376 -0.0584 -0.2869  0.0448
 3121SOL     OW20998   2.797   4.212   1.263  0.6707 -0.3857  0.3274
 3121SOL    HW120999   2.715   4.257   1.242  1.3017  0.6092 -0.0286
 3121SOL    HW221000   2.769   4.137   1.315 -1.6328  0.0273 -0.3268
 3122SOL     OW21001   2.357   1.893   3.407  0.3625  0.3802 -0.3192
 3122SOL    HW121002   2.330   1.907   3.498 -2.9474  1.0183 -1.3820
 3122SOL    HW221003   2.269   1.883   3.371 -0.0848  0.1765  0.8184
 3123SOL     OW21004   1.253   3.384  16.257 -0.3126 -0.3095  0.6363
 3123SOL    HW121005   1.221   3.403  16.169  2.2720  0.8966 -0.0423
 3123SOL    HW221006   1.225   3.465  16.299  2.2073  0.2356  1.2633
 3124SOL     OW21007   0.559   0.492   9.507  0.0504  0.3737  0.1193
 3124SOL    HW121008   0.499   0.421   9.533 -2.1807  1.6040 -1.6647
 3124SOL    HW221009   0.558   0.546   9.586 -1.0662 -1.6382  1.4955
 3125SOL     OW21010   2.800   2.003  14.040  0.1853  0.4309 -0.2579
 3125SOL    HW121011   2.750   1.925  14.063 -1.7993  1.9875  0.6986
 3125SOL    HW221012   2.827   2.028  14.128 -0.0140 -2.1143  0.5240
 3126SOL     OW21013   1.059   3.355  13.500  0.2895 -0.4778 -0.0799
 3126SOL    HW121014   1.144   3.385  13.468 -0.1133  2.4846  1.6385
 3126SOL    HW221015   1.026   3.300  13.428  0.2346  1.7829 -1.7707
 3127SOL     OW21016   1.395   3.818   4.885  0.1251  0.7952  0.1711
 3127SOL    HW121017   1.356   3.734   4.858 -0.1042  0.2500  2.2400
 3127SOL    HW221018   1.317   3.871   4.899  0.1790  1.6035 -2.5941
 3128SOL     OW21019   1.600   2.224   5.980 -0.0761  0.4244  0.3359
 3128SOL    HW121020   1.662   2.215   6.052  1.5994 -0.6813 -1.2502
 3128SOL    HW221021   1.545   2.295   6.013 -0.7307  0.0651  0.0141
 3129SOL     OW21022   0.321   3.725  15.416 -0.3107 -0.3279 -0.9384
 3129SOL    HW121023   0.244   3.689  15.373 -1.2527  2.6960 -1.7508
 3129SOL    HW221024   0.374   3.749  15.340  0.4146  1.4283  0.1387
 3130SOL     OW21025   1.769   1.797   3.862  0.1557  0.3138  0.7207
 3130SOL    HW121026   1.749   1.703   3.858 -1.4454  0.6464  0.8449
 3130SOL    HW221027   1.858   1.786   3.896  0.4349  0.1071 -0.0908
 3131SOL     OW21028   3.810   1.294   2.739 -0.5706 -0.4162  0.0132
 3131SOL    HW121029   3.867   1.224   2.772 -1.5844 -1.0819  0.3632
 3131SOL    HW221030   3.842   1.290   2.649  3.9417 -0.0786  1.5979
 3132SOL     OW21031   1.855   2.203  15.406 -0.2633 -0.1562  0.6913
 3132SOL    HW121032   1.786   2.167  15.349 -0.7253  0.3906  0.9100
 3132SOL    HW221033   1.830   2.177  15.495 -1.8226 -0.4670  0.1744
 3133SOL     OW21034   0.773   2.090  13.657  0.3458 -0.6065 -0.3825
 3133SOL    HW121035   0.752   2.169  13.706 -0.3890 -1.1820  0.2479
 3133SOL    HW221036   0.856   2.121  13.621  0.9190 -1.2688  0.3389
 3134SOL     OW21037   3.356   2.575   5.306 -0.1735 -0.4403  0.1270
 3134SOL    HW121038   3.415   2.628   5.360  2.5215  0.8639 -4.0622
 3134SOL    HW221039   3.281   2.559   5.363 -0.0752  1.6337  0.8213
 3135SOL     OW21040   1.618   3.484   6.330  0.1842  0.3383 -0.4499
 3135SOL    HW121041   1.706   3.499   6.365 -0.5377 -0.8415  1.8306
 3135SOL    HW221042   1.574   3.434   6.398  1.5156  1.3569  1.1832
 3136SOL     OW21043   3.253   2.036   4.115 -0.2970 -0.0186 -0.1374
 3136SOL    HW121044   3.173   2.028   4.167  0.6303 -2.2663  0.9547
 3136SOL    HW221045   3.302   2.103   4.164 -0.1139  0.4970 -1.0206
 3137SOL     OW21046   4.058   2.585   5.033 -0.4534  0.1691  0.0245
 3137SOL    HW121047   4.054   2.593   4.938 -0.9056  0.4951  0.0687
 3137SOL    HW221048   3.988   2.646   5.059 -0.8821  0.1380 -1.0493
 3138SOL     OW21049   4.494   3.018   7.549  0.0564 -0.0850 -0.3443
 3138SOL    HW121050   4.521   2.929   7.572  1.4455  0.2282 -0.7768
 3138SOL    HW221051   4.554   3.071   7.601 -1.5486  0.1712  1.2626
 3139SOL     OW21052   0.668   3.985  13.305 -0.1810 -0.3690 -0.1945
 3139SOL    HW121053   0.640   4.013  13.393 -1.0793  0.9180 -0.8970
 3139SOL    HW221054   0.695   3.896  13.326 -0.5426  0.1431  2.4787
 3140SOL     OW21055   4.127   0.170   7.171 -0.1218  0.2527  0.2571
 3140SOL    HW121056   4.070   0.231   7.218  0.1775  1.2638 -0.6979
 3140SOL    HW221057   4.216   0.198   7.194 -0.4555  0.7627  0.9275
 3141SOL     OW21058   4.064   0.965  12.936  0.4222 -0.3349  0.1007
 3141SOL    HW121059   4.002   0.919  12.994 -0.2492  0.5202  0.0614
 3141SOL    HW221060   4.092   0.886  12.889 -1.3467 -0.6300 -0.4569
 3142SOL     OW21061   0.948   0.109   7.384  0.0126  0.1142  0.0922
 3142SOL    HW121062   0.853   0.104   7.390  0.0560 -0.4625  0.2839
 3142SOL    HW221063   0.960   0.193   7.429 -2.2524  0.1393  0.6475
 3143SOL     OW21064   0.992   4.422  11.570  0.2556 -0.0009  0.3794
 3143SOL    HW121065   1.087   4.431  11.583  0.5980 -0.1863 -2.1066
 3143SOL    HW221066   0.988   4.327  11.577 -1.9797 -0.0305 -1.6418
 3144SOL     OW21067   0.185   3.658   3.102  0.1522  0.1530 -0.8599
 3144SOL    HW121068   0.091   3.644   3.090  0.2921 -1.2780 -0.1552
 3144SOL    HW221069   0.223   3.574   3.079 -0.7205 -0.2196 -0.9291
 3145SOL     OW21070   0.947   2.905   7.593 -0.3563 -0.2453 -0.3254
 3145SOL    HW121071   1.038   2.907   7.562 -0.1562  2.4454  0.4439
 3145SOL    HW221072   0.950   2.926   7.686  0.9267 -1.4026 -0.0978
 3146SOL     OW21073   3.413   4.259   8.143  0.1904 -0.2429 -0.4779
 3146SOL    HW121074   3.348   4.306   8.196  0.8889  2.1325 -1.7569
 3146SOL    HW221075   3.488   4.317   8.131  0.5508  0.0835  3.2279
 3147SOL     OW21076   3.555   2.137  16.844 -0.5971 -0.0325  0.0791
 3147SOL    HW121077   3.605   2.074  16.791 -1.4291  0.0623 -0.8254
 3147SOL    HW221078   3.548   2.212  16.785  0.8721  1.2445  1.5386
 3148SOL     OW21079   4.711   0.595  16.247  0.3563  0.3872 -0.2389
 3148SOL    HW121080   4.723   0.540  16.325 -0.7412 -0.1933 -0.4747
 3148SOL    HW221081   4.731   0.535  16.176  0.2084  0.1834 -0.1114
 3149SOL     OW21082   3.062   2.023   5.093  0.5700 -0.3684 -0.4391
 3149SOL    HW121083   2.969   2.030   5.113  0.6456  0.6314 -0.4333
 3149SOL    HW221084   3.051   1.980   5.008 -1.3110  2.2820 -1.5238
 3150SOL     OW21085   2.057   2.502  14.809  0.3722  0.2626 -0.1419
 3150SOL    HW121086   2.147   2.481  14.834  0.3210  1.2076  0.8169
 3150SOL    HW221087   2.008   2.421  14.821  1.2156 -0.1147  0.7252
 3151SOL     OW21088   4.320   3.090   1.802 -0.1978 -0.2859  0.2957
 3151SOL    HW121089   4.386   3.066   1.736  1.6138  2.8091  0.9779
 3151SOL    HW221090   4.382   3.132   1.861 -0.7514  0.2904  0.4584
 3152SOL     OW21091   0.486   0.944   7.670  0.0312 -0.0068 -0.1373
 3152SOL    HW121092   0.509   0.882   7.740  2.1355 -0.7251 -1.4712
 3152SOL    HW221093   0.418   0.994   7.715  1.7658  3.0462 -0.9257
 3153SOL     OW21094   0.112   0.298   3.929 -0.3938  0.1134 -0.2327
 3153SOL    HW121095   0.042   0.356   3.899 -0.5018  0.7100  1.1785
 3153SOL    HW221096   0.051   0.225   3.937 -2.8429  2.2182  0.1434
 3154SOL     OW21097   3.511   2.763  15.403 -0.3732  0.1776  0.4986
 3154SOL    HW121098   3.551   2.742  15.488 -0.8338 -0.5671  0.5295
 3154SOL    HW221099   3.470   2.844  15.434 -4.4307 -2.0680  0.9751
 3155SOL     OW21100   2.479   1.065  12.279 -0.6580  0.3247 -0.2624
 3155SOL    HW121101   2.549   1.129  12.291  0.1368 -0.4394 -0.7671
 3155SOL    HW221102   2.425   1.094  12.353  0.6359 -2.6465  1.8354
 3156SOL     OW21103   4.030   2.635  12.865 -0.2267 -0.5982  0.2171
 3156SOL    HW121104   4.066   2.687  12.794  1.2367 -3.1847 -0.9508
 3156SOL    HW221105   4.080   2.664  12.941  2.2743  0.7253 -1.9425
 3157SOL     OW21106   3.448   0.735   3.312  0.2661  0.0106  0.2385
 3157SOL    HW121107   3.417   0.795   3.379 -2.4498 -0.9326 -0.1592
 3157SOL    HW221108   3.539   0.762   3.299  0.5667 -0.8983  0.4211
 3158SOL     OW21109   2.016   1.042   6.101  0.6621 -0.3193 -0.2060
 3158SOL    HW121110   1.937   1.082   6.137 -0.4360 -1.5137 -1.2476
 3158SOL    HW221111   1.985   0.954   6.078  1.2045 -0.7930  0.8767
 3159SOL     OW21112   0.316   3.804   2.634 -0.7668  0.0231  0.4302
 3159SOL    HW121113   0.304   3.821   2.727  0.8960  3.9463 -0.0365
 3159SOL    HW221114   0.282   3.715   2.633 -2.6159  0.7458  0.0251
 3160SOL     OW21115   2.253   2.560   9.441 -0.0972  0.6321 -0.0963
 3160SOL    HW121116   2.295   2.474   9.429  0.2380  0.5855  1.5267
 3160SOL    HW221117   2.329   2.617   9.429  0.3183  0.1583  0.2876
 3161SOL     OW21118   4.569   0.842  11.368  0.2037 -0.0212  0.2176
 3161SOL    HW121119   4.616   0.877  11.444  0.2834  0.2868  0.0271
 3161SOL    HW221120   4.538   0.755  11.393 -0.2568 -0.0303 -0.4102
 3162SOL     OW21121   0.096   4.730   5.498 -0.3096  0.1624 -0.3897
 3162SOL    HW121122   0.118   0.059   5.433 -4.1359  0.8716 -0.9144
 3162SOL    HW221123   0.129   0.038   5.575 -1.5357 -1.0146  0.8424
 3163SOL     OW21124   0.404   1.487   3.011  0.3525  0.1539 -0.4977
 3163SOL    HW121125   0.446   1.548   3.072  1.2298 -0.3019 -0.6536
 3163SOL    HW221126   0.456   1.407   3.010 -0.8998 -0.6954  1.5281
 3164SOL     OW21127   2.608   0.288   3.707 -0.1450 -0.1789  0.1200
 3164SOL    HW121128   2.545   0.326   3.645 -1.5793  0.7525  2.1450
 3164SOL    HW221129   2.693   0.320   3.677 -0.2041 -1.2370 -1.1951
 3165SOL     OW21130   3.520   4.270   2.167  0.4993  0.0290  0.4668
 3165SOL    HW121131   3.476   4.245   2.086  0.2071  0.7472  0.4049
 3165SOL    HW221132   3.440   4.283   2.218  0.8711 -1.4840  1.4408
 3166SOL     OW21133   0.784   2.421   3.923 -0.3589 -0.2903 -0.5177
 3166SOL    HW121134   0.794   2.401   4.016  0.6450  0.2255 -0.5087
 3166SOL    HW221135   0.711   2.363   3.901  0.4119 -1.5577  0.2650
 3167SOL     OW21136   2.308   1.475   3.363 -0.2482 -0.4872 -0.3457
 3167SOL    HW121137   2.313   1.392   3.410  0.3046 -0.9735 -1.2707
 3167SOL    HW221138   2.262   1.442   3.286  0.7856 -1.8445 -0.3699
 3168SOL     OW21139   1.132   4.361   4.332 -0.2901 -0.0629  0.8581
 3168SOL    HW121140   1.139   4.454   4.312 -0.2486  0.7685  4.6654
 3168SOL    HW221141   1.194   4.350   4.404 -0.9290  0.3837  1.4844
 3169SOL     OW21142   4.500   2.222   5.488 -0.1012  0.5272  0.1917
 3169SOL    HW121143   4.461   2.206   5.402  1.1477 -2.1215  0.1194
 3169SOL    HW221144   4.448   2.182   5.557 -1.3566 -0.7919 -1.5366
 3170SOL     OW21145   2.971   3.150  15.421  0.0237 -0.3886 -0.1214
 3170SOL    HW121146   3.037   3.100  15.373 -1.3795 -0.8614 -1.5736
 3170SOL    HW221147   3.008   3.178  15.505  0.7657  0.0565 -0.6000
 3171SOL     OW21148   3.862   1.730   2.315  0.3762  0.1425 -0.0571
 3171SOL    HW121149   3.819   1.655   2.275 -0.0674  0.3517  0.0357
 3171SOL    HW221150   3.836   1.809   2.269  0.2219  0.1136 -0.0180
 3172SOL     OW21151   4.439   0.026   6.212 -0.1372 -0.2211 -0.0042
 3172SOL    HW121152   4.378   0.095   6.238 -0.0034 -0.0732 -0.0828
 3172SOL    HW221153   4.419   4.681   6.257  2.7939 -0.6020  0.5741
 3173SOL     OW21154   3.596   2.768  13.960 -0.1050  0.4872  0.0215
 3173SOL    HW121155   3.639   2.798  13.879 -0.2851  1.9264  0.4599
 3173SOL    HW221156   3.510   2.808  13.961  0.2106  1.1432  0.9461
 3174SOL     OW21157   0.230   0.966  11.827 -0.0631  0.4344 -0.7004
 3174SOL    HW121158   0.215   0.921  11.911  1.2505 -0.9964 -1.2260
 3174SOL    HW221159   0.240   0.886  11.776  0.2672  1.0732 -1.6244
 3175SOL     OW21160   1.795   2.312   7.376  0.4291 -0.1388  0.1681
 3175SOL    HW121161   1.827   2.224   7.397 -1.9439 -0.9795  0.3161
 3175SOL    HW221162   1.757   2.344   7.458  0.0350 -1.0735  0.3476
 3176SOL     OW21163   0.602   1.285   0.848  0.5313 -0.1246  0.0557
 3176SOL    HW121164   0.606   1.315   0.939  3.8203 -0.7973  0.1511
 3176SOL    HW221165   0.511   1.256   0.842  0.7395 -0.7519 -0.1663
 3177SOL     OW21166   1.046   4.226   7.554  0.1023 -0.4223  0.1504
 3177SOL    HW121167   0.958   4.248   7.526  0.4822  2.2821  1.1098
 3177SOL    HW221168   1.100   4.302   7.531  0.0401 -0.0405  1.2793
 3178SOL     OW21169   4.382   3.521   7.247 -0.3423 -0.5854 -0.1791
 3178SOL    HW121170   4.423   3.435   7.249  0.7895 -0.0962 -2.1995
 3178SOL    HW221171   4.321   3.494   7.178  2.1075  0.3695 -2.7148
 3179SOL     OW21172   3.616   1.103   5.778  0.6429  0.0152  0.0549
 3179SOL    HW121173   3.610   1.195   5.751  3.0587 -0.2806 -1.3953
 3179SOL    HW221174   3.641   1.059   5.697  0.2182  0.7969 -0.5109
 3180SOL     OW21175   2.930   1.042  12.433 -0.1973 -0.2115 -0.8577
 3180SOL    HW121176   2.996   1.072  12.370  0.7739  1.8305  1.1484
 3180SOL    HW221177   2.871   0.985  12.383  2.6767 -1.8102 -2.4254
 3181SOL     OW21178   2.901   1.449   7.646 -0.5995 -0.1930  0.2168
 3181SOL    HW121179   2.996   1.441   7.635 -0.7032  2.2822 -2.2212
 3181SOL    HW221180   2.898   1.509   7.721  0.6610 -0.3252  0.3881
 3182SOL     OW21181   2.421   0.704   9.370  0.3419 -0.0329  0.0996
 3182SOL    HW121182   2.404   0.709   9.464  0.9515 -2.4619  0.3351
 3182SOL    HW221183   2.506   0.661   9.373  0.1387 -0.4907 -0.7103
 3183SOL     OW21184   1.363   3.567   6.200  0.8652 -0.0640  0.6094
 3183SOL    HW121185   1.448   3.552   6.242  0.4393 -0.5173  1.3114
 3183SOL    HW221186   1.345   3.485   6.154  0.0253 -0.3668  1.4814
 3184SOL     OW21187   1.904   0.051   2.927  0.4048  0.5285 -0.1437
 3184SOL    HW121188   1.858   4.705   2.931  1.1026  0.0886 -1.5016
 3184SOL    HW221189   1.839   0.121   2.932  2.7363  2.5986  1.2965
 3185SOL     OW21190   3.448   1.133  13.595 -0.0435  0.2323 -0.2639
 3185SOL    HW121191   3.392   1.198  13.637  0.3646 -0.3663  1.1950
 3185SOL    HW221192   3.383   1.086  13.543 -1.0463  1.3229  0.0204
 3186SOL     OW21193   4.546   3.236   1.509  0.0320 -0.1902 -0.7517
 3186SOL    HW121194   4.548   3.291   1.588 -0.3616 -0.5304 -0.5059
 3186SOL    HW221195   4.533   3.150   1.549 -0.1604  0.9417  1.6652
 3187SOL     OW21196   2.062   3.140   3.776 -0.3722 -0.2369 -0.0442
 3187SOL    HW121197   2.138   3.190   3.807 -0.8328  0.2740  0.2531
 3187SOL    HW221198   2.017   3.196   3.713  0.0637  1.5687  1.2327
 3188SOL     OW21199   3.568   3.273   3.058  0.2874  0.2045 -0.2934
 3188SOL    HW121200   3.530   3.187   3.076 -1.6315  0.4653 -2.9400
 3188SOL    HW221201   3.638   3.242   3.001  0.9395 -2.5544  2.0576
 3189SOL     OW21202   1.671   0.592  14.298 -0.1217 -0.2543  0.0210
 3189SOL    HW121203   1.751   0.584  14.351 -0.2466  4.1993  0.8921
 3189SOL    HW221204   1.703   0.573  14.210  2.3591  0.9427  0.6696
 3190SOL     OW21205   0.912   4.468   7.911  0.4538  0.6543  0.1249
 3190SOL    HW121206   0.926   4.550   7.958 -0.6761  1.1140 -0.3349
 3190SOL    HW221207   0.879   4.420   7.988 -2.2945 -0.8424 -1.9667
 3191SOL     OW21208   2.197   0.429   8.683  0.1150  0.1501 -0.0884
 3191SOL    HW121209   2.203   0.482   8.604  2.8607  0.6216  0.4334
 3191SOL    HW221210   2.136   0.484   8.733  1.5860  1.9804 -0.3358
 3192SOL     OW21211   1.634   2.059  10.206  0.2538 -0.5513  0.0262
 3192SOL    HW121212   1.702   2.107  10.253  0.1449 -2.2401  1.9223
 3192SOL    HW221213   1.679   2.002  10.144  1.0867  0.6146 -0.4321
 3193SOL     OW21214   2.170   0.931   5.645  0.1995 -0.1818 -0.0002
 3193SOL    HW121215   2.246   0.952   5.590  0.5568 -1.9142 -0.1594
 3193SOL    HW221216   2.139   1.013   5.682  0.7728 -0.0675  0.2327
 3194SOL     OW21217   4.428   1.380   4.750  0.5507 -0.0604  0.2364
 3194SOL    HW121218   4.511   1.370   4.796 -0.7416  0.1792  2.6478
 3194SOL    HW221219   4.437   1.316   4.679 -1.9177 -0.5924  0.3839
 3195SOL     OW21220   1.196   0.724   3.519 -0.3256 -0.1117  0.1765
 3195SOL    HW121221   1.272   0.673   3.548 -0.6988 -2.2366 -2.6171
 3195SOL    HW221222   1.198   0.788   3.591 -0.9516 -1.6432  1.5476
 3196SOL     OW21223   1.738   4.535  14.573 -0.3922  0.0474  0.6552
 3196SOL    HW121224   1.823   4.572  14.599 -0.6363 -1.1521  3.1934
 3196SOL    HW221225   1.730   4.467  14.640 -0.4348 -0.6387 -0.0474
 3197SOL     OW21226   3.273   4.684  14.591 -0.5231 -0.2829  0.4004
 3197SOL    HW121227   3.261   4.733  14.672  0.5989 -0.0475  0.4334
 3197SOL    HW221228   3.204   4.732  14.544  0.1490  0.4127  0.1204
 3198SOL     OW21229   1.742   2.797   8.633 -0.0128 -0.5885  0.4340
 3198SOL    HW121230   1.829   2.813   8.596  0.1103 -2.4287 -0.0960
 3198SOL    HW221231   1.749   2.732   8.703 -2.2652 -1.5793 -0.2619
 3199SOL     OW21232   3.317   4.314  12.248 -0.1580 -0.4568  0.4536
 3199SOL    HW121233   3.308   4.394  12.300 -2.4829 -0.6686  0.4036
 3199SOL    HW221234   3.278   4.248  12.306  0.0024  0.7096  1.8851
 3200SOL     OW21235   1.615   2.759   4.941  0.5515 -0.1681  0.0340
 3200SOL    HW121236   1.532   2.806   4.935  1.0151  0.7507  0.8523
 3200SOL    HW221237   1.676   2.833   4.940 -1.2981  1.4066  2.6289
 3201SOL     OW21238   2.773   4.691  13.599 -0.2375  0.2124  0.5100
 3201SOL    HW121239   2.815   0.026  13.646  0.6843  0.1775 -0.2771
 3201SOL    HW221240   2.685   4.729  13.604 -0.7707 -0.7425 -1.8409
 3202SOL     OW21241   1.148   3.746   8.351 -0.9373  0.1469  0.2244
 3202SOL    HW121242   1.122   3.663   8.310 -1.6900  0.5920 -0.1886
 3202SOL    HW221243   1.242   3.730   8.363 -1.3286 -0.5497  2.3278
 3203SOL     OW21244   2.320   0.190   8.422 -0.0093 -0.2868  0.6410
 3203SOL    HW121245   2.225   0.178   8.424 -0.1060  0.5219  0.7164
 3203SOL    HW221246   2.339   0.211   8.331 -1.7329  0.9881  0.5831
 3204SOL     OW21247   0.101   3.794   1.999  0.1481  0.1054  0.2967
 3204SOL    HW121248   0.173   3.794   2.062 -0.9892 -1.3959  1.5819
 3204SOL    HW221249   0.085   3.888   1.995  0.2223  0.2177  2.4204
 3205SOL     OW21250   4.617   0.145   3.972 -0.5068  0.2008 -0.2658
 3205SOL    HW121251   4.606   0.129   3.878  2.4631 -0.1713 -0.5574
 3205SOL    HW221252   4.617   0.054   4.001  0.0847 -0.5031 -2.4504
 3206SOL     OW21253   0.163   3.460   7.031  0.1230  0.0096  0.4891
 3206SOL    HW121254   0.119   3.449   7.115  0.2384 -0.7344  0.4531
 3206SOL    HW221255   0.186   3.553   7.035 -2.2979  0.7724 -2.7223
 3207SOL     OW21256   1.653   0.748   6.939  0.1956  0.2168 -0.4988
 3207SOL    HW121257   1.652   0.842   6.956 -0.1138 -0.2125  1.8575
 3207SOL    HW221258   1.746   0.733   6.918  0.5493  1.2756  0.2699
 3208SOL     OW21259   2.024   3.398   2.999 -0.3888  0.2391 -0.1220
 3208SOL    HW121260   2.028   3.437   3.087  0.1256 -0.1108  0.0085
 3208SOL    HW221261   1.954   3.452   2.961 -3.0123 -1.0330  2.8475
 3209SOL     OW21262   0.263   3.703   7.482 -0.0207  0.2324 -0.6573
 3209SOL    HW121263   0.354   3.675   7.474 -0.1570 -0.8920  1.7129
 3209SOL    HW221264   0.276   3.798   7.483  1.2423  0.0562 -0.0903
 3210SOL     OW21265   2.896   1.491   2.666 -0.5503 -0.8447 -0.1804
 3210SOL    HW121266   2.945   1.436   2.727  0.4257  0.1883 -0.0252
 3210SOL    HW221267   2.809   1.474   2.703 -0.0529  0.7508  1.7129
 3211SOL     OW21268   2.885   2.287   6.897  0.1168  0.3521 -0.0532
 3211SOL    HW121269   2.934   2.223   6.949  1.3030  0.0924 -1.4835
 3211SOL    HW221270   2.925   2.370   6.925  0.7284  0.6407 -1.7455
 3212SOL     OW21271   1.361   2.715  12.007 -0.1251  0.7232  0.8977
 3212SOL    HW121272   1.287   2.758  11.964 -1.4350  0.8936  3.3157
 3212SOL    HW221273   1.437   2.758  11.968  0.2005 -1.2102 -0.6064
 3213SOL     OW21274   0.138   3.296  12.486 -0.4834 -0.2507  0.0207
 3213SOL    HW121275   0.047   3.303  12.513 -0.4068 -0.0679  0.2278
 3213SOL    HW221276   0.168   3.386  12.471 -0.1251 -0.0581  1.8680
 3214SOL     OW21277   0.657   4.289  15.646 -0.2352  0.0085  0.0625
 3214SOL    HW121278   0.568   4.279  15.613 -0.8325 -0.2891  1.7818
 3214SOL    HW221279   0.708   4.269  15.567 -1.3720  1.0787 -0.9328
 3215SOL     OW21280   1.980   2.331  16.917 -0.1526 -0.7150  0.5772
 3215SOL    HW121281   1.897   2.282  16.916 -0.7545  0.3277 -0.7777
 3215SOL    HW221282   1.980   2.366  17.005  3.1941 -0.8981  0.6686
 3216SOL     OW21283   4.089   1.133  14.350 -0.5402 -0.3025  0.0914
 3216SOL    HW121284   4.114   1.129  14.442 -1.4192  1.2618  0.4027
 3216SOL    HW221285   4.126   1.219  14.326 -1.0999  0.2920  1.3673
 3217SOL     OW21286   0.073   3.723  11.972  0.1915 -0.6909  0.0983
 3217SOL    HW121287   0.057   3.633  11.942 -0.0672 -1.5382  2.7799
 3217SOL    HW221288   0.159   3.740  11.934  0.1381 -0.5159  0.0567
 3218SOL     OW21289   4.581   4.068  16.615  0.3441 -0.3760  0.4381
 3218SOL    HW121290   4.660   4.085  16.564 -0.0373 -2.5073 -0.8705
 3218SOL    HW221291   4.560   4.158  16.640 -1.3850 -0.5507 -0.3377
 3219SOL     OW21292   0.882   3.887   0.979 -0.3668  0.5716 -0.4035
 3219SOL    HW121293   0.891   3.884   0.884  3.1530 -1.6008 -0.0217
 3219SOL    HW221294   0.804   3.833   0.991 -0.1700  0.6008  1.0296
 3220SOL     OW21295   4.223   0.981   8.760  0.1475 -0.0660  0.0387
 3220SOL    HW121296   4.227   0.951   8.669 -1.0778  1.1056 -0.4028
 3220SOL    HW221297   4.311   0.955   8.788 -0.1326 -0.6508  0.3705
 3221SOL     OW21298   4.186   2.901   5.518 -0.1434  0.3476  0.5144
 3221SOL    HW121299   4.098   2.865   5.519  0.0943 -0.2479 -0.0113
 3221SOL    HW221300   4.219   2.874   5.603  1.6427  1.8738  0.3254
 3222SOL     OW21301   4.197   3.619   9.848  0.4550 -0.4057  0.5462
 3222SOL    HW121302   4.159   3.532   9.850 -0.6019  0.0269 -1.0528
 3222SOL    HW221303   4.153   3.653   9.926  0.7896 -2.2526  1.5587
 3223SOL     OW21304   0.803   3.262  11.066  0.8848  0.3320 -0.5414
 3223SOL    HW121305   0.893   3.267  11.034  0.6656 -0.3429 -1.2538
 3223SOL    HW221306   0.783   3.344  11.112  0.9720  0.0421  0.0166
 3224SOL     OW21307   4.018   1.371   6.617 -0.4352  0.1345 -0.2689
 3224SOL    HW121308   3.943   1.404   6.568 -0.9210 -1.7346 -0.7617
 3224SOL    HW221309   4.091   1.413   6.571 -0.0415 -0.6547 -0.3733
 3225SOL     OW21310   2.369   1.119   7.402  0.0215 -0.1011 -0.0207
 3225SOL    HW121311   2.370   1.194   7.461 -0.2887  0.2839 -0.5056
 3225SOL    HW221312   2.287   1.126   7.353  0.1100  0.1982 -0.1252
 3226SOL     OW21313   3.790   4.559   8.790 -0.1179 -0.1284  0.7669
 3226SOL    HW121314   3.724   4.525   8.850  0.1555  1.4813  1.9897
 3226SOL    HW221315   3.735   4.624   8.746  0.8480  0.3388  0.2494
 3227SOL     OW21316   1.089   3.180   9.667  0.2177 -0.4671 -0.4124
 3227SOL    HW121317   1.162   3.184   9.606  0.6708 -0.0546  0.1520
 3227SOL    HW221318   1.114   3.107   9.723  0.7633 -0.9385 -1.2777
 3228SOL     OW21319   3.348   0.460   7.456  0.0436  0.4262 -0.4210
 3228SOL    HW121320   3.360   0.461   7.551 -0.2646 -2.5220 -0.3555
 3228SOL    HW221321   3.277   0.398   7.439 -1.5185  1.9329  0.5499
 3229SOL     OW21322   1.486   0.097   9.654 -0.1075  0.2027  0.4307
 3229SOL    HW121323   1.392   0.084   9.670 -0.0897  0.8113  1.0269
 3229SOL    HW221324   1.518   0.018   9.699 -1.3076  1.4945  3.5740
 3230SOL     OW21325   3.420   0.028   1.056 -0.2042  0.0903 -0.0917
 3230SOL    HW121326   3.351   0.077   1.010 -1.3046  1.0136  2.5168
 3230SOL    HW221327   3.496   0.083   1.040 -0.2011 -0.0734 -0.6433
 3231SOL     OW21328   1.438   4.398   9.247 -0.1144  0.2124  0.7061
 3231SOL    HW121329   1.366   4.435   9.195  0.6109  2.1371  1.0729
 3231SOL    HW221330   1.418   4.313   9.209  3.0095  0.0435 -0.4761
 3232SOL     OW21331   0.374   3.357  13.863 -0.2435 -0.0146 -0.3614
 3232SOL    HW121332   0.412   3.338  13.949  1.3768  0.7115 -0.9244
 3232SOL    HW221333   0.284   3.328  13.878  0.0682 -1.1756 -0.7405
 3233SOL     OW21334   0.371   4.609   6.388  0.2989  0.3198  0.2686
 3233SOL    HW121335   0.306   4.554   6.345 -0.2322  1.1676 -0.0174
 3233SOL    HW221336   0.322   4.643   6.463  0.3317  1.6005 -0.2869
 3234SOL     OW21337   0.979   1.013  13.428 -0.6411  0.0957  0.0749
 3234SOL    HW121338   0.988   0.975  13.341  1.0786  2.7330 -0.8962
 3234SOL    HW221339   1.048   0.959  13.466  0.8829 -0.0243 -2.9042
 3235SOL     OW21340   1.696   1.847   4.143  0.5950 -0.9710 -0.4125
 3235SOL    HW121341   1.672   1.869   4.053 -0.5488 -0.1573  0.0833
 3235SOL    HW221342   1.770   1.788   4.130  1.1303 -0.4415  0.1939
 3236SOL     OW21343   1.679   0.243   3.981  0.3583 -0.1281  0.4505
 3236SOL    HW121344   1.617   0.222   4.050  1.1569 -3.1195  0.2541
 3236SOL    HW221345   1.688   0.337   3.994 -0.8161 -0.1590  1.4157
 3237SOL     OW21346   4.101   4.317   7.615  0.2182 -0.2519 -0.6003
 3237SOL    HW121347   4.045   4.347   7.543 -0.5624  0.1671  0.1855
 3237SOL    HW221348   4.162   4.260   7.568  2.0100  1.1620 -0.0137
 3238SOL     OW21349   1.329   1.431   7.310  0.2816 -0.0518 -0.3453
 3238SOL    HW121350   1.246   1.388   7.328 -0.5816  1.5974 -0.4484
 3238SOL    HW221351   1.390   1.366   7.345 -1.8624 -1.8443  0.0350
 3239SOL     OW21352   4.362   0.667  12.881  0.0518  0.3974 -0.0458
 3239SOL    HW121353   4.418   0.744  12.896  1.4933 -1.0295  1.9345
 3239SOL    HW221354   4.380   0.622  12.964  2.5502 -0.5383 -1.1104
 3240SOL     OW21355   2.955   1.588   4.364  0.3872  0.2781  0.4968
 3240SOL    HW121356   2.993   1.645   4.431 -0.6544  1.0128  0.4634
 3240SOL    HW221357   2.997   1.504   4.384  1.4841  0.5200 -0.8008
 3241SOL     OW21358   2.497   1.639   3.480  0.2819  0.5453  0.2669
 3241SOL    HW121359   2.429   1.586   3.439  0.0208 -0.0115  1.4388
 3241SOL    HW221360   2.463   1.728   3.470 -2.3088 -0.2421  2.2695
 3242SOL     OW21361   0.393   3.167   9.601 -0.3692 -0.2249 -0.0597
 3242SOL    HW121362   0.359   3.161   9.690  2.0864  0.9022  0.9393
 3242SOL    HW221363   0.360   3.250   9.567  0.5165 -0.5314 -1.7053
 3243SOL     OW21364   1.707   0.341   4.668 -0.1190  0.6383 -0.2280
 3243SOL    HW121365   1.722   0.253   4.703  1.9039  1.5135  1.1364
 3243SOL    HW221366   1.752   0.339   4.584 -2.6119 -1.5783 -1.4692
 3244SOL     OW21367   3.611   1.282   7.968 -0.2218  0.0415  0.1304
 3244SOL    HW121368   3.609   1.355   7.907 -0.3840  0.6187  0.8324
 3244SOL    HW221369   3.587   1.206   7.915 -0.9765 -0.9278  1.8731
 3245SOL     OW21370   3.094   1.147  10.205 -0.2119  0.3800 -0.6613
 3245SOL    HW121371   3.026   1.138  10.271  0.0229  0.1090 -0.4521
 3245SOL    HW221372   3.106   1.241  10.216  1.3239  0.1487 -0.2245
 3246SOL     OW21373   0.184   0.580   2.442  0.1911 -0.4601 -0.0767
 3246SOL    HW121374   0.205   0.611   2.354  0.0466 -0.3961 -0.0884
 3246SOL    HW221375   0.231   0.644   2.496  3.0129 -2.6523  0.0747
 3247SOL     OW21376   4.106   3.821   2.708  0.0716 -0.3825  0.4622
 3247SOL    HW121377   4.046   3.861   2.645 -1.7741  1.0070  3.1043
 3247SOL    HW221378   4.108   3.888   2.776  0.9915 -1.3884  1.4468
 3248SOL     OW21379   4.296   3.596  11.187 -0.3507 -0.1213 -0.2209
 3248SOL    HW121380   4.298   3.500  11.188  2.4231 -0.0681 -1.1350
 3248SOL    HW221381   4.286   3.618  11.280 -2.2859 -2.7397  0.1900
 3249SOL     OW21382   0.661   4.222  16.795 -0.4043  0.5181  0.1386
 3249SOL    HW121383   0.648   4.207  16.701  1.4192  0.1234 -0.0620
 3249SOL    HW221384   0.756   4.233  16.807 -0.4405 -0.4604  1.2335
 3250SOL     OW21385   3.332   1.040   5.820 -0.0368 -0.2121 -0.2502
 3250SOL    HW121386   3.305   1.124   5.783  1.4502 -0.3907 -1.6894
 3250SOL    HW221387   3.427   1.050   5.816  0.2154 -2.6004 -0.5308
 3251SOL     OW21388   2.312   2.044   8.970  0.1673  0.9043  0.3132
 3251SOL    HW121389   2.340   2.078   8.886  2.0180 -1.9468 -0.2484
 3251SOL    HW221390   2.263   2.118   9.007  0.1097  0.4708  1.1208
 3252SOL     OW21391   3.767   3.026   9.963  0.1461 -0.0858 -0.0998
 3252SOL    HW121392   3.791   2.949   9.913  2.1478  1.1033 -0.9882
 3252SOL    HW221393   3.703   2.982  10.020 -0.5188 -1.8275 -2.1846
 3253SOL     OW21394   0.132   2.933   9.278 -0.3665 -0.2102 -0.2226
 3253SOL    HW121395   0.053   2.887   9.250  0.2909 -0.6580 -1.3771
 3253SOL    HW221396   0.181   2.868   9.329 -0.6319  0.9655  1.5210
 3254SOL     OW21397   3.038   2.005  13.903  0.2465  0.1614  0.4068
 3254SOL    HW121398   2.954   1.988  13.945  0.5195 -2.1155  0.0308
 3254SOL    HW221399   3.097   1.938  13.935 -0.0648 -0.3293 -0.0423
 3255SOL     OW21400   0.185   3.930   9.341 -0.3037  0.0529 -0.1019
 3255SOL    HW121401   0.246   3.952   9.270  0.2502  1.3007  0.7466
 3255SOL    HW221402   0.216   3.978   9.418  2.0681  0.1780 -1.1249
 3256SOL     OW21403   4.552   4.570  16.054  0.2963  0.1652 -0.3115
 3256SOL    HW121404   4.627   4.612  16.012  1.0215 -1.0598 -0.2389
 3256SOL    HW221405   4.564   4.607  16.141  0.4356  1.4851 -0.8812
 3257SOL     OW21406   1.264   2.721  16.819 -0.0032 -0.0369 -0.3282
 3257SOL    HW121407   1.219   2.802  16.847 -0.1549 -0.0935 -0.4081
 3257SOL    HW221408   1.228   2.663  16.886 -0.3448  0.0869 -0.4059
 3258SOL     OW21409   2.541   2.222   3.123  0.3388  0.4460 -0.0712
 3258SOL    HW121410   2.589   2.302   3.145 -0.7744  1.6911 -2.2179
 3258SOL    HW221411   2.537   2.179   3.209 -1.9473 -2.2586 -1.5159
 3259SOL     OW21412   0.578   4.496   7.877 -0.1416 -0.0253  0.1121
 3259SOL    HW121413   0.637   4.422   7.865 -1.0695 -0.8138  0.4258
 3259SOL    HW221414   0.572   4.503   7.782  0.7381  0.3602  0.0826
 3260SOL     OW21415   0.532   1.226   3.067 -0.6657  0.6134  0.2817
 3260SOL    HW121416   0.624   1.239   3.043 -0.2651 -0.3632  1.3117
 3260SOL    HW221417   0.535   1.130   3.072 -2.3113  0.5580  0.0612
 3261SOL     OW21418   3.156   2.155  17.070 -0.4455 -0.0246  0.1359
 3261SOL    HW121419   3.085   2.096  17.093 -1.7021  1.5655  0.3071
 3261SOL    HW221420   3.178   2.114  16.986  1.9057  0.2605  0.5974
 3262SOL     OW21421   2.750   4.599   3.871  0.2477 -0.2058 -0.0123
 3262SOL    HW121422   2.797   4.647   3.939 -0.0796  0.6775 -0.4011
 3262SOL    HW221423   2.667   4.582   3.915  0.5518 -1.4304  0.0782
 3263SOL     OW21424   0.557   1.263   3.371  0.6489  0.1493 -0.0636
 3263SOL    HW121425   0.521   1.299   3.290  1.1166  2.8116  0.9069
 3263SOL    HW221426   0.543   1.331   3.437  0.5322 -0.7191  0.8163
 3264SOL     OW21427   1.969   1.921  10.616  0.3992 -0.4527  0.7094
 3264SOL    HW121428   1.924   1.875  10.687  0.4451 -0.9138  0.4445
 3264SOL    HW221429   2.007   1.990  10.669 -0.1860 -0.9561  1.7791
 3265SOL     OW21430   4.127   1.314   3.380 -0.2023 -0.4415 -0.0462
 3265SOL    HW121431   4.115   1.245   3.446 -2.3436 -0.3484 -0.3376
 3265SOL    HW221432   4.038   1.346   3.367 -0.3013 -0.0909  1.5106
 3266SOL     OW21433   2.246   2.341   3.470  0.3068 -0.1678 -0.2399
 3266SOL    HW121434   2.285   2.358   3.556 -0.9212  2.2073 -0.1570
 3266SOL    HW221435   2.216   2.253   3.493  0.6959 -0.1085  0.4907
 3267SOL     OW21436   1.487   4.552   6.866  1.0913  0.6250  0.1734
 3267SOL    HW121437   1.430   4.528   6.939  1.1234 -0.0615 -0.0323
 3267SOL    HW221438   1.432   4.580   6.793  2.7876 -1.4027 -1.8847
 3268SOL     OW21439   1.147   3.194   3.282 -0.3607 -0.0663  0.6358
 3268SOL    HW121440   1.184   3.253   3.216  1.1368 -0.8943  0.7326
 3268SOL    HW221441   1.053   3.190   3.268 -0.0856 -0.1343 -1.2282
 3269SOL     OW21442   0.175   3.878   6.138 -0.7905  0.0897 -0.0550
 3269SOL    HW121443   0.174   3.954   6.080  0.5673  0.1717  0.0336
 3269SOL    HW221444   0.194   3.815   6.069  0.0642 -2.0586  2.1645
 3270SOL     OW21445   2.372   2.503   4.832 -0.3400  0.3749 -0.2955
 3270SOL    HW121446   2.310   2.501   4.759 -1.2491 -0.2834  0.5054
 3270SOL    HW221447   2.407   2.418   4.804 -0.9632 -0.1942  0.6547
 3271SOL     OW21448   2.444   1.518   2.985  0.0969  0.2336 -0.3307
 3271SOL    HW121449   2.458   1.563   3.069 -1.0622  2.1721 -1.1704
 3271SOL    HW221450   2.359   1.555   2.962  0.8281  2.2422  0.1321
 3272SOL     OW21451   0.272   1.137  17.707 -0.1884  0.3845 -0.5297
 3272SOL    HW121452   0.294   1.152   0.050 -0.8290  0.4928 -0.3926
 3272SOL    HW221453   0.327   1.065  17.676 -0.8376  0.4538 -1.8422
 3273SOL     OW21454   2.867   3.546   3.885  0.0342 -0.4802  0.3217
 3273SOL    HW121455   2.796   3.574   3.943  0.7226 -0.1167  0.9902
 3273SOL    HW221456   2.948   3.548   3.937  1.1680  0.9510 -1.5028
 3274SOL     OW21457   2.498   0.490   5.835  0.3320  0.3805 -0.3043
 3274SOL    HW121458   2.403   0.486   5.824  0.3345 -2.5211  0.9899
 3274SOL    HW221459   2.517   0.397   5.835 -0.9703  0.1166  0.7097
 3275SOL     OW21460   1.232   0.940   4.799 -0.1278  0.1090  0.0563
 3275SOL    HW121461   1.300   0.945   4.732 -2.5265  0.9374 -2.3272
 3275SOL    HW221462   1.234   1.035   4.812 -1.1167 -0.1335  1.8685
 3276SOL     OW21463   2.108   2.782  14.065 -0.1454 -0.5086 -0.7558
 3276SOL    HW121464   2.044   2.711  14.068 -1.8937  1.1460  1.1308
 3276SOL    HW221465   2.183   2.744  14.020  0.1253 -0.3473 -0.4345
 3277SOL     OW21466   4.501   0.535   5.867 -0.1258  0.6408  0.3206
 3277SOL    HW121467   4.592   0.532   5.898  0.2072  0.1372 -0.7194
 3277SOL    HW221468   4.450   0.531   5.948  1.0380  1.9172  1.1284
 3278SOL     OW21469   2.308   0.713   6.412  0.1522  0.5405  0.1493
 3278SOL    HW121470   2.341   0.657   6.341  2.1642  3.4745 -1.2320
 3278SOL    HW221471   2.360   0.791   6.393  0.6238  0.8496  2.6504
 3279SOL     OW21472   1.871   2.346   3.106  0.1126 -0.0929  0.3012
 3279SOL    HW121473   1.797   2.287   3.094 -0.4314  0.9623 -1.5193
 3279SOL    HW221474   1.912   2.306   3.183 -4.6189  0.6865  3.2234
 3280SOL     OW21475   4.152   4.202  10.979  0.0360  0.2248  0.1573
 3280SOL    HW121476   4.131   4.260  10.906  0.9244 -0.7994 -0.8914
 3280SOL    HW221477   4.072   4.155  11.002  0.0326  0.2198  0.1352
 3281SOL     OW21478   3.827   1.084   6.567 -0.2059 -0.6988 -0.1712
 3281SOL    HW121479   3.783   1.129   6.639 -0.5777 -1.2453 -0.0592
 3281SOL    HW221480   3.847   0.997   6.601 -0.4565  0.2781  2.4741
 3282SOL     OW21481   3.794   1.106   0.478  0.4353  0.2207  0.0900
 3282SOL    HW121482   3.799   1.198   0.454  0.0279  0.4899  1.0443
 3282SOL    HW221483   3.700   1.090   0.476  0.5569 -0.4707 -0.3512
 3283SOL     OW21484   2.560   0.817   0.676 -0.3033  0.0619  0.3046
 3283SOL    HW121485   2.500   0.835   0.748  0.8356  1.4029  0.9201
 3283SOL    HW221486   2.502   0.757   0.629  1.9380 -1.1590 -0.8869
 3284SOL     OW21487   3.038   4.070   4.952  1.0400  0.6561 -0.0851
 3284SOL    HW121488   3.110   4.093   4.893  1.6719  0.8339  0.7506
 3284SOL    HW221489   2.997   4.004   4.896 -2.9411  0.5756  2.8319
 3285SOL     OW21490   1.378   4.374  17.378 -0.5062  0.1926  0.0710
 3285SOL    HW121491   1.434   4.401  17.306  1.1368  0.6694  1.5428
 3285SOL    HW221492   1.437   4.344  17.447 -0.3793  0.6295  0.1464
 3286SOL     OW21493   1.825   1.518  14.036  0.7619  0.3355  0.3022
 3286SOL    HW121494   1.914   1.536  14.005  0.1020 -2.9063 -3.5884
 3286SOL    HW221495   1.844   1.529  14.129  0.7665 -0.1314  0.3594
 3287SOL     OW21496   3.287   0.868  16.706 -0.1308  0.8094 -0.6396
 3287SOL    HW121497   3.247   0.820  16.779  1.4391  0.9430  0.2997
 3287SOL    HW221498   3.264   0.957  16.732  1.6710  1.3871 -1.0791
 3288SOL     OW21499   0.007   4.103   9.671  0.2522 -0.1486 -0.7153
 3288SOL    HW121500   0.039   4.154   9.745  2.1692  1.7869 -2.8745
 3288SOL    HW221501   4.714   4.177   9.619 -0.5738 -0.9905 -1.4270
 3289SOL     OW21502   3.179   4.623   5.842 -0.5085  0.2005 -0.3733
 3289SOL    HW121503   3.096   4.583   5.816 -1.1641  1.7076 -0.5469
 3289SOL    HW221504   3.167   4.707   5.798 -2.0885  0.7732  1.1442
 3290SOL     OW21505   4.305   0.531   4.413 -0.2132  0.1742  0.6311
 3290SOL    HW121506   4.247   0.464   4.375 -1.3324  1.2814  0.4101
 3290SOL    HW221507   4.343   0.468   4.475  0.2584  1.4695  1.6494
 3291SOL     OW21508   2.043   3.611   6.003  0.2870 -0.0201  0.1375
 3291SOL    HW121509   1.951   3.620   5.977 -0.0415  0.5398  1.5165
 3291SOL    HW221510   2.039   3.536   6.063  0.1314 -1.4919 -1.7111
 3292SOL     OW21511   4.643   2.997   8.582 -0.1586 -0.1545 -0.5030
 3292SOL    HW121512   4.616   2.929   8.520  0.8363 -0.8941 -0.1145
 3292SOL    HW221513   4.560   3.038   8.608 -0.2058 -0.2308 -0.5333
 3293SOL     OW21514   1.358   3.461  11.893  0.5107  0.2898 -0.1713
 3293SOL    HW121515   1.334   3.506  11.812 -1.0218  0.3481  0.3239
 3293SOL    HW221516   1.443   3.423  11.870 -0.2067 -0.7250 -1.0871
 3294SOL     OW21517   1.070   4.497   7.231  0.4079 -0.3031  0.0939
 3294SOL    HW121518   0.984   4.458   7.218  1.0601 -1.4557 -0.7494
 3294SOL    HW221519   1.062   4.579   7.183  1.0726 -0.9928 -1.1882
 3295SOL     OW21520   2.435   1.471   5.454  0.3965 -0.0115  0.0535
 3295SOL    HW121521   2.445   1.479   5.359  0.2116  1.9276  0.2128
 3295SOL    HW221522   2.489   1.543   5.486  0.7258 -0.0599 -0.4031
 3296SOL     OW21523   0.108   1.473   9.985 -0.3539 -0.6728  0.2028
 3296SOL    HW121524   0.100   1.522  10.066  0.5347 -3.5355  2.0233
 3296SOL    HW221525   0.020   1.489   9.951  0.1116 -1.5065 -1.4392
 3297SOL     OW21526   3.979   3.622  13.760  0.2161  0.1080  0.1280
 3297SOL    HW121527   3.958   3.596  13.850 -0.6781 -2.2642 -0.7763
 3297SOL    HW221528   3.960   3.716  13.755 -0.3540 -0.0212 -0.1349
 3298SOL     OW21529   1.876   4.662   9.333 -0.2231 -0.2419 -0.2199
 3298SOL    HW121530   1.781   4.667   9.337 -0.4667 -3.2363 -2.5118
 3298SOL    HW221531   1.890   0.014   9.300  0.1281 -0.6015 -1.0457
 3299SOL     OW21532   0.810   2.207   4.669 -0.3519  0.1517  0.7809
 3299SOL    HW121533   0.827   2.201   4.575  0.1364  1.4276  0.7881
 3299SOL    HW221534   0.849   2.131   4.711 -0.3687 -0.1566  0.2402
 3300SOL     OW21535   2.477   0.479   4.958  0.0557 -0.4894 -0.0007
 3300SOL    HW121536   2.465   0.512   5.047 -1.0812 -0.7714 -0.0472
 3300SOL    HW221537   2.454   0.388   4.973 -3.3041  0.6992  2.1868
 3301SOL     OW21538   2.753   2.549   8.521 -0.2574 -0.3689  0.6102
 3301SOL    HW121539   2.817   2.621   8.523  0.3452 -0.9169  1.0034
 3301SOL    HW221540   2.762   2.522   8.430 -2.1330 -1.2643  0.7065
 3302SOL     OW21541   3.837   4.491   4.169  0.1406  0.5071 -0.0595
 3302SOL    HW121542   3.769   4.478   4.235  1.3358  3.6209  1.7940
 3302SOL    HW221543   3.833   4.411   4.117 -1.1778 -0.3421  1.3409
 3303SOL     OW21544   0.469   4.120   0.640 -0.3466 -1.0028 -0.2672
 3303SOL    HW121545   0.563   4.113   0.658 -0.2756 -1.9813 -1.0741
 3303SOL    HW221546   0.442   4.077   0.721  1.7833 -0.5204  0.7148
 3304SOL     OW21547   0.211   0.768  17.746  0.2650  0.2577 -0.2113
 3304SOL    HW121548   0.285   0.817  17.711  1.3230 -2.0215 -1.1498
 3304SOL    HW221549   0.241   0.757   0.088 -0.6388  1.4482  0.2315
 3305SOL     OW21550   2.737   0.226  14.838  0.0539  0.9641 -0.2543
 3305SOL    HW121551   2.796   0.171  14.787 -0.8163 -1.6546  1.5418
 3305SOL    HW221552   2.664   0.237  14.777 -1.1212 -0.4491  0.8806
 3306SOL     OW21553   1.905   0.161   0.540  0.1709 -0.4223  0.0279
 3306SOL    HW121554   1.917   0.223   0.469 -0.4126  0.5273  0.7582
 3306SOL    HW221555   1.814   0.139   0.525 -0.3321  2.7254 -1.3540
 3307SOL     OW21556   0.085   0.050   8.795  0.3493  0.1639 -0.4231
 3307SOL    HW121557   0.161   0.108   8.804  0.6728 -0.1112 -1.4145
 3307SOL    HW221558   0.013   0.110   8.812  0.4995 -0.0395  0.9274
 3308SOL     OW21559   3.101   3.755  11.966 -0.0525 -0.3076 -0.2911
 3308SOL    HW121560   3.167   3.774  11.899 -1.9487  0.4981 -1.9386
 3308SOL    HW221561   3.151   3.697  12.023  0.7962  0.4766 -0.2352
 3309SOL     OW21562   0.093   1.291   3.335 -0.5593  0.1301 -0.1487
 3309SOL    HW121563   0.067   1.383   3.337 -2.4903 -0.4378  0.7325
 3309SOL    HW221564   0.116   1.293   3.242 -0.7875 -1.7031 -0.2497
 3310SOL     OW21565   2.422   4.537   1.126 -0.4532  0.4844 -0.1058
 3310SOL    HW121566   2.432   4.626   1.094 -0.5412  0.5862  0.1462
 3310SOL    HW221567   2.352   4.509   1.068  2.3446 -1.8922 -2.3656
 3311SOL     OW21568   4.492   1.867   7.993  0.5312  0.2777 -0.6082
 3311SOL    HW121569   4.580   1.834   8.013  0.1801 -1.2438 -1.5442
 3311SOL    HW221570   4.473   1.836   7.904 -0.4941 -0.9597  0.0405
 3312SOL     OW21571   3.779   3.078   8.587  0.3739 -0.4740  0.8870
 3312SOL    HW121572   3.823   3.010   8.638  3.9703  2.1646  1.2478
 3312SOL    HW221573   3.833   3.075   8.508  0.9109  1.1046  1.1978
 3313SOL     OW21574   4.732   3.792   7.419 -0.2432 -0.1203 -0.2355
 3313SOL    HW121575   0.089   3.778   7.426 -0.0014  0.0509 -3.0969
 3313SOL    HW221576   4.731   3.868   7.476 -0.5851 -1.1054  1.0660
 3314SOL     OW21577   0.971   0.373   7.445  0.3563 -0.1763 -0.1716
 3314SOL    HW121578   1.061   0.379   7.479  0.1366  0.3687  0.3281
 3314SOL    HW221579   0.940   0.463   7.457 -1.0820 -0.8414  1.1259
 3315SOL     OW21580   1.347   2.744  15.332 -0.1419 -0.4211 -0.3861
 3315SOL    HW121581   1.353   2.796  15.412 -1.3657  1.0659 -1.2600
 3315SOL    HW221582   1.279   2.680  15.356 -1.0223 -0.5447 -3.2322
 3316SOL     OW21583   0.705   2.235   5.581 -0.3085  0.6617 -0.3137
 3316SOL    HW121584   0.680   2.206   5.669 -3.1550  1.8727 -0.7376
 3316SOL    HW221585   0.630   2.208   5.529 -0.9659  1.2002  0.3535
 3317SOL     OW21586   0.972   1.970   1.894 -0.1244 -0.4854 -0.2512
 3317SOL    HW121587   0.992   1.894   1.840  2.1705  0.4304 -0.6719
 3317SOL    HW221588   1.028   1.941   1.966 -1.6249 -1.4636  0.5272
 3318SOL     OW21589   0.541   0.636   9.744  0.2193 -0.2418  0.2460
 3318SOL    HW121590   0.610   0.656   9.808 -0.7384  0.3801  1.0710
 3318SOL    HW221591   0.481   0.580   9.794 -2.8920  3.5697  0.6896
 3319SOL     OW21592   3.176   0.120   2.547 -0.0209 -0.0657  0.8710
 3319SOL    HW121593   3.247   0.060   2.523 -1.3995 -0.7636 -1.5208
 3319SOL    HW221594   3.110   0.098   2.482  1.2669 -4.2070  0.9897
 3320SOL     OW21595   0.781   2.384   4.992  0.4957 -0.4888  0.6617
 3320SOL    HW121596   0.765   2.387   5.086 -0.9217 -0.9244  0.4305
 3320SOL    HW221597   0.847   2.315   4.988 -0.3270 -1.2688  0.6084
 3321SOL     OW21598   1.811   0.196  15.969 -0.8379 -1.1672  0.0832
 3321SOL    HW121599   1.889   0.149  15.941  1.0670  1.6645  0.6902
 3321SOL    HW221600   1.844   0.285  15.962 -0.5419 -1.2617  0.2848
 3322SOL     OW21601   0.357   4.071  14.346  0.3529  0.2890 -0.9310
 3322SOL    HW121602   0.376   3.981  14.374 -0.3255  0.9776  1.7571
 3322SOL    HW221603   0.262   4.083  14.356  0.3300 -1.9777  1.7838
 3323SOL     OW21604   4.208   3.037   4.813  0.8465  0.0077 -0.2196
 3323SOL    HW121605   4.251   3.001   4.891 -0.0871 -0.1059  0.2453
 3323SOL    HW221606   4.118   3.048   4.844 -0.0951 -3.7243 -1.7164
 3324SOL     OW21607   3.910   2.150   2.146  0.0261 -0.2063 -0.1224
 3324SOL    HW121608   4.002   2.173   2.157 -0.0151  0.1926 -0.6368
 3324SOL    HW221609   3.915   2.055   2.134 -0.7671 -0.3087  0.3860
 3325SOL     OW21610   4.254   3.497  14.266  0.2285  0.3696  0.1052
 3325SOL    HW121611   4.348   3.483  14.281 -0.3451 -1.3930  2.2062
 3325SOL    HW221612   4.219   3.440  14.335  0.4243  0.4861  0.3040
 3326SOL     OW21613   3.079   4.495   3.555  0.0709 -1.0529  0.3027
 3326SOL    HW121614   3.019   4.459   3.620 -1.9169  2.1141  0.2325
 3326SOL    HW221615   3.079   4.585   3.585  1.4351 -1.1693  0.6336
 3327SOL     OW21616   3.056   4.583  11.827  0.1171  0.1710  0.1584
 3327SOL    HW121617   3.114   4.639  11.775  0.1001 -0.5634 -0.6478
 3327SOL    HW221618   3.115   4.548  11.893 -0.4349  0.5080  0.8319
 3328SOL     OW21619   1.846   1.718   3.302  0.0677 -0.1534  0.3147
 3328SOL    HW121620   1.764   1.672   3.285  0.5951 -1.0226  0.1386
 3328SOL    HW221621   1.886   1.709   3.216  1.0650 -4.3186  1.2473
 3329SOL     OW21622   2.565   1.285   9.089 -0.1536  0.2330  0.4524
 3329SOL    HW121623   2.656   1.303   9.111 -0.1599  0.7777  0.0413
 3329SOL    HW221624   2.570   1.196   9.054  1.0386 -0.2263  1.7580
 3330SOL     OW21625   3.307   4.607   9.753 -0.2157 -0.4239  0.3943
 3330SOL    HW121626   3.366   4.646   9.688 -0.0168 -0.9193  0.2831
 3330SOL    HW221627   3.229   4.583   9.703  0.2493 -2.2736  0.5758
 3331SOL     OW21628   0.548   0.808   2.811  0.3307 -0.0231 -0.5024
 3331SOL    HW121629   0.559   0.818   2.716  0.8244  1.7332 -0.2514
 3331SOL    HW221630   0.480   0.868   2.841  0.6463 -0.2142  0.5856
 3332SOL     OW21631   1.974   2.410   7.606  0.2559  0.1659 -0.3183
 3332SOL    HW121632   2.041   2.383   7.543 -0.8857 -0.7786 -1.1243
 3332SOL    HW221633   1.938   2.331   7.646  0.4352 -0.0271 -0.5403
 3333SOL     OW21634   3.555   4.662   7.610  0.2287  0.1517 -0.2568
 3333SOL    HW121635   3.537   4.622   7.695  2.9938  0.9511  0.7035
 3333SOL    HW221636   3.650   4.674   7.617  0.3745 -1.1863  0.1097
 3334SOL     OW21637   3.035   0.725   4.448  0.3345  0.3217  0.3501
 3334SOL    HW121638   3.086   0.650   4.419 -0.1552 -0.1548  0.7311
 3334SOL    HW221639   3.095   0.781   4.498 -0.3372  2.3811 -1.1240
 3335SOL     OW21640   0.713   0.471  13.081 -0.1028 -0.0203  0.4394
 3335SOL    HW121641   0.803   0.495  13.064  0.8562 -4.6941 -1.1733
 3335SOL    HW221642   0.679   0.485  12.993 -2.9532  2.5030  1.9361
 3336SOL     OW21643   1.522   2.930   8.727 -0.0375 -0.2717 -0.2197
 3336SOL    HW121644   1.611   2.902   8.705  0.6777 -0.1640  2.5266
 3336SOL    HW221645   1.503   2.854   8.783 -1.5246  0.8590  0.8039
 3337SOL     OW21646   0.473   3.666  10.806  0.0980 -0.2555  0.1632
 3337SOL    HW121647   0.491   3.708  10.890  1.4326 -1.4214  0.4714
 3337SOL    HW221648   0.405   3.607  10.839 -1.3405 -0.6179 -3.4644
 3338SOL     OW21649   1.835   1.408   1.876  0.4438  0.3467  0.0448
 3338SOL    HW121650   1.912   1.377   1.925 -0.3645  1.4469  1.9930
 3338SOL    HW221651   1.828   1.337   1.812 -0.7220  1.8945 -1.5237
 3339SOL     OW21652   3.445   2.071   7.913  0.2156 -0.2067 -0.3811
 3339SOL    HW121653   3.391   2.045   7.839 -1.1702  0.5614  0.3351
 3339SOL    HW221654   3.444   2.166   7.901  0.1254 -0.1480  0.0731
 3340SOL     OW21655   2.182   3.356  10.898 -0.4603  0.3526 -0.3042
 3340SOL    HW121656   2.114   3.302  10.938  0.6633 -1.1683 -0.4594
 3340SOL    HW221657   2.182   3.433  10.955  0.7185  0.1757 -0.0611
 3341SOL     OW21658   4.164   0.149   8.050  0.9489  0.1582 -0.5989
 3341SOL    HW121659   4.112   0.117   8.124  0.9510  1.3924 -0.0664
 3341SOL    HW221660   4.163   0.072   7.994 -1.6679  0.2587 -0.6697
 3342SOL     OW21661   3.878   3.973  15.298 -0.1149  0.2772  0.1185
 3342SOL    HW121662   3.806   3.968  15.236  0.1284 -0.2388 -0.1280
 3342SOL    HW221663   3.848   3.914  15.368 -0.8700  3.1858  2.2381
 3343SOL     OW21664   3.690   0.555   7.756 -0.5706 -0.4016  1.0573
 3343SOL    HW121665   3.686   0.527   7.665 -2.1957 -1.4169  1.4535
 3343SOL    HW221666   3.709   0.469   7.793  0.3389 -0.6027  0.1281
 3344SOL     OW21667   1.618   1.847  13.759 -0.2859 -0.4673  0.0161
 3344SOL    HW121668   1.547   1.841  13.823  0.4195  2.9159  1.1430
 3344SOL    HW221669   1.683   1.792  13.804 -0.1400  1.2840  1.9777
 3345SOL     OW21670   0.445   3.567   3.955 -0.1844 -0.3584  0.6264
 3345SOL    HW121671   0.497   3.633   4.000  0.1879  1.1558 -2.0229
 3345SOL    HW221672   0.395   3.524   4.024 -0.6408 -2.0101 -0.7271
 3346SOL     OW21673   4.724   2.662  11.707  0.4732 -0.1227  0.1413
 3346SOL    HW121674   0.027   2.653  11.621  0.6737 -1.6639  0.3816
 3346SOL    HW221675   4.634   2.668  11.676  0.2589 -0.5107  0.6882
 3347SOL     OW21676   1.273   3.383   4.343  0.3217 -0.4360 -0.1852
 3347SOL    HW121677   1.259   3.376   4.248 -3.4152  2.1748  0.1710
 3347SOL    HW221678   1.192   3.431   4.362 -0.5445 -1.8363 -0.2943
 3348SOL     OW21679   2.469   0.060  17.429 -0.4427  0.2390 -0.0775
 3348SOL    HW121680   2.530   0.087  17.361 -0.5982  1.9087  0.4580
 3348SOL    HW221681   2.420   4.736  17.374 -0.3893 -0.9376  1.1824
 3349SOL     OW21682   1.924   4.085   1.877 -0.0098 -0.0514  0.0812
 3349SOL    HW121683   2.010   4.081   1.918 -0.7156 -1.5861  1.4427
 3349SOL    HW221684   1.938   4.142   1.802  1.3551 -1.2976 -0.6066
 3350SOL     OW21685   3.124   0.213   1.256 -0.7187 -0.1754 -0.1237
 3350SOL    HW121686   3.182   0.200   1.332  0.0984  0.5179 -0.6317
 3350SOL    HW221687   3.040   0.202   1.300  0.1651 -0.2644  1.5932
 3351SOL     OW21688   3.531   2.890   9.139  0.2271 -0.1729 -0.2650
 3351SOL    HW121689   3.471   2.857   9.205  1.5557 -0.6772  0.7038
 3351SOL    HW221690   3.599   2.823   9.148 -1.0903 -1.2073  1.9474
 3352SOL     OW21691   3.844   3.330   2.749  0.3267  0.5680 -0.0073
 3352SOL    HW121692   3.874   3.259   2.805 -1.2681 -0.5854 -0.6288
 3352SOL    HW221693   3.925   3.379   2.737  1.1620 -1.2243 -1.4691
 3353SOL     OW21694   1.493   3.617  16.258  0.1328 -0.0059  0.1183
 3353SOL    HW121695   1.398   3.629  16.265 -0.1187 -0.9170 -1.7986
 3353SOL    HW221696   1.521   3.567  16.335 -0.7197  1.6072  1.4681
 3354SOL     OW21697   3.850   3.389   8.911  0.4944  0.1249  0.4251
 3354SOL    HW121698   3.781   3.390   8.977  1.8420 -1.4456  1.8406
 3354SOL    HW221699   3.892   3.308   8.939 -0.3782 -1.1447 -1.9415
 3355SOL     OW21700   1.308   0.306   6.443  0.1393 -0.5564 -0.0608
 3355SOL    HW121701   1.294   0.242   6.373 -0.4413 -0.9643  0.4273
 3355SOL    HW221702   1.391   0.340   6.409  2.9577 -4.3914  3.0526
 3356SOL     OW21703   3.860   3.884   3.862  0.0980 -0.3362 -0.3918
 3356SOL    HW121704   3.819   3.829   3.929  2.2536 -0.2556  1.0040
 3356SOL    HW221705   3.853   3.831   3.782 -1.9810  0.6141 -0.8404
 3357SOL     OW21706   0.773   3.243   5.966  0.4176  0.3535  0.0715
 3357SOL    HW121707   0.692   3.278   6.003  1.5443  0.6989  2.2537
 3357SOL    HW221708   0.747   3.215   5.879  0.1224 -0.9134  0.5639
 3358SOL     OW21709   3.366   4.346   4.416  0.1659 -0.0561 -0.2577
 3358SOL    HW121710   3.351   4.408   4.345  2.8142  0.8253 -0.0446
 3358SOL    HW221711   3.401   4.270   4.370 -0.2156  0.2514 -1.0518
 3359SOL     OW21712   2.232   2.484   2.616  0.3389 -0.0892  0.0674
 3359SOL    HW121713   2.322   2.467   2.588  0.5517 -0.7271  1.1490
 3359SOL    HW221714   2.205   2.402   2.657  1.2087 -1.3158 -1.7900
 3360SOL     OW21715   2.605   1.862  14.198  0.4489 -0.1045  0.5668
 3360SOL    HW121716   2.592   1.796  14.130  2.3080 -1.1960  1.2450
 3360SOL    HW221717   2.521   1.905  14.186  1.7965  1.7003 -2.4118
 3361SOL     OW21718   1.955   2.209  13.991  0.3777  0.6063  0.0101
 3361SOL    HW121719   1.910   2.149  13.931  0.0744  0.7003  0.1468
 3361SOL    HW221720   1.981   2.140  14.052 -0.5518  0.5025  0.2777
 3362SOL     OW21721   0.943   4.191   8.419  1.0220 -0.3819  0.6880
 3362SOL    HW121722   1.021   4.153   8.379  0.0374  1.5758 -2.9911
 3362SOL    HW221723   0.981   4.260   8.474 -0.6438  0.9482  0.1702
 3363SOL     OW21724   2.029   2.122   2.317  0.0840  0.0342  0.1589
 3363SOL    HW121725   2.053   2.118   2.225  1.1720  1.8068  0.3640
 3363SOL    HW221726   2.022   2.215   2.337  0.4236  0.3267 -1.0673
 3364SOL     OW21727   4.675   4.385   7.381 -0.1714  0.9748  0.2171
 3364SOL    HW121728   4.589   4.347   7.361 -0.3209 -0.6033  3.8901
 3364SOL    HW221729   4.702   4.439   7.306 -1.9559  2.7981  0.8520
 3365SOL     OW21730   0.769   4.590   5.910  0.2665  0.0148 -0.1872
 3365SOL    HW121731   0.712   4.517   5.886  0.1492 -0.5492  1.7734
 3365SOL    HW221732   0.751   4.602   6.004 -0.4572  0.1135 -0.3363
 3366SOL     OW21733   1.556   1.520   1.525 -0.2757  0.0103  0.1667
 3366SOL    HW121734   1.594   1.574   1.456 -3.1774 -0.8522 -2.1400
 3366SOL    HW221735   1.612   1.533   1.600  2.0583  0.2713 -1.6249
 3367SOL     OW21736   1.893   2.645   7.545 -0.0115  0.2917  0.4881
 3367SOL    HW121737   1.845   2.641   7.628 -1.2039  2.3113 -0.0871
 3367SOL    HW221738   1.934   2.559   7.553  0.2638  0.2760 -1.1586
 3368SOL     OW21739   3.600   1.858  11.233 -0.0506  0.2159  0.3304
 3368SOL    HW121740   3.614   1.806  11.312  5.1154  1.3447  0.1591
 3368SOL    HW221741   3.689   1.876  11.203  0.4327  0.7308  2.1142
 3369SOL     OW21742   0.391   1.914   2.859 -0.3596  0.2903 -0.1519
 3369SOL    HW121743   0.471   1.918   2.912 -1.2999  1.5219  1.1743
 3369SOL    HW221744   0.365   1.823   2.872  1.4213 -0.4523 -1.7326
 3370SOL     OW21745   3.346   2.722   3.865  0.5837  0.6405  0.4759
 3370SOL    HW121746   3.421   2.716   3.924  0.5899  0.9076  0.4959
 3370SOL    HW221747   3.319   2.630   3.862  0.9730  0.4918  1.5371
 3371SOL     OW21748   1.202   0.471   8.927  0.6841 -0.3783 -0.3488
 3371SOL    HW121749   1.173   0.549   8.974  0.6841 -0.8829  0.4826
 3371SOL    HW221750   1.186   0.490   8.835 -1.4082  0.4351  0.1834
 3372SOL     OW21751   3.364   2.936   1.237 -0.0157  0.2793  0.5957
 3372SOL    HW121752   3.308   2.952   1.313  0.7315 -0.1485  1.2402
 3372SOL    HW221753   3.309   2.942   1.159  0.1569 -0.6558  0.3999
 3373SOL     OW21754   1.734   1.410  10.033  0.4965  0.1898 -0.1472
 3373SOL    HW121755   1.667   1.383   9.970  0.5104 -0.6432  0.1985
 3373SOL    HW221756   1.816   1.379   9.994  1.0466  0.3890  0.8638
 3374SOL     OW21757   2.323   0.340  17.195 -0.7740  0.8181 -0.6071
 3374SOL    HW121758   2.348   0.359  17.105  0.3782 -0.6179 -0.6000
 3374SOL    HW221759   2.234   0.306  17.184  0.1800 -2.4626  1.5784
 3375SOL     OW21760   3.468   1.724   7.864  0.5317  0.5346  0.0531
 3375SOL    HW121761   3.549   1.765   7.893  0.3123  0.8269  0.2443
 3375SOL    HW221762   3.479   1.705   7.770  2.5863  1.3468  0.1289
 3376SOL     OW21763   0.496   0.186   9.855 -0.3916  0.1793  0.3744
 3376SOL    HW121764   0.460   0.258   9.804 -1.1278 -0.3185  0.1871
 3376SOL    HW221765   0.454   0.215   9.936  1.3854 -1.8212  2.0230
 3377SOL     OW21766   0.056   0.499  11.819 -0.3179  0.2698 -0.0883
 3377SOL    HW121767   4.704   0.515  11.849 -0.9690 -0.9979 -1.3638
 3377SOL    HW221768   0.053   0.409  11.851 -1.6631 -0.3133 -1.8266
 3378SOL     OW21769   4.329   0.986  16.308 -0.4792  0.2337 -0.4970
 3378SOL    HW121770   4.301   0.895  16.295 -1.0223  0.2370  0.6563
 3378SOL    HW221771   4.253   1.020  16.355  1.1427  4.2510 -0.7950
 3379SOL     OW21772   0.650   4.057   9.525 -0.1141 -0.0884  0.0775
 3379SOL    HW121773   0.709   4.122   9.564 -1.0791  0.9378 -0.1482
 3379SOL    HW221774   0.671   4.070   9.432 -3.4336 -0.7153 -0.7749
 3380SOL     OW21775   2.298   2.130   8.724 -0.3540 -0.2732  0.8273
 3380SOL    HW121776   2.282   2.041   8.692 -1.9153  0.9460 -1.8042
 3380SOL    HW221777   2.213   2.174   8.723  1.4172  3.0536 -0.9014
 3381SOL     OW21778   1.096   1.172   7.715 -0.0637  0.3048  0.9169
 3381SOL    HW121779   1.145   1.090   7.721  0.5479  0.3841 -3.1534
 3381SOL    HW221780   1.047   1.151   7.635  0.4145  0.6442  0.5374
 3382SOL     OW21781   4.329   0.811  16.719 -0.1667  0.0378  0.4063
 3382SOL    HW121782   4.277   0.819  16.799 -1.2690  0.0267 -0.3161
 3382SOL    HW221783   4.328   0.897  16.678  0.6120 -1.1345 -2.0646
 3383SOL     OW21784   0.731   2.075   8.508  0.7306 -0.0496 -0.1303
 3383SOL    HW121785   0.655   2.020   8.529  2.3190 -1.5897  1.5806
 3383SOL    HW221786   0.699   2.103   8.423  1.4122 -0.1436 -0.4163
 3384SOL     OW21787   4.311   1.049   3.785 -0.1166 -0.0089 -0.3821
 3384SOL    HW121788   4.303   1.073   3.877 -1.0644  0.0757 -0.4858
 3384SOL    HW221789   4.378   0.981   3.791 -2.8304 -2.7445 -0.9908
 3385SOL     OW21790   1.103   4.104   6.689  0.0293  0.0492  0.2758
 3385SOL    HW121791   1.110   4.052   6.609 -1.7686  0.5447 -0.1983
 3385SOL    HW221792   1.167   4.058   6.744  1.2190 -0.4584 -1.5252
 3386SOL     OW21793   0.123   2.715   6.345  0.0809  0.9118  0.3619
 3386SOL    HW121794   0.083   2.785   6.294 -1.0062  0.4480  0.5727
 3386SOL    HW221795   0.037   2.674   6.357 -0.3414  2.5371  2.7845
 3387SOL     OW21796   4.718   0.372   4.672  0.5887 -0.3373 -0.3929
 3387SOL    HW121797   4.644   0.407   4.623 -1.0432 -0.1268  2.1830
 3387SOL    HW221798   0.037   0.449   4.671 -2.9934  2.3184  1.0815
 3388SOL     OW21799   2.487   4.357   3.099  0.4040  0.2451 -0.2284
 3388SOL    HW121800   2.503   4.449   3.122 -2.1871  0.8867 -1.0611
 3388SOL    HW221801   2.555   4.323   3.158 -0.4374  1.4827  1.4487
 3389SOL     OW21802   2.493   3.072   9.078  0.0799  0.7336  0.1491
 3389SOL    HW121803   2.462   3.131   9.147 -0.3360  2.2290 -1.2929
 3389SOL    HW221804   2.420   3.077   9.016  1.4303 -0.2699 -1.5412
 3390SOL     OW21805   1.886   0.197   3.502 -0.0705 -0.3534 -0.1232
 3390SOL    HW121806   1.908   0.160   3.588 -0.0346  1.7502  0.7642
 3390SOL    HW221807   1.963   0.245   3.471 -1.7071  1.6765 -1.0448
 3391SOL     OW21808   3.108   3.562   2.578  0.3882  0.0623 -0.4237
 3391SOL    HW121809   3.147   3.531   2.496  0.9793 -1.9921  0.6311
 3391SOL    HW221810   3.126   3.491   2.639 -0.5368 -1.0733 -1.4787
 3392SOL     OW21811   3.661   3.831   2.445  0.3197 -0.0193  0.1635
 3392SOL    HW121812   3.629   3.899   2.385  1.2576 -0.4991 -0.8833
 3392SOL    HW221813   3.581   3.808   2.493 -0.5283  3.0923  0.2315
 3393SOL     OW21814   3.798   4.072   6.077  0.2351  0.2171 -0.0821
 3393SOL    HW121815   3.735   4.139   6.049 -0.0767 -0.2197 -0.4170
 3393SOL    HW221816   3.851   4.048   6.001 -0.9014  0.9790 -1.1102
 3394SOL     OW21817   2.363   1.385   6.249  0.0598 -0.4170 -0.2660
 3394SOL    HW121818   2.310   1.307   6.232  0.5591 -0.6564 -0.7265
 3394SOL    HW221819   2.442   1.333   6.266  0.2721  0.0317  0.1307
 3395SOL     OW21820   2.132   1.783   6.976 -0.3556 -0.6434 -0.0825
 3395SOL    HW121821   2.069   1.779   7.048  0.1136 -2.4068  0.2089
 3395SOL    HW221822   2.212   1.790   7.029 -0.3142 -0.4550 -0.1675
 3396SOL     OW21823   3.378   1.510   1.395 -0.0578  0.7044 -0.5851
 3396SOL    HW121824   3.449   1.569   1.422  1.1160 -1.1002  0.2341
 3396SOL    HW221825   3.324   1.566   1.339 -0.0810  0.7181 -0.5491
 3397SOL     OW21826   2.326   2.858   9.201 -0.2696  0.6448 -0.1590
 3397SOL    HW121827   2.385   2.799   9.248  1.0226  2.1526  0.0823
 3397SOL    HW221828   2.387   2.926   9.173 -0.5073  1.1505  0.5353
 3398SOL     OW21829   2.522   0.635   9.818 -0.0873 -0.4683  0.0559
 3398SOL    HW121830   2.458   0.589   9.871  0.3524  3.6303  4.1619
 3398SOL    HW221831   2.594   0.630   9.881 -0.0675 -0.4931  0.0313
 3399SOL     OW21832   2.009   1.117  12.662  0.6292 -0.5566  0.1884
 3399SOL    HW121833   1.978   1.031  12.690  0.4742  0.1526  2.2114
 3399SOL    HW221834   2.022   1.109  12.568 -0.4097 -0.0130  0.0113
 3400SOL     OW21835   2.854   3.036  10.221 -0.5634 -0.3352  0.1969
 3400SOL    HW121836   2.949   3.045  10.208 -0.5120  0.3870  1.0639
 3400SOL    HW221837   2.846   3.029  10.316  0.7023 -1.2657  0.2291
 3401SOL     OW21838   1.723   0.775   8.770  0.1356  0.4262 -0.3433
 3401SOL    HW121839   1.736   0.689   8.809 -2.1217 -0.0800 -0.7212
 3401SOL    HW221840   1.651   0.746   8.715 -0.4952  0.2601  0.5779
 3402SOL     OW21841   2.085   4.109   2.660  0.3106 -0.0267 -0.0912
 3402SOL    HW121842   2.015   4.164   2.625  0.2436  0.2027  0.4121
 3402SOL    HW221843   2.156   4.115   2.596  0.1440 -0.3420 -0.3059
 3403SOL     OW21844   3.714   0.776   0.554 -0.4425  0.1282  0.1553
 3403SOL    HW121845   3.663   0.695   0.565 -0.8091  0.3447  0.0447
 3403SOL    HW221846   3.688   0.830   0.628 -0.2833 -0.2735  0.5086
 3404SOL     OW21847   0.876   2.786   6.257  0.2327 -0.0069  0.2078
 3404SOL    HW121848   0.894   2.724   6.187  0.6655  0.1979  0.1384
 3404SOL    HW221849   0.865   2.868   6.209 -0.4161  0.0608  0.4581
 3405SOL     OW21850   2.046   1.259   4.748 -0.1920  0.0428  0.7745
 3405SOL    HW121851   1.951   1.251   4.749 -0.0953 -0.9940  1.7594
 3405SOL    HW221852   2.049   1.233   4.656  0.8573  2.4050  0.1428
 3406SOL     OW21853   1.648   1.708  10.209  0.4865  0.4958 -0.5861
 3406SOL    HW121854   1.573   1.765  10.224  0.9608  0.0520  3.6223
 3406SOL    HW221855   1.630   1.677  10.120 -1.3329  0.9562 -0.3723
 3407SOL     OW21856   2.044   0.394  11.563  0.4284 -0.0232 -0.2640
 3407SOL    HW121857   2.037   0.311  11.610 -2.2097  0.2822 -0.1605
 3407SOL    HW221858   2.136   0.420  11.572  0.3594  0.3206 -0.5498
 3408SOL     OW21859   4.424   4.553   4.840  0.4020  0.5881 -0.0696
 3408SOL    HW121860   4.354   4.525   4.899 -1.0877  2.8740 -0.7636
 3408SOL    HW221861   4.456   4.628   4.890  2.3411 -0.0215 -0.3993
 3409SOL     OW21862   1.617   0.572   5.202 -0.3286  0.3955  0.2228
 3409SOL    HW121863   1.702   0.607   5.226 -0.9586  0.0158  3.0476
 3409SOL    HW221864   1.618   0.597   5.110  0.4939 -0.2066  0.0631
 3410SOL     OW21865   0.910   3.409   0.957 -0.0041 -0.0217 -0.6700
 3410SOL    HW121866   0.941   3.500   0.950 -0.6726  0.3351  1.1592
 3410SOL    HW221867   0.984   3.367   1.001 -0.4223  1.0782  1.0586
 3411SOL     OW21868   4.599   2.243   8.196  0.5319 -0.4654 -0.3382
 3411SOL    HW121869   4.520   2.191   8.210 -1.0048  1.4125 -2.0870
 3411SOL    HW221870   4.661   2.206   8.259  0.1217 -0.3474  0.1317
 3412SOL     OW21871   0.611   0.111   1.988  0.1056 -0.0952  0.3322
 3412SOL    HW121872   0.591   0.184   1.929  0.1465  0.1350  0.6061
 3412SOL    HW221873   0.562   0.120   2.069  0.9435  0.8451  0.7341
 3413SOL     OW21874   4.726   2.666   9.571  0.4062  0.1076 -0.1626
 3413SOL    HW121875   4.683   2.744   9.536  1.6338  1.0547  0.4274
 3413SOL    HW221876   4.655   2.605   9.586  0.1833  0.0876 -1.3096
 3414SOL     OW21877   0.199   0.650  10.094  0.4124  0.0171  0.1800
 3414SOL    HW121878   0.133   0.693  10.039 -0.2350 -1.4814 -0.2247
 3414SOL    HW221879   0.189   0.698  10.176  1.1718  0.8078 -0.1968
 3415SOL     OW21880   0.702   2.548   9.578 -0.2063 -0.1080  0.0471
 3415SOL    HW121881   0.760   2.494   9.632 -2.9067 -1.6595  1.4013
 3415SOL    HW221882   0.754   2.594   9.512 -1.2822  0.6969 -0.2422
 3416SOL     OW21883   0.220   0.926   4.400 -0.2530  0.1804 -0.0055
 3416SOL    HW121884   0.266   0.842   4.408  0.4128  0.4176 -1.4369
 3416SOL    HW221885   0.294   0.985   4.383  0.8988 -1.4924 -0.8599
 3417SOL     OW21886   2.972   0.878   5.062 -0.5975 -0.5291 -0.1979
 3417SOL    HW121887   2.887   0.923   5.053  0.7579  1.9552 -0.4727
 3417SOL    HW221888   2.997   0.864   4.971  0.6084 -0.6665  0.1659
 3418SOL     OW21889   3.177   2.070   8.686  0.5875  0.1271 -0.1086
 3418SOL    HW121890   3.200   1.988   8.641 -0.5972  0.1309 -0.7092
 3418SOL    HW221891   3.267   2.084   8.716  0.7488  0.5868 -0.8103
 3419SOL     OW21892   2.371   3.421   3.361 -0.5204  0.2041  0.3023
 3419SOL    HW121893   2.379   3.488   3.293  0.8699  0.8565  1.0989
 3419SOL    HW221894   2.285   3.385   3.341 -0.3897 -0.0297  0.1588
 3420SOL     OW21895   1.066   2.001  16.597  0.0908 -0.3760  0.1784
 3420SOL    HW121896   1.154   1.985  16.630  0.3831  0.2485 -0.3116
 3420SOL    HW221897   1.068   1.985  16.503  0.4814  0.3961  0.0585
 3421SOL     OW21898   1.942   1.641   3.054  0.0930  0.1918  0.2869
 3421SOL    HW121899   1.910   1.599   2.975  1.0796 -0.6391  0.3311
 3421SOL    HW221900   1.948   1.730   3.018 -2.7651  0.3368  0.2124
 3422SOL     OW21901   1.514   2.599   5.949 -0.2287 -0.5673 -0.4700
 3422SOL    HW121902   1.512   2.533   6.019 -2.8262 -1.2538 -1.1751
 3422SOL    HW221903   1.594   2.576   5.904 -0.2979  0.6316 -1.1932
 3423SOL     OW21904   0.106   2.290   9.585 -0.5669 -0.4418  0.1314
 3423SOL    HW121905   0.011   2.288   9.597 -0.3939 -1.6818  1.2507
 3423SOL    HW221906   0.136   2.273   9.674  1.4007  1.9064 -0.1062
 3424SOL     OW21907   4.720   3.931   3.158 -0.5508 -0.5859 -0.1488
 3424SOL    HW121908   0.068   3.908   3.193 -0.7412  0.3208  0.9125
 3424SOL    HW221909   4.675   3.988   3.220  1.2971 -0.1099  0.7441
 3425SOL     OW21910   0.907   2.602  17.017 -0.1311 -0.1270  0.0725
 3425SOL    HW121911   0.891   2.696  17.009  0.6867  0.0638  0.7954
 3425SOL    HW221912   0.845   2.566  16.954  0.9458 -0.4132 -0.8283
 3426SOL     OW21913   4.335   3.045   3.898  0.0905  0.6616  0.3840
 3426SOL    HW121914   4.246   3.073   3.917  0.0246 -1.7479  3.6831
 3426SOL    HW221915   4.382   3.128   3.910  1.1562 -0.0653  1.2307
 3427SOL     OW21916   3.713   3.334   0.285  0.6841 -0.2398  0.4515
 3427SOL    HW121917   3.740   3.421   0.254  0.5389 -0.0235  0.9242
 3427SOL    HW221918   3.764   3.276   0.228 -0.8812  0.1223 -1.3482
 3428SOL     OW21919   4.418   2.820   7.171 -0.7633  0.2611  0.1703
 3428SOL    HW121920   4.425   2.725   7.184  0.3618  0.6194  2.1658
 3428SOL    HW221921   4.353   2.832   7.102  0.2952  0.0878 -0.8773
 3429SOL     OW21922   4.178   2.082   9.167 -0.1602 -0.2992 -0.1749
 3429SOL    HW121923   4.253   2.113   9.218 -1.8069  3.2037  0.1366
 3429SOL    HW221924   4.182   1.990   9.192  0.3517 -0.3322 -0.3779
 3430SOL     OW21925   2.857   2.697   4.602 -0.0294 -0.1632  0.0369
 3430SOL    HW121926   2.772   2.673   4.639 -0.3349  0.8972  0.0118
 3430SOL    HW221927   2.890   2.775   4.646 -1.2494 -0.3102  1.1979
 3431SOL     OW21928   2.251   3.661   7.109  0.4663  0.2919 -0.0519
 3431SOL    HW121929   2.253   3.645   7.015 -0.5345  0.0426 -0.0280
 3431SOL    HW221930   2.186   3.731   7.116  1.2231  0.8804  1.2769
 3432SOL     OW21931   0.882   0.570   1.887  0.2874 -0.1098  0.1270
 3432SOL    HW121932   0.797   0.565   1.930 -1.2812  0.8954 -2.8179
 3432SOL    HW221933   0.905   0.478   1.899  3.2786  0.5109 -0.7840
 3433SOL     OW21934   2.058   2.062   5.427 -0.5434 -0.1324 -0.0252
 3433SOL    HW121935   2.141   2.040   5.384 -1.1862  1.6211 -2.1462
 3433SOL    HW221936   2.026   1.981   5.467  0.5323 -1.1829 -1.2702
 3434SOL     OW21937   1.827   0.908   2.987  0.4936  0.0408 -0.0874
 3434SOL    HW121938   1.777   0.850   2.929  0.0406 -1.1999  1.5292
 3434SOL    HW221939   1.757   0.938   3.045 -0.2570  0.9615 -1.4694
 3435SOL     OW21940   2.316   0.663   7.257 -0.3867 -0.1793 -0.5097
 3435SOL    HW121941   2.407   0.691   7.256 -0.5508  0.3585 -0.3288
 3435SOL    HW221942   2.317   0.582   7.308 -0.6726 -0.2049 -0.5403
 3436SOL     OW21943   3.250   2.108   0.716 -0.1342 -0.1355 -0.4310
 3436SOL    HW121944   3.192   2.174   0.677 -1.6966 -0.4346  1.4010
 3436SOL    HW221945   3.199   2.067   0.785  1.0541 -0.0040  0.5379
 3437SOL     OW21946   2.371   2.784   2.155 -0.1653  0.0010  0.1453
 3437SOL    HW121947   2.352   2.789   2.062  1.2932 -0.0913 -0.1585
 3437SOL    HW221948   2.289   2.742   2.181 -2.1075  1.5179 -3.5807
 3438SOL     OW21949   2.120   0.163  14.154 -0.1648  0.1216  0.9731
 3438SOL    HW121950   2.198   0.135  14.106 -0.1848  0.2355  0.8763
 3438SOL    HW221951   2.112   0.088  14.213 -1.4865  0.8612  1.7190
 3439SOL     OW21952   0.296   1.885   6.686  0.0210 -0.2041 -0.5873
 3439SOL    HW121953   0.282   1.979   6.677 -0.9809  0.1265  4.2306
 3439SOL    HW221954   0.283   1.882   6.781 -2.4938  1.1583 -0.9000
 3440SOL     OW21955   0.536   4.543   7.606 -0.0051  0.2673  0.9017
 3440SOL    HW121956   0.522   4.596   7.528  3.6715 -0.9878 -0.6029
 3440SOL    HW221957   0.613   4.589   7.640  0.3832 -0.3329  0.8491
 3441SOL     OW21958   2.374   3.093  12.520  0.1864 -0.3911 -0.4696
 3441SOL    HW121959   2.428   3.170  12.536 -2.6633  0.9904  2.3572
 3441SOL    HW221960   2.425   3.023  12.561  0.8796  0.6234  0.3997
 3442SOL     OW21961   3.236   0.983  11.335 -0.1222  0.4809 -0.3237
 3442SOL    HW121962   3.319   1.027  11.349 -1.5137  2.2652  2.3748
 3442SOL    HW221963   3.267   0.893  11.344 -0.5550  0.5575  2.0705
 3443SOL     OW21964   1.666   2.255   4.793 -0.2932 -0.4046  0.4950
 3443SOL    HW121965   1.695   2.173   4.753  0.9906  1.1727 -1.7997
 3443SOL    HW221966   1.671   2.239   4.888 -0.5099 -3.2862  0.0308
 3444SOL     OW21967   4.152   0.906   5.084  0.1050  0.1794 -0.8559
 3444SOL    HW121968   4.159   0.873   4.995 -1.4286 -0.1515 -0.8458
 3444SOL    HW221969   4.230   0.963   5.084 -0.2553  0.6574  2.7761
 3445SOL     OW21970   0.799   3.849   9.889 -0.2129  0.2426  0.9624
 3445SOL    HW121971   0.834   3.892   9.811 -1.2601 -1.3026 -0.3647
 3445SOL    HW221972   0.854   3.878   9.961  2.3133  1.4599 -1.4237
 3446SOL     OW21973   0.349   2.716  12.411 -0.0670 -0.6849 -0.0722
 3446SOL    HW121974   0.323   2.699  12.501 -1.1539  0.1353 -0.2290
 3446SOL    HW221975   0.433   2.672  12.403 -0.8299 -1.8372 -1.8079
 3447SOL     OW21976   3.893   2.884   9.198 -0.1334 -0.0229  0.2866
 3447SOL    HW121977   3.824   2.818   9.206  0.7874 -1.0198  0.0518
 3447SOL    HW221978   3.877   2.905   9.106 -1.1161  0.2095  0.5075
 3448SOL     OW21979   4.679   2.027   3.977  0.2569 -0.6435 -0.1947
 3448SOL    HW121980   4.641   1.941   3.993 -2.6575  0.9332  1.2126
 3448SOL    HW221981   4.615   2.057   3.914  1.1588  2.6525  0.4236
 3449SOL     OW21982   4.205   2.359   8.999  0.2592 -0.5088  0.5653
 3449SOL    HW121983   4.183   2.277   9.044  0.5133 -0.3377  1.0031
 3449SOL    HW221984   4.219   2.415   9.075 -0.6489 -0.7064  0.8861
 3450SOL     OW21985   0.196   2.565   4.051 -0.4464 -0.2163  0.4199
 3450SOL    HW121986   0.177   2.501   3.983 -0.0645 -0.3974  0.4850
 3450SOL    HW221987   0.117   2.619   4.049  1.8573  3.2075  1.7278
 3451SOL     OW21988   3.075   0.188   4.777 -0.1318  0.2821  0.6219
 3451SOL    HW121989   3.078   0.279   4.748  1.6632 -1.4482 -4.4845
 3451SOL    HW221990   3.106   0.149   4.696 -0.1277 -0.9005  1.1955
 3452SOL     OW21991   0.089   1.261   1.755 -0.1354  0.0456  0.0927
 3452SOL    HW121992   0.118   1.170   1.761  1.5090  0.4258 -2.3832
 3452SOL    HW221993   0.084   1.290   1.846 -0.4049  0.3234 -0.0097
 3453SOL     OW21994   3.732   1.874   6.754 -0.6750 -0.3196  0.7310
 3453SOL    HW121995   3.694   1.952   6.713 -0.0748 -0.4245 -0.0220
 3453SOL    HW221996   3.675   1.802   6.727  0.2991 -0.4066 -1.1220
 3454SOL     OW21997   3.936   1.869   2.074  0.5519 -0.3162 -0.4093
 3454SOL    HW121998   3.889   1.811   2.014  2.6356 -2.8418  0.4064
 3454SOL    HW221999   4.024   1.831   2.075  0.4496 -0.5198  0.4548
 3455SOL     OW22000   0.279   0.835  10.807  0.3198 -0.6435  0.0894
 3455SOL    HW122001   0.340   0.905  10.827  0.0753 -1.0457  2.2312
 3455SOL    HW222002   0.204   0.880  10.845  1.3387  0.4411  0.8296
 3456SOL     OW22003   1.609   1.369   1.008 -0.1231 -0.2702  0.3775
 3456SOL    HW122004   1.579   1.438   0.949 -2.6447  0.6092  2.6995
 3456SOL    HW222005   1.661   1.314   0.949  1.4241  1.0750  0.4674
 3457SOL     OW22006   1.235   0.119   3.745  0.0341  0.0463  0.0001
 3457SOL    HW122007   1.322   0.153   3.767  0.5656 -0.7030 -0.9646
 3457SOL    HW222008   1.200   0.193   3.696  2.3882  1.0243 -0.1953
 3458SOL     OW22009   1.589   0.180   5.364 -0.0792  0.3832 -0.5426
 3458SOL    HW122010   1.556   0.177   5.274  1.1529 -1.4472 -0.9192
 3458SOL    HW222011   1.578   0.089   5.391  0.2130  0.2832 -0.7689
 3459SOL     OW22012   0.381   0.998   7.157  0.0689 -0.1771 -0.4341
 3459SOL    HW122013   0.347   1.007   7.246  1.2867  1.3957 -0.1182
 3459SOL    HW222014   0.321   1.056   7.111 -0.5220  0.0323  0.5910
 3460SOL     OW22015   1.830   0.101   4.804 -0.2424 -0.3923  0.2572
 3460SOL    HW122016   1.921   0.087   4.778  0.2260  1.7045  0.7039
 3460SOL    HW222017   1.834   0.160   4.880 -0.5848 -0.5226  0.3793
 3461SOL     OW22018   0.872   2.672   2.627  0.4747 -0.2822 -0.0485
 3461SOL    HW122019   0.899   2.753   2.670 -0.0063 -0.0611 -0.1548
 3461SOL    HW222020   0.898   2.611   2.695 -0.2147  0.1210  0.5800
 3462SOL     OW22021   2.144   3.286   0.070  0.1833 -0.0631  0.3484
 3462SOL    HW122022   2.160   3.313  17.728 -0.7572 -0.4003  0.0877
 3462SOL    HW222023   2.050   3.272   0.068  0.3966 -1.5275  0.8766
 3463SOL     OW22024   2.050   1.527   8.143 -0.0110  0.1528  0.0689
 3463SOL    HW122025   2.008   1.505   8.227  0.8910  0.1477  0.5154
 3463SOL    HW222026   2.132   1.478   8.145  0.9035  1.7009  0.4894
 3464SOL     OW22027   0.348   2.178  13.437  0.1825 -0.0904  0.4032
 3464SOL    HW122028   0.337   2.212  13.526  0.0088  1.1896 -0.1132
 3464SOL    HW222029   0.353   2.257  13.384 -1.7330  0.9878  1.8182
 3465SOL     OW22030   1.859   3.001   8.121 -0.3302  0.6025 -0.1970
 3465SOL    HW122031   1.910   2.992   8.202 -1.6139 -1.8348  0.3568
 3465SOL    HW222032   1.789   2.940   8.144  0.0574 -0.1949 -1.1449
 3466SOL     OW22033   3.628   4.700   2.619 -0.9025  0.1767  0.1177
 3466SOL    HW122034   3.698   0.027   2.627 -0.5163  0.0000 -1.8731
 3466SOL    HW222035   3.620   4.669   2.710  2.0409  1.0882  0.7042
 3467SOL     OW22036   2.239   2.772   4.221  0.6983  0.3886  0.0172
 3467SOL    HW122037   2.217   2.732   4.137  0.6792  0.3493  0.0409
 3467SOL    HW222038   2.301   2.837   4.188  1.2770  0.3959  1.1155
 3468SOL     OW22039   0.677   3.992   8.830  0.3552 -0.2421 -0.7620
 3468SOL    HW122040   0.622   4.053   8.781  2.0559 -0.5515 -3.0649
 3468SOL    HW222041   0.630   3.995   8.913  2.4197 -0.0209  0.4136
 3469SOL     OW22042   2.836   0.660   7.348  0.3038 -0.7259 -0.0816
 3469SOL    HW122043   2.816   0.598   7.419 -4.0470  1.0594  0.2195
 3469SOL    HW222044   2.861   0.733   7.405 -0.8896  0.8160 -1.5653
 3470SOL     OW22045   3.039   0.076   0.558 -0.4669  0.2056 -0.5655
 3470SOL    HW122046   3.034   4.734   0.611 -1.6667  0.9781  0.4654
 3470SOL    HW222047   3.112   0.128   0.591 -0.5943  0.9174 -1.4025
 3471SOL     OW22048   1.926   2.978   6.442 -0.5402  0.2714  0.8206
 3471SOL    HW122049   1.891   2.904   6.492  2.6512 -2.0057 -0.3795
 3471SOL    HW222050   1.924   2.937   6.356  0.9071  2.1402 -0.0863
 3472SOL     OW22051   3.507   4.689   8.981 -0.4595 -0.3402 -0.7027
 3472SOL    HW122052   3.415   4.672   8.960 -0.4571 -0.6435 -0.4571
 3472SOL    HW222053   3.545   0.001   8.908  2.0627  1.6807  2.0368
 3473SOL     OW22054   0.855   2.119   6.162 -0.2573 -0.5343 -0.7062
 3473SOL    HW122055   0.901   2.171   6.227  2.0569 -1.4528 -1.6280
 3473SOL    HW222056   0.762   2.135   6.180 -0.3917 -1.2637 -0.7370
 3474SOL     OW22057   2.500   0.947   7.800  0.5803 -0.5449 -0.2434
 3474SOL    HW122058   2.560   0.984   7.866  0.4225  0.2538 -0.5498
 3474SOL    HW222059   2.425   1.005   7.796  0.9586  0.0872  1.7107
 3475SOL     OW22060   1.067   3.280   5.205 -0.5659 -0.1563 -0.0016
 3475SOL    HW122061   1.046   3.190   5.231 -0.9404  0.0087  0.2592
 3475SOL    HW222062   1.033   3.322   5.284  0.6745  0.4737  0.2023
 3476SOL     OW22063   3.876   1.594  11.680 -0.2869 -0.2137 -0.3809
 3476SOL    HW122064   3.838   1.617  11.765 -0.4404  0.7948 -0.7249
 3476SOL    HW222065   3.888   1.499  11.679  0.0894 -0.1715 -0.1613
 3477SOL     OW22066   0.759   2.989  11.041  0.1170  0.5989 -0.4069
 3477SOL    HW122067   0.851   2.971  11.060 -0.6163 -1.2069  1.4487
 3477SOL    HW222068   0.754   3.084  11.044  2.5264  0.6943  0.8220
 3478SOL     OW22069   4.633   1.736   5.184 -0.6948 -0.0975  0.4893
 3478SOL    HW122070   4.560   1.787   5.219 -0.7604 -0.9594  1.6227
 3478SOL    HW222071   4.687   1.803   5.143 -0.5759 -0.4961  0.0011
 3479SOL     OW22072   1.061   1.270   5.260 -0.0947  0.1935  0.4367
 3479SOL    HW122073   1.093   1.307   5.342 -1.1399  1.4378  0.2662
 3479SOL    HW222074   0.976   1.311   5.271  0.6412  1.8358  0.0771
 3480SOL     OW22075   2.806   2.181   9.155 -0.2722  0.5117  0.1500
 3480SOL    HW122076   2.855   2.258   9.128 -0.3417  0.9969  1.3959
 3480SOL    HW222077   2.727   2.195   9.102  0.0285 -0.1908 -0.4874
 3481SOL     OW22078   3.894   3.692   6.012 -0.1384 -0.7658 -0.7481
 3481SOL    HW122079   3.864   3.640   6.087 -2.1171 -0.6648 -1.4917
 3481SOL    HW222080   3.983   3.665   6.036 -0.4051  0.0211  1.1581
 3482SOL     OW22081   0.319   3.921   8.010 -0.3342  1.0871  0.5553
 3482SOL    HW122082   0.282   3.844   8.052  0.4679 -0.2974 -1.2629
 3482SOL    HW222083   0.263   3.988   8.051 -0.6679  0.5670  0.9398
 3483SOL     OW22084   0.874   3.039   9.010  0.3257 -0.0709  0.2966
 3483SOL    HW122085   0.914   3.091   9.080  1.5000 -1.1726  0.4425
 3483SOL    HW222086   0.902   3.089   8.934 -1.9478 -1.4740 -1.4895
 3484SOL     OW22087   2.524   2.779   5.188 -0.0875 -0.2828  0.2785
 3484SOL    HW122088   2.524   2.874   5.175 -1.5703 -0.1552  1.3118
 3484SOL    HW222089   2.445   2.750   5.143 -1.0642  4.1419 -0.8600
 3485SOL     OW22090   1.257   3.381   9.835 -0.0154 -0.1228  0.3103
 3485SOL    HW122091   1.249   3.287   9.818 -0.8157  0.1594 -0.9241
 3485SOL    HW222092   1.170   3.396   9.872  0.0078  0.1811  0.2396
 3486SOL     OW22093   4.667   3.027   8.005  0.4549  0.0370 -0.1896
 3486SOL    HW122094   4.712   3.076   8.075  0.2355  0.3307 -0.2545
 3486SOL    HW222095   4.633   2.958   8.062 -0.5407 -0.6214 -1.6078
 3487SOL     OW22096   3.521   4.472  12.124  0.0592 -0.1231 -0.0686
 3487SOL    HW122097   3.530   4.407  12.054  0.3883  2.9957 -2.9788
 3487SOL    HW222098   3.531   4.414  12.199 -1.5309 -1.1591 -0.6629
 3488SOL     OW22099   2.266   3.448   2.534  0.4392 -0.1196 -0.2351
 3488SOL    HW122100   2.291   3.537   2.559  0.7019 -0.4245  0.5961
 3488SOL    HW222101   2.339   3.405   2.578 -0.5593 -1.1363  0.4446
 3489SOL     OW22102   0.109   2.492   9.196 -0.0605  0.3173 -0.3030
 3489SOL    HW122103   0.134   2.515   9.285 -0.6556  1.0485 -0.3206
 3489SOL    HW222104   0.058   2.567   9.166 -0.7695  0.9154  2.4123
 3490SOL     OW22105   0.779   4.567  11.676  0.1243  0.0175 -0.0547
 3490SOL    HW122106   0.849   4.507  11.653 -0.4329 -1.3433  1.8593
 3490SOL    HW222107   0.839   4.622  11.726 -1.4180 -1.9067  3.8710
 3491SOL     OW22108   1.908   0.710   6.886  0.4818 -0.0611  0.2442
 3491SOL    HW122109   1.936   0.730   6.796 -0.9478  1.8475  0.2127
 3491SOL    HW222110   1.990   0.737   6.929  0.7704  0.1947 -0.4608
 3492SOL     OW22111   0.876   3.028  11.919  0.1202 -0.2622  0.1496
 3492SOL    HW122112   0.870   3.076  12.002 -1.3503 -0.3097  0.0797
 3492SOL    HW222113   0.782   3.013  11.907 -0.0837  3.0192 -1.9644
 3493SOL     OW22114   1.697   2.420   9.593 -0.0896  0.4856  0.3372
 3493SOL    HW122115   1.786   2.447   9.616 -0.2001  0.7011  0.5093
 3493SOL    HW222116   1.697   2.349   9.658  1.0270 -1.3431 -1.6499
 3494SOL     OW22117   3.062   2.646  17.123  0.4656  0.6773 -0.5169
 3494SOL    HW122118   3.083   2.580  17.190 -3.8749  0.3563  0.5684
 3494SOL    HW222119   3.097   2.727  17.160  0.2064  0.2581  0.6509
 3495SOL     OW22120   1.738   0.634  15.792  0.0823  0.3544 -0.1489
 3495SOL    HW122121   1.712   0.673  15.876  2.1079  0.5790  0.3752
 3495SOL    HW222122   1.697   0.694  15.730 -3.6157  0.1886  2.1197
 3496SOL     OW22123   0.512   4.601   3.272 -0.4590 -0.0584 -0.2346
 3496SOL    HW122124   0.500   4.511   3.241  1.2168  0.3760 -2.1471
 3496SOL    HW222125   0.605   4.618   3.291 -0.6977 -0.0492  0.8961
 3497SOL     OW22126   4.572   0.857   7.664 -0.3334 -0.2647 -0.3844
 3497SOL    HW122127   4.641   0.832   7.602  0.3143 -0.1327  0.2780
 3497SOL    HW222128   4.604   0.828   7.750  2.1872  1.1564 -0.8384
 3498SOL     OW22129   1.299   3.946   6.816 -0.4624  0.1645  1.1607
 3498SOL    HW122130   1.326   3.862   6.853 -1.5448 -0.2484  1.0029
 3498SOL    HW222131   1.328   4.011   6.881  1.3965 -0.3070  0.7891
 3499SOL     OW22132   4.374   3.927   3.350  0.2190 -0.1079 -0.9566
 3499SOL    HW122133   4.334   3.905   3.267  0.1063 -0.9157 -0.6888
 3499SOL    HW222134   4.463   3.947   3.320  1.2833  0.5161  2.5887
 3500SOL     OW22135   4.416   1.846   9.544 -0.1088  0.2668  0.1509
 3500SOL    HW122136   4.423   1.934   9.508 -1.6139  0.1674 -0.4105
 3500SOL    HW222137   4.322   1.826   9.544 -0.2339  0.8700  1.7494
 3501SOL     OW22138   3.084   1.657   4.626 -0.4418  0.3409  0.2661
 3501SOL    HW122139   3.103   1.563   4.621  0.2283  0.3615  2.5951
 3501SOL    HW222140   3.118   1.681   4.712 -0.1270  1.3414 -0.1420
 3502SOL     OW22141   0.453   3.723  13.571  0.3816  0.0947 -0.8023
 3502SOL    HW122142   0.509   3.661  13.523  1.8320  0.9526 -0.2335
 3502SOL    HW222143   0.444   3.677  13.655 -1.0357  1.0267 -0.4570
 3503SOL     OW22144   1.711   0.397   0.012  0.0815 -0.5789 -0.2089
 3503SOL    HW122145   1.788   0.407  17.705  0.9919  1.0748  1.3657
 3503SOL    HW222146   1.731   0.308   0.042 -1.5375 -0.2665  1.7852
 3504SOL     OW22147   1.401   2.592  12.996  1.1780  0.0838 -0.5531
 3504SOL    HW122148   1.347   2.663  12.960  2.3023  1.7888  1.0748
 3504SOL    HW222149   1.340   2.520  13.009 -0.7256  1.8434  0.3205
 3505SOL     OW22150   2.652   3.804   7.105 -0.4155  0.5106  0.5634
 3505SOL    HW122151   2.703   3.735   7.148  0.1088  1.1080  0.9083
 3505SOL    HW222152   2.576   3.751   7.083 -0.9739  1.7528 -0.4380
 3506SOL     OW22153   0.247   2.143   5.489  0.3341 -0.5033 -0.0182
 3506SOL    HW122154   0.199   2.223   5.511  1.0711  0.2671 -1.1576
 3506SOL    HW222155   0.178   2.098   5.440  0.0536 -1.1348  0.9719
 3507SOL     OW22156   3.362   2.272  15.867  0.1773 -0.1071 -0.3191
 3507SOL    HW122157   3.299   2.344  15.862  0.2090 -0.1002 -0.5927
 3507SOL    HW222158   3.431   2.317  15.916  0.7563 -1.1586 -0.1675
 3508SOL     OW22159   4.715   4.697   6.153 -0.3120  0.4155  0.2151
 3508SOL    HW122160   0.015   4.720   6.239  0.0201 -1.1640  0.4958
 3508SOL    HW222161   4.623   4.711   6.174 -0.4356  2.2034 -1.5713
 3509SOL     OW22162   3.626   3.853  12.025  0.0718  0.3687 -0.0265
 3509SOL    HW122163   3.699   3.828  12.081  0.5962  1.6489 -0.1350
 3509SOL    HW222164   3.559   3.790  12.050  0.9917 -1.4260 -2.1241
 3510SOL     OW22165   2.549   0.330  11.064  0.2658 -0.1343  0.1717
 3510SOL    HW122166   2.467   0.320  11.113 -0.2594 -0.4690 -0.7789
 3510SOL    HW222167   2.577   0.239  11.064 -1.4720 -0.6693  1.3347
 3511SOL     OW22168   2.892   1.892   9.324 -0.1033 -0.5807 -0.1595
 3511SOL    HW122169   2.840   1.914   9.402 -0.6011  2.4428 -1.3709
 3511SOL    HW222170   2.879   1.797   9.330  1.1447 -0.8508 -2.0407
 3512SOL     OW22171   4.260   0.332   0.303 -0.2556 -0.5442 -0.2111
 3512SOL    HW122172   4.187   0.324   0.365  0.0844  0.1539  0.2764
 3512SOL    HW222173   4.288   0.422   0.316  1.6283 -1.4580  1.9800
 3513SOL     OW22174   0.374   2.459  13.184  0.4924 -0.3489  0.0708
 3513SOL    HW122175   0.453   2.492  13.226 -0.3065 -0.6715  1.8392
 3513SOL    HW222176   0.307   2.498  13.241  0.5389  1.2623 -0.9552
 3514SOL     OW22177   2.011   0.013  15.923 -0.2538  0.7492 -0.3633
 3514SOL    HW122178   1.984   4.659  15.919  1.7588  0.0764  1.6007
 3514SOL    HW222179   2.071   0.021  15.849 -2.6822  1.6996 -2.2325
 3515SOL     OW22180   0.859   1.037   6.659 -0.3098 -0.5964 -0.6951
 3515SOL    HW122181   0.854   1.107   6.724  0.8948 -3.1893  2.1763
 3515SOL    HW222182   0.951   1.035   6.633 -0.3493 -1.4577 -0.7775
 3516SOL     OW22183   4.496   1.096   2.803 -0.2318  0.2641 -0.4643
 3516SOL    HW122184   4.460   1.167   2.750 -0.3248 -0.0225 -0.7872
 3516SOL    HW222185   4.414   1.058   2.833 -0.6909  2.0875  0.5894
 3517SOL     OW22186   0.628   3.996   6.398 -0.1244 -0.4521 -0.0829
 3517SOL    HW122187   0.613   3.924   6.338  0.0801  2.1201 -3.2003
 3517SOL    HW222188   0.658   3.942   6.472  1.8137 -0.9875 -1.2554
 3518SOL     OW22189   1.315   2.162   9.269  0.0579 -0.0300  0.1983
 3518SOL    HW122190   1.308   2.092   9.334 -0.4115 -0.3970 -0.2485
 3518SOL    HW222191   1.269   2.131   9.191 -0.7024  0.3491  0.5011
 3519SOL     OW22192   1.998   1.959   8.045 -0.0577  0.2505 -0.5643
 3519SOL    HW122193   2.061   2.029   8.024 -0.2577  0.0241 -1.9001
 3519SOL    HW222194   2.050   1.885   8.014 -1.0263 -0.6578 -0.0134
 3520SOL     OW22195   4.056   3.988   2.154  0.3614 -0.3720 -0.5125
 3520SOL    HW122196   4.129   3.949   2.202  2.8224  4.1558 -0.6057
 3520SOL    HW222197   3.989   3.927   2.186  0.1898 -0.3483 -0.8222
 3521SOL     OW22198   4.380   0.115  16.600  0.5475  0.1791  0.4061
 3521SOL    HW122199   4.316   0.046  16.578  1.4474 -0.3078 -0.6449
 3521SOL    HW222200   4.385   0.096  16.694 -0.7493  0.9910  0.6290
 3522SOL     OW22201   1.314   4.135   8.013  0.4298 -0.5438  0.2931
 3522SOL    HW122202   1.378   4.096   8.072  1.2322 -0.3338 -0.4329
 3522SOL    HW222203   1.352   4.112   7.928 -2.2144  0.0019 -1.0427
 3523SOL     OW22204   1.705   0.860  17.660 -0.0379 -0.4304  0.4448
 3523SOL    HW122205   1.712   0.954  17.641  0.7154 -0.5526  0.1309
 3523SOL    HW222206   1.619   0.840  17.623 -0.8549 -0.0816  2.1484
 3524SOL     OW22207   1.826   0.047   3.190  0.1449 -0.2824  0.1217
 3524SOL    HW122208   1.735   0.015   3.188  0.0949 -0.0014 -2.6691
 3524SOL    HW222209   1.875   4.712   3.152  0.8282  0.3829 -0.2750
 3525SOL     OW22210   4.093   2.546   5.654  0.6037 -0.2293  0.0872
 3525SOL    HW122211   4.157   2.524   5.722  0.1423 -2.2625 -0.1392
 3525SOL    HW222212   4.125   2.504   5.574  0.7936  0.7812 -0.3760
 3526SOL     OW22213   3.930   4.056  17.029  0.3474 -0.6777 -0.1955
 3526SOL    HW122214   3.870   3.986  17.005  0.3346 -0.1690 -1.6398
 3526SOL    HW222215   3.953   4.089  16.942  1.8571 -0.2654  0.3553
 3527SOL     OW22216   1.337   2.634   9.997 -0.8891 -0.4623  0.1070
 3527SOL    HW122217   1.378   2.591   9.922 -2.9369 -0.0684 -1.2446
 3527SOL    HW222218   1.350   2.566  10.063 -0.2298 -0.0606  0.3957
 3528SOL     OW22219   3.272   2.290  12.744 -0.1954 -0.0747 -0.4856
 3528SOL    HW122220   3.356   2.245  12.741 -0.5744 -0.7986 -0.2920
 3528SOL    HW222221   3.240   2.263  12.830  1.9000 -1.3065 -0.1211
 3529SOL     OW22222   4.133   4.231  14.429 -0.0401 -0.1829  0.1364
 3529SOL    HW122223   4.075   4.300  14.461 -0.7254  0.1167 -1.7126
 3529SOL    HW222224   4.079   4.223  14.350 -1.7851 -0.4059  1.3498
 3530SOL     OW22225   4.638   0.306   9.157 -0.3263 -0.0671  0.0281
 3530SOL    HW122226   4.634   0.245   9.230  0.3484  1.2827  1.2032
 3530SOL    HW222227   4.704   0.370   9.184 -0.0999 -0.8876  1.4010
 3531SOL     OW22228   1.488   1.305   6.068 -0.1270 -0.2233  0.3485
 3531SOL    HW122229   1.550   1.237   6.093  2.0832  2.1637  1.3503
 3531SOL    HW222230   1.450   1.255   5.996 -1.7323  0.4531  0.7200
 3532SOL     OW22231   4.253   4.605   9.999 -0.4901  0.2493  0.3286
 3532SOL    HW122232   4.209   4.615   9.915  1.0519 -0.8948 -0.6237
 3532SOL    HW222233   4.285   4.694  10.016 -2.0193  0.1452  3.8511
 3533SOL     OW22234   0.028   0.719   8.932 -0.9629  0.3339 -0.2847
 3533SOL    HW122235   0.114   0.760   8.924  0.6380 -2.7411  0.8775
 3533SOL    HW222236   4.712   0.796   8.951 -0.1662  0.3288  1.9782
 3534SOL     OW22237   0.940   0.006   9.048  0.0646 -0.4678 -0.3716
 3534SOL    HW122238   0.984   0.076   8.999  1.7376 -1.3925 -0.1680
 3534SOL    HW222239   0.976   0.021   9.135  0.8736 -0.2779 -0.7370
 3535SOL     OW22240   4.517   2.471   1.318  0.4760  0.3752  0.7289
 3535SOL    HW122241   4.487   2.409   1.252  0.0426  0.0855  1.1974
 3535SOL    HW222242   4.570   2.532   1.267 -0.6346  0.4571 -0.3296
 3536SOL     OW22243   2.730   1.056   5.038 -0.3245 -0.7287 -0.3045
 3536SOL    HW122244   2.685   1.109   4.973  0.5564 -0.6073 -0.8176
 3536SOL    HW222245   2.769   1.127   5.090 -1.3213 -1.6156  1.6463
 3537SOL     OW22246   1.321   2.746   1.862  0.0938 -0.2563 -0.1822
 3537SOL    HW122247   1.282   2.735   1.775 -0.5089  0.1380  0.0300
 3537SOL    HW222248   1.412   2.722   1.846  0.6016  2.1208 -0.8123
 3538SOL     OW22249   4.699   3.745   7.987 -0.0115  0.1057 -0.0079
 3538SOL    HW122250   0.019   3.728   7.912 -0.0804  0.7519 -0.2098
 3538SOL    HW222251   4.619   3.693   7.976  0.4433 -1.0832  2.3622
 3539SOL     OW22252   4.000   0.611  12.373  0.3339  0.1564  1.1431
 3539SOL    HW122253   3.982   0.650  12.459 -1.2961 -2.8489  2.1587
 3539SOL    HW222254   3.957   0.673  12.314 -0.3008 -2.0122 -0.6617
 3540SOL     OW22255   1.234   2.615   6.431 -0.2575  0.3091  0.1480
 3540SOL    HW122256   1.184   2.640   6.509  0.1127  1.5698 -0.0150
 3540SOL    HW222257   1.258   2.702   6.399 -0.7102  0.7038  0.8974
 3541SOL     OW22258   1.825   1.991   7.835  0.4845 -0.3593 -0.3701
 3541SOL    HW122259   1.882   1.994   7.913  0.7318  2.5622 -0.6944
 3541SOL    HW222260   1.742   1.953   7.863  1.4207 -1.3861  1.0315
 3542SOL     OW22261   3.572   4.031   7.867  0.7050 -0.0987  0.1717
 3542SOL    HW122262   3.595   4.023   7.959  0.5411  0.5967  0.2676
 3542SOL    HW222263   3.487   3.986   7.874  0.9095 -0.6391 -0.7422
 3543SOL     OW22264   3.483   2.557  14.621 -0.0727 -0.7381  0.4647
 3543SOL    HW122265   3.557   2.609  14.592 -1.8226 -0.2157 -2.9614
 3543SOL    HW222266   3.488   2.565  14.717 -0.6176 -0.6624  0.4910
 3544SOL     OW22267   2.611   4.278   8.537 -0.0645  0.0595  0.0150
 3544SOL    HW122268   2.675   4.332   8.583  0.4815 -2.0764  1.7371
 3544SOL    HW222269   2.535   4.304   8.590  0.3969  1.6963 -0.1240
 3545SOL     OW22270   2.156   4.115  15.745  0.3230  0.1143  0.3683
 3545SOL    HW122271   2.168   4.071  15.829  0.4320 -0.6275 -0.0326
 3545SOL    HW222272   2.087   4.178  15.766 -0.6577 -0.1997 -1.8613
 3546SOL     OW22273   0.546   0.346   7.528 -0.3879  0.4386 -0.0737
 3546SOL    HW122274   0.459   0.384   7.529 -0.0770  1.1909 -1.2920
 3546SOL    HW222275   0.584   0.377   7.610 -3.3694  1.6591  0.8140
 3547SOL     OW22276   0.655   4.280   9.036  0.0977  0.2685 -0.6972
 3547SOL    HW122277   0.634   4.277   8.943 -1.3822 -2.4874 -0.2731
 3547SOL    HW222278   0.574   4.307   9.078 -0.4616 -2.3467 -0.0502
 3548SOL     OW22279   2.175   0.372  15.284 -0.3559 -0.1024 -0.5551
 3548SOL    HW122280   2.126   0.289  15.288 -1.3450  0.4645 -0.7221
 3548SOL    HW222281   2.100   0.429  15.263 -0.4977 -0.6534 -1.5638
 3549SOL     OW22282   1.854   1.585   8.465  0.0293  0.0700 -0.0760
 3549SOL    HW122283   1.872   1.659   8.407  0.2604 -1.0127 -1.3919
 3549SOL    HW222284   1.855   1.631   8.549  0.8548 -0.1509  0.0337
 3550SOL     OW22285   3.006   2.581  10.041  0.1299  0.2586  0.3281
 3550SOL    HW122286   3.063   2.616  10.109  0.5336  0.9459 -0.3717
 3550SOL    HW222287   2.933   2.642  10.053  0.1828  0.5841 -1.0058
 3551SOL     OW22288   4.171   3.337  14.449 -0.0534 -0.1953  0.1120
 3551SOL    HW122289   4.200   3.259  14.495 -1.0645  0.8202  2.4473
 3551SOL    HW222290   4.081   3.335  14.482 -0.4095 -0.3431 -0.8441
 3552SOL     OW22291   2.460   2.102   7.080  0.2055 -0.3330  0.0636
 3552SOL    HW122292   2.408   2.133   7.155  0.3361 -1.8798  0.7903
 3552SOL    HW222293   2.529   2.168   7.077 -0.8510  0.8998  3.0428
 3553SOL     OW22294   3.773   3.272   5.971  0.6250 -0.4974 -0.0396
 3553SOL    HW122295   3.790   3.322   6.051  0.9006 -3.6975  1.9455
 3553SOL    HW222296   3.722   3.194   5.995  1.0342 -0.7996 -0.1473
 3554SOL     OW22297   2.530   4.304   9.954  0.0701  0.0322 -0.0850
 3554SOL    HW122298   2.521   4.388   9.999  1.4857 -0.1807  0.5770
 3554SOL    HW222299   2.443   4.297   9.913  1.8462 -0.0661 -3.8169
 3555SOL     OW22300   2.438   1.597  13.815 -0.8614 -0.1502 -0.2829
 3555SOL    HW122301   2.363   1.541  13.798 -1.1414  0.3986 -0.8734
 3555SOL    HW222302   2.498   1.583  13.742  0.7672 -2.2064  1.4484
 3556SOL     OW22303   1.147   2.817   3.870 -0.2932 -0.0505  0.1287
 3556SOL    HW122304   1.228   2.868   3.864 -2.5609  3.2673 -1.6676
 3556SOL    HW222305   1.182   2.746   3.924  1.4942 -0.3849 -1.4349
 3557SOL     OW22306   4.222   0.734   5.546  0.1939  0.2892 -1.1373
 3557SOL    HW122307   4.171   0.797   5.597 -0.0048  0.6077 -1.7286
 3557SOL    HW222308   4.168   0.720   5.468  0.3303 -0.7712 -1.0392
 3558SOL     OW22309   2.043   4.002  13.730  0.1216 -0.5186  0.6095
 3558SOL    HW122310   2.079   4.057  13.800 -0.2005  1.2497 -0.6055
 3558SOL    HW222311   2.004   3.927  13.774 -1.9448  0.0577 -0.2140
 3559SOL     OW22312   3.306   3.284   1.923 -0.4528 -0.0722 -0.0712
 3559SOL    HW122313   3.228   3.230   1.912  0.1537 -0.7550 -1.1338
 3559SOL    HW222314   3.379   3.230   1.891 -0.3896 -1.3252  2.1960
 3560SOL     OW22315   3.906   2.474   5.906  0.7923 -0.1672 -0.1332
 3560SOL    HW122316   3.842   2.544   5.903  1.2997  0.3647  1.6242
 3560SOL    HW222317   3.950   2.500   5.824  1.6390  0.2792  0.4578
 3561SOL     OW22318   4.595   1.877   3.085  0.4879 -0.3008 -0.0984
 3561SOL    HW122319   4.577   1.785   3.106 -1.2179 -0.0724 -0.5430
 3561SOL    HW222320   4.660   1.894   3.153  1.0875 -0.2238 -0.6831
 3562SOL     OW22321   4.624   1.986  11.230  0.0107 -0.0371  0.3773
 3562SOL    HW122322   4.584   1.936  11.301  0.7210 -2.3150 -0.8322
 3562SOL    HW222323   4.692   2.030  11.282  1.5881 -0.5054 -1.2513
 3563SOL     OW22324   1.899   1.440   0.823 -0.2515  0.0095  0.3478
 3563SOL    HW122325   1.966   1.501   0.853  0.2411  0.6820 -2.1308
 3563SOL    HW222326   1.879   1.470   0.734  3.1244 -0.7318 -0.6786
 3564SOL     OW22327   0.780   4.639   1.874  0.3317  0.6221 -0.2796
 3564SOL    HW122328   0.726   4.573   1.917  0.4575 -0.5132 -1.8587
 3564SOL    HW222329   0.749   4.721   1.913 -0.4668  0.4747 -0.6036
 3565SOL     OW22330   1.662   1.908   2.218  0.4961  0.0839  0.0392
 3565SOL    HW122331   1.693   1.926   2.307 -1.0516  2.7586  0.0190
 3565SOL    HW222332   1.747   1.876   2.186  0.2916  2.2659 -2.6398
 3566SOL     OW22333   3.090   3.504  10.568 -0.2341 -0.6664 -0.2290
 3566SOL    HW122334   3.079   3.421  10.614 -0.3159 -0.8511 -0.5791
 3566SOL    HW222335   3.181   3.526  10.587 -0.4761  1.2908 -1.3634
 3567SOL     OW22336   1.054   3.085   4.090  0.4295  1.0109 -0.3923
 3567SOL    HW122337   1.122   3.022   4.112 -2.6740 -0.9951  3.4967
 3567SOL    HW222338   0.968   3.045   4.104  0.9214  0.3147  0.6054
 3568SOL     OW22339   1.571   0.375   6.880  0.0134 -0.1025 -0.5667
 3568SOL    HW122340   1.563   0.346   6.970  0.6306 -0.2861 -0.5741
 3568SOL    HW222341   1.479   0.375   6.854  0.6060 -0.4407 -2.7025
 3569SOL     OW22342   3.723   0.833   6.281 -0.5855  0.1147 -0.1227
 3569SOL    HW122343   3.655   0.866   6.340  0.0267  2.8736 -0.9689
 3569SOL    HW222344   3.683   0.751   6.252  1.0801 -0.7749  0.0929
 3570SOL     OW22345   0.266   3.630   1.268  0.4979 -0.5038 -0.3343
 3570SOL    HW122346   0.336   3.612   1.205 -0.2585  2.6035 -2.0936
 3570SOL    HW222347   0.215   3.698   1.223 -0.3002 -0.4389  0.6596
 3571SOL     OW22348   4.692   4.382   3.748  0.4282  0.2430  0.0595
 3571SOL    HW122349   0.047   4.378   3.721  0.6577  1.6488  0.6631
 3571SOL    HW222350   4.666   4.464   3.706 -0.0004  0.1746  0.1997
 3572SOL     OW22351   2.019   1.704   4.653  0.4617 -0.2570  0.4527
 3572SOL    HW122352   2.064   1.627   4.689  0.6976  0.5272  1.8345
 3572SOL    HW222353   1.939   1.663   4.621  1.5763 -1.9258 -0.2034
 3573SOL     OW22354   1.075   2.723  10.003  0.7385  0.2831 -0.1867
 3573SOL    HW122355   1.028   2.642   9.981 -0.4798  0.4990  1.6158
 3573SOL    HW222356   1.167   2.699   9.995  0.2444 -0.9951 -2.2617
 3574SOL     OW22357   1.300   4.693  14.666 -0.0308  0.1880 -0.7144
 3574SOL    HW122358   1.249   4.711  14.588 -1.9317  2.0705  0.9930
 3574SOL    HW222359   1.239   4.731  14.729  2.6690  0.2871  1.8527
 3575SOL     OW22360   2.318   3.476   8.808  0.5444 -0.3436  0.1653
 3575SOL    HW122361   2.287   3.471   8.898  0.0507  0.0907  0.0180
 3575SOL    HW222362   2.405   3.438   8.817 -0.8198 -3.6529 -0.5426
 3576SOL     OW22363   4.134   1.168  12.751 -0.0728 -0.1719  0.0489
 3576SOL    HW122364   4.108   1.240  12.809 -0.7011  0.3335 -0.8573
 3576SOL    HW222365   4.119   1.090  12.805 -1.1217 -0.0065  0.0065
 3577SOL     OW22366   1.445   0.379   1.931 -0.4561  0.1427  0.4842
 3577SOL    HW122367   1.378   0.367   1.998  0.2760  1.9376  1.5270
 3577SOL    HW222368   1.460   0.290   1.898 -3.0267  0.7477 -2.2936
 3578SOL     OW22369   4.337   0.288  12.201  0.7479  0.3253 -0.6110
 3578SOL    HW122370   4.294   0.366  12.167  0.2569  1.5382  2.7948
 3578SOL    HW222371   4.317   0.286  12.295  1.4271  1.3361 -0.4494
 3579SOL     OW22372   0.580   2.336   6.910  0.4441 -0.1491  0.2187
 3579SOL    HW122373   0.505   2.384   6.877 -1.1093 -2.0520  0.9518
 3579SOL    HW222374   0.531   2.286   6.976  0.0791  0.2235  0.2257
 3580SOL     OW22375   2.038   3.185   1.242  0.7191 -0.1888  0.2692
 3580SOL    HW122376   2.072   3.111   1.292  2.4143  1.7321  1.9466
 3580SOL    HW222377   2.086   3.172   1.160  0.9698  0.2485  0.3455
 3581SOL     OW22378   3.135   0.319  14.964 -0.1090  0.0301 -0.4523
 3581SOL    HW122379   3.114   0.341  14.874 -3.0219  2.3944  0.8145
 3581SOL    HW222380   3.109   0.403  15.001 -0.7267 -0.0536 -0.6935
 3582SOL     OW22381   4.553   4.062   6.661  0.3447  0.7088 -0.0164
 3582SOL    HW122382   4.466   4.097   6.640  0.1594  0.9289  1.0909
 3582SOL    HW222383   4.598   4.086   6.580  2.1797 -0.2696  0.7048
 3583SOL     OW22384   1.365   0.215   5.681  0.6053  0.1139  0.3882
 3583SOL    HW122385   1.299   0.181   5.621  0.6291  0.4626  0.1656
 3583SOL    HW222386   1.351   0.146   5.746 -0.7839  0.7541  0.7635
 3584SOL     OW22387   0.304   3.165   0.173  0.2275  0.5404 -0.4649
 3584SOL    HW122388   0.262   3.203   0.096  0.3806 -0.6118 -1.1085
 3584SOL    HW222389   0.363   3.097   0.144  2.2635  2.8923 -1.8069
 3585SOL     OW22390   1.627   0.166   1.207 -0.0688 -0.3835  0.4102
 3585SOL    HW122391   1.531   0.163   1.209 -0.1131 -0.0489 -1.0727
 3585SOL    HW222392   1.652   0.109   1.279 -0.9511 -0.9303  0.2922
 3586SOL     OW22393   4.383   0.481  14.253  0.3543 -0.3531 -0.5943
 3586SOL    HW122394   4.376   0.528  14.337  0.4406 -2.2412  0.4733
 3586SOL    HW222395   4.292   0.488  14.226  0.1299  1.0802  0.5238
 3587SOL     OW22396   0.231   3.803   4.120 -0.3722  0.0675  0.1426
 3587SOL    HW122397   0.325   3.786   4.132 -0.1616  0.9185 -0.2980
 3587SOL    HW222398   0.224   3.897   4.104  1.3893  0.0932 -0.4746
 3588SOL     OW22399   3.716   0.421   0.608  0.5801 -0.2507  0.3290
 3588SOL    HW122400   3.655   0.358   0.571  0.5821  0.6300 -1.1858
 3588SOL    HW222401   3.721   0.391   0.699 -2.2091  2.5512  1.4330
 3589SOL     OW22402   3.323   1.678  11.779 -0.3871 -0.6460  0.0406
 3589SOL    HW122403   3.334   1.651  11.688  1.8306 -0.8879  0.3874
 3589SOL    HW222404   3.345   1.600  11.830  1.1839  0.0725  0.4482
 3590SOL     OW22405   2.335   3.043   3.784 -0.1889 -0.1366 -0.1725
 3590SOL    HW122406   2.334   3.138   3.796 -1.1998 -0.1494 -0.1442
 3590SOL    HW222407   2.285   3.005   3.856  1.2477 -0.3560  0.7107
 3591SOL     OW22408   2.506   3.905  14.078  0.3531 -0.1026 -0.4090
 3591SOL    HW122409   2.500   3.848  14.001  0.2383  1.1536 -1.3221
 3591SOL    HW222410   2.414   3.900  14.107  0.9690  1.0809  1.7746
 3592SOL     OW22411   0.266   2.422   4.386  0.1454 -0.1582  0.7368
 3592SOL    HW122412   0.261   2.511   4.350  0.3856 -0.4941 -0.1500
 3592SOL    HW222413   0.279   2.366   4.309  1.8848  1.0316  0.1409
 3593SOL     OW22414   2.116   1.302   7.062  0.1108  0.5725 -0.5646
 3593SOL    HW122415   2.101   1.214   7.027 -2.1551  0.0820  1.7022
 3593SOL    HW222416   2.211   1.307   7.063  0.2287 -0.9311 -2.6439
 3594SOL     OW22417   3.890   0.786  12.624 -0.0982  0.4790  0.0348
 3594SOL    HW122418   3.927   0.764  12.710  1.9356 -0.6808 -1.1420
 3594SOL    HW222419   3.812   0.730  12.629  0.3417 -0.1288  0.1470
 3595SOL     OW22420   4.613   1.253   9.226 -0.4123 -0.5696 -0.4470
 3595SOL    HW122421   4.603   1.322   9.292 -0.8288 -1.8575  0.8466
 3595SOL    HW222422   4.537   1.198   9.243 -1.2919  0.6837 -0.3685
 3596SOL     OW22423   3.387   4.540   4.628  0.1491 -0.1487 -0.3195
 3596SOL    HW122424   3.388   4.469   4.693 -0.6683  1.7121  1.7511
 3596SOL    HW222425   3.365   4.484   4.555 -1.3839  0.2753 -0.1754
 3597SOL     OW22426   1.636   3.085   2.163  0.7404  0.5243  0.6728
 3597SOL    HW122427   1.572   3.143   2.120 -1.0565 -2.5235 -0.7791
 3597SOL    HW222428   1.713   3.142   2.157  0.8228  0.2725 -0.6790
 3598SOL     OW22429   0.627   3.042   8.725  0.0857 -0.6218  0.5193
 3598SOL    HW122430   0.693   3.104   8.755 -1.0726  0.4079  0.9900
 3598SOL    HW222431   0.552   3.051   8.785  0.5204 -0.1833  0.9933
 3599SOL     OW22432   1.918   1.863   7.635 -0.0810  0.3784 -0.2814
 3599SOL    HW122433   1.897   1.935   7.576  0.8238  0.9598  0.0943
 3599SOL    HW222434   1.895   1.903   7.719  1.3656  0.6184  0.0051
 3600SOL     OW22435   0.438   0.874   8.186  0.0746  0.0537  0.4547
 3600SOL    HW122436   0.454   0.935   8.257  1.2774 -1.0356  1.1161
 3600SOL    HW222437   0.408   0.796   8.234 -1.3678 -1.3652 -2.7137
 3601SOL     OW22438   4.255   4.025   4.069  0.4269 -0.4584  0.4233
 3601SOL    HW122439   4.305   3.962   4.016 -0.7071  0.0791 -1.2919
 3601SOL    HW222440   4.183   4.033   4.006 -0.5096  0.2434  1.6075
 3602SOL     OW22441   2.653   3.154   2.716  0.4181  0.0518  0.1496
 3602SOL    HW122442   2.619   3.202   2.640  0.8780  0.3248  0.1182
 3602SOL    HW222443   2.654   3.072   2.668 -0.6390 -0.2649  0.6812
 3603SOL     OW22444   3.556   3.782   2.825  0.2521  0.2592 -0.1522
 3603SOL    HW122445   3.575   3.692   2.852 -0.8427 -0.2263 -0.9695
 3603SOL    HW222446   3.586   3.814   2.909  0.7724  0.3225 -0.3644
 3604SOL     OW22447   0.690   2.807   6.656  0.7212 -0.6501  0.1904
 3604SOL    HW122448   0.778   2.774   6.672  1.2839  0.4665 -0.6094
 3604SOL    HW222449   0.662   2.760   6.578  1.5215  0.2400 -0.6220
 3605SOL     OW22450   2.562   2.179  13.838  0.1363 -0.2332 -0.4012
 3605SOL    HW122451   2.522   2.209  13.919 -0.0154 -0.8505 -0.2462
 3605SOL    HW222452   2.493   2.114  13.822  0.1363 -0.6556  1.2745
 3606SOL     OW22453   2.752   0.754   3.455 -0.0164 -0.5019 -0.3374
 3606SOL    HW122454   2.733   0.839   3.494  0.3845 -1.7590  2.5491
 3606SOL    HW222455   2.810   0.776   3.382 -2.0180 -0.4739 -1.9342
 3607SOL     OW22456   3.211   2.073  14.203 -0.0409  0.2685  0.1446
 3607SOL    HW122457   3.270   2.004  14.232  1.1934  1.0435 -0.5191
 3607SOL    HW222458   3.128   2.032  14.176 -0.8386  0.9165  1.6378
 3608SOL     OW22459   1.728   2.398   8.327  0.0260 -0.4560  0.4304
 3608SOL    HW122460   1.698   2.359   8.410  1.6210 -1.9692  0.2861
 3608SOL    HW222461   1.811   2.429   8.361 -0.3512  2.9623 -1.8046
 3609SOL     OW22462   3.609   3.941   9.010  0.0491  0.1406 -0.0347
 3609SOL    HW122463   3.675   3.883   9.049 -0.4474 -1.1844 -1.1662
 3609SOL    HW222464   3.534   3.882   9.005  0.8952 -0.8090 -1.4881
 3610SOL     OW22465   2.862   2.897   0.275  0.0479 -0.3399 -0.6349
 3610SOL    HW122466   2.855   2.971   0.335  2.8051  0.9065 -1.8837
 3610SOL    HW222467   2.854   2.945   0.193 -1.1360  0.9128  0.1889
 3611SOL     OW22468   3.278   3.588   3.527 -0.1661 -0.1341 -0.3957
 3611SOL    HW122469   3.346   3.533   3.486 -0.5440  0.1699 -1.4339
 3611SOL    HW222470   3.280   3.662   3.466 -0.7205  0.8059  0.7320
 3612SOL     OW22471   2.387   4.280  10.906  0.6647  0.5169 -0.3227
 3612SOL    HW122472   2.380   4.201  10.853  0.2681  0.1398  0.2945
 3612SOL    HW222473   2.403   4.343  10.836 -0.8003  0.5217 -0.6576
 3613SOL     OW22474   0.945   3.030   2.699  0.3940 -0.1417 -0.1286
 3613SOL    HW122475   1.004   3.098   2.731  1.0103 -0.0056 -1.5610
 3613SOL    HW222476   1.000   2.955   2.721 -2.6818 -1.4595  3.0470
 3614SOL     OW22477   2.072   0.721  14.910  0.4175  0.2737  0.4761
 3614SOL    HW122478   2.158   0.680  14.903  0.2582 -0.0986  0.6674
 3614SOL    HW222479   2.042   0.744  14.822  0.3804 -1.0955  0.1264
 3615SOL     OW22480   4.352   0.853   4.894  0.3923  0.5338  0.3959
 3615SOL    HW122481   4.360   0.915   4.822 -1.0531  1.1007  0.7160
 3615SOL    HW222482   4.380   0.768   4.859  1.5460  1.5035 -1.0237
 3616SOL     OW22483   2.485   1.202   0.373 -0.1199  0.0935  0.5444
 3616SOL    HW122484   2.558   1.252   0.337 -2.0834  1.0937 -2.0572
 3616SOL    HW222485   2.521   1.174   0.457  0.8583 -1.1654 -0.2968
 3617SOL     OW22486   3.418   0.476   3.056 -0.1868 -0.0849  0.1962
 3617SOL    HW122487   3.509   0.504   3.047 -0.3771  1.5024  3.1994
 3617SOL    HW222488   3.421   0.460   3.150  2.2910 -2.2947 -0.2726
 3618SOL     OW22489   0.787   4.637   3.930 -0.4503  0.6492  0.5954
 3618SOL    HW122490   0.762   4.664   4.019 -0.1684  1.6808  0.3572
 3618SOL    HW222491   0.871   4.683   3.929  0.4756 -1.0340  0.7802
 3619SOL     OW22492   4.596   1.176  11.500 -0.2784 -0.4786  0.6238
 3619SOL    HW122493   4.614   1.092  11.542  3.8337  0.4731  0.7704
 3619SOL    HW222494   4.656   1.227  11.555 -3.8284  0.4708  3.5351
 3620SOL     OW22495   1.572   2.849  11.855 -0.2339 -0.6579 -0.4408
 3620SOL    HW122496   1.660   2.826  11.883 -0.6498  1.1302  2.3416
 3620SOL    HW222497   1.593   2.859  11.762  0.3422  1.3147 -0.0892
 3621SOL     OW22498   2.709   2.422   6.072 -0.3739 -0.2391  0.2823
 3621SOL    HW122499   2.776   2.490   6.060  1.3640 -1.6643  2.0721
 3621SOL    HW222500   2.663   2.422   5.987  0.4975 -0.0275 -0.1902
 3622SOL     OW22501   3.812   0.579   1.289 -0.0274 -0.3815  0.1787
 3622SOL    HW122502   3.789   0.524   1.214 -1.6470  0.4849  0.0251
 3622SOL    HW222503   3.893   0.542   1.323  0.6995  0.9009 -0.1734
 3623SOL     OW22504   0.370   3.363   4.373  0.8374 -0.6085  0.2700
 3623SOL    HW122505   0.312   3.432   4.405  2.3553  0.1455  1.3865
 3623SOL    HW222506   0.314   3.329   4.303  0.5379 -1.4050  0.9020
 3624SOL     OW22507   4.006   1.049  16.640 -0.0521  0.5591 -0.3355
 3624SOL    HW122508   4.096   1.018  16.648  0.3821  1.9142 -0.0226
 3624SOL    HW222509   3.962   0.964  16.651  0.1945  0.4156 -0.4696
 3625SOL     OW22510   1.273   4.631   5.579 -0.0453 -0.1067 -0.0147
 3625SOL    HW122511   1.227   4.700   5.532 -0.0685 -0.5816 -0.7017
 3625SOL    HW222512   1.219   4.552   5.572  0.4848 -0.4135 -0.8191
 3626SOL     OW22513   3.959   0.458   9.011 -0.1532  0.3561  0.8001
 3626SOL    HW122514   3.984   0.447   9.103 -0.3752  2.3981  1.1176
 3626SOL    HW222515   3.947   0.368   8.981 -0.1066 -0.0663  2.0773
 3627SOL     OW22516   3.766   0.884   8.010 -0.5501  0.9851 -0.2576
 3627SOL    HW122517   3.791   0.792   8.004  0.1832  1.2309 -0.9917
 3627SOL    HW222518   3.833   0.916   8.071  1.6274 -0.9538 -1.6148
 3628SOL     OW22519   2.631   0.316  15.920  0.7422 -0.1152 -1.0416
 3628SOL    HW122520   2.620   0.314  16.015 -2.5208 -0.0450 -1.4368
 3628SOL    HW222521   2.727   0.322  15.914  0.7710  1.0183  0.3279
 3629SOL     OW22522   4.460   3.659  17.015  0.1673 -0.0119 -0.5488
 3629SOL    HW122523   4.491   3.748  17.033  0.4038  0.1796 -1.9592
 3629SOL    HW222524   4.457   3.619  17.102  0.5422 -0.6375 -0.8220
 3630SOL     OW22525   3.516   1.672  12.362  0.3407 -0.4671 -0.2085
 3630SOL    HW122526   3.427   1.644  12.340 -0.2126  2.4949 -1.7779
 3630SOL    HW222527   3.559   1.685  12.278  0.6856  1.2078  0.2218
 3631SOL     OW22528   1.630   3.560   7.144  0.0442 -0.0759  0.0508
 3631SOL    HW122529   1.597   3.599   7.225 -0.6035  0.0009 -0.2485
 3631SOL    HW222530   1.613   3.637   7.090  0.2339 -0.4016 -0.4738
 3632SOL     OW22531   1.258   4.483  11.312 -0.0522 -0.2650  0.0267
 3632SOL    HW122532   1.333   4.534  11.279 -0.4363 -0.4928 -1.1969
 3632SOL    HW222533   1.292   4.463  11.399  1.2964 -0.9472 -0.6497
 3633SOL     OW22534   3.208   4.271  11.726  0.0002 -0.2182 -0.1589
 3633SOL    HW122535   3.262   4.193  11.738  2.7565  2.0498  2.3410
 3633SOL    HW222536   3.268   4.332  11.683 -0.0733  0.2575  0.4074
 3634SOL     OW22537   2.930   2.991   4.578 -0.0438 -0.1299  0.2211
 3634SOL    HW122538   2.974   3.076   4.576 -0.7842  0.3138  2.6821
 3634SOL    HW222539   2.912   2.988   4.484 -1.5777 -2.3870  0.5702
 3635SOL     OW22540   1.723   1.202  12.051  0.3104 -0.5010 -0.2736
 3635SOL    HW122541   1.808   1.194  12.006  0.8692  2.6781  0.1784
 3635SOL    HW222542   1.689   1.113  12.058 -3.1319  1.1156  3.2279
 3636SOL     OW22543   1.696   1.057   5.946 -0.0283  0.2620  0.3215
 3636SOL    HW122544   1.620   0.999   5.952  0.4595 -0.5745 -1.6657
 3636SOL    HW222545   1.707   1.066   6.041  0.9173 -0.7372  0.3073
 3637SOL     OW22546   2.299   4.046   5.992 -0.4340  0.4905  0.1271
 3637SOL    HW122547   2.267   4.119   6.045  0.5011 -0.5410  2.0864
 3637SOL    HW222548   2.245   3.975   6.026  0.0399  0.0102 -0.1080
 3638SOL     OW22549   2.298   2.670   1.481  0.2752  0.9181  0.4663
 3638SOL    HW122550   2.203   2.681   1.484  0.2215  0.9253 -1.0147
 3638SOL    HW222551   2.309   2.664   1.576  1.1511 -0.4373  0.2790
 3639SOL     OW22552   2.831   2.336   5.093  0.2311 -0.1478  0.0146
 3639SOL    HW122553   2.829   2.326   5.188  1.1150 -0.0012  0.0450
 3639SOL    HW222554   2.771   2.270   5.059 -0.4126  1.4375 -1.9627
 3640SOL     OW22555   0.384   2.104  14.772  0.1212 -0.4383 -0.0054
 3640SOL    HW122556   0.333   2.110  14.691 -1.4479  1.1086  1.0908
 3640SOL    HW222557   0.314   2.116  14.836  1.1690  0.9819  0.8621
 3641SOL     OW22558   3.318   0.214   5.580  0.4136 -0.0434  0.3148
 3641SOL    HW122559   3.332   0.290   5.523  0.6845 -0.0502  0.3701
 3641SOL    HW222560   3.350   0.239   5.666  0.0714  1.3228  0.0430
 3642SOL     OW22561   2.672   0.140   1.951 -0.3209  0.1582  0.4215
 3642SOL    HW122562   2.726   0.159   2.028  1.3941 -2.9297 -0.0168
 3642SOL    HW222563   2.603   0.094   1.999  0.4900 -0.7318  0.7283
 3643SOL     OW22564   2.977   3.083  10.881  0.0362  0.0262  0.9459
 3643SOL    HW122565   3.057   3.125  10.910  0.5895  0.2570 -0.8980
 3643SOL    HW222566   3.000   2.997  10.847 -0.1836  0.3388  0.0067
 3644SOL     OW22567   3.759   1.152  13.407  0.2848 -0.3034  0.9614
 3644SOL    HW122568   3.799   1.138  13.321  0.4623  2.3302  0.6076
 3644SOL    HW222569   3.832   1.144  13.468  2.0578 -0.9866 -1.2612
 3645SOL     OW22570   3.393   0.802  13.804 -0.6822  0.4418 -0.0462
 3645SOL    HW122571   3.330   0.873  13.790  0.3348  1.1365 -0.9975
 3645SOL    HW222572   3.441   0.833  13.881 -0.6601  0.8031 -0.2105
 3646SOL     OW22573   0.879   0.944   1.621 -0.6690 -0.4021 -0.0995
 3646SOL    HW122574   0.938   1.008   1.581 -1.6404  0.0032 -0.8823
 3646SOL    HW222575   0.902   0.867   1.570  1.8762  0.9021 -0.9047
 3647SOL     OW22576   0.032   2.294   2.926 -0.1184 -0.3921 -0.0488
 3647SOL    HW122577   4.705   2.229   2.899 -0.6170  0.5241 -1.0400
 3647SOL    HW222578   0.090   2.236   2.975  0.1563 -0.3555 -0.3319
 3648SOL     OW22579   1.207   2.306  17.108  0.0793  0.3768  0.1864
 3648SOL    HW122580   1.298   2.284  17.089 -0.8981 -2.7925 -0.7444
 3648SOL    HW222581   1.156   2.280  17.032 -1.6357 -1.9158  2.1459
 3649SOL     OW22582   1.282   0.743   2.012  0.3885  0.3073  0.3427
 3649SOL    HW122583   1.297   0.670   2.072  0.1210  0.5249  0.6745
 3649SOL    HW222584   1.342   0.727   1.940 -0.4771  1.0575 -0.5469
 3650SOL     OW22585   3.455   4.660   0.725 -0.1136 -0.4819 -0.6916
 3650SOL    HW122586   3.440   4.566   0.731  1.1856 -0.5636  0.9726
 3650SOL    HW222587   3.374   4.695   0.762  1.3932 -0.4887  2.6053
 3651SOL     OW22588   3.494   4.462   6.804 -0.4101 -0.0716  0.1313
 3651SOL    HW122589   3.525   4.501   6.723 -3.1187  2.5893  0.3623
 3651SOL    HW222590   3.423   4.405   6.775  0.4895 -0.4725 -1.2574
 3652SOL     OW22591   3.661   1.067   2.271 -0.0749  0.3841  0.1129
 3652SOL    HW122592   3.707   1.066   2.355 -0.3765 -0.2945  0.2739
 3652SOL    HW222593   3.576   1.028   2.293  1.0091 -1.8246  0.3977
 3653SOL     OW22594   1.763   1.846   1.798 -0.2439  0.4577 -0.7665
 3653SOL    HW122595   1.826   1.844   1.871  3.3413 -1.0538 -3.9227
 3653SOL    HW222596   1.792   1.920   1.745 -0.6393  1.4018  0.3240
 3654SOL     OW22597   2.169   1.698  10.177  0.1607  0.4663  0.7007
 3654SOL    HW122598   2.176   1.605  10.154  1.3342  0.4719  1.0473
 3654SOL    HW222599   2.076   1.696  10.201 -0.3249 -2.3255 -1.3815
 3655SOL     OW22600   1.418   0.711   4.476 -0.5684 -0.2716  0.2785
 3655SOL    HW122601   1.464   0.641   4.430 -2.2710 -0.0585 -1.7709
 3655SOL    HW222602   1.479   0.783   4.464  0.2779 -1.1341 -0.5963
 3656SOL     OW22603   1.935   3.670  17.216  0.1551  0.3112  0.1637
 3656SOL    HW122604   1.922   3.580  17.189 -0.2924  0.3058  0.4050
 3656SOL    HW222605   1.869   3.717  17.165  0.3347  0.6103  0.2045
 3657SOL     OW22606   4.119   0.103   6.763  0.4204  0.0560 -0.1718
 3657SOL    HW122607   4.080   0.039   6.823  0.2734  0.6222  0.3427
 3657SOL    HW222608   4.137   0.043   6.691 -0.3662 -0.0479 -0.2894
 3658SOL     OW22609   4.473   1.529   7.792  0.1002 -0.1960 -0.2796
 3658SOL    HW122610   4.379   1.509   7.795 -0.1856  1.3582  1.5635
 3658SOL    HW222611   4.468   1.623   7.773 -2.4996 -0.3406 -0.3478
 3659SOL     OW22612   3.340   4.392   2.961 -0.0510  0.7036 -0.4629
 3659SOL    HW122613   3.259   4.407   2.911  0.8697  2.2468 -1.5148
 3659SOL    HW222614   3.390   4.469   2.934  0.0943  1.6793  2.6766
 3660SOL     OW22615   1.160   3.933   9.975 -0.2639  0.4666 -0.3619
 3660SOL    HW122616   1.149   3.844   9.939  0.6335  0.9133 -1.7242
 3660SOL    HW222617   1.098   3.926  10.048  0.9527 -0.0946  0.6392
 3661SOL     OW22618   0.278   2.806   3.699  0.4130  0.2623 -0.2029
 3661SOL    HW122619   0.295   2.800   3.793  1.3894 -0.9704 -0.4621
 3661SOL    HW222620   0.367   2.803   3.662 -0.0434 -1.3442 -1.1668
 3662SOL     OW22621   4.508   2.188   7.265  0.1367 -0.2769  0.1725
 3662SOL    HW122622   4.533   2.270   7.308  1.9081 -0.3794 -0.6611
 3662SOL    HW222623   4.539   2.125   7.330  1.8275 -0.3216 -0.6734
 3663SOL     OW22624   0.732   0.695   9.910  0.3614  0.3298 -0.3273
 3663SOL    HW122625   0.680   0.747   9.971 -0.1064  1.0270 -1.3033
 3663SOL    HW222626   0.800   0.669   9.971  0.1305  1.8213  0.5558
 3664SOL     OW22627   3.486   1.823   6.110  0.4294 -0.6266  0.5715
 3664SOL    HW122628   3.431   1.897   6.083 -1.3675 -1.6153  1.4848
 3664SOL    HW222629   3.574   1.833   6.074 -0.2759  0.6137 -0.7942
 3665SOL     OW22630   0.164   4.466   7.986 -0.0416  0.0719  0.3844
 3665SOL    HW122631   0.258   4.452   7.994 -0.0892 -0.6992 -0.4205
 3665SOL    HW222632   0.153   4.560   8.000  0.4566  0.2981 -0.7466
 3666SOL     OW22633   3.012   4.121  13.999 -0.0397  0.0127  0.2507
 3666SOL    HW122634   2.974   4.135  14.086  0.7511  0.7971  0.4775
 3666SOL    HW222635   2.946   4.062  13.964  0.2084 -1.8770  2.9610
 3667SOL     OW22636   4.724   2.447  12.224 -0.0023  0.3290 -0.2497
 3667SOL    HW122637   0.056   2.512  12.214 -0.3301  0.6361 -0.5432
 3667SOL    HW222638   0.008   2.385  12.155 -0.2523 -0.9247  0.7927
 3668SOL     OW22639   0.910   0.279   8.014  0.0583  0.6660 -0.4102
 3668SOL    HW122640   0.962   0.357   8.032  0.3167  0.9707 -2.4614
 3668SOL    HW222641   0.970   0.229   7.959  0.9299  0.5694  0.6410
 3669SOL     OW22642   3.667   4.296   4.616 -0.0416  0.1923 -0.4734
 3669SOL    HW122643   3.697   4.206   4.620 -0.8058  0.0272  1.3646
 3669SOL    HW222644   3.577   4.271   4.635  0.0297  0.2045 -0.1328
 3670SOL     OW22645   0.279   1.565   7.954  0.3185 -0.3403  0.4113
 3670SOL    HW122646   0.201   1.551   7.901 -0.5012 -0.2631  1.6119
 3670SOL    HW222647   0.321   1.480   7.966 -1.8329 -1.3428  0.8128
 3671SOL     OW22648   3.006   1.741   2.719 -0.2677  0.1007 -0.1137
 3671SOL    HW122649   2.992   1.648   2.702 -3.6165  1.0536 -2.4902
 3671SOL    HW222650   2.917   1.775   2.712 -0.0682  0.4908 -0.7284
 3672SOL     OW22651   3.405   1.754   2.754  0.1403 -0.0804 -0.0077
 3672SOL    HW122652   3.459   1.731   2.830  1.3166 -2.0674 -1.4478
 3672SOL    HW222653   3.406   1.668   2.713  0.1512  0.0163 -0.2118
 3673SOL     OW22654   1.585   4.478   6.550  0.1322 -0.0554  0.1168
 3673SOL    HW122655   1.645   4.522   6.611 -1.7635  0.6182  1.4778
 3673SOL    HW222656   1.541   4.418   6.610  1.6570 -0.6612  0.6462
 3674SOL     OW22657   3.030   2.450   8.017 -0.5732  0.2122  0.4520
 3674SOL    HW122658   2.987   2.531   8.045 -0.0283  0.5005  0.4511
 3674SOL    HW222659   3.089   2.489   7.952 -0.1761  1.7197  1.7384
 3675SOL     OW22660   3.214   2.141   7.748 -0.3272 -0.1287 -0.1091
 3675SOL    HW122661   3.293   2.191   7.726 -1.3606  1.1015 -1.0383
 3675SOL    HW222662   3.162   2.144   7.668  1.9813 -2.3005 -1.6798
 3676SOL     OW22663   1.060   3.680   1.051 -0.2253  0.1638 -0.0662
 3676SOL    HW122664   1.005   3.756   1.033 -2.5247 -1.1022  1.6387
 3676SOL    HW222665   1.057   3.672   1.146  0.8440  0.6729  0.0115
 3677SOL     OW22666   3.160   4.370   2.228 -0.6697  0.0601  0.2433
 3677SOL    HW122667   3.153   4.434   2.299  1.0718 -1.5531  1.8891
 3677SOL    HW222668   3.181   4.433   2.160 -1.0356 -1.2630 -1.0864
 3678SOL     OW22669   2.155   1.434  14.551 -0.5363 -0.0775  0.1685
 3678SOL    HW122670   2.212   1.457  14.477  0.0053  0.4561  0.7488
 3678SOL    HW222671   2.078   1.396  14.509 -0.1899 -3.8007  2.9555
 3679SOL     OW22672   4.119   3.765   9.289  0.0123 -0.2647 -0.1153
 3679SOL    HW122673   4.059   3.816   9.343  0.4486  0.2334 -0.1101
 3679SOL    HW222674   4.170   3.714   9.352  0.0074 -0.0002  0.1028
 3680SOL     OW22675   1.935   4.606   6.182  0.3185  0.0081 -0.4263
 3680SOL    HW122676   1.918   4.608   6.088  0.9807 -2.0009 -0.6015
 3680SOL    HW222677   2.012   4.549   6.184  1.5081  1.5941 -1.2511
 3681SOL     OW22678   3.945   4.306  16.458  0.3831  0.2528  0.2459
 3681SOL    HW122679   3.916   4.397  16.451 -3.3313 -1.0658 -1.6238
 3681SOL    HW222680   4.036   4.333  16.459  1.4516 -3.3751 -0.6175
 3682SOL     OW22681   3.506   1.324   2.071 -0.4773 -0.1769 -0.6227
 3682SOL    HW122682   3.474   1.332   1.981  0.4746  0.7824 -0.8730
 3682SOL    HW222683   3.443   1.264   2.111 -1.1786 -1.4691 -3.6319
 3683SOL     OW22684   1.672   4.325   7.500 -0.1379  0.3307 -0.0647
 3683SOL    HW122685   1.623   4.376   7.564 -2.0597  0.8342 -1.8962
 3683SOL    HW222686   1.693   4.393   7.436  1.3908 -1.2276 -1.2014
 3684SOL     OW22687   3.448   1.503   2.656 -0.3170 -0.0974  0.1261
 3684SOL    HW122688   3.499   1.457   2.722 -0.3940  0.6472  0.7088
 3684SOL    HW222689   3.517   1.496   2.589  1.0563  0.1469  1.5235
 3685SOL     OW22690   2.053   2.756   6.967 -0.5165  0.2009 -0.2032
 3685SOL    HW122691   2.148   2.747   6.963 -0.9118 -2.7357 -3.1479
 3685SOL    HW222692   2.026   2.726   6.880  0.5544 -0.5888 -0.2540
 3686SOL     OW22693   0.001   2.111   8.380  0.3636 -0.0425  0.0596
 3686SOL    HW122694   0.047   2.090   8.461 -1.1116  2.6113  1.6098
 3686SOL    HW222695   4.694   2.032   8.350 -0.1624 -0.0035  0.7407
 3687SOL     OW22696   1.497   4.153   9.618  0.6163 -0.3335 -0.2056
 3687SOL    HW122697   1.520   4.245   9.604 -1.3998  0.2554  0.3042
 3687SOL    HW222698   1.577   4.101   9.623  0.8794 -0.0478 -1.4496
 3688SOL     OW22699   2.985   3.241   7.401 -0.0368  0.0996 -0.5469
 3688SOL    HW122700   2.896   3.273   7.390 -0.7769 -1.0264  2.0669
 3688SOL    HW222701   3.017   3.248   7.311  0.7465 -2.3700 -0.4525
 3689SOL     OW22702   1.030   1.801   6.444  0.4581 -0.9720  0.6553
 3689SOL    HW122703   1.105   1.854   6.416  1.2725 -2.3847  0.1517
 3689SOL    HW222704   0.955   1.858   6.426 -0.2596 -2.5838 -1.2935
 3690SOL     OW22705   1.662   2.671  12.227 -0.3405  0.1967  0.0419
 3690SOL    HW122706   1.585   2.617  12.210 -1.2763  1.0323  1.6025
 3690SOL    HW222707   1.711   2.660  12.146 -0.4241  0.1555 -0.0039
 3691SOL     OW22708   4.203   0.505   7.842 -0.4383 -0.1895 -0.0078
 3691SOL    HW122709   4.287   0.510   7.796  0.2606  1.6710  1.5153
 3691SOL    HW222710   4.234   0.505   7.932 -0.2494  0.0995 -0.0726
 3692SOL     OW22711   2.204   3.949   0.763 -0.3255 -0.3730  0.0277
 3692SOL    HW122712   2.207   3.858   0.793 -0.6472 -0.5219 -0.3914
 3692SOL    HW222713   2.291   3.979   0.789 -0.1493 -1.9449  1.2766
 3693SOL     OW22714   4.303   0.491   6.049 -0.1201 -0.1492 -0.2844
 3693SOL    HW122715   4.237   0.559   6.064  0.1065  0.5401 -2.3984
 3693SOL    HW222716   4.261   0.413   6.012 -3.1917  2.2114 -1.8069
 3694SOL     OW22717   0.490   1.827   1.219 -0.1529  0.3648 -0.6835
 3694SOL    HW122718   0.487   1.763   1.147 -2.2576  0.8680 -1.0545
 3694SOL    HW222719   0.471   1.907   1.169 -0.7323  0.0370 -0.9780
 3695SOL     OW22720   0.968   0.928   0.941  0.7090 -0.3528  0.6063
 3695SOL    HW122721   0.979   0.862   1.009  0.5882  0.0189  0.9871
 3695SOL    HW222722   1.060   0.941   0.917 -0.3913  1.5546 -2.5926
 3696SOL     OW22723   2.421   1.201   4.574 -0.3971  0.2559  0.3647
 3696SOL    HW122724   2.413   1.178   4.481 -0.4281  2.2432 -0.1262
 3696SOL    HW222725   2.396   1.293   4.581  0.3570  0.5802 -1.1335
 3697SOL     OW22726   3.947   4.449  12.606  0.2116 -0.4543 -0.0303
 3697SOL    HW122727   4.004   4.517  12.570 -2.1454  0.0423 -2.9055
 3697SOL    HW222728   4.009   4.379  12.625 -0.0154 -0.2589  1.4405
 3698SOL     OW22729   3.715   3.113   7.274  0.0757 -0.4204  0.6582
 3698SOL    HW122730   3.715   3.134   7.367  2.3555 -0.7763  0.7198
 3698SOL    HW222731   3.758   3.028   7.279 -1.2738 -1.1566 -0.0915
 3699SOL     OW22732   0.909   3.342  16.067  0.5167  0.5595  0.1982
 3699SOL    HW122733   0.983   3.395  16.099  1.6546  0.6446 -2.5559
 3699SOL    HW222734   0.842   3.409  16.062  0.0016  0.0218 -0.0273
 3700SOL     OW22735   2.427   3.162   3.487  0.1596  0.0484 -0.2392
 3700SOL    HW122736   2.372   3.234   3.457 -1.9146 -1.2531  0.4979
 3700SOL    HW222737   2.391   3.096   3.428  4.3534 -2.2597 -0.2450
 3701SOL     OW22738   1.074   0.693   9.053 -0.2077 -0.1812  0.4715
 3701SOL    HW122739   1.134   0.680   9.126  1.1468  0.2711 -0.5460
 3701SOL    HW222740   1.113   0.773   9.016  0.1545 -0.3587  0.4723
 3702SOL     OW22741   1.800   0.540   7.646 -0.3947  0.0524  0.2362
 3702SOL    HW122742   1.860   0.597   7.598  0.8064 -2.9158 -1.7642
 3702SOL    HW222743   1.716   0.585   7.637 -0.1790  0.6867  1.3961
 3703SOL     OW22744   4.696   0.560  13.290 -0.6016 -0.2420 -0.4854
 3703SOL    HW122745   0.013   0.482  13.305  1.8289  1.5331 -0.1010
 3703SOL    HW222746   4.737   0.612  13.359  0.1421 -0.6542 -0.6076
 3704SOL     OW22747   0.891   3.622  16.320  0.1013 -0.2204 -0.6126
 3704SOL    HW122748   0.861   3.657  16.404  1.2902 -0.1236 -0.2168
 3704SOL    HW222749   0.809   3.607  16.274 -0.2103 -0.5626  0.0434
 3705SOL     OW22750   1.612   3.653  12.446  0.5338 -0.1592 -1.2249
 3705SOL    HW122751   1.692   3.600  12.442 -0.0663 -1.1413 -0.2499
 3705SOL    HW222752   1.563   3.603  12.512  1.7137  1.2511  0.7480
 3706SOL     OW22753   4.307   0.468   8.912  0.2577 -0.0637  0.1733
 3706SOL    HW122754   4.261   0.541   8.870  0.3804  0.0832  0.2960
 3706SOL    HW222755   4.392   0.508   8.930 -0.0095  1.3548 -1.6671
 3707SOL     OW22756   3.701   0.349  17.115  0.1110  0.7240  0.3918
 3707SOL    HW122757   3.624   0.297  17.093 -0.1863  1.1025  0.5213
 3707SOL    HW222758   3.668   0.435  17.141 -2.5625  0.1033 -0.9587
 3708SOL     OW22759   0.626   2.637  12.339 -0.7127  0.3073 -0.5118
 3708SOL    HW122760   0.646   2.555  12.293 -0.9003  0.3885 -0.7431
 3708SOL    HW222761   0.674   2.619  12.419  2.4675 -0.5679 -2.6154
 3709SOL     OW22762   0.752   2.162  15.452  0.3849  0.6566 -0.5590
 3709SOL    HW122763   0.848   2.161  15.452  0.3863  0.6223  0.8174
 3709SOL    HW222764   0.734   2.220  15.526 -2.8935 -0.1494 -0.7661
 3710SOL     OW22765   4.474   1.745  12.957 -0.2825  0.6071 -0.7540
 3710SOL    HW122766   4.517   1.712  13.036 -0.4251  0.4486 -0.7427
 3710SOL    HW222767   4.412   1.675  12.941  0.1350  0.1623 -0.4569
 3711SOL     OW22768   1.585   3.085   1.393 -0.9624  0.4531 -0.1613
 3711SOL    HW122769   1.548   3.148   1.455 -1.1298 -0.7505  0.9580
 3711SOL    HW222770   1.590   3.008   1.450  0.8084  1.6207  1.2469
 3712SOL     OW22771   0.402   3.336   5.311  0.6364 -0.0800  0.0158
 3712SOL    HW122772   0.468   3.287   5.263 -1.4723 -1.2957 -1.6717
 3712SOL    HW222773   0.377   3.412   5.258  3.5181  1.7671  1.3007
 3713SOL     OW22774   3.276   2.633   8.310 -0.1572 -0.3478  0.0367
 3713SOL    HW122775   3.336   2.558   8.304  0.1157 -0.1285  0.0136
 3713SOL    HW222776   3.226   2.603   8.385  0.9721 -1.2832  0.4255
 3714SOL     OW22777   3.992   1.758  17.337  0.4868 -0.0857  0.7375
 3714SOL    HW122778   4.084   1.737  17.348  0.7915  0.1110 -1.3671
 3714SOL    HW222779   3.944   1.683  17.300 -1.6035  0.9105  1.4031
 3715SOL     OW22780   3.263   4.190  10.897 -0.2017 -0.0547  0.0618
 3715SOL    HW122781   3.290   4.223  10.983  0.6084 -0.1298 -0.1617
 3715SOL    HW222782   3.313   4.109  10.883  0.3249  0.4518 -1.0925
 3716SOL     OW22783   2.903   2.768  17.631  0.6237  0.2956  0.5621
 3716SOL    HW122784   2.981   2.785  17.683  1.2729  1.0571 -0.6653
 3716SOL    HW222785   2.841   2.825  17.678  0.6524  0.5671  0.2771
 3717SOL     OW22786   0.322   3.587   8.674 -0.4769  0.6166  0.3974
 3717SOL    HW122787   0.295   3.679   8.668 -0.0171  0.7560  0.4892
 3717SOL    HW222788   0.235   3.552   8.656 -0.5604  0.4943  1.0397
 3718SOL     OW22789   2.494   2.479  13.809  0.0970 -0.2494  0.0782
 3718SOL    HW122790   2.441   2.403  13.832 -1.1915 -0.1023 -2.3981
 3718SOL    HW222791   2.550   2.429  13.749  0.6194  0.6845 -0.2156
 3719SOL     OW22792   3.818   1.181   9.131  0.1652 -0.0805 -0.6520
 3719SOL    HW122793   3.786   1.120   9.065 -0.7255 -1.0770  0.6815
 3719SOL    HW222794   3.913   1.173   9.132  0.1768  0.0205 -0.9079
 3720SOL     OW22795   3.438   3.896   5.272 -0.4864  0.6439  0.7805
 3720SOL    HW122796   3.431   3.992   5.271 -0.1548  0.6632  0.3946
 3720SOL    HW222797   3.375   3.874   5.204 -0.2176  1.7086  0.1877
 3721SOL     OW22798   3.908   2.887   6.667  0.1852  0.3184 -0.0130
 3721SOL    HW122799   3.900   2.793   6.683  0.5418 -0.3408 -3.6386
 3721SOL    HW222800   3.859   2.926   6.739  4.5336  3.0832  1.4886
 3722SOL     OW22801   2.001   2.324   6.635  0.4227 -0.3600 -0.1966
 3722SOL    HW122802   2.036   2.286   6.555  2.0414  0.3420  0.1797
 3722SOL    HW222803   2.069   2.313   6.702 -0.5954 -1.0135  0.7520
 3723SOL     OW22804   3.248   3.034  12.952  0.0693 -0.4347 -0.0788
 3723SOL    HW122805   3.260   3.030  12.857 -1.2462 -0.4962 -0.2465
 3723SOL    HW222806   3.236   3.126  12.976 -2.3913 -0.8014  0.1047
 3724SOL     OW22807   2.458   3.716   0.767  0.2134  0.5123 -0.0282
 3724SOL    HW122808   2.531   3.661   0.741 -0.0953  0.1286 -0.0776
 3724SOL    HW222809   2.425   3.728   0.678  2.4440 -1.0533 -1.0703
 3725SOL     OW22810   1.020   0.418  11.246  0.1979 -0.3678 -0.2059
 3725SOL    HW122811   0.964   0.374  11.181  2.0115 -2.6249 -0.2336
 3725SOL    HW222812   0.980   0.505  11.246 -1.5997 -1.1809 -1.7074
 3726SOL     OW22813   2.685   3.400   7.074  0.3573  0.3074 -0.1466
 3726SOL    HW122814   2.764   3.401   7.019 -0.3929 -0.5608 -1.2342
 3726SOL    HW222815   2.636   3.453   7.012 -1.5832 -1.0419  0.2171
 3727SOL     OW22816   0.802   1.063  12.651  0.1073  0.0861 -0.6508
 3727SOL    HW122817   0.756   1.031  12.574 -0.5491  1.4306 -0.8091
 3727SOL    HW222818   0.847   1.139  12.614  1.4970  0.4007  1.6656
 3728SOL     OW22819   1.336   1.185  10.774 -0.2446  0.7577  0.4313
 3728SOL    HW122820   1.294   1.266  10.804  2.1683  2.0987  0.1313
 3728SOL    HW222821   1.417   1.177  10.823 -1.6482  0.4975  2.7236
 3729SOL     OW22822   4.685   0.870   0.225  0.3229 -0.2125  0.3523
 3729SOL    HW122823   0.011   0.934   0.192  0.0203  0.6915  1.5136
 3729SOL    HW222824   4.623   0.932   0.264  1.4654  1.5556 -0.6014
 3730SOL     OW22825   0.479   2.473   8.837  0.0248  0.2776 -0.0296
 3730SOL    HW122826   0.543   2.404   8.820 -1.3378 -0.6319 -1.4184
 3730SOL    HW222827   0.446   2.447   8.924  0.0319  1.8962  0.4535
 3731SOL     OW22828   2.551   3.608  15.815  0.0414  0.2694  0.0645
 3731SOL    HW122829   2.565   3.537  15.753  2.1491  0.3788  0.4055
 3731SOL    HW222830   2.509   3.564  15.889 -2.9336  0.1120 -1.7431
 3732SOL     OW22831   3.391   3.765   9.020  0.2495  0.0959 -0.3961
 3732SOL    HW122832   3.296   3.777   9.031  0.2609 -0.6178  0.4472
 3732SOL    HW222833   3.406   3.743   9.112  1.0567  2.0925 -0.0396
 3733SOL     OW22834   2.190   4.519  15.712 -0.2534  0.3271 -0.5957
 3733SOL    HW122835   2.162   4.605  15.680  1.4024  1.1163  0.0654
 3733SOL    HW222836   2.272   4.546  15.754  0.8528 -3.5939 -0.2732
 3734SOL     OW22837   0.897   0.720   3.720 -0.4827  0.3909 -0.4783
 3734SOL    HW122838   0.879   0.736   3.627  1.1605  1.5491 -0.5821
 3734SOL    HW222839   0.809   0.742   3.752 -0.7723 -0.3356 -0.7630
 3735SOL     OW22840   1.475   4.266   6.689 -0.2925 -0.4107  0.1831
 3735SOL    HW122841   1.543   4.199   6.695  0.2212  0.0298 -0.7407
 3735SOL    HW222842   1.440   4.270   6.778 -1.7000 -2.1115 -0.2942
 3736SOL     OW22843   0.528   4.051   4.282  0.2436 -0.2308 -0.1956
 3736SOL    HW122844   0.467   3.983   4.311 -0.2764 -1.0010 -3.1334
 3736SOL    HW222845   0.518   4.110   4.357 -1.3596 -1.9688  0.9847
 3737SOL     OW22846   3.963   3.835  13.215 -0.2913 -0.0282  0.2979
 3737SOL    HW122847   3.896   3.787  13.167 -1.5957  0.3943  1.7084
 3737SOL    HW222848   3.932   3.830  13.305 -1.7636  1.7820 -0.1038
 3738SOL     OW22849   4.534   0.604  11.473 -0.0226  0.0062 -0.1731
 3738SOL    HW122850   4.481   0.611  11.552 -0.3124 -0.0526 -0.3615
 3738SOL    HW222851   4.614   0.563  11.505 -1.3064 -2.0484  0.3796
 3739SOL     OW22852   3.656   1.044   1.181  0.5788 -0.2095  0.0536
 3739SOL    HW122853   3.643   1.132   1.215 -0.5497 -0.2958 -0.1315
 3739SOL    HW222854   3.566   1.016   1.161  0.7645  0.3805 -1.5369
 3740SOL     OW22855   1.739   4.621   7.048  0.2846 -0.1668  0.5383
 3740SOL    HW122856   1.763   4.556   6.981  1.4150  0.4221  0.3712
 3740SOL    HW222857   1.645   4.637   7.039  0.1003 -1.5544 -0.0541
 3741SOL     OW22858   1.363   4.121   2.780  0.2083  0.2343 -0.3565
 3741SOL    HW122859   1.348   4.049   2.718 -1.3442  0.0118  0.2709
 3741SOL    HW222860   1.329   4.072   2.855 -1.4047 -1.5346 -2.2216
 3742SOL     OW22861   4.011   2.389   8.613  0.3930 -0.0586  0.0423
 3742SOL    HW122862   4.026   2.461   8.552  3.2988  0.5866  1.5141
 3742SOL    HW222863   4.008   2.435   8.697 -0.7897 -0.0507 -0.0043
 3743SOL     OW22864   3.612   2.996   1.340 -0.6421  0.3944 -0.4513
 3743SOL    HW122865   3.535   2.955   1.300  1.1544 -2.5129 -0.9492
 3743SOL    HW222866   3.606   3.078   1.290 -2.0011 -0.4011 -1.6225
 3744SOL     OW22867   0.727   3.557  14.691  0.0671 -0.7998 -0.2423
 3744SOL    HW122868   0.760   3.488  14.635 -2.1718 -0.4055 -2.0717
 3744SOL    HW222869   0.805   3.574  14.744 -0.1127 -1.9381  0.3691
 3745SOL     OW22870   0.162   1.150   9.165  0.0560  0.0276  0.0767
 3745SOL    HW122871   0.159   1.060   9.198 -0.0466  0.5118  1.3743
 3745SOL    HW222872   0.074   1.181   9.186 -0.8905 -2.6628  0.1435
 3746SOL     OW22873   3.769   2.174   4.790 -0.0852  0.1866 -0.0016
 3746SOL    HW122874   3.836   2.108   4.772 -0.1712  1.1271 -3.7131
 3746SOL    HW222875   3.699   2.114   4.817  1.7293 -1.4448  1.0438
 3747SOL     OW22876   0.425   3.047   4.457  0.2848 -0.3777  0.1923
 3747SOL    HW122877   0.385   3.053   4.371  2.8258  3.0251 -0.7739
 3747SOL    HW222878   0.364   3.095   4.513  1.2733  1.2274 -0.0767
 3748SOL     OW22879   0.341   1.236  15.199 -0.3741  0.3561  1.1654
 3748SOL    HW122880   0.364   1.319  15.158  2.3526 -0.5840  0.7613
 3748SOL    HW222881   0.398   1.229  15.276  0.1797  0.8318  0.7987
 3749SOL     OW22882   2.387   0.670   0.535  0.1687 -0.7482  0.1336
 3749SOL    HW122883   2.301   0.628   0.541  0.7506 -1.9133  0.3480
 3749SOL    HW222884   2.394   0.681   0.441  1.3592  0.8256  0.4129
 3750SOL     OW22885   2.832   0.645  17.558 -0.2386 -0.1340  0.1092
 3750SOL    HW122886   2.763   0.598  17.604 -0.5219  0.5888  0.4219
 3750SOL    HW222887   2.865   0.580  17.495  2.0812  1.1559  0.0145
 3751SOL     OW22888   0.347   0.791   4.016 -0.1054 -0.4083  0.2001
 3751SOL    HW122889   0.254   0.769   4.021 -0.5531  1.1312 -1.6876
 3751SOL    HW222890   0.367   0.833   4.100  1.0335  1.1084 -0.8207
 3752SOL     OW22891   2.526   0.477   8.803 -0.2596 -0.1556 -0.9995
 3752SOL    HW122892   2.499   0.386   8.810  0.0058 -0.0071  1.8510
 3752SOL    HW222893   2.455   0.523   8.848  0.2585 -0.6683  0.3162
 3753SOL     OW22894   1.106   4.731   4.496 -0.2505 -0.5885 -0.4078
 3753SOL    HW122895   1.127   0.079   4.461  0.4829  0.3573  2.3075
 3753SOL    HW222896   1.160   4.680   4.435 -0.4519  0.2379 -1.2675
 3754SOL     OW22897   3.375   2.026   9.434 -0.2134  0.2852 -0.1084
 3754SOL    HW122898   3.424   1.987   9.362  1.6972  0.0149  1.3338
 3754SOL    HW222899   3.344   2.108   9.397 -0.1382  1.0770  1.5781
 3755SOL     OW22900   0.190   0.604  12.710  0.6008  0.4799  0.3445
 3755SOL    HW122901   0.131   0.622  12.783 -0.1764  1.6248 -0.5545
 3755SOL    HW222902   0.247   0.530  12.731  1.3050  0.7214 -0.7027
 3756SOL     OW22903   0.181   2.110  13.845 -0.4277 -0.5499 -0.0680
 3756SOL    HW122904   0.239   2.104  13.921 -0.1834  2.8652  0.0022
 3756SOL    HW222905   0.224   2.176  13.791 -2.4132  0.3147 -0.5712
 3757SOL     OW22906   3.843   0.011   0.552 -0.2471 -0.0423 -0.0591
 3757SOL    HW122907   3.814   0.014   0.460 -1.8838  0.1556  0.4563
 3757SOL    HW222908   3.845   4.654   0.562  0.2323 -0.1481 -1.1322
 3758SOL     OW22909   0.873   1.272   2.482 -0.0672 -0.0891  0.5008
 3758SOL    HW122910   0.905   1.266   2.392 -3.6556 -0.4246 -0.7348
 3758SOL    HW222911   0.788   1.229   2.482  0.2489 -0.7199 -0.1387
 3759SOL     OW22912   0.092   0.457   5.583 -0.4250 -0.1167  0.4613
 3759SOL    HW122913   0.075   0.371   5.621  0.7625 -1.0027 -1.0039
 3759SOL    HW222914   0.035   0.470   5.508  0.4693 -1.9782 -0.5494
 3760SOL     OW22915   2.799   0.196   5.000  0.1569 -0.3048  0.0930
 3760SOL    HW122916   2.827   0.285   4.984 -1.8442 -0.4055 -4.0001
 3760SOL    HW222917   2.745   0.175   4.924 -0.5948 -0.0107  0.5421
 3761SOL     OW22918   4.589   2.758  10.454  0.3096 -0.3064 -0.1954
 3761SOL    HW122919   4.614   2.740  10.545 -1.2879 -0.3974  0.2314
 3761SOL    HW222920   4.609   2.851  10.454  0.2631 -0.3001  1.3742
 3762SOL     OW22921   4.181   2.179   3.259 -0.3172 -0.4077  0.1453
 3762SOL    HW122922   4.246   2.121   3.219  1.9010  1.5620  0.8596
 3762SOL    HW222923   4.179   2.253   3.199  0.8120 -1.7433 -1.5458
 3763SOL     OW22924   3.247   2.142  13.779  0.2467  0.1715 -0.0662
 3763SOL    HW122925   3.162   2.116  13.815 -1.7020  1.7162 -3.5790
 3763SOL    HW222926   3.229   2.158  13.686  1.1395  2.7072  0.1768
 3764SOL     OW22927   0.763   2.074   2.082  0.0216 -0.2852 -0.3095
 3764SOL    HW122928   0.699   2.003   2.076  0.8920 -1.1038  0.0774
 3764SOL    HW222929   0.785   2.071   1.989 -1.4718  0.4054 -0.6824
 3765SOL     OW22930   1.736   3.550  13.245  0.3253  0.3682  0.3315
 3765SOL    HW122931   1.714   3.615  13.177 -1.5210  0.6286  1.1713
 3765SOL    HW222932   1.783   3.599  13.312 -1.8133  1.2668  1.1887
 3766SOL     OW22933   1.874   2.000   1.595  0.4426  0.0605  0.2999
 3766SOL    HW122934   1.911   2.006   1.507  1.1643  2.8396  0.8080
 3766SOL    HW222935   1.811   2.071   1.593  0.5199  0.1657  1.9262
 3767SOL     OW22936   1.751   3.759  10.015 -0.0668 -0.0518 -0.0177
 3767SOL    HW122937   1.772   3.851  10.000 -0.1168  0.0407  0.4854
 3767SOL    HW222938   1.673   3.750   9.960 -0.8712  0.3161  1.0433
 3768SOL     OW22939   0.223   1.143   6.152 -0.0391 -0.1976  0.2332
 3768SOL    HW122940   0.188   1.150   6.241  0.8898  0.1013  0.5798
 3768SOL    HW222941   0.168   1.070   6.124 -1.0774  0.3401  0.8737
 3769SOL     OW22942   1.604   3.215   4.964 -0.8377 -0.2086  0.4441
 3769SOL    HW122943   1.644   3.224   4.878  1.6241  0.0093  1.6230
 3769SOL    HW222944   1.579   3.306   4.983  1.1498  0.4333 -0.0554
 3770SOL     OW22945   3.011   0.822   2.959  0.5982  0.1888 -0.2962
 3770SOL    HW122946   2.980   0.824   3.050 -1.8137  1.6587 -1.1631
 3770SOL    HW222947   3.089   0.767   2.966  0.2086 -0.6549 -2.6156
 3771SOL     OW22948   2.647   1.058   8.145 -0.1709 -0.5927 -0.4994
 3771SOL    HW122949   2.743   1.057   8.140 -0.0911 -0.3006  0.8875
 3771SOL    HW222950   2.633   1.098   8.231 -0.4510  0.9751 -1.2725
 3772SOL     OW22951   4.555   3.071  12.102 -0.0149  0.3552  0.7427
 3772SOL    HW122952   4.539   3.128  12.027 -0.2434 -0.0417  0.4881
 3772SOL    HW222953   4.602   3.000  12.059 -2.4609 -2.1427  2.1918
 3773SOL     OW22954   0.244   3.869  12.727 -0.0995 -0.1555 -0.2139
 3773SOL    HW122955   0.212   3.926  12.657 -1.5486  1.0912  1.4557
 3773SOL    HW222956   0.251   3.930  12.800 -0.3445  0.9786 -1.1466
 3774SOL     OW22957   2.161   3.845  16.936 -0.5244  0.3434  0.2435
 3774SOL    HW122958   2.169   3.758  16.899 -0.9440  1.7057 -3.0602
 3774SOL    HW222959   2.255   3.862  16.934 -0.7073  1.0723 -2.2256
 3775SOL     OW22960   3.287   4.257   0.406 -0.6073  0.0442  0.5417
 3775SOL    HW122961   3.251   4.210   0.482 -2.7913 -1.2582 -1.3002
 3775SOL    HW222962   3.260   4.346   0.429  1.4286  0.8628 -0.2462
 3776SOL     OW22963   0.340   0.801   9.641  0.0176 -0.0616  0.2225
 3776SOL    HW122964   0.397   0.724   9.646  0.5155  0.2162 -1.4144
 3776SOL    HW222965   0.397   0.851   9.699  0.7752 -0.7434  0.0668
 3777SOL     OW22966   1.171   2.625   3.021 -0.3287 -0.0045 -0.1018
 3777SOL    HW122967   1.201   2.687   3.087 -0.9121 -0.0270  0.1805
 3777SOL    HW222968   1.245   2.620   2.960 -0.8245  0.2686 -0.7277
 3778SOL     OW22969   4.074   2.538   9.765  1.1327  0.0727  0.0555
 3778SOL    HW122970   4.136   2.591   9.816 -1.6514  2.2010  1.2516
 3778SOL    HW222971   4.093   2.453   9.803  3.3107  0.0843 -1.0595
 3779SOL     OW22972   3.216   4.411  17.455  0.0494 -0.2972 -0.3437
 3779SOL    HW122973   3.276   4.339  17.476 -0.9699 -1.6648 -2.1771
 3779SOL    HW222974   3.133   4.366  17.471  0.7623 -0.3289  3.2726
 3780SOL     OW22975   1.227   4.350   5.659 -0.2244  0.2734 -0.0780
 3780SOL    HW122976   1.192   4.301   5.584  0.4289  0.3850 -0.4500
 3780SOL    HW222977   1.255   4.275   5.712 -0.2921 -0.3565 -0.9198
 3781SOL     OW22978   0.860   3.647   7.755  0.8406 -0.2538 -0.4070
 3781SOL    HW122979   0.906   3.727   7.778 -2.5915  1.3765  0.7987
 3781SOL    HW222980   0.862   3.602   7.839 -0.5692  1.1863  0.3969
 3782SOL     OW22981   0.157   3.568   4.895  0.1567  0.0486  0.0773
 3782SOL    HW122982   0.062   3.558   4.884 -0.1210  1.3604  1.4225
 3782SOL    HW222983   0.187   3.479   4.876  2.0235  0.0960  2.8994
 3783SOL     OW22984   0.377   0.746   8.613  0.3211  0.3019 -0.1211
 3783SOL    HW122985   0.468   0.762   8.637  0.4632 -0.1785 -0.3421
 3783SOL    HW222986   0.327   0.768   8.691  1.2150 -0.2879  0.6101
 3784SOL     OW22987   3.956   1.407  11.113  0.7376 -0.5768 -0.0321
 3784SOL    HW122988   4.021   1.437  11.177 -1.5759 -1.2523  2.6129
 3784SOL    HW222989   3.880   1.430  11.166  1.4351  1.7559 -0.0386
 3785SOL     OW22990   2.837   0.741   8.747  0.2298 -0.4695 -0.2065
 3785SOL    HW122991   2.913   0.687   8.726  0.4643  0.9662 -3.0847
 3785SOL    HW222992   2.810   0.687   8.821 -1.9790  1.2628  0.2252
 3786SOL     OW22993   1.092   1.434   3.779 -0.2021 -0.3575  0.3387
 3786SOL    HW122994   1.013   1.487   3.780  0.4508  0.6063  1.0595
 3786SOL    HW222995   1.079   1.394   3.693  1.4542 -1.7340  0.7248
 3787SOL     OW22996   4.051   2.465   9.503 -0.1986 -0.3296 -0.5409
 3787SOL    HW122997   4.072   2.505   9.587  1.3023 -0.2957 -0.9364
 3787SOL    HW222998   4.085   2.536   9.448  0.9693  1.5272  2.6368
 3788SOL     OW22999   1.404   2.052  13.273 -0.1547  0.1226 -0.4591
 3788SOL    HW123000   1.458   2.038  13.195  0.8284  0.0777  0.2241
 3788SOL    HW223001   1.451   2.007  13.344 -1.5338  0.6446  0.7819
 3789SOL     OW23002   4.174   3.666   4.562 -0.5949 -0.2943 -0.0489
 3789SOL    HW123003   4.236   3.597   4.584 -0.7560  0.0624  1.5343
 3789SOL    HW223004   4.142   3.630   4.480 -0.9550  0.4540 -0.2385
 3790SOL     OW23005   1.024   2.565   7.398 -0.1678 -0.0703  0.1752
 3790SOL    HW123006   1.018   2.501   7.469 -0.0930  0.7385  0.9169
 3790SOL    HW223007   1.117   2.563   7.379 -0.2343 -0.2216 -0.1256
 3791SOL     OW23008   1.391   3.622  14.385 -0.1091 -0.0769 -0.3155
 3791SOL    HW123009   1.397   3.717  14.388 -2.0152  0.0134  0.8129
 3791SOL    HW223010   1.462   3.610  14.448 -3.4908 -1.0149  3.3647
 3792SOL     OW23011   2.869   4.013   9.827  1.0280 -0.1092  0.2297
 3792SOL    HW123012   2.958   4.019   9.862  0.8023 -1.6426  1.0376
 3792SOL    HW223013   2.831   4.079   9.885 -0.5174 -2.4518  1.8923
 3793SOL     OW23014   4.123   4.668   5.612 -0.5495  0.1415  0.3641
 3793SOL    HW123015   4.083   4.610   5.677 -0.5220  0.0956  0.3406
 3793SOL    HW223016   4.181   4.723   5.664 -0.8285  1.2053 -0.4598
 3794SOL     OW23017   3.573   2.828  16.524  0.4184  1.0561 -0.5390
 3794SOL    HW123018   3.607   2.913  16.495  2.4951  0.6376  0.6088
 3794SOL    HW223019   3.534   2.857  16.606 -0.4979  2.8094 -1.5831
 3795SOL     OW23020   0.295   1.790   7.218  0.0153 -0.0566 -0.2306
 3795SOL    HW123021   0.285   1.718   7.279 -3.4429  0.8151  0.1980
 3795SOL    HW223022   0.387   1.775   7.195  0.6598  0.7264  1.8977
 3796SOL     OW23023   1.110   1.961   1.595  0.3294 -0.1361 -0.3741
 3796SOL    HW123024   1.141   2.042   1.635 -0.8653 -0.3875  1.0421
 3796SOL    HW223025   1.185   1.937   1.540  0.8444 -0.3376  0.4225
 3797SOL     OW23026   3.221   4.594   6.205 -0.1074 -0.3356  0.1269
 3797SOL    HW123027   3.267   4.516   6.175 -0.3395  0.0247 -1.1951
 3797SOL    HW223028   3.162   4.551   6.266  1.6306 -1.0193  1.3192
 3798SOL     OW23029   0.010   4.019  16.027  0.1505  0.4502 -0.3181
 3798SOL    HW123030   0.089   4.057  15.988  0.0241 -0.9487 -1.9491
 3798SOL    HW223031   4.694   4.060  15.959  0.1152 -1.0040 -1.1756
 3799SOL     OW23032   2.147   4.266   6.117 -0.2208 -0.2886  0.5552
 3799SOL    HW123033   2.093   4.254   6.195  1.1100  0.6596  1.6102
 3799SOL    HW223034   2.083   4.289   6.049  0.1728 -0.0661  0.2646
 3800SOL     OW23035   0.314   0.342  14.145  0.2149  0.0400  0.7303
 3800SOL    HW123036   0.355   0.398  14.079 -0.9845  2.0567  1.7047
 3800SOL    HW223037   0.239   0.312  14.093  1.7440 -4.4258  1.1195
 3801SOL     OW23038   3.284   1.166   0.232  0.4970  0.0313  0.1125
 3801SOL    HW123039   3.249   1.155   0.321 -0.0065  0.9055  0.0230
 3801SOL    HW223040   3.300   1.074   0.211 -1.6862  0.2683 -2.5138
 3802SOL     OW23041   3.478   2.002   7.122  0.3199 -0.1172  0.5895
 3802SOL    HW123042   3.565   1.967   7.104 -0.9155 -2.1336 -1.4356
 3802SOL    HW223043   3.430   1.960   7.050 -0.2793 -1.0789  1.5501
 3803SOL     OW23044   3.918   0.703   3.968  0.4325  0.4574  0.0259
 3803SOL    HW123045   3.835   0.745   3.991  0.7409  2.2291 -2.0669
 3803SOL    HW223046   3.892   0.613   3.948 -1.8282  1.0324  0.4098
 3804SOL     OW23047   0.958   1.395   5.686  0.1490 -0.3087 -0.0184
 3804SOL    HW123048   0.917   1.326   5.739  1.7755 -0.0958  1.5077
 3804SOL    HW223049   0.982   1.454   5.757  0.9295 -1.6907  0.8758
 3805SOL     OW23050   0.868   3.071   0.476 -0.0787  0.1154 -0.5532
 3805SOL    HW123051   0.863   3.128   0.399  0.7637  0.4597 -0.3514
 3805SOL    HW223052   0.802   3.004   0.455 -0.4705  1.2327 -2.8677
 3806SOL     OW23053   2.686   2.859   3.412  0.1267  0.4598 -0.4160
 3806SOL    HW123054   2.767   2.824   3.451 -2.2662 -3.1088  1.3030
 3806SOL    HW223055   2.622   2.851   3.482  0.4370 -2.3180 -0.4169
 3807SOL     OW23056   4.721   2.245   4.307 -0.3908 -0.7410 -0.2127
 3807SOL    HW123057   0.036   2.198   4.372  0.9491  0.6260 -0.3187
 3807SOL    HW223058   4.633   2.239   4.345  0.5034  0.3346  2.0318
 3808SOL     OW23059   1.803   2.012   5.236  0.1394 -0.7154  0.6958
 3808SOL    HW123060   1.785   1.918   5.247 -4.6625  0.0398 -0.8666
 3808SOL    HW223061   1.889   2.014   5.193  0.6791  1.8613  1.9388
 3809SOL     OW23062   0.268   4.166  12.658  0.1549  0.1994  0.2444
 3809SOL    HW123063   0.247   4.259  12.668 -1.3531 -0.2602  1.4904
 3809SOL    HW223064   0.301   4.151  12.746  0.9507  0.9818  0.0793
 3810SOL     OW23065   1.384   0.587   2.183 -0.4385  0.6697 -0.0832
 3810SOL    HW123066   1.398   0.493   2.193 -1.1722  0.5470 -0.2290
 3810SOL    HW223067   1.472   0.625   2.191 -0.2855  0.6767 -1.6573
 3811SOL     OW23068   2.033   4.637   5.195 -0.8811  0.2398  0.5791
 3811SOL    HW123069   1.939   4.637   5.213 -1.1300  2.5890 -0.7337
 3811SOL    HW223070   2.077   4.614   5.277  2.5540  0.8058 -1.0937
 3812SOL     OW23071   3.943   2.045   6.407  0.3221  0.2461 -0.4962
 3812SOL    HW123072   3.963   2.138   6.404 -0.7221  0.4525 -1.1242
 3812SOL    HW223073   3.864   2.051   6.354  0.1329 -0.0860 -0.2509
 3813SOL     OW23074   2.262   0.354  17.496  0.5636 -0.1268 -0.0866
 3813SOL    HW123075   2.217   0.435  17.474 -0.1417 -0.0931  1.4506
 3813SOL    HW223076   2.279   0.325  17.407  0.7097 -0.6762  0.1229
 3814SOL     OW23077   3.693   2.718   4.659 -0.0230  0.3653 -0.3108
 3814SOL    HW123078   3.782   2.751   4.654 -0.7023  2.3506  0.7502
 3814SOL    HW223079   3.704   2.627   4.630 -1.0590  0.0109  0.3642
 3815SOL     OW23080   2.462   4.450   2.065 -0.6749  0.2739  0.5296
 3815SOL    HW123081   2.484   4.427   2.155  0.6175  0.6537  0.3138
 3815SOL    HW223082   2.526   4.411   2.006 -1.0963  2.5603 -1.4675
 3816SOL     OW23083   2.626   3.685   5.070  0.0669 -0.5249 -0.6788
 3816SOL    HW123084   2.586   3.741   5.136  2.3291 -0.9048  1.0202
 3816SOL    HW223085   2.545   3.680   5.020  0.7906  0.1483 -1.9143
 3817SOL     OW23086   1.739   3.535   5.990  0.1841  0.9212 -0.4810
 3817SOL    HW123087   1.750   3.443   6.014 -0.8926  0.8030 -0.4286
 3817SOL    HW223088   1.701   3.524   5.903  2.1435 -1.1058 -1.0785
 3818SOL     OW23089   3.246   4.624   9.054  0.9397  0.5649 -0.4392
 3818SOL    HW123090   3.280   4.569   8.984  0.2645 -1.6520  0.9854
 3818SOL    HW223091   3.174   4.577   9.095  2.2464 -1.3108 -0.3039
 3819SOL     OW23092   0.886   2.220  15.781  0.1540 -0.0137  0.1939
 3819SOL    HW123093   0.848   2.307  15.779  0.4072  0.1169  1.3117
 3819SOL    HW223094   0.958   2.230  15.719  1.0761  0.0324  1.2771
 3820SOL     OW23095   0.691   2.287   3.209  0.5144 -0.2935 -0.4914
 3820SOL    HW123096   0.642   2.368   3.223  1.4983  0.2173 -0.0517
 3820SOL    HW223097   0.746   2.323   3.140 -0.2334  0.7657 -0.5416
 3821SOL     OW23098   3.807   4.184   8.599 -0.3728  0.5795  0.0482
 3821SOL    HW123099   3.877   4.245   8.625  0.2326 -0.3563  0.5845
 3821SOL    HW223100   3.808   4.113   8.663  2.0103  0.1315 -0.4766
 3822SOL     OW23101   1.352   2.459  13.674 -0.1950 -0.1597 -0.0402
 3822SOL    HW123102   1.311   2.445  13.759 -1.6190 -1.7555 -0.9999
 3822SOL    HW223103   1.438   2.493  13.698 -0.1514 -0.0679 -0.3209
 3823SOL     OW23104   2.754   0.446  10.980  0.2422  0.3102 -0.4702
 3823SOL    HW123105   2.675   0.408  11.019  1.0167  1.9374  2.7251
 3823SOL    HW223106   2.712   0.463  10.896  0.2106 -0.7269 -0.6698
 3824SOL     OW23107   1.898   4.482   3.545  0.4567 -0.1937  0.2428
 3824SOL    HW123108   1.846   4.462   3.623  1.8333 -0.8694  0.9786
 3824SOL    HW223109   1.974   4.527   3.580  1.1349 -1.4006  0.3228
 3825SOL     OW23110   3.690   2.418   4.981  0.0711  0.3211  0.0046
 3825SOL    HW123111   3.714   2.339   4.933  1.5812 -0.0476  1.3614
 3825SOL    HW223112   3.648   2.476   4.918 -0.2785 -1.5782 -1.4886
 3826SOL     OW23113   2.504   3.771   7.945 -0.7628 -0.4697  0.4058
 3826SOL    HW123114   2.414   3.794   7.967 -0.2639 -0.0707  2.0383
 3826SOL    HW223115   2.546   3.849   7.983 -1.3681  0.4863 -0.8797
 3827SOL     OW23116   1.351   2.783   4.464  0.6701 -0.3500  0.2014
 3827SOL    HW123117   1.307   2.725   4.403 -1.6259  0.3769  1.1473
 3827SOL    HW223118   1.294   2.782   4.541 -0.4483  0.1764 -0.6236
 3828SOL     OW23119   0.895   3.145   2.136 -0.0950 -0.2820  0.1503
 3828SOL    HW123120   0.987   3.124   2.149  0.1509  0.2692 -0.6956
 3828SOL    HW223121   0.885   3.190   2.220 -1.0255 -1.1570  0.5087
 3829SOL     OW23122   0.298   4.420   4.380 -1.0105  0.3099  0.3039
 3829SOL    HW123123   0.350   4.494   4.412  0.2847 -0.0975 -0.8498
 3829SOL    HW223124   0.371   4.359   4.371 -1.0065  0.2820  0.5217
 3830SOL     OW23125   1.097   2.009  16.996 -0.5142  0.0716 -0.0648
 3830SOL    HW123126   1.059   1.960  16.923 -1.5126  0.6213  0.0825
 3830SOL    HW223127   1.116   2.096  16.962 -2.1246  0.9902  1.3942
 3831SOL     OW23128   4.060   3.613   8.803 -0.0875 -0.7194  0.6337
 3831SOL    HW123129   3.968   3.600   8.778  0.5631 -0.9428 -1.6797
 3831SOL    HW223130   4.068   3.655   8.888  0.7205 -0.7902  0.5952
 3832SOL     OW23131   2.248   4.463   0.909 -0.3034 -0.2116  0.3186
 3832SOL    HW123132   2.167   4.513   0.926 -0.4413 -0.2095 -0.3274
 3832SOL    HW223133   2.256   4.490   0.817  0.4256 -0.4656  0.3114
 3833SOL     OW23134   1.175   3.928  13.214 -0.2991  0.1639  0.4474
 3833SOL    HW123135   1.200   3.977  13.135 -0.4822 -1.0760 -0.3799
 3833SOL    HW223136   1.170   3.996  13.281 -0.9176 -0.3879  0.9537
 3834SOL     OW23137   3.151   3.414  14.559  0.9604 -0.4503 -0.0073
 3834SOL    HW123138   3.166   3.345  14.494 -0.9845  0.5165 -1.4578
 3834SOL    HW223139   3.196   3.487  14.516 -0.4632 -1.1637 -2.7001
 3835SOL     OW23140   2.871   4.449   6.006  0.2748  0.8295  0.5547
 3835SOL    HW123141   2.781   4.420   6.019  1.1327 -1.9867  0.1934
 3835SOL    HW223142   2.863   4.541   6.031  0.0755  1.0836 -0.4238
 3836SOL     OW23143   1.653   3.555   7.452  0.5562  0.9302  0.8629
 3836SOL    HW123144   1.730   3.502   7.473 -0.2037 -0.4419  0.1555
 3836SOL    HW223145   1.586   3.523   7.512  0.4920 -0.4541  0.0522
 3837SOL     OW23146   0.165   0.482   1.540 -0.3272  0.2261  0.4978
 3837SOL    HW123147   0.242   0.474   1.484  0.9790  2.3895  1.9578
 3837SOL    HW223148   0.133   0.570   1.517  1.3289  0.5844 -0.4044
 3838SOL     OW23149   2.765   1.669  17.123  0.6268 -0.5464 -0.2168
 3838SOL    HW123150   2.772   1.684  17.029 -1.8770 -0.0600 -0.3212
 3838SOL    HW223151   2.724   1.583  17.119  3.5571 -1.8344 -1.9817
 3839SOL     OW23152   0.746   4.305   7.765 -0.2538 -0.0744  0.5251
 3839SOL    HW123153   0.816   4.357   7.806  1.2341 -2.3943  0.8930
 3839SOL    HW223154   0.783   4.288   7.678 -0.3403 -2.4836  0.9636
 3840SOL     OW23155   2.351   0.477   5.214  0.1184  0.1712  0.1340
 3840SOL    HW123156   2.274   0.475   5.270 -0.4470 -3.9268 -0.7873
 3840SOL    HW223157   2.377   0.385   5.209 -0.3609  0.0664 -0.4109
 3841SOL     OW23158   0.036   0.506  11.553  0.3719 -0.0678 -0.2264
 3841SOL    HW123159   0.054   0.491  11.646 -0.2812 -1.2407 -0.2963
 3841SOL    HW223160   0.092   0.433  11.527 -0.9761 -0.7503 -1.1883
 3842SOL     OW23161   2.681   1.152   1.713 -0.0661  0.0284 -0.2593
 3842SOL    HW123162   2.758   1.105   1.680  0.0952  1.3595 -1.7932
 3842SOL    HW223163   2.608   1.096   1.689 -0.0458 -0.0027 -0.2486
 3843SOL     OW23164   0.847   2.509   8.611  0.7890 -0.0802  0.4090
 3843SOL    HW123165   0.792   2.446   8.564 -0.8590  0.3611  1.7316
 3843SOL    HW223166   0.827   2.584   8.554 -0.2432  0.4362  1.4416
 3844SOL     OW23167   1.996   1.916   8.559 -0.0827 -0.2672 -0.2660
 3844SOL    HW123168   2.083   1.907   8.597 -0.1752 -0.9135 -0.2007
 3844SOL    HW223169   2.008   1.947   8.469 -2.0131  1.4458  0.0476
 3845SOL     OW23170   1.575   0.118   1.874 -0.0487  0.0066  0.3799
 3845SOL    HW123171   1.526   0.068   1.939 -0.2872 -0.0053  0.1924
 3845SOL    HW223172   1.561   0.065   1.796 -1.0871  1.4629 -0.4404
 3846SOL     OW23173   4.458   1.317   9.485 -0.7457  0.2575 -0.1590
 3846SOL    HW123174   4.422   1.400   9.453  0.1464  0.2797 -1.1117
 3846SOL    HW223175   4.539   1.336   9.533 -0.7591 -0.9163  0.3197
 3847SOL     OW23176   2.231   3.863   8.256  0.6964  0.9376 -0.5268
 3847SOL    HW123177   2.322   3.855   8.285  0.6758  0.5478 -0.5676
 3847SOL    HW223178   2.205   3.801   8.323 -1.1818  0.9073 -1.2779
 3848SOL     OW23179   3.943   2.176   8.132 -0.3393  0.5951 -0.0361
 3848SOL    HW123180   4.001   2.142   8.063 -0.0218 -0.0332  0.5391
 3848SOL    HW223181   4.012   2.202   8.193  0.2689 -0.4377 -0.2792
 3849SOL     OW23182   1.674   4.667   0.269  0.1525  0.1098 -0.9533
 3849SOL    HW123183   1.610   4.599   0.291  0.5048 -0.3325 -1.2981
 3849SOL    HW223184   1.736   4.659   0.342  1.3124 -0.2972 -1.9960
 3850SOL     OW23185   0.423   1.092   4.330  0.5301 -0.0873  0.5092
 3850SOL    HW123186   0.503   1.084   4.382 -0.2205  1.8420  1.9911
 3850SOL    HW223187   0.457   1.067   4.244 -0.9247  2.2772 -0.7534
 3851SOL     OW23188   2.015   3.820   2.171  0.4316  0.2375  0.1193
 3851SOL    HW123189   2.047   3.795   2.084 -1.7840  0.1620 -0.6656
 3851SOL    HW223190   1.946   3.755   2.178 -0.1011  0.9067  1.0620
 3852SOL     OW23191   3.441   2.189   6.318 -0.0346  0.0964 -0.0600
 3852SOL    HW123192   3.378   2.118   6.303 -0.2157  0.5805 -1.6155
 3852SOL    HW223193   3.429   2.200   6.412 -0.8166 -1.2330 -0.0005
 3853SOL     OW23194   4.628   2.630   9.917  0.5671  0.5638 -0.0133
 3853SOL    HW123195   4.673   2.551   9.948  2.4485  0.9963 -1.5915
 3853SOL    HW223196   4.603   2.676   9.996  0.1576  0.1217  0.1133
 3854SOL     OW23197   0.444   0.980   5.705 -0.0245 -0.2630  0.4120
 3854SOL    HW123198   0.490   1.017   5.630 -1.4787 -1.9176 -1.3037
 3854SOL    HW223199   0.390   1.055   5.730 -0.3857 -0.3174 -0.2019
 3855SOL     OW23200   0.108   1.516  11.173 -0.0278  0.2850  0.3433
 3855SOL    HW123201   0.072   1.441  11.221 -0.3870 -1.6154 -2.8512
 3855SOL    HW223202   0.043   1.558  11.118  0.0140 -0.2898 -0.1490
 3856SOL     OW23203   2.690   1.601   7.826 -0.6040 -0.1937 -0.1860
 3856SOL    HW123204   2.752   1.633   7.892 -1.9101 -0.2758  1.0827
 3856SOL    HW223205   2.640   1.531   7.867  1.6936 -0.1922  2.5821
 3857SOL     OW23206   1.659   3.878   8.284  0.4099  0.2357  0.2617
 3857SOL    HW123207   1.696   3.856   8.199  1.3341 -1.3396  1.0549
 3857SOL    HW223208   1.733   3.925   8.323  1.0524 -0.2541 -0.3699
 3858SOL     OW23209   1.441   3.177   3.985 -0.0091 -0.5112  0.5581
 3858SOL    HW123210   1.426   3.086   4.010  0.8798 -0.4825  1.1948
 3858SOL    HW223211   1.469   3.164   3.895 -0.9015 -0.3564  0.2568
 3859SOL     OW23212   0.723   4.103   3.829 -0.2183 -0.1795 -0.0668
 3859SOL    HW123213   0.760   4.147   3.906  0.3066 -3.6292  1.6096
 3859SOL    HW223214   0.780   4.026   3.832 -0.2079 -0.1934 -0.7458
 3860SOL     OW23215   0.218   1.555  15.853 -0.0280 -0.2737  0.2971
 3860SOL    HW123216   0.307   1.587  15.841 -0.0504 -0.4312 -0.2976
 3860SOL    HW223217   0.175   1.566  15.768 -0.3453 -1.9540  0.2357
 3861SOL     OW23218   3.887   0.518   6.627 -0.0094  0.0688 -0.1129
 3861SOL    HW123219   3.843   0.449   6.577 -1.3057 -0.8177  2.2205
 3861SOL    HW223220   3.976   0.484   6.631  0.2643  0.7441 -0.6859
 3862SOL     OW23221   4.175   3.789   8.205 -0.1959  0.0961 -0.5035
 3862SOL    HW123222   4.164   3.834   8.121 -0.1176  0.3112 -0.3984
 3862SOL    HW223223   4.081   3.789   8.222  0.3862 -0.2613  2.6401
 3863SOL     OW23224   2.610   3.968   9.183 -0.1585 -0.7476  0.2684
 3863SOL    HW123225   2.581   4.005   9.266  0.0225  1.1584 -0.5258
 3863SOL    HW223226   2.637   4.040   9.126 -1.0274 -0.2062  0.5549
 3864SOL     OW23227   3.928   3.828  11.246 -0.0166 -0.2925 -0.3434
 3864SOL    HW123228   3.896   3.913  11.215 -1.3191 -0.9828 -0.9062
 3864SOL    HW223229   4.009   3.847  11.292 -0.3861  0.0406  0.1635
 3865SOL     OW23230   0.114   3.544   9.073 -0.2245 -0.0507  0.0736
 3865SOL    HW123231   0.098   3.560   9.166 -0.0024  0.0768  0.0897
 3865SOL    HW223232   0.093   3.628   9.032  1.0480  0.3402  0.2353
 3866SOL     OW23233   0.295   4.149   3.325  0.1055 -0.2625  0.7008
 3866SOL    HW123234   0.341   4.070   3.297 -0.0143  0.9625 -2.9107
 3866SOL    HW223235   0.267   4.117   3.411 -0.0529 -0.9458  0.3974
 3867SOL     OW23236   2.279   4.567   2.237  0.6865 -0.0410  0.2160
 3867SOL    HW123237   2.318   4.569   2.325 -0.4096 -0.3685  0.7143
 3867SOL    HW223238   2.349   4.548   2.175  1.5062 -4.2298  2.3689
 3868SOL     OW23239   0.042   4.138   7.389  0.3499 -0.1492 -0.2800
 3868SOL    HW123240   0.038   4.230   7.416 -0.0532 -0.1697 -0.2700
 3868SOL    HW223241   0.090   4.100   7.463 -0.0256 -1.0693 -0.5056
 3869SOL     OW23242   1.732   3.120   8.941  0.2905 -0.2567 -0.1422
 3869SOL    HW123243   1.753   3.147   9.031  1.4975 -0.7706 -0.2685
 3869SOL    HW223244   1.801   3.165   8.892  1.4551 -1.8410  0.0239
 3870SOL     OW23245   3.536   0.787   0.236  0.3567 -0.2622  0.5333
 3870SOL    HW123246   3.518   0.733   0.313  0.8589 -1.2235 -0.0234
 3870SOL    HW223247   3.522   0.718   0.171 -1.5487  0.2684  0.4044
 3871SOL     OW23248   0.090   2.169   3.387 -0.3657 -0.2695 -0.1506
 3871SOL    HW123249   0.179   2.183   3.419 -0.5073  0.9100 -0.2741
 3871SOL    HW223250   0.051   2.247   3.427  0.7080  0.7303 -1.0604
 3872SOL     OW23251   3.103   1.555   6.441  0.3424 -0.1451 -0.0123
 3872SOL    HW123252   3.061   1.632   6.478 -1.5940 -0.3750 -1.7531
 3872SOL    HW223253   3.053   1.480   6.473  0.9914 -0.4183  0.3669
 3873SOL     OW23254   3.338   3.016   4.985 -0.2812  0.6389 -0.7546
 3873SOL    HW123255   3.286   2.992   5.061  1.1074 -2.7998 -0.9021
 3873SOL    HW223256   3.427   2.994   5.012 -0.8952  1.2398  1.7085
 3874SOL     OW23257   1.021   4.683   8.582 -0.0674  0.5447  0.1811
 3874SOL    HW123258   0.945   4.638   8.619 -1.0476  0.7436 -1.5964
 3874SOL    HW223259   1.009   4.648   8.494 -0.8894 -2.7565  1.6001
 3875SOL     OW23260   1.882   0.752  14.051  0.0970  0.4297  0.3845
 3875SOL    HW123261   1.825   0.802  14.109  1.9052  0.0508  2.5056
 3875SOL    HW223262   1.966   0.765  14.095  1.6593 -0.0234 -2.5175
 3876SOL     OW23263   1.421   3.014   4.668 -0.0017 -0.5708  0.0468
 3876SOL    HW123264   1.430   3.037   4.575  1.5769  1.1019  0.6088
 3876SOL    HW223265   1.439   3.101   4.705  0.6499 -0.6397 -0.1053
 3877SOL     OW23266   4.731   3.975   2.289  0.0008 -0.0891  0.1723
 3877SOL    HW123267   4.711   4.064   2.319 -0.5997  0.0735 -0.7078
 3877SOL    HW223268   0.014   3.989   2.197  0.6044  2.4366  0.6853
 3878SOL     OW23269   2.147   1.730   7.979  0.1368  0.5748  0.1062
 3878SOL    HW123270   2.105   1.649   8.007  0.7071  0.6976  1.3069
 3878SOL    HW223271   2.185   1.757   8.063 -0.6365  0.4156  0.5034
 3879SOL     OW23272   1.504   0.567   8.120  0.1503  0.8989  0.1017
 3879SOL    HW123273   1.545   0.643   8.162 -1.4450 -0.3301  3.8735
 3879SOL    HW223274   1.442   0.537   8.186 -0.6804  1.6625 -0.3340
 3880SOL     OW23275   2.499   4.558  16.087 -0.6149  0.4256 -0.0186
 3880SOL    HW123276   2.572   4.506  16.054 -1.9536  0.3897 -2.9401
 3880SOL    HW223277   2.493   4.512  16.170 -0.6267  0.9209  0.2538
 3881SOL     OW23278   0.275   1.980   9.788 -0.1336 -0.0337  0.1749
 3881SOL    HW123279   0.332   2.014   9.857  1.0583 -1.3937 -0.1521
 3881SOL    HW223280   0.221   1.927   9.846 -1.4104  0.8755 -0.1746
 3882SOL     OW23281   3.202   0.961  10.056 -0.1234 -0.2687  0.3505
 3882SOL    HW123282   3.174   1.019  10.127  2.7700 -1.3703  2.4033
 3882SOL    HW223283   3.235   1.028   9.995  0.4575  0.8600  1.9078
 3883SOL     OW23284   0.336   0.571   3.398  0.4753  0.3299 -0.0255
 3883SOL    HW123285   0.262   0.631   3.403 -0.2929 -0.4874 -2.1495
 3883SOL    HW223286   0.317   0.507   3.467 -0.0083  1.5165  0.9451
 3884SOL     OW23287   0.912   2.883   3.015  0.2102 -0.0294 -0.3657
 3884SOL    HW123288   0.923   2.978   3.020 -0.8455  0.2318 -3.3138
 3884SOL    HW223289   0.880   2.864   3.104 -0.2605 -1.2375 -0.7927
 3885SOL     OW23290   0.780   1.717   1.911 -0.1678 -0.2225 -0.1148
 3885SOL    HW123291   0.734   1.795   1.883 -0.7571 -0.6516 -0.3373
 3885SOL    HW223292   0.848   1.717   1.843  0.8843  0.2411  0.9393
 3886SOL     OW23293   0.114   1.537   6.894 -0.4607  0.1180  0.0853
 3886SOL    HW123294   0.040   1.544   6.833  1.4972 -1.2480 -2.4632
 3886SOL    HW223295   0.164   1.473   6.843  0.5402  0.8480  0.1568
 3887SOL     OW23296   2.016   1.429  15.534 -0.3277 -0.5494 -0.4991
 3887SOL    HW123297   2.056   1.342  15.524  0.1559 -0.3316 -0.4420
 3887SOL    HW223298   1.974   1.413  15.619 -2.8327  2.1415 -1.2615
 3888SOL     OW23299   2.351   3.022   6.091  0.2490 -0.5563  0.6188
 3888SOL    HW123300   2.386   3.023   6.002  0.7370  0.8268  0.8284
 3888SOL    HW223301   2.266   3.065   6.080  0.6947 -0.4126 -2.1670
 3889SOL     OW23302   0.611   3.413   3.583  0.2314  0.1771  0.4889
 3889SOL    HW123303   0.701   3.384   3.597  1.0795  1.0474 -3.1505
 3889SOL    HW223304   0.596   3.375   3.497  0.1540  0.3561  0.4235
 3890SOL     OW23305   3.504   3.218   0.414 -0.3089  0.3919 -0.1704
 3890SOL    HW123306   3.451   3.286   0.455  1.2937  1.5326  0.0281
 3890SOL    HW223307   3.567   3.272   0.366  1.5721 -0.3106  1.5161
 3891SOL     OW23308   3.725   0.492   7.214  0.4117 -0.7089  0.3292
 3891SOL    HW123309   3.641   0.447   7.200 -0.4147  0.3617  1.8379
 3891SOL    HW223310   3.746   0.493   7.120  1.3083 -1.6229  0.5211
 3892SOL     OW23311   0.390   2.330   6.101 -0.4450  0.0621 -0.2187
 3892SOL    HW123312   0.329   2.283   6.157  2.8691 -2.6795  1.0332
 3892SOL    HW223313   0.349   2.414   6.081  1.6950  1.0863 -0.2845
 3893SOL     OW23314   1.982   2.022  13.552 -0.2994 -0.5874 -0.0690
 3893SOL    HW123315   2.069   2.015  13.512 -0.4610 -2.6045 -0.0273
 3893SOL    HW223316   1.931   2.040  13.473  0.2577 -0.3358 -0.3737
 3894SOL     OW23317   4.450   4.502   6.031 -0.0625 -0.3303 -0.6774
 3894SOL    HW123318   4.437   4.515   5.937  2.2508 -1.1998 -1.0966
 3894SOL    HW223319   4.366   4.474   6.066 -0.2519 -0.1082 -0.9534
 3895SOL     OW23320   3.388   0.899   8.596  0.3938 -0.0216 -0.2231
 3895SOL    HW123321   3.379   0.813   8.555  0.1492 -0.2408  0.2891
 3895SOL    HW223322   3.354   0.877   8.683  1.6384  1.0273  0.5225
 3896SOL     OW23323   2.377   0.995   5.474 -0.5561 -0.1388  0.2755
 3896SOL    HW123324   2.431   1.057   5.426 -2.0522  0.8335 -0.1333
 3896SOL    HW223325   2.447   0.946   5.519  0.3917  0.9064 -0.0645
 3897SOL     OW23326   2.505   0.856   7.511  0.4028 -0.2837  0.6263
 3897SOL    HW123327   2.536   0.904   7.587 -2.1316 -0.9540  2.1058
 3897SOL    HW223328   2.416   0.890   7.525 -0.4564 -2.2313 -0.0654
 3898SOL     OW23329   1.918   4.446   8.377 -0.1717  0.3780  0.2998
 3898SOL    HW123330   1.858   4.373   8.394  1.3611 -0.6873  1.2377
 3898SOL    HW223331   1.993   4.410   8.425 -1.1887  1.4229  2.6857
 3899SOL     OW23332   4.517   3.492   8.044 -0.4951 -0.4388 -0.1371
 3899SOL    HW123333   4.512   3.422   7.979  3.5529  0.4546 -1.4379
 3899SOL    HW223334   4.428   3.488   8.078 -0.2208 -2.9707  0.2903
 3900SOL     OW23335   2.501   0.011   2.157 -0.0108 -0.4923 -0.1362
 3900SOL    HW123336   2.565   0.013   2.228  0.3835 -0.5644 -0.4913
 3900SOL    HW223337   2.517   4.668   2.109  0.8168 -0.4476  0.0696
 3901SOL     OW23338   2.092   0.007  14.421 -0.0898 -0.2697  0.2151
 3901SOL    HW123339   2.097   4.672  14.360 -2.6772 -0.3621  0.1204
 3901SOL    HW223340   2.030   4.728  14.492  0.9854  1.3284  1.5363
 3902SOL     OW23341   1.347   1.857   4.110  0.5361  0.4542  0.7621
 3902SOL    HW123342   1.273   1.804   4.079 -1.7883  3.6802  0.7317
 3902SOL    HW223343   1.340   1.937   4.057  1.8883  0.0176 -0.0735
 3903SOL     OW23344   3.873   1.251   7.252  0.0518 -0.4404 -0.9445
 3903SOL    HW123345   3.820   1.288   7.182 -1.6590 -2.2931 -0.6347
 3903SOL    HW223346   3.836   1.163   7.259 -1.6717  0.4100  0.7012
 3904SOL     OW23347   2.506   0.242   3.174  0.0819  0.3562  0.2793
 3904SOL    HW123348   2.553   0.326   3.181 -1.7335  1.5335 -1.3974
 3904SOL    HW223349   2.435   0.255   3.111 -0.4464  0.8811  0.9912
 3905SOL     OW23350   0.602   2.912  16.620  0.0338  0.2440 -0.1314
 3905SOL    HW123351   0.511   2.888  16.606  0.0693 -0.6381  1.1464
 3905SOL    HW223352   0.637   2.923  16.531 -1.1422  1.2883 -0.4637
 3906SOL     OW23353   2.609   1.487   3.874  0.0282  0.1436 -0.0653
 3906SOL    HW123354   2.569   1.410   3.833 -0.3367  1.6445 -2.5235
 3906SOL    HW223355   2.701   1.459   3.875  0.5568  1.8748 -0.6922
 3907SOL     OW23356   0.078   4.693  13.011  0.0796 -0.1027  0.3568
 3907SOL    HW123357   0.112   4.605  13.024  0.9535  0.3330  1.0178
 3907SOL    HW223358   4.734   4.669  12.968 -1.2368 -0.7658  3.2084
 3908SOL     OW23359   2.373   3.927   4.853 -0.0650  0.2617  0.3370
 3908SOL    HW123360   2.368   3.832   4.856 -0.8341  0.3515  2.0917
 3908SOL    HW223361   2.326   3.947   4.934 -2.4073 -2.6883 -0.3035
 3909SOL     OW23362   3.582   3.400  17.586  0.3784 -0.2211  0.0573
 3909SOL    HW123363   3.602   3.320  17.634  0.0836  0.2919  1.0392
 3909SOL    HW223364   3.629   3.391  17.503  1.4418  1.0877  0.5041
 3910SOL     OW23365   3.929   1.027   1.520 -0.3168  0.0507  0.4689
 3910SOL    HW123366   3.985   0.967   1.570 -0.8845 -2.1922 -1.5972
 3910SOL    HW223367   3.893   0.966   1.456  3.4268 -1.7082  0.0120
 3911SOL     OW23368   1.468   2.721  14.912  0.4083 -0.0845 -0.1511
 3911SOL    HW123369   1.495   2.712  15.004 -1.9488  0.3938  0.5924
 3911SOL    HW223370   1.540   2.771  14.872 -0.9377  2.6459  0.8111
 3912SOL     OW23371   1.005   4.108   4.442  0.0951  0.2557 -0.1641
 3912SOL    HW123372   1.053   4.047   4.386  0.3516  0.1367  0.1840
 3912SOL    HW223373   1.036   4.195   4.417  1.0413 -0.6212 -2.0742
 3913SOL     OW23374   1.129   1.647  12.886  0.3287 -0.4116 -0.8415
 3913SOL    HW123375   1.071   1.577  12.916  1.5076 -1.0934 -0.1493
 3913SOL    HW223376   1.113   1.715  12.952  2.1670 -0.9902  0.1926
 3914SOL     OW23377   0.685   4.169  10.316 -0.3897  0.4791  0.0436
 3914SOL    HW123378   0.668   4.079  10.344  0.5980  1.3500  3.3606
 3914SOL    HW223379   0.705   4.157  10.223  0.8185 -2.3254  0.6729
 3915SOL     OW23380   4.056   1.724   5.498  0.1873 -0.1928 -0.6544
 3915SOL    HW123381   3.988   1.773   5.451  0.6185 -0.4126 -1.5003
 3915SOL    HW223382   4.014   1.639   5.491 -2.1540  0.9202 -0.3581
 3916SOL     OW23383   4.469   3.972   9.615 -0.5145  1.0674  0.2064
 3916SOL    HW123384   4.454   3.997   9.524  1.3044 -2.1885 -0.9774
 3916SOL    HW223385   4.558   3.939   9.626 -1.2422 -1.7378 -2.4102
 3917SOL     OW23386   1.354   0.137  17.084  0.0464  0.2921 -0.1412
 3917SOL    HW123387   1.324   0.221  17.119 -1.6948  0.8932 -3.0769
 3917SOL    HW223388   1.306   0.070  17.133  1.0792 -0.4399 -0.1341
 3918SOL     OW23389   1.587   2.582   1.768  0.2104 -0.2972 -0.7982
 3918SOL    HW123390   1.662   2.612   1.717  0.3598 -0.0534 -0.4368
 3918SOL    HW223391   1.627   2.536   1.842 -2.2723 -1.9202 -0.4622
 3919SOL     OW23392   0.515   0.130   2.240 -0.0407 -0.6454 -0.2944
 3919SOL    HW123393   0.472   0.080   2.309  0.4655 -0.9801 -0.2141
 3919SOL    HW223394   0.605   0.111   2.268 -0.6927 -3.0448  0.1589
 3920SOL     OW23395   0.416   0.665   6.131 -0.1506  0.1335 -0.4386
 3920SOL    HW123396   0.429   0.687   6.039 -0.1292 -0.4266 -0.5682
 3920SOL    HW223397   0.503   0.670   6.170  0.0600 -3.6971 -0.4820
 3921SOL     OW23398   2.677   4.189   6.729 -0.0417 -0.3084 -0.5181
 3921SOL    HW123399   2.632   4.110   6.756  0.3582 -1.3104 -2.8066
 3921SOL    HW223400   2.769   4.171   6.708  0.2501  0.5147  0.0213
 3922SOL     OW23401   0.598   1.962   6.998 -0.1598 -0.3124  0.0384
 3922SOL    HW123402   0.613   1.872   7.027  1.3889 -0.1492 -0.2698
 3922SOL    HW223403   0.581   1.958   6.904 -0.0996 -1.6212  0.0895
 3923SOL     OW23404   2.007   0.008   1.627 -0.7182 -0.1316 -0.2558
 3923SOL    HW123405   2.093   0.049   1.617 -1.2029  0.7017 -0.9993
 3923SOL    HW223406   1.963   0.052   1.699 -1.1245  0.3972 -0.8322
 3924SOL     OW23407   2.082   0.019   3.322 -0.1748  0.1853 -0.1429
 3924SOL    HW123408   2.122   0.096   3.281  2.2131 -0.5570  0.7821
 3924SOL    HW223409   1.990   0.045   3.329  0.0142  0.8641 -0.1899
 3925SOL     OW23410   0.335   2.282  13.704  0.4597 -0.1543 -0.1153
 3925SOL    HW123411   0.306   2.364  13.743  0.8089 -0.2623  0.3760
 3925SOL    HW223412   0.430   2.273  13.715  0.4445 -2.2942 -1.5968
 3926SOL     OW23413   1.474   0.871   8.515  0.0264 -0.1945  0.4667
 3926SOL    HW123414   1.466   0.805   8.583  0.4276 -2.1439 -1.3690
 3926SOL    HW223415   1.560   0.840   8.486  0.5629  2.0148 -0.3061
 3927SOL     OW23416   4.485   1.354   8.558  0.5216 -0.2330  0.1384
 3927SOL    HW123417   4.401   1.310   8.573  0.5244 -0.2930 -0.0270
 3927SOL    HW223418   4.455   1.444   8.550  0.3822 -0.3071 -0.1544
 3928SOL     OW23419   3.787   0.105   7.792  0.4681 -0.4605 -0.5689
 3928SOL    HW123420   3.853   0.162   7.833 -3.3274  1.1724  3.2680
 3928SOL    HW223421   3.834   0.022   7.791 -1.1306 -1.3920  2.5977
 3929SOL     OW23422   0.745   2.711  11.520 -0.6270 -0.0823 -0.7328
 3929SOL    HW123423   0.764   2.620  11.495 -2.0596 -0.3959 -0.7213
 3929SOL    HW223424   0.827   2.756  11.501 -0.5362  1.1573  2.7026
 3930SOL     OW23425   4.582   2.170  12.222  0.0709 -0.0849  0.1947
 3930SOL    HW123426   4.561   2.093  12.276  0.1853 -1.7306 -2.0807
 3930SOL    HW223427   4.665   2.148  12.181  0.2647 -0.9078  1.0114
 3931SOL     OW23428   1.030   4.634   7.667  0.0716 -0.1600  0.1503
 3931SOL    HW123429   1.074   4.559   7.705 -0.2143 -1.0122 -1.2256
 3931SOL    HW223430   1.074   4.629   7.582 -2.7214  0.9580 -1.3629
 3932SOL     OW23431   1.455   3.998   8.539 -0.0012 -0.6540  0.4949
 3932SOL    HW123432   1.362   4.019   8.531  0.0621 -1.9657 -3.7328
 3932SOL    HW223433   1.475   3.992   8.445  0.8731  0.3021  0.6183
 3933SOL     OW23434   0.702   1.305   7.152 -0.2399  0.0627 -0.5375
 3933SOL    HW123435   0.791   1.270   7.147 -0.1428  0.5344 -1.9090
 3933SOL    HW223436   0.715   1.399   7.164 -1.2509  0.1642 -0.2282
 3934SOL     OW23437   2.037   0.081   4.433 -0.3616 -0.0815  0.1719
 3934SOL    HW123438   2.089   0.161   4.438 -1.2038  0.3766  1.7303
 3934SOL    HW223439   1.949   0.114   4.451 -0.6299  0.0655 -1.3908
 3935SOL     OW23440   2.268   1.318   8.882  0.0750 -0.1836 -1.1269
 3935SOL    HW123441   2.289   1.411   8.895 -0.3943 -0.1299 -0.7565
 3935SOL    HW223442   2.191   1.326   8.937  1.1811 -0.3012  0.4346
 3936SOL     OW23443   4.135   4.117   4.977 -0.2796  0.4431  0.0710
 3936SOL    HW123444   4.104   4.027   4.977 -3.0654  1.3938  0.8061
 3936SOL    HW223445   4.106   4.146   4.891 -0.4823 -0.4878 -0.1666
 3937SOL     OW23446   3.682   0.169  16.191 -0.4520  0.1971  0.1825
 3937SOL    HW123447   3.611   0.223  16.156 -0.5113 -0.5160 -0.7952
 3937SOL    HW223448   3.684   0.111  16.116 -1.1922  0.8064 -0.3179
 3938SOL     OW23449   0.777   0.281   4.289  0.0424  0.3937 -0.0185
 3938SOL    HW123450   0.837   0.356   4.286  0.2502  0.2294  0.0404
 3938SOL    HW223451   0.717   0.321   4.352 -1.5192  0.5185 -1.5741
 3939SOL     OW23452   1.155   4.415   8.031  0.0815 -0.3241 -0.0245
 3939SOL    HW123453   1.079   4.397   7.975  0.2186 -1.9686  0.3053
 3939SOL    HW223454   1.191   4.326   8.040 -0.3382 -0.4727  0.1940
 3940SOL     OW23455   0.597   3.117  12.092  0.1154  0.1735 -0.0507
 3940SOL    HW123456   0.575   3.071  12.011  2.4118 -0.1927 -0.4742
 3940SOL    HW223457   0.627   3.045  12.148 -1.9786 -0.7023 -0.0578
 3941SOL     OW23458   4.420   0.612  17.256  0.5748  0.0797  0.1561
 3941SOL    HW123459   4.480   0.583  17.187  0.3292  1.9586 -0.8561
 3941SOL    HW223460   4.478   0.602  17.331 -1.0529  1.3365  1.5788
 3942SOL     OW23461   1.931   3.736   5.021  0.0504  0.4907 -0.4219
 3942SOL    HW123462   1.869   3.809   5.012 -2.3013 -1.7878 -2.4522
 3942SOL    HW223463   1.882   3.670   4.973  0.2902  1.0640 -1.4631
 3943SOL     OW23464   3.157   0.946   2.481 -0.2454 -0.0723  0.2492
 3943SOL    HW123465   3.146   0.894   2.402 -1.2087  1.9191 -0.9294
 3943SOL    HW223466   3.097   1.019   2.464 -2.7990 -1.5762  2.8664
 3944SOL     OW23467   2.774   0.377   8.653  0.1574 -0.0668  0.2326
 3944SOL    HW123468   2.775   0.287   8.685  3.3460 -0.3944 -0.7559
 3944SOL    HW223469   2.681   0.387   8.636 -0.2999 -0.3506  2.6066
 3945SOL     OW23470   3.698   1.509   1.209 -0.4171 -0.7769 -0.2702
 3945SOL    HW123471   3.662   1.421   1.222 -0.7923 -0.4407  0.9964
 3945SOL    HW223472   3.636   1.567   1.253  1.1436 -1.0078  2.2487
 3946SOL     OW23473   2.854   0.748   9.580  0.0789  0.3947 -0.1187
 3946SOL    HW123474   2.799   0.794   9.643 -2.7861 -0.9690 -1.6238
 3946SOL    HW223475   2.931   0.734   9.635 -1.3041 -1.0050  1.4515
 3947SOL     OW23476   1.179   2.625   5.191  0.0597 -0.2565  0.1782
 3947SOL    HW123477   1.174   2.597   5.100 -2.5924 -1.5820  0.7358
 3947SOL    HW223478   1.185   2.720   5.183 -3.1673 -0.1616 -0.9951
 3948SOL     OW23479   3.867   3.098   3.989  0.4943  0.4699 -0.2516
 3948SOL    HW123480   3.873   3.168   3.924 -0.4678 -0.0151 -0.8736
 3948SOL    HW223481   3.919   3.029   3.948  0.0629 -0.4117  0.6932
 3949SOL     OW23482   3.345   2.478   8.616  0.5430  0.4373  0.2281
 3949SOL    HW123483   3.348   2.551   8.678 -3.2928 -0.7823  1.8173
 3949SOL    HW223484   3.252   2.480   8.593  1.1276 -0.4001 -2.2155
 3950SOL     OW23485   2.585   1.944   5.987  0.4985 -0.1824 -0.3636
 3950SOL    HW123486   2.587   2.009   5.916 -3.2860 -0.4663 -0.7243
 3950SOL    HW223487   2.491   1.953   6.000  0.7802  0.6544  1.1012
 3951SOL     OW23488   0.500   4.220  16.024 -0.1852  0.0072 -0.6531
 3951SOL    HW123489   0.472   4.179  16.106 -1.1819 -0.3848 -1.1939
 3951SOL    HW223490   0.588   4.183  16.021  0.5833  1.9556 -2.0502
 3952SOL     OW23491   3.305   3.949   8.807  0.3015  0.2148  0.1348
 3952SOL    HW123492   3.379   3.917   8.859 -1.3526  0.1838  2.4390
 3952SOL    HW223493   3.300   4.042   8.826  2.3492  0.6729 -1.5813
 3953SOL     OW23494   0.936   0.358   1.344 -0.7984  0.1958  0.2423
 3953SOL    HW123495   0.945   0.337   1.251  0.5142  1.1087  0.1787
 3953SOL    HW223496   0.937   0.268   1.378 -1.6619  1.3758  3.3677
 3954SOL     OW23497   2.789   3.624   7.255 -0.3758 -0.6267  0.3974
 3954SOL    HW123498   2.763   3.630   7.347 -3.9819 -1.3837 -0.5857
 3954SOL    HW223499   2.792   3.531   7.232  0.6482 -0.1942 -1.1899
 3955SOL     OW23500   0.640   3.535   7.198 -0.0779  0.0098  0.6801
 3955SOL    HW123501   0.636   3.630   7.199 -3.1189 -0.1195 -0.5244
 3955SOL    HW223502   0.573   3.502   7.257  0.2351  1.5194  1.8670
 3956SOL     OW23503   2.906   1.552   0.386  0.0584 -0.5962  0.0458
 3956SOL    HW123504   2.921   1.496   0.310  1.3459  0.0496 -0.1813
 3956SOL    HW223505   2.934   1.638   0.355 -0.2685 -0.1460  1.0081
 3957SOL     OW23506   4.136   0.630   7.544 -0.3329 -0.5783  0.4881
 3957SOL    HW123507   4.102   0.711   7.581 -0.8185 -0.9798  0.9330
 3957SOL    HW223508   4.105   0.639   7.454  0.4617  1.9155  0.4682
 3958SOL     OW23509   3.705   1.350   3.484  0.1252 -0.0989 -0.0252
 3958SOL    HW123510   3.656   1.432   3.491 -0.4830 -0.4298 -0.3506
 3958SOL    HW223511   3.640   1.296   3.439  0.7189 -0.2378 -0.7256
 3959SOL     OW23512   0.420   0.929   0.707 -0.1009  0.1331  0.0634
 3959SOL    HW123513   0.473   0.976   0.643 -0.3522 -2.7507 -2.2668
 3959SOL    HW223514   0.396   0.853   0.654  2.9566 -1.2304  0.6855
 3960SOL     OW23515   4.189   4.064  16.889 -0.1727  0.5661  0.5368
 3960SOL    HW123516   4.213   4.084  16.979 -0.4994  1.2461  0.4752
 3960SOL    HW223517   4.191   4.155  16.859 -1.1858  0.5159  0.3346
 3961SOL     OW23518   4.349   1.400   9.097 -1.2023 -0.1860  0.3901
 3961SOL    HW123519   4.352   1.306   9.079  0.2024  0.3134 -1.9740
 3961SOL    HW223520   4.396   1.401   9.180 -2.0072  1.8596  0.8160
 3962SOL     OW23521   1.882   2.467   7.167 -0.2479 -0.1774  0.7021
 3962SOL    HW123522   1.871   2.553   7.209  1.4878  1.6072 -2.4867
 3962SOL    HW223523   1.859   2.407   7.238  0.4108 -2.3556 -0.9593
 3963SOL     OW23524   0.171   0.890   5.729  0.7055  0.0861 -0.1799
 3963SOL    HW123525   0.252   0.934   5.753  1.3047 -0.4025 -1.3236
 3963SOL    HW223526   0.153   0.826   5.798 -0.3343 -0.4645 -0.9642
 3964SOL     OW23527   4.722   0.654  14.939  0.7663 -0.1558  0.2997
 3964SOL    HW123528   0.037   0.699  14.873 -0.9589  0.3054 -0.7653
 3964SOL    HW223529   4.716   0.565  14.905 -1.0494  0.3607 -0.7034
 3965SOL     OW23530   1.585   1.224   5.388 -0.4445 -0.1382  0.1044
 3965SOL    HW123531   1.637   1.280   5.446 -1.1234  1.3281 -0.7127
 3965SOL    HW223532   1.520   1.286   5.356 -0.2830  0.0745  0.1870
 3966SOL     OW23533   1.434   4.347  15.475 -0.5766 -0.2782  0.5180
 3966SOL    HW123534   1.469   4.324  15.561  0.5634 -1.9080 -0.3830
 3966SOL    HW223535   1.474   4.278  15.422  0.5524  0.6536  0.1799
 3967SOL     OW23536   3.346   4.701   7.434 -0.3489 -0.0148  0.4528
 3967SOL    HW123537   3.374   0.012   7.357 -1.3072 -0.1446  0.0175
 3967SOL    HW223538   3.423   4.706   7.491  0.3020 -1.0745 -0.3177
 3968SOL     OW23539   2.365   0.732  14.752 -0.2889 -0.2792  0.1585
 3968SOL    HW123540   2.436   0.763  14.696  0.6782 -1.0642  0.9458
 3968SOL    HW223541   2.407   0.718  14.836 -0.0733 -2.7908 -0.3552
 3969SOL     OW23542   1.548   2.377  10.707  0.2080  0.3343  0.4967
 3969SOL    HW123543   1.637   2.410  10.719 -1.9517  4.9338  3.5867
 3969SOL    HW223544   1.496   2.455  10.723 -0.7535  0.0738 -1.2634
 3970SOL     OW23545   0.578   0.956   3.183 -0.3935  0.6622  0.7953
 3970SOL    HW123546   0.491   0.950   3.222 -0.4073  1.8858  0.9345
 3970SOL    HW223547   0.593   0.866   3.154 -0.3245  0.3674  1.7594
 3971SOL     OW23548   1.566   0.529   3.122  0.5240  0.0180 -0.2006
 3971SOL    HW123549   1.526   0.464   3.065  0.8201  0.0964 -0.4954
 3971SOL    HW223550   1.496   0.592   3.142  1.3261  0.5266  0.9937
 3972SOL     OW23551   2.588   2.417   6.651 -0.2008 -0.5308  0.5373
 3972SOL    HW123552   2.504   2.396   6.611  0.3001 -1.6489  0.0738
 3972SOL    HW223553   2.566   2.507   6.677 -1.6789 -1.3522  2.1344
 3973SOL     OW23554   3.987   0.644   5.365  0.1694  0.0310 -0.0564
 3973SOL    HW123555   3.944   0.586   5.428 -0.0620 -1.0294 -1.1867
 3973SOL    HW223556   3.965   0.597   5.285  2.5768 -0.4179 -0.4324
 3974SOL     OW23557   3.554   0.113  13.765 -0.8648 -0.0106 -0.1766
 3974SOL    HW123558   3.565   0.207  13.753 -0.1934 -0.3733 -2.3874
 3974SOL    HW223559   3.594   0.090  13.681 -0.2913  0.1889  0.0400
 3975SOL     OW23560   4.490   4.492   4.251 -0.0661  0.6444  0.1231
 3975SOL    HW123561   4.495   4.427   4.181  4.2735  0.7537  0.2797
 3975SOL    HW223562   4.447   4.433   4.312  2.8086 -0.6686  0.8736
 3976SOL     OW23563   0.255   3.512   5.164 -0.0386  0.7332  0.0634
 3976SOL    HW123564   0.307   3.556   5.097 -1.3336 -1.4127 -2.3348
 3976SOL    HW223565   0.195   3.454   5.118 -0.5448  0.6442  0.8348
 3977SOL     OW23566   0.223   1.590   2.422  0.0373 -0.7531  0.4269
 3977SOL    HW123567   0.130   1.573   2.437 -0.6221  1.7524 -0.8654
 3977SOL    HW223568   0.238   1.632   2.507  1.8964 -0.1699 -0.2044
 3978SOL     OW23569   0.478   1.215   1.858 -0.2784 -0.1314 -0.0329
 3978SOL    HW123570   0.437   1.133   1.887 -1.0980 -0.2804 -1.6069
 3978SOL    HW223571   0.544   1.196   1.791 -0.8554  0.9349 -0.9070
 3979SOL     OW23572   3.569   4.556   2.887  0.3178 -0.7049 -0.2325
 3979SOL    HW123573   3.640   4.563   2.952  0.0987 -0.5546 -0.0131
 3979SOL    HW223574   3.520   4.631   2.920  0.6031 -0.9084  0.6628
 3980SOL     OW23575   3.189   2.846   4.476  0.1200 -0.0837 -0.1892
 3980SOL    HW123576   3.100   2.811   4.481  0.1711 -0.0828  0.7153
 3980SOL    HW223577   3.219   2.804   4.395 -0.6131 -0.0526 -0.4720
 3981SOL     OW23578   2.383   0.183   0.966  0.7648  0.0995  0.0501
 3981SOL    HW123579   2.405   0.211   1.055  0.8174 -0.5027  0.2213
 3981SOL    HW223580   2.388   0.269   0.923 -0.9731 -0.0946 -0.5589
 3982SOL     OW23581   3.795   1.137   9.577  0.1203 -0.5595 -0.3677
 3982SOL    HW123582   3.735   1.089   9.521 -1.0491  1.0336 -0.4843
 3982SOL    HW223583   3.773   1.094   9.659 -1.0350  0.4173 -0.1625
 3983SOL     OW23584   0.372   4.017   3.577 -0.3528 -0.2798  0.2382
 3983SOL    HW123585   0.350   3.938   3.627  0.5483  0.4314  1.7418
 3983SOL    HW223586   0.360   4.090   3.638 -0.4607  0.6796 -0.9296
 3984SOL     OW23587   0.214   3.890  11.487 -0.1773 -0.3978 -0.5448
 3984SOL    HW123588   0.297   3.937  11.489 -0.2585 -0.2976  0.5101
 3984SOL    HW223589   0.167   3.916  11.566  0.8372  1.4849 -0.5548
 3985SOL     OW23590   0.041   1.486   7.814 -0.0049  0.3748 -0.7429
 3985SOL    HW123591   0.038   1.417   7.746  1.6096 -0.6002  0.1877
 3985SOL    HW223592   0.029   1.555   7.749 -1.5473  0.6741 -0.1478
 3986SOL     OW23593   0.379   4.294   6.651  0.2699 -0.2280 -0.4207
 3986SOL    HW123594   0.437   4.322   6.580 -0.1859 -0.1098 -0.7484
 3986SOL    HW223595   0.438   4.247   6.709  0.3229  0.1088 -0.2027
 3987SOL     OW23596   0.422   4.185   4.046  0.3036 -0.6569  0.4332
 3987SOL    HW123597   0.483   4.167   4.117 -1.4316 -1.3013  1.7744
 3987SOL    HW223598   0.342   4.151   4.087  0.7082  0.3949  2.1109
 3988SOL     OW23599   3.761   1.475   3.068  0.1504  0.4304 -0.0576
 3988SOL    HW123600   3.800   1.478   3.155  1.1166 -1.5881 -0.4159
 3988SOL    HW223601   3.790   1.388   3.042  1.6174  0.4505  1.5286
 3989SOL     OW23602   1.618   1.623   3.150 -0.4702  0.2011  0.1013
 3989SOL    HW123603   1.619   1.540   3.102 -1.4643  0.7165 -0.7892
 3989SOL    HW223604   1.528   1.627   3.180 -0.6855  1.4388 -0.6805
 3990SOL     OW23605   4.064   4.579  12.958  0.5874 -0.5331 -1.1251
 3990SOL    HW123606   4.130   4.509  12.953  1.4760  0.0302  2.1778
 3990SOL    HW223607   4.014   4.530  13.024 -0.9396  0.0956 -1.8287
 3991SOL     OW23608   0.834   0.429   8.388  0.0361 -0.9280 -0.4737
 3991SOL    HW123609   0.888   0.483   8.329 -0.2146  0.1771  0.3138
 3991SOL    HW223610   0.823   0.502   8.449  1.3769  0.0469 -1.3864
 3992SOL     OW23611   4.075   1.816  13.306 -0.0796  0.0754  0.6156
 3992SOL    HW123612   4.154   1.769  13.280  0.9467  0.8660  2.3128
 3992SOL    HW223613   4.072   1.878  13.233 -2.0166 -0.1082  0.5429
 3993SOL     OW23614   1.020   1.561   8.289 -0.3878 -0.1699 -0.0823
 3993SOL    HW123615   1.076   1.632   8.320  0.1132 -0.3076 -0.6814
 3993SOL    HW223616   0.956   1.606   8.234 -2.4464 -1.8064  1.0016
 3994SOL     OW23617   4.235   1.624   5.224  0.4906 -0.0250  0.7581
 3994SOL    HW123618   4.238   1.535   5.259 -3.9224  0.5372  2.5200
 3994SOL    HW223619   4.209   1.677   5.299  0.3869 -0.3190  0.9321
 3995SOL     OW23620   1.593   2.302   8.574 -0.1645  0.1719  0.4529
 3995SOL    HW123621   1.511   2.311   8.624  0.3375 -1.3863  1.5830
 3995SOL    HW223622   1.607   2.209   8.594 -0.4478 -0.1906 -0.9990
 3996SOL     OW23623   0.070   0.349   7.206  0.3029 -0.5610  0.5559
 3996SOL    HW123624   0.099   0.260   7.184  0.3584  0.0623 -1.8082
 3996SOL    HW223625   0.149   0.397   7.229  0.2540 -0.4909  0.5776
 3997SOL     OW23626   3.992   2.010   1.655  0.1723  0.3780  0.3856
 3997SOL    HW123627   3.925   2.059   1.703 -0.0438  1.0600 -0.6022
 3997SOL    HW223628   4.065   2.022   1.715 -0.1955 -0.9065  1.0785
 3998SOL     OW23629   4.017   1.724   1.610  0.5041 -0.1151 -0.2435
 3998SOL    HW123630   4.043   1.805   1.653  0.5019  0.4291 -1.2480
 3998SOL    HW223631   3.923   1.737   1.599  1.2303  4.6768 -0.5530
 3999SOL     OW23632   1.693   4.032   2.488  0.3081 -0.2118 -0.0022
 3999SOL    HW123633   1.734   4.042   2.574  0.3324  0.5937 -0.1063
 3999SOL    HW223634   1.764   3.994   2.436  0.0150 -2.0576  0.9643
 4000SOL     OW23635   0.634   0.038   1.238  0.2970 -0.0217 -0.6802
 4000SOL    HW123636   0.717   0.041   1.190  0.1374 -0.8435 -0.9907
 4000SOL    HW223637   0.648   4.709   1.305  1.9803  0.4204 -0.5726
 4001SOL     OW23638   4.328   0.499  11.225 -0.2092  0.9965 -0.7869
 4001SOL    HW123639   4.371   0.500  11.311  1.8230  1.8724 -1.8062
 4001SOL    HW223640   4.404   0.469  11.175 -1.7526 -0.2880 -2.3418
 4002SOL     OW23641   2.153   0.097  15.687  0.0793 -0.3271 -0.2149
 4002SOL    HW123642   2.221   0.159  15.664  0.9733 -0.7234  1.3127
 4002SOL    HW223643   2.080   0.151  15.658 -1.0492 -1.3827  0.6431
 4003SOL     OW23644   3.239   2.206   5.414 -0.1857  0.2920 -0.3741
 4003SOL    HW123645   3.155   2.228   5.453 -0.3604 -0.4372 -0.3428
 4003SOL    HW223646   3.293   2.208   5.493  0.4078  0.5999 -0.7844
 4004SOL     OW23647   0.922   0.271   2.646 -0.3119  0.1807 -0.0889
 4004SOL    HW123648   0.978   0.349   2.654 -0.0676 -0.1308  1.1943
 4004SOL    HW223649   0.987   0.205   2.621 -2.6309 -1.9206 -0.6118
 4005SOL     OW23650   1.847   3.930   7.536 -0.0161 -0.0060  0.0598
 4005SOL    HW123651   1.891   3.997   7.589  0.5204  0.0070 -0.4008
 4005SOL    HW223652   1.908   3.914   7.464  1.6517 -0.2667  1.5244
 4006SOL     OW23653   2.793   4.569  15.144  0.2264 -0.6039 -0.7301
 4006SOL    HW123654   2.776   4.653  15.188  1.0077 -0.5463 -0.5433
 4006SOL    HW223655   2.705   4.533  15.134  1.1633 -3.1282  0.1707
 4007SOL     OW23656   3.267   2.700   1.841 -0.4361  0.6356 -0.1041
 4007SOL    HW123657   3.268   2.759   1.765  0.6872 -0.5357 -0.9844
 4007SOL    HW223658   3.353   2.662   1.829 -0.2476  0.0990  2.8101
 4008SOL     OW23659   3.126   0.202  13.966 -0.2153 -0.0228  0.6807
 4008SOL    HW123660   3.182   0.279  13.972 -0.1845  0.0717 -0.9281
 4008SOL    HW223661   3.191   0.132  13.956  0.4473  0.7153 -0.1876
 4009SOL     OW23662   4.436   1.962  13.545 -0.1722  0.3680  0.1717
 4009SOL    HW123663   4.376   1.914  13.602  1.3938  1.2260  2.5510
 4009SOL    HW223664   4.372   2.022  13.506  0.2508  1.5904  1.3634
 4010SOL     OW23665   2.162   0.979   4.812 -0.6017  0.3813  0.2218
 4010SOL    HW123666   2.149   1.060   4.763  1.3554  0.9374  0.6190
 4010SOL    HW223667   2.240   0.992   4.866 -1.1690 -1.7522  1.5657
 4011SOL     OW23668   3.493   3.952   3.413  0.2377  0.0830 -0.2601
 4011SOL    HW123669   3.411   3.991   3.444 -0.8052 -2.7149  0.5130
 4011SOL    HW223670   3.559   4.005   3.456  0.9611 -1.5077  0.5939
 4012SOL     OW23671   2.406   1.705   8.464  0.1909 -0.0295 -0.3556
 4012SOL    HW123672   2.462   1.678   8.537 -0.7411  2.3694  1.2869
 4012SOL    HW223673   2.373   1.621   8.433 -3.5430 -0.0677  3.7420
 4013SOL     OW23674   4.465   0.468   8.496 -0.0674  0.1796 -0.2871
 4013SOL    HW123675   4.522   0.516   8.437 -1.9027  0.5477 -1.7289
 4013SOL    HW223676   4.529   0.439   8.562 -0.6751  0.4821  0.4281
 4014SOL     OW23677   3.185   1.841   9.275  0.3180 -0.5095 -0.1423
 4014SOL    HW123678   3.092   1.855   9.294  0.1202  0.9686 -2.2063
 4014SOL    HW223679   3.222   1.844   9.363 -1.0221 -0.8220  0.4383
 4015SOL     OW23680   3.334   3.522  10.055 -0.4276 -0.1259  0.3652
 4015SOL    HW123681   3.406   3.527   9.992 -1.4542 -0.5989 -0.8367
 4015SOL    HW223682   3.326   3.608  10.096 -1.2926  1.3461 -2.9432
 4016SOL     OW23683   3.808   1.695   9.620  0.0897  0.0476 -0.0822
 4016SOL    HW123684   3.852   1.735   9.545  4.4005 -1.1757  1.8574
 4016SOL    HW223685   3.816   1.605   9.588 -1.2714 -0.4453  0.9566
 4017SOL     OW23686   4.716   0.185   7.873 -0.0450  0.0237 -0.0877
 4017SOL    HW123687   4.736   0.276   7.896 -2.4314  0.2917  0.9499
 4017SOL    HW223688   4.620   0.180   7.867 -0.1344  1.4505  0.2081
 4018SOL     OW23689   3.154   1.595  10.661  0.2817  0.2968  0.3902
 4018SOL    HW123690   3.150   1.544  10.580  0.1107 -3.3612  2.6739
 4018SOL    HW223691   3.145   1.518  10.717  2.2606  1.6766  2.5996
 4019SOL     OW23692   0.880   1.854   0.391  0.2443 -0.4966 -0.1549
 4019SOL    HW123693   0.886   1.828   0.483  0.8360  0.1904 -0.0038
 4019SOL    HW223694   0.974   1.845   0.378  0.3359 -0.5453  0.5119
 4020SOL     OW23695   4.012   0.107   6.380  0.0402  0.2640 -0.2394
 4020SOL    HW123696   4.069   0.184   6.381  0.7724 -0.2671 -0.4792
 4020SOL    HW223697   3.931   0.136   6.420  0.6725 -2.1517  2.8065
 4021SOL     OW23698   1.044   1.970   6.743  0.0870 -0.1720  0.6121
 4021SOL    HW123699   0.957   1.977   6.701  0.2790  0.9398  0.4018
 4021SOL    HW223700   1.075   2.057   6.720  1.2602 -1.1737 -1.6373
 4022SOL     OW23701   2.331   4.536   6.643  0.1715  0.4978 -0.3175
 4022SOL    HW123702   2.349   4.579   6.726 -2.1272  0.7351  0.0561
 4022SOL    HW223703   2.365   4.447   6.652 -0.0913  0.5430  1.0122
 4023SOL     OW23704   2.391   0.430  16.877  0.6211 -0.1096 -0.1015
 4023SOL    HW123705   2.465   0.486  16.898  1.2535 -0.9645 -0.0357
 4023SOL    HW223706   2.424   0.390  16.797 -2.1226 -0.5420 -1.0405
 4024SOL     OW23707   3.300   2.016  11.549 -0.4591  0.2811 -0.2971
 4024SOL    HW123708   3.237   1.953  11.581  0.0851  1.4819  3.1111
 4024SOL    HW223709   3.288   2.011  11.454 -2.3654  3.0051 -0.1865
 4025SOL     OW23710   2.452   3.380   2.758 -0.0550 -1.0503 -0.1803
 4025SOL    HW123711   2.422   3.462   2.797 -1.1909 -1.9296  0.7958
 4025SOL    HW223712   2.520   3.401   2.695  1.7475 -0.6404  1.9183
 4026SOL     OW23713   1.988   4.613   0.881  0.0620  0.2804 -0.7206
 4026SOL    HW123714   2.026   4.697   0.908 -0.7770 -0.1477  1.8209
 4026SOL    HW223715   1.926   4.584   0.949  0.6934 -0.2841 -0.3924
 4027SOL     OW23716   1.958   4.254   6.664  0.2242  0.0304  0.0401
 4027SOL    HW123717   1.894   4.208   6.610  0.2939  0.7038 -0.6131
 4027SOL    HW223718   1.906   4.295   6.733  1.6974  0.2949  0.9953
 4028SOL     OW23719   1.080   1.824  11.318 -0.0726  0.1392 -0.2872
 4028SOL    HW123720   1.012   1.763  11.288  0.9462 -0.4714 -1.3468
 4028SOL    HW223721   1.056   1.893  11.256  1.3221  0.0300 -0.9328
 4029SOL     OW23722   0.678   4.475   5.376 -0.4743 -0.8245 -0.6090
 4029SOL    HW123723   0.744   4.425   5.423 -1.1282 -1.7548 -0.6741
 4029SOL    HW223724   0.714   4.496   5.290  0.2544  1.2062  0.2092
 4030SOL     OW23725   1.314   0.492   3.875 -0.7474 -0.2698  0.8001
 4030SOL    HW123726   1.268   0.464   3.796 -0.5372 -0.7788  0.8649
 4030SOL    HW223727   1.257   0.567   3.897  0.5276  1.4545 -1.8281
 4031SOL     OW23728   1.584   2.247   9.794 -0.5806 -0.1519 -0.3422
 4031SOL    HW123729   1.623   2.325   9.835  1.2218 -0.2355 -1.8805
 4031SOL    HW223730   1.605   2.183   9.862 -1.8489 -0.3976 -0.1814
 4032SOL     OW23731   1.747   1.532   3.891  0.0308 -0.6753  0.2237
 4032SOL    HW123732   1.809   1.497   3.827  1.9699 -1.2102  2.4291
 4032SOL    HW223733   1.663   1.511   3.850 -1.2780  2.2780  1.3987
 4033SOL     OW23734   2.384   4.583  10.065 -0.0121 -0.0505 -0.2511
 4033SOL    HW123735   2.315   4.542  10.014 -2.2705  1.7305  1.3758
 4033SOL    HW223736   2.362   4.673  10.040  1.3670  0.1625 -0.6884
 4034SOL     OW23737   0.760   1.857   5.493  0.3521  0.0963  0.0897
 4034SOL    HW123738   0.667   1.857   5.468 -0.4437  1.0749  3.0623
 4034SOL    HW223739   0.751   1.808   5.574  0.2563  0.0295  0.0386
 4035SOL     OW23740   2.160   2.405   7.395  0.3846 -0.7314  0.0007
 4035SOL    HW123741   2.175   2.393   7.301  0.3566 -1.6678  0.1144
 4035SOL    HW223742   2.160   2.501   7.389 -4.7210 -0.8771 -1.6685
 4036SOL     OW23743   1.342   4.366  13.790 -0.0349 -0.0872 -0.0338
 4036SOL    HW123744   1.355   4.275  13.764 -2.4811 -0.5859  0.4536
 4036SOL    HW223745   1.246   4.359  13.782  0.1492 -0.0486 -2.0405
 4037SOL     OW23746   2.205   1.442  10.090 -0.3672 -0.0503 -0.0579
 4037SOL    HW123747   2.119   1.474  10.061 -1.1798 -3.8250 -1.8384
 4037SOL    HW223748   2.252   1.451  10.008  0.3199 -0.2078  0.3219
 4038SOL     OW23749   2.231   2.228   4.022 -0.5938 -0.4225  0.4755
 4038SOL    HW123750   2.257   2.312   4.059  1.2573 -0.6315 -0.3129
 4038SOL    HW223751   2.140   2.220   4.049 -1.1791  0.3645 -1.3127
 4039SOL     OW23752   1.304   2.404   5.610 -0.4386  0.3242 -0.2702
 4039SOL    HW123753   1.330   2.417   5.519 -0.5718 -2.9561 -0.7626
 4039SOL    HW223754   1.277   2.313   5.601  0.4691  0.3309 -3.1802
 4040SOL     OW23755   2.263   1.272  15.761  0.5321  0.0050  0.3758
 4040SOL    HW123756   2.230   1.241  15.676 -2.0082  2.2646  0.5277
 4040SOL    HW223757   2.235   1.364  15.766  0.0791 -0.1051 -0.0466
 4041SOL     OW23758   0.664   1.182   6.405  0.2881 -0.7849  0.0748
 4041SOL    HW123759   0.691   1.110   6.462  2.5344  0.3103  0.3647
 4041SOL    HW223760   0.681   1.249   6.471  0.5035  0.1295 -0.9148
 4042SOL     OW23761   0.926   0.919   8.031  0.3921 -0.1789 -0.4784
 4042SOL    HW123762   0.865   0.872   8.089 -0.4899  1.1049 -0.3585
 4042SOL    HW223763   0.960   0.989   8.087 -1.8723  0.0344  0.6602
 4043SOL     OW23764   3.400   2.847   5.505 -0.1809  0.6637 -0.1661
 4043SOL    HW123765   3.426   2.928   5.461  0.8294  0.1416 -0.5289
 4043SOL    HW223766   3.478   2.825   5.555 -0.7859 -0.8630  0.0922
 4044SOL     OW23767   1.627   1.222   9.152  0.3681 -0.3739 -0.1241
 4044SOL    HW123768   1.622   1.274   9.071  0.0606  0.7786  0.6301
 4044SOL    HW223769   1.675   1.279   9.213 -1.1417 -0.6045  1.2881
 4045SOL     OW23770   3.933   2.889   5.816 -0.0369 -0.3250 -0.1942
 4045SOL    HW123771   3.938   2.853   5.727  0.5941  1.9589 -1.0877
 4045SOL    HW223772   3.839   2.905   5.822 -0.2096 -1.2213 -0.5195
 4046SOL     OW23773   1.765   1.693   6.703 -0.2531 -0.3551 -0.3205
 4046SOL    HW123774   1.783   1.703   6.610  2.5264  1.5219  0.3985
 4046SOL    HW223775   1.857   1.692   6.730  0.1973 -2.2436 -1.9641
 4047SOL     OW23776   1.076   4.638   6.036  1.1329 -0.7184  0.2785
 4047SOL    HW123777   1.055   4.679   6.120 -0.8253 -0.0190 -0.5460
 4047SOL    HW223778   0.991   4.622   5.996  0.5932 -2.4519  2.1290
 4048SOL     OW23779   4.409   4.403  16.245 -0.1201  0.3243  0.0689
 4048SOL    HW123780   4.424   4.409  16.151  1.5933 -1.0035  0.2664
 4048SOL    HW223781   4.461   4.479  16.273  1.7440 -1.4795  1.5126
 4049SOL     OW23782   4.602   2.299   2.297  0.4846  0.0684 -0.0780
 4049SOL    HW123783   4.644   2.329   2.216  2.6233 -3.3933 -0.2952
 4049SOL    HW223784   4.593   2.381   2.345 -0.7469  0.2447 -0.6187
 4050SOL     OW23785   3.073   3.960  11.114  0.2574 -0.1626  0.1220
 4050SOL    HW123786   3.151   4.005  11.147 -0.0958  0.5794 -0.0566
 4050SOL    HW223787   3.110   3.889  11.061  1.5284  0.8691 -0.3544
 4051SOL     OW23788   3.406   1.112  14.574  0.3340  0.1524 -0.1076
 4051SOL    HW123789   3.465   1.177  14.614  0.0015 -0.5501  1.5350
 4051SOL    HW223790   3.424   1.042  14.637 -0.5610  2.7018  3.0155
 4052SOL     OW23791   2.669   0.624   4.526  0.5816  0.6669  0.6105
 4052SOL    HW123792   2.702   0.706   4.562  0.1226 -0.4441  3.5243
 4052SOL    HW223793   2.577   0.633   4.554  0.6118 -0.9136  1.1728
 4053SOL     OW23794   4.682   3.054   5.241 -0.0745  0.0330 -0.3136
 4053SOL    HW123795   4.700   2.966   5.208  2.2202  0.5984 -0.6059
 4053SOL    HW223796   0.024   3.077   5.290 -0.7143  3.1959 -0.7495
 4054SOL     OW23797   0.260   3.129   7.230  0.1118 -0.0117 -0.0327
 4054SOL    HW123798   0.316   3.055   7.254 -1.0676 -0.7708  0.3908
 4054SOL    HW223799   0.316   3.173   7.166 -0.1199  1.1983  0.6013
 4055SOL     OW23800   1.782   2.324   8.869 -0.2598 -0.0644  0.0961
 4055SOL    HW123801   1.829   2.315   8.952 -0.6704  0.1528  0.3560
 4055SOL    HW223802   1.699   2.285   8.897 -1.2071  0.9491 -1.3235
 4056SOL     OW23803   1.759   2.166  16.911 -0.0721 -0.0053 -0.0731
 4056SOL    HW123804   1.758   2.162  17.007  1.5902 -1.1710 -0.1028
 4056SOL    HW223805   1.682   2.117  16.885  1.1064 -1.4179 -0.8955
 4057SOL     OW23806   0.173   4.114  11.257  0.3543  0.2603 -0.2976
 4057SOL    HW123807   0.128   4.152  11.333  0.6935  0.6861 -0.3113
 4057SOL    HW223808   0.206   4.035  11.301  0.7833  1.6367  1.8371
 4058SOL     OW23809   2.169   0.186   6.201  0.5888  0.2771 -0.2675
 4058SOL    HW123810   2.077   0.162   6.206  1.0562 -1.4349  0.3640
 4058SOL    HW223811   2.161   0.275   6.168  0.6330  0.6418  0.7023
 4059SOL     OW23812   4.146   2.917   1.933 -0.2719 -0.1414 -0.2933
 4059SOL    HW123813   4.205   2.984   1.900 -1.2035  1.2560  0.9074
 4059SOL    HW223814   4.193   2.870   2.002  0.9097  0.3528 -0.7721
 4060SOL     OW23815   1.172   3.616   7.985  0.0442  0.6831  0.0910
 4060SOL    HW123816   1.229   3.582   8.054 -0.6895  0.4128  0.5623
 4060SOL    HW223817   1.179   3.541   7.927 -2.6394  1.0048 -0.6339
 4061SOL     OW23818   1.757   3.102   3.378  0.3599  0.0133 -0.1256
 4061SOL    HW123819   1.846   3.066   3.378  0.2163 -0.3194  1.0022
 4061SOL    HW223820   1.721   3.015   3.396  0.0386 -0.1169 -1.4086
 4062SOL     OW23821   3.498   4.455   5.046  0.2755 -0.1056 -0.0858
 4062SOL    HW123822   3.533   4.525   5.100  0.1092 -0.9913  1.1616
 4062SOL    HW223823   3.573   4.403   5.016  0.2348 -0.2741  0.1056
 4063SOL     OW23824   1.528   0.101   9.012 -0.4375 -0.0592  1.0423
 4063SOL    HW123825   1.481   0.131   8.934  2.2880 -3.6572 -1.9754
 4063SOL    HW223826   1.449   0.061   9.049 -0.5167 -0.8440  0.0071
 4064SOL     OW23827   4.402   1.508   2.196  0.3747  0.1034 -0.5575
 4064SOL    HW123828   4.422   1.463   2.114  0.9848 -0.9069  0.1595
 4064SOL    HW223829   4.313   1.538   2.174  0.8210 -0.4190 -3.0806
 4065SOL     OW23830   1.570   3.089   1.762 -0.3437 -0.5360 -0.5552
 4065SOL    HW123831   1.575   3.173   1.716 -1.1844 -0.9859 -1.4664
 4065SOL    HW223832   1.531   3.029   1.698  0.7991 -3.0975  1.1774
 4066SOL     OW23833   3.839   3.857   7.843 -0.0441 -0.2195 -0.3631
 4066SOL    HW123834   3.914   3.902   7.803 -0.1798  0.2989 -0.0363
 4066SOL    HW223835   3.765   3.894   7.796  0.5285 -0.0571 -1.1323
 4067SOL     OW23836   0.628   1.879  11.384 -0.3914  0.2402 -0.1584
 4067SOL    HW123837   0.655   1.792  11.414  0.6384  0.3257 -0.8478
 4067SOL    HW223838   0.619   1.918  11.471  1.1480 -2.4612  1.2395
 4068SOL     OW23839   1.672   2.784   8.206  0.1344  0.2461 -0.0649
 4068SOL    HW123840   1.628   2.763   8.288  1.2395 -0.6695  0.2892
 4068SOL    HW223841   1.687   2.692   8.185 -2.9718  0.0293 -1.3979
 4069SOL     OW23842   3.131   4.239   4.543 -0.3892  0.0118 -0.4232
 4069SOL    HW123843   3.083   4.321   4.553  1.1760  0.7096  1.4700
 4069SOL    HW223844   3.198   4.266   4.480 -1.0867  0.1788 -1.0897
 4070SOL     OW23845   0.814   4.418   3.786  0.0231 -0.0343 -0.0853
 4070SOL    HW123846   0.883   4.372   3.833  0.4336 -1.8616 -2.4784
 4070SOL    HW223847   0.782   4.472   3.858  1.9117 -2.1201  2.2997
 4071SOL     OW23848   4.400   4.133  13.073  0.5260  0.0512 -0.0269
 4071SOL    HW123849   4.355   4.054  13.104  1.9107 -1.3880 -1.7350
 4071SOL    HW223850   4.474   4.153  13.130 -0.9701  2.3491  1.1442
 4072SOL     OW23851   2.727   1.739   1.063  0.5574  0.4109  0.1822
 4072SOL    HW123852   2.792   1.683   1.022  1.3204  2.3015 -1.1725
 4072SOL    HW223853   2.730   1.709   1.154  1.4063 -0.3662 -0.1118
 4073SOL     OW23854   1.635   2.882   7.463 -0.4696  0.1980 -0.0687
 4073SOL    HW123855   1.729   2.899   7.468  0.0126 -1.0416 -5.4246
 4073SOL    HW223856   1.597   2.967   7.482  1.3907  1.1944 -0.8251
 4074SOL     OW23857   1.298   2.980   2.021 -0.5984  0.1324 -0.0460
 4074SOL    HW123858   1.279   3.055   1.965 -1.3172 -0.8320 -1.0808
 4074SOL    HW223859   1.305   2.903   1.965 -0.5890  0.3315 -0.3184
 4075SOL     OW23860   1.349   0.379   8.299  0.1094  0.8561 -0.0892
 4075SOL    HW123861   1.325   0.295   8.262  1.9243  0.1131  0.4212
 4075SOL    HW223862   1.261   0.414   8.287 -0.3208 -0.6646 -1.2552
 4076SOL     OW23863   0.231   0.406  13.318 -0.4673  0.4069 -0.1432
 4076SOL    HW123864   0.303   0.343  13.319  0.6230  1.6611  1.2330
 4076SOL    HW223865   0.164   0.359  13.367 -3.0587  2.8165 -1.3679
 4077SOL     OW23866   1.772   2.979   4.946  0.2590 -0.1064 -0.0672
 4077SOL    HW123867   1.827   2.990   5.023 -0.8988  1.8176  0.4780
 4077SOL    HW223868   1.713   3.055   4.951  0.3853 -0.1689  2.1266
 4078SOL     OW23869   2.032   3.027  14.052  0.2924 -0.6759 -0.1607
 4078SOL    HW123870   2.050   2.934  14.063  1.9284 -0.5142 -1.5904
 4078SOL    HW223871   1.953   3.031  14.106  0.1661  1.0901 -0.4668
 4079SOL     OW23872   1.760   4.519   7.942 -0.4300 -0.4877 -0.0740
 4079SOL    HW123873   1.827   4.459   7.976  0.8345 -0.0677 -1.8197
 4079SOL    HW223874   1.693   4.517   8.010  0.1789  2.5298  0.6060
 4080SOL     OW23875   2.024   2.163   8.732 -0.2056 -0.4169  0.9552
 4080SOL    HW123876   1.988   2.097   8.672  1.1994 -0.2897 -0.0378
 4080SOL    HW223877   1.954   2.223   8.756 -1.1774 -2.3008  2.8574
 4081SOL     OW23878   2.185   2.997   2.477  0.4433 -0.0307  0.4274
 4081SOL    HW123879   2.130   3.068   2.509 -0.5074 -0.4116 -0.3543
 4081SOL    HW223880   2.123   2.954   2.418  0.2807 -0.4930  0.9434
 4082SOL     OW23881   0.091   0.684   1.792  0.9500  0.0785  0.2642
 4082SOL    HW123882   0.044   0.687   1.709  0.4290  1.6812  0.6064
 4082SOL    HW223883   0.069   0.767   1.835  0.0969  0.4171 -0.8064
 4083SOL     OW23884   2.299   2.850   5.834  0.3336 -0.3047  0.7873
 4083SOL    HW123885   2.295   2.865   5.739 -1.3838 -0.3525  0.8580
 4083SOL    HW223886   2.391   2.873   5.849  0.2011 -0.3994  1.7039
 4084SOL     OW23887   2.567   2.063  10.833 -0.2216  0.1920 -0.1001
 4084SOL    HW123888   2.614   2.142  10.806 -1.0298  1.0879  1.1426
 4084SOL    HW223889   2.624   2.022  10.897 -2.1194 -0.5064  1.1572
 4085SOL     OW23890   2.575   2.110  11.658 -0.6156 -0.3448 -0.6569
 4085SOL    HW123891   2.519   2.037  11.684 -0.0422 -0.1403  1.1212
 4085SOL    HW223892   2.606   2.147  11.741 -0.0896  0.9625 -1.4306
 4086SOL     OW23893   2.307   0.563  16.323 -0.3638  0.1236  1.0517
 4086SOL    HW123894   2.290   0.590  16.413 -2.4128 -1.2701  1.0932
 4086SOL    HW223895   2.291   0.468  16.324 -0.1114  0.0547 -0.7773
 4087SOL     OW23896   0.198   0.626   7.798  0.0046  0.1151 -0.1474
 4087SOL    HW123897   0.168   0.717   7.803 -1.8523 -0.6322  2.3230
 4087SOL    HW223898   0.123   0.581   7.837  0.6078  0.3580  1.3228
 4088SOL     OW23899   1.578   4.717   9.360  0.0263  0.0586  0.3450
 4088SOL    HW123900   1.565   4.721   9.265 -1.4123 -2.7450  0.4383
 4088SOL    HW223901   1.501   0.026   9.394 -1.6797 -2.3473 -0.2147
 4089SOL     OW23902   3.406   2.697   4.662  0.5668 -0.4986  0.6395
 4089SOL    HW123903   3.489   2.743   4.676 -0.4098  1.0964  1.1319
 4089SOL    HW223904   3.347   2.766   4.632  2.6979  1.4216  0.8266
 4090SOL     OW23905   4.088   1.140   9.139  0.2296  0.0054  0.4412
 4090SOL    HW123906   4.176   1.135   9.103  0.2741 -3.1058  1.0058
 4090SOL    HW223907   4.103   1.192   9.218  0.9811 -1.0227  0.9705
 4091SOL     OW23908   4.541   4.167   7.204  0.8426 -0.5845 -0.2687
 4091SOL    HW123909   4.550   4.107   7.278 -0.6810  1.0488  1.2397
 4091SOL    HW223910   4.620   4.167   7.150  0.9755 -1.2471 -0.0666
 4092SOL     OW23911   0.248   1.665   2.923 -0.0079  0.4254  0.0635
 4092SOL    HW123912   0.291   1.582   2.946  1.1237  1.0438  0.1929
 4092SOL    HW223913   0.244   1.716   3.004 -0.9062  1.5417 -0.6903
 4093SOL     OW23914   0.320   0.203   4.284 -1.1714  0.1450  0.1749
 4093SOL    HW123915   0.257   0.155   4.338 -0.1186  1.2025  2.3167
 4093SOL    HW223916   0.324   0.138   4.214  0.1510  0.5312 -0.1066
 4094SOL     OW23917   4.068   2.481   3.754  0.2482 -0.6833 -0.0820
 4094SOL    HW123918   4.084   2.411   3.817  2.5208 -1.6351 -1.7018
 4094SOL    HW223919   3.986   2.523   3.781  1.1520  1.4862 -0.7124
 4095SOL     OW23920   0.356   3.801  16.274 -0.2216  0.1588  0.0616
 4095SOL    HW123921   0.339   3.714  16.311  0.7956 -1.2975 -2.8114
 4095SOL    HW223922   0.264   3.828  16.266  0.1523  1.4333  0.2142
 4096SOL     OW23923   0.449   4.625   5.947  0.2030  0.5731  0.5004
 4096SOL    HW123924   0.363   4.586   5.930  0.0492  2.0086 -1.9854
 4096SOL    HW223925   0.492   4.576   5.877 -0.0695 -2.8485  2.7456
 4097SOL     OW23926   2.486   4.509   2.745 -0.1458  0.1306 -0.1805
 4097SOL    HW123927   2.576   4.538   2.757  1.0199 -3.7116  0.4356
 4097SOL    HW223928   2.450   4.542   2.827  0.9050 -1.1167  0.7730
 4098SOL     OW23929   0.721   3.243  10.657  0.2730 -0.1964 -0.1797
 4098SOL    HW123930   0.702   3.319  10.711  0.4114 -1.1719  1.2185
 4098SOL    HW223931   0.651   3.249  10.592  1.3022 -1.0757 -1.3924
 4099SOL     OW23932   0.718   3.934   1.469 -0.0496  0.0678 -0.1949
 4099SOL    HW123933   0.653   3.939   1.399  0.4159 -1.3306 -0.7356
 4099SOL    HW223934   0.680   3.864   1.523 -0.9365  0.7046 -0.0038
 4100SOL     OW23935   0.113   4.203   7.804 -0.5564  0.8986  0.5513
 4100SOL    HW123936   0.018   4.197   7.816 -0.8592  0.3149 -2.0649
 4100SOL    HW223937   0.133   4.277   7.861  0.4071  0.9969  0.0957
 4101SOL     OW23938   2.292   2.092   6.257  0.0938 -0.2908 -0.3260
 4101SOL    HW123939   2.282   2.048   6.173 -1.8955 -0.5086  0.0192
 4101SOL    HW223940   2.358   2.158   6.237  0.5182 -1.1586 -1.7787
 4102SOL     OW23941   3.932   1.302  10.780  0.2366 -0.3286 -0.6467
 4102SOL    HW123942   3.958   1.389  10.748  2.0700 -1.7183 -2.8695
 4102SOL    HW223943   3.898   1.279  10.694 -0.3104  0.8734 -0.7507
 4103SOL     OW23944   0.641   1.008   1.745 -0.3982 -0.6944 -0.5021
 4103SOL    HW123945   0.709   0.975   1.688  0.2120  2.5942 -1.6990
 4103SOL    HW223946   0.668   1.001   1.837 -1.1787  1.7829 -0.0873
 4104SOL     OW23947   0.622   1.154  14.324 -0.6074  0.3000  0.3071
 4104SOL    HW123948   0.651   1.187  14.239  1.3678  0.9421  1.2136
 4104SOL    HW223949   0.700   1.129  14.373  0.1289 -0.9320 -1.4916
 4105SOL     OW23950   4.390   2.269  12.062  0.4761 -0.1319  0.0740
 4105SOL    HW123951   4.378   2.364  12.074  0.7042  0.1390 -1.8352
 4105SOL    HW223952   4.442   2.256  12.141  0.1951 -1.9423 -0.0548
 4106SOL     OW23953   1.929   1.541  15.279 -0.1775  0.1874  0.0374
 4106SOL    HW123954   2.004   1.601  15.272  0.9839 -1.0472  1.7064
 4106SOL    HW223955   1.948   1.520  15.371  1.0252 -0.5141 -0.3622
 4107SOL     OW23956   0.311   0.012   4.832 -0.1985  0.2362 -0.1767
 4107SOL    HW123957   0.283   4.724   4.920 -0.8342  0.1574 -0.4027
 4107SOL    HW223958   0.395   4.704   4.831  0.0118  0.6280 -0.7808
 4108SOL     OW23959   2.062   1.430   7.805 -0.8276 -0.1704  0.1415
 4108SOL    HW123960   2.158   1.426   7.801 -0.7800 -0.2041  1.3349
 4108SOL    HW223961   2.036   1.519   7.781  0.5317  0.8042  2.2817
 4109SOL     OW23962   0.379   2.130  14.032  0.3850  0.4845 -0.4671
 4109SOL    HW123963   0.474   2.127  14.024  0.2905 -2.0776 -0.6473
 4109SOL    HW223964   0.366   2.158  14.123  0.9415  0.9874 -0.5376
 4110SOL     OW23965   0.532   2.526  13.585 -0.1212  0.3673  0.3296
 4110SOL    HW123966   0.516   2.621  13.586 -0.3112  0.3208  1.7939
 4110SOL    HW223967   0.558   2.520  13.493  0.4460  1.4892  0.4176
 4111SOL     OW23968   0.561   3.432   5.950  0.0024  0.2185 -0.2110
 4111SOL    HW123969   0.513   3.477   6.019 -0.8575 -1.6493  0.4290
 4111SOL    HW223970   0.490   3.409   5.889  1.0669 -1.5834 -0.7938
 4112SOL     OW23971   0.816   3.742   8.848  0.2017  0.1985  0.1336
 4112SOL    HW123972   0.779   3.828   8.828  0.9021  0.3755 -0.3903
 4112SOL    HW223973   0.756   3.692   8.792 -1.0968  2.2197 -0.2706
 4113SOL     OW23974   4.716   4.164   5.988 -0.1063  0.0933  0.1496
 4113SOL    HW123975   4.701   4.169   5.894  1.3216 -1.8571 -0.1674
 4113SOL    HW223976   4.694   4.073   6.005  0.5772  0.0193  0.6429
 4114SOL     OW23977   2.653   1.431   2.761 -0.4693 -0.1097  0.2054
 4114SOL    HW123978   2.644   1.337   2.752 -2.2296  0.1022 -0.2767
 4114SOL    HW223979   2.569   1.444   2.804  0.5243  4.3941  0.8203
 4115SOL     OW23980   2.152   1.733   4.364 -0.1407  0.6357  0.1250
 4115SOL    HW123981   2.072   1.681   4.364  1.7293 -2.2463 -1.4787
 4115SOL    HW223982   2.134   1.799   4.297  0.6090 -0.0129 -0.7117
 4116SOL     OW23983   3.095   3.231   2.457 -0.5201 -0.2567  0.7055
 4116SOL    HW123984   3.008   3.191   2.466 -1.0680  1.4779  3.1728
 4116SOL    HW223985   3.081   3.305   2.399  1.5631 -0.1459  0.3772
 4117SOL     OW23986   2.199   1.170   1.171  0.2320 -0.3839  0.4464
 4117SOL    HW123987   2.193   1.221   1.090  0.5545 -3.5811 -1.6180
 4117SOL    HW223988   2.110   1.138   1.184  0.8451 -2.0728  0.4321
 4118SOL     OW23989   0.776   0.794   3.488 -0.3185  0.2153 -0.1244
 4118SOL    HW123990   0.813   0.758   3.407 -3.2258 -0.0260 -1.3455
 4118SOL    HW223991   0.798   0.887   3.495  1.0640 -0.0919 -0.5094
 4119SOL     OW23992   0.533   1.203  17.527  0.1342 -0.0479  0.0812
 4119SOL    HW123993   0.445   1.238  17.534  0.0855 -0.2823  0.6584
 4119SOL    HW223994   0.569   1.246  17.449  2.4503  1.6370  2.0873
 4120SOL     OW23995   0.457   1.658   8.784 -0.1736  0.3389 -0.3457
 4120SOL    HW123996   0.484   1.621   8.868 -1.4683 -1.6653 -0.8101
 4120SOL    HW223997   0.545   1.670   8.749 -0.5941 -0.2541 -1.5826
 4121SOL     OW23998   3.190   3.988   7.279  0.2017 -0.0216 -0.3932
 4121SOL    HW123999   3.120   3.928   7.305 -1.0693  0.7946 -1.9183
 4121SOL    HW224000   3.267   3.932   7.287  0.9944  0.6357 -3.8076
 4122SOL     OW24001   3.265   2.679  14.503 -0.2469  0.0500  0.2007
 4122SOL    HW124002   3.323   2.753  14.521  0.2386 -0.4102  0.5412
 4122SOL    HW224003   3.320   2.607  14.535  0.4783 -0.3886 -2.0937
 4123SOL     OW24004   0.862   4.035  16.633 -0.1973  0.1456  0.0403
 4123SOL    HW124005   0.812   4.086  16.570  1.9409  0.6809 -1.2308
 4123SOL    HW224006   0.944   4.083  16.619 -0.3452  0.8032  1.4444
 4124SOL     OW24007   1.702   1.080   3.185  0.3093  0.4618  0.2867
 4124SOL    HW124008   1.727   1.001   3.232 -0.0245 -0.0975 -0.4804
 4124SOL    HW224009   1.624   1.108   3.232 -1.5144 -1.4877 -1.6080
 4125SOL     OW24010   2.728   4.393   7.942 -0.0068 -0.2504 -0.2631
 4125SOL    HW124011   2.762   4.441   8.016  1.9801 -1.5945 -0.3207
 4125SOL    HW224012   2.808   4.378   7.892 -0.3805 -0.1937 -0.8844
 4126SOL     OW24013   0.575   3.829   1.021  0.5607 -0.1845  0.3821
 4126SOL    HW124014   0.510   3.864   0.959  0.6618 -0.3252  0.1972
 4126SOL    HW224015   0.572   3.891   1.094  0.0659 -0.7677  0.8623
 4127SOL     OW24016   1.747   4.101   5.557  0.0855  0.2398  0.0033
 4127SOL    HW124017   1.715   4.080   5.645  0.6553  0.0595  0.1641
 4127SOL    HW224018   1.667   4.078   5.510 -0.6457  2.5626  0.0810
 4128SOL     OW24019   4.002   1.915   4.420 -0.2184 -0.4100 -0.3414
 4128SOL    HW124020   4.044   1.945   4.339 -0.0999 -1.9745 -0.8494
 4128SOL    HW224021   3.915   1.953   4.413 -0.1912  0.0137  1.4855
 4129SOL     OW24022   2.750   1.144  12.064  0.1411 -0.4924 -0.3007
 4129SOL    HW124023   2.755   1.194  12.146 -3.1155 -0.7518  0.0903
 4129SOL    HW224024   2.811   1.072  12.080 -1.0141 -0.9804  2.0196
 4130SOL     OW24025   1.071   1.709   3.493 -0.2620  0.3195 -0.7276
 4130SOL    HW124026   1.060   1.804   3.490 -1.6657  0.2372  1.4756
 4130SOL    HW224027   1.049   1.692   3.585 -1.7024 -1.4416 -1.3916
 4131SOL     OW24028   0.719   0.861   8.236  0.1831  0.1476 -0.2986
 4131SOL    HW124029   0.687   0.903   8.316 -0.1346 -0.8227  0.0843
 4131SOL    HW224030   0.638   0.834   8.193  0.1830 -1.1396  0.4922
 4132SOL     OW24031   1.950   1.652   5.104  0.0429 -0.0214  0.0741
 4132SOL    HW124032   2.010   1.582   5.129 -1.4488 -0.3480  2.7378
 4132SOL    HW224033   1.872   1.647   5.159  0.9104  1.8766  1.4775
 4133SOL     OW24034   2.444   0.159   6.292  0.3290 -0.3544 -0.4354
 4133SOL    HW124035   2.419   0.072   6.324  1.3738  0.1000  1.5895
 4133SOL    HW224036   2.366   0.176   6.238 -0.5171 -2.0440  0.2707
 4134SOL     OW24037   3.065   1.028   9.325 -0.1370 -0.4813 -0.2209
 4134SOL    HW124038   3.136   0.984   9.372 -1.4170 -0.3061  1.8709
 4134SOL    HW224039   3.062   1.121   9.347  1.4587 -1.0728  2.5097
 4135SOL     OW24040   2.157   4.649  14.713 -0.0025  0.0806 -0.6803
 4135SOL    HW124041   2.087   4.693  14.666 -0.6469 -0.1986  0.0121
 4135SOL    HW224042   2.113   4.565  14.727  2.1242 -1.2511 -1.9473
 4136SOL     OW24043   3.094   3.973   0.156 -0.3160  0.7755  0.4365
 4136SOL    HW124044   3.138   3.998   0.075 -1.9970  2.0404 -0.1004
 4136SOL    HW224045   3.057   4.056   0.186  1.5117  1.3983  0.9759
 4137SOL     OW24046   1.034   3.510   8.281  0.0243  0.5649  0.5000
 4137SOL    HW124047   1.009   3.449   8.350  2.0811 -0.5102  0.3105
 4137SOL    HW224048   0.967   3.497   8.213  1.0152 -2.0326  0.0136
 4138SOL     OW24049   2.334   2.303   6.571  0.2794  0.1896  0.2953
 4138SOL    HW124050   2.251   2.255   6.566  0.9384 -0.6661 -2.5226
 4138SOL    HW224051   2.298   2.364   6.507  1.2381  1.0577  0.5853
 4139SOL     OW24052   2.110   0.603  17.315 -0.7622 -0.6163  0.3498
 4139SOL    HW124053   2.162   0.629  17.391  1.6037  0.8824 -1.8005
 4139SOL    HW224054   2.018   0.609  17.342 -1.5230  0.9740 -2.6561
 4140SOL     OW24055   0.413   4.702   2.411  0.1269 -0.5255 -0.0532
 4140SOL    HW124056   0.447   4.619   2.377 -1.4414 -0.0250 -2.9291
 4140SOL    HW224057   0.321   4.686   2.431 -0.1914  1.5110  0.0947
 4141SOL     OW24058   2.722   0.218   4.733 -0.5152  0.3571  0.2035
 4141SOL    HW124059   2.724   0.281   4.662  1.4114  0.6313  0.5155
 4141SOL    HW224060   2.815   0.196   4.741 -0.3910  1.4132  1.6858
 4142SOL     OW24061   4.446   2.271   2.022  0.5563  0.0119 -0.1474
 4142SOL    HW124062   4.495   2.191   2.004  1.4940  0.6372 -0.3617
 4142SOL    HW224063   4.522   2.323   2.046 -0.0741  1.2767 -0.8936
 4143SOL     OW24064   3.958   3.141   0.649 -0.1876 -0.2724 -0.2699
 4143SOL    HW124065   3.915   3.221   0.618 -0.2786  0.1614  0.9632
 4143SOL    HW224066   3.906   3.078   0.599 -1.6172  1.5086 -1.0178
 4144SOL     OW24067   0.662   3.164   0.792 -0.4128  0.4801  0.4547
 4144SOL    HW124068   0.581   3.126   0.828  0.3787  1.4586  3.2858
 4144SOL    HW224069   0.655   3.258   0.808 -1.3824  0.4956 -0.0087
 4145SOL     OW24070   3.877   2.098   4.073  0.9729  0.1175  0.2697
 4145SOL    HW124071   3.900   2.151   3.996  1.0010 -0.3972 -0.0816
 4145SOL    HW224072   3.918   2.014   4.050  2.5675  0.0331  3.3982
 4146SOL     OW24073   1.348   1.428   6.267 -0.0476 -0.0688 -0.1643
 4146SOL    HW124074   1.373   1.378   6.189  2.1692  1.3288 -0.3647
 4146SOL    HW224075   1.369   1.516   6.237 -1.2734  0.5086  0.7039
 4147SOL     OW24076   1.418   0.535   0.408 -0.3570 -0.2054  0.2583
 4147SOL    HW124077   1.372   0.590   0.470  1.2866  2.4121 -0.8130
 4147SOL    HW224078   1.366   0.455   0.414 -0.3440 -0.0467  2.3927
 4148SOL     OW24079   0.774   0.201   1.681  0.6676 -0.0140 -0.2712
 4148SOL    HW124080   0.798   0.230   1.592  3.9421  0.5515  0.7807
 4148SOL    HW224081   0.734   0.115   1.666  0.0534  0.2020  0.1386
 4149SOL     OW24082   3.860   2.691   1.419  0.1886 -0.6346  0.1514
 4149SOL    HW124083   3.766   2.681   1.412 -0.2187  1.0145  3.1091
 4149SOL    HW224084   3.861   2.739   1.502  0.3924  1.7276 -1.2086
 4150SOL     OW24085   0.112   0.764   3.423 -0.1303  0.3283 -0.0774
 4150SOL    HW124086   0.148   0.798   3.506  1.0580  0.6234 -0.7132
 4150SOL    HW224087   0.071   0.840   3.382  1.3324  0.5203 -1.2150
 4151SOL     OW24088   2.523   0.346   8.505  0.6167  0.0115 -0.3588
 4151SOL    HW124089   2.467   0.284   8.458 -0.3198  0.0071  0.7604
 4151SOL    HW224090   2.452   0.400   8.539  0.2456 -0.1094 -0.9296
 4152SOL     OW24091   1.895   4.692  15.161 -0.0372 -0.2594  0.2726
 4152SOL    HW124092   1.920   4.600  15.154 -0.4103 -0.2296 -1.6120
 4152SOL    HW224093   1.970   4.730  15.116 -0.0379  1.4394  1.7267
 4153SOL     OW24094   2.010   1.967  10.342 -0.4018 -0.6829 -0.4829
 4153SOL    HW124095   1.982   1.878  10.321 -0.5720 -0.0786 -2.7744
 4153SOL    HW224096   1.993   1.964  10.436 -2.0421 -1.7235 -0.8126
 4154SOL     OW24097   4.384   3.344   3.505  0.0869  0.5844 -0.1534
 4154SOL    HW124098   4.398   3.286   3.580 -0.8925 -0.2527 -0.6224
 4154SOL    HW224099   4.359   3.285   3.434  0.1297  0.1288  0.2137
 4155SOL     OW24100   1.025   2.585   6.909 -0.5528 -0.6974 -0.3021
 4155SOL    HW124101   0.973   2.665   6.898 -0.7538 -0.6985  0.6159
 4155SOL    HW224102   0.961   2.521   6.941  0.2695 -1.2612  0.2133
 4156SOL     OW24103   1.815   1.612  13.772 -0.3699 -0.2025 -0.0404
 4156SOL    HW124104   1.791   1.570  13.854 -0.6744  0.4675  0.2164
 4156SOL    HW224105   1.907   1.586  13.764 -0.2422  0.0753  0.5024
 4157SOL     OW24106   0.286   3.778  14.984  0.2623  0.1454 -0.3168
 4157SOL    HW124107   0.327   3.815  14.905 -0.4308  1.1468 -0.2144
 4157SOL    HW224108   0.230   3.713  14.941  0.5483  0.2270 -0.8152
 4158SOL     OW24109   2.019   1.306  16.512  0.0493 -0.0209 -0.1795
 4158SOL    HW124110   1.946   1.254  16.546  0.2972  1.7556  3.0268
 4158SOL    HW224111   2.049   1.364  16.582 -0.6233 -0.7268  0.6929
 4159SOL     OW24112   2.572   1.679   5.009  0.2760  0.7488 -0.0642
 4159SOL    HW124113   2.491   1.707   4.967 -1.4769 -1.5763  1.7280
 4159SOL    HW224114   2.639   1.730   4.963 -0.9257  2.6484  0.3139
 4160SOL     OW24115   0.830   2.814   7.020  0.3182  0.3181  0.2139
 4160SOL    HW124116   0.851   2.907   7.019 -0.2178  0.4300 -0.6906
 4160SOL    HW224117   0.882   2.789   7.097  2.2834 -2.7621 -2.0948
 4161SOL     OW24118   2.692   3.962   6.441 -0.7490 -0.7315  0.0307
 4161SOL    HW124119   2.729   3.904   6.374 -1.6479  0.8771 -1.8512
 4161SOL    HW224120   2.775   3.992   6.477  0.1140 -0.0637 -2.4934
 4162SOL     OW24121   1.993   4.365   5.925 -0.1798  0.0183 -0.1882
 4162SOL    HW124122   1.920   4.340   5.869 -1.6390  0.3701  1.5437
 4162SOL    HW224123   2.007   4.451   5.885 -0.0736  1.3284  2.6471
 4163SOL     OW24124   3.233   4.724  11.679  0.0131 -0.8421 -0.0113
 4163SOL    HW124125   3.326   4.706  11.690  0.1566 -0.6056 -0.7951
 4163SOL    HW224126   3.227   4.714  11.584 -2.0592  0.1096  0.0201
 4164SOL     OW24127   1.257   3.483   5.171 -0.3640  0.4671  0.4339
 4164SOL    HW124128   1.176   3.500   5.122  0.0374  2.4877  0.4879
 4164SOL    HW224129   1.214   3.412   5.220  3.5484 -0.9009  1.8881
 4165SOL     OW24130   2.999   1.304  16.192  0.4396 -0.5798  0.0879
 4165SOL    HW124131   3.025   1.276  16.104  0.4396  2.6761 -0.9174
 4165SOL    HW224132   2.909   1.271  16.197  0.7148 -1.4501 -0.6691
 4166SOL     OW24133   1.114   0.553   8.666 -0.5743  0.3855 -0.1383
 4166SOL    HW124134   1.128   0.471   8.618  2.1957  0.3317  0.7335
 4166SOL    HW224135   1.147   0.622   8.608 -0.8388 -1.3330 -2.3618
 4167SOL     OW24136   0.055   3.501   9.894  0.8694  0.3668 -0.0187
 4167SOL    HW124137   0.016   3.569   9.839  3.7832  1.8772 -0.1924
 4167SOL    HW224138   4.706   3.459   9.893  0.1802  1.8069 -0.5770
 4168SOL     OW24139   3.207   0.936   9.109 -0.3684 -0.1865  0.3125
 4168SOL    HW124140   3.148   0.973   9.175  0.5113 -0.2000  1.0948
 4168SOL    HW224141   3.189   0.980   9.026  0.0615 -2.5108 -0.9994
 4169SOL     OW24142   0.072   0.959   4.604  0.0406  0.6644 -0.0604
 4169SOL    HW124143   0.113   1.030   4.653 -0.2752  1.2516 -0.6528
 4169SOL    HW224144   0.111   0.975   4.518  1.0463 -1.3188  0.0321
 4170SOL     OW24145   4.621   4.058   8.635 -0.0344 -0.6446 -0.0189
 4170SOL    HW124146   4.538   4.090   8.601 -0.9264 -2.6882  0.1932
 4170SOL    HW224147   4.593   4.012   8.715  0.2883 -0.9208 -0.0651
 4171SOL     OW24148   4.524   3.849  17.708 -0.5666  0.0492 -0.6099
 4171SOL    HW124149   4.507   3.823   0.050  0.7302 -1.3362 -0.7721
 4171SOL    HW224150   4.502   3.941  17.720 -1.0589 -0.3591  1.6125
 4172SOL     OW24151   0.013   3.209   7.127 -0.0056 -0.3113 -0.3498
 4172SOL    HW124152   4.726   3.142   7.189 -0.6591 -0.4105 -0.7186
 4172SOL    HW224153   0.108   3.210   7.139  0.0294  1.3246 -0.6815
 4173SOL     OW24154   4.595   0.185   9.758 -0.1733 -0.0802 -0.5038
 4173SOL    HW124155   4.607   0.113   9.696  0.0693 -0.5523  0.0805
 4173SOL    HW224156   4.639   0.155   9.839 -1.2244 -2.0555 -0.6668
 4174SOL     OW24157   1.576   1.211   1.513  0.8363  0.0547 -0.6527
 4174SOL    HW124158   1.528   1.228   1.594 -1.7068 -1.3582 -1.8489
 4174SOL    HW224159   1.607   1.296   1.482  1.4092  0.1421  0.1610
 4175SOL     OW24160   3.275   2.686   2.625  0.0173  0.4365 -0.0657
 4175SOL    HW124161   3.295   2.645   2.541  0.4798  1.6743 -0.5566
 4175SOL    HW224162   3.222   2.756   2.588 -1.9044 -1.2577 -0.5191
 4176SOL     OW24163   3.543   0.375   8.974 -0.2952 -0.5620  0.0190
 4176SOL    HW124164   3.519   0.327   9.053 -3.4451 -1.4189 -1.4403
 4176SOL    HW224165   3.459   0.373   8.928  0.8014 -0.6525 -1.9912
 4177SOL     OW24166   3.758   2.241   0.453 -0.7749 -0.3993 -0.3020
 4177SOL    HW124167   3.663   2.251   0.465 -0.7842  0.9450 -1.3635
 4177SOL    HW224168   3.784   2.210   0.539 -0.3364 -0.9089 -0.6215
 4178SOL     OW24169   1.939   0.927   8.720 -0.8726 -0.3377  0.0323
 4178SOL    HW124170   1.969   0.890   8.803 -1.5214  0.5739  0.6836
 4178SOL    HW224171   1.849   0.894   8.720 -1.5789  1.5389  0.5518
 4179SOL     OW24172   3.781   3.742   3.628  0.6145  0.0597 -0.0618
 4179SOL    HW124173   3.855   3.728   3.569  0.7921  0.2766  0.1147
 4179SOL    HW224174   3.720   3.681   3.585  0.8364 -0.6466  0.6357
 4180SOL     OW24175   3.004   0.588  11.729 -0.1586  0.3256  0.2157
 4180SOL    HW124176   2.925   0.547  11.693 -0.5341  2.5627 -1.5262
 4180SOL    HW224177   3.048   0.617  11.650  1.1835 -2.4315 -0.0406
 4181SOL     OW24178   2.895   3.237   8.999  0.2511  0.3727  0.1765
 4181SOL    HW124179   2.846   3.303   9.049  0.4768  0.1680  0.6675
 4181SOL    HW224180   2.973   3.224   9.053  0.7075  2.2838 -0.0221
 4182SOL     OW24181   2.035   1.169  10.974  0.5100  0.1270 -0.4202
 4182SOL    HW124182   2.085   1.110  11.030  3.2858  3.4823  0.6565
 4182SOL    HW224183   2.063   1.256  11.003  2.3654 -0.8399  0.7099
 4183SOL     OW24184   3.646   1.337  12.048  0.0704 -0.0642  0.0755
 4183SOL    HW124185   3.624   1.258  12.099 -0.0925  0.8624  1.4318
 4183SOL    HW224186   3.557   1.366  12.025  0.3990  1.7098  1.1376
 4184SOL     OW24187   1.683   3.864   4.970 -0.1038  0.3780  0.1093
 4184SOL    HW124188   1.670   3.874   5.064 -1.7831 -0.0721 -0.0785
 4184SOL    HW224189   1.618   3.799   4.943  0.8337 -0.7609  0.5748
 4185SOL     OW24190   4.093   2.749   1.180  0.0282 -0.5837  0.0512
 4185SOL    HW124191   4.018   2.776   1.234  1.0429 -1.4679  1.9368
 4185SOL    HW224192   4.155   2.724   1.249 -0.7760 -0.5575  0.7994
 4186SOL     OW24193   3.570   1.547   2.207 -0.2439 -0.2788 -0.4100
 4186SOL    HW124194   3.636   1.570   2.141  0.8146 -1.1043  0.3569
 4186SOL    HW224195   3.539   1.466   2.166 -2.3814  0.2643  0.1255
 4187SOL     OW24196   2.155   0.797   4.274  0.0255  0.2482  0.1443
 4187SOL    HW124197   2.186   0.886   4.287  0.0757  0.4673 -1.4624
 4187SOL    HW224198   2.077   0.790   4.329 -1.1521 -3.4305 -1.9660
 4188SOL     OW24199   3.559   0.291   0.946 -0.5050 -0.6433 -0.5635
 4188SOL    HW124200   3.614   0.248   0.882 -0.4508 -1.3165 -0.0571
 4188SOL    HW224201   3.531   0.369   0.897 -2.2077 -0.9678 -0.1287
 4189SOL     OW24202   2.435   2.941  11.060  0.1284  0.6889  0.5950
 4189SOL    HW124203   2.488   3.015  11.030 -1.9298  1.1684 -1.9551
 4189SOL    HW224204   2.498   2.903  11.120  1.0940 -0.7594 -1.3489
 4190SOL     OW24205   1.054   1.122   4.172  0.4014  0.4223  0.5253
 4190SOL    HW124206   1.093   1.209   4.172 -0.1355  0.6646 -0.1723
 4190SOL    HW224207   1.075   1.098   4.082  0.3030  1.8324  0.1410
 4191SOL     OW24208   3.957   0.927   0.154 -0.0931 -0.4192  0.2073
 4191SOL    HW124209   3.889   0.886   0.207  0.6392 -1.1134  0.6177
 4191SOL    HW224210   3.927   0.911   0.065 -0.3773 -1.3310  0.4652
 4192SOL     OW24211   0.687   1.873   2.878 -0.4597 -0.4620  0.2553
 4192SOL    HW124212   0.734   1.936   2.824 -0.4751 -0.7958 -0.1413
 4192SOL    HW224213   0.668   1.924   2.957  1.9929  0.4933  0.2391
 4193SOL     OW24214   3.978   4.388   8.835  0.1159  0.2604  0.0012
 4193SOL    HW124215   4.035   4.433   8.898 -0.0187 -0.2911  0.5193
 4193SOL    HW224216   3.905   4.448   8.824 -2.6521 -2.6599  2.5339
 4194SOL     OW24217   3.757   3.235   7.046  0.1273 -0.3708  0.2630
 4194SOL    HW124218   3.759   3.329   7.065 -2.5253 -0.6230  1.7979
 4194SOL    HW224219   3.732   3.192   7.128 -0.6555 -0.4110  0.0059
 4195SOL     OW24220   2.113   3.649   3.418 -0.7436  0.3799  0.2754
 4195SOL    HW124221   2.114   3.737   3.456 -2.2755  0.7538 -0.5252
 4195SOL    HW224222   2.166   3.611   3.487  1.4523  1.5527 -0.7423
 4196SOL     OW24223   0.698   2.930   4.333  0.2732  0.1989  0.0951
 4196SOL    HW124224   0.777   2.885   4.364  1.2375  2.1284  0.4312
 4196SOL    HW224225   0.689   3.003   4.394 -0.5531  0.7069 -0.6429
 4197SOL     OW24226   2.538   1.366   9.388 -0.1772  0.3741  0.2161
 4197SOL    HW124227   2.533   1.283   9.434 -0.4804  0.7676  0.8967
 4197SOL    HW224228   2.620   1.356   9.340 -1.1153  0.8691 -1.5012
 4198SOL     OW24229   1.776   0.169   4.422 -0.0567 -0.0745  1.2297
 4198SOL    HW124230   1.751   0.139   4.334  0.3801  0.9305  0.7583
 4198SOL    HW224231   1.688   0.181   4.458 -0.4506 -0.6666  0.4597
 4199SOL     OW24232   4.347   4.528  15.912  0.1242 -0.2190 -0.7686
 4199SOL    HW124233   4.339   4.436  15.935 -1.1826  0.6432  2.1032
 4199SOL    HW224234   4.434   4.540  15.951 -0.7971 -0.4941  1.3076
 4200SOL     OW24235   2.492   2.249   6.223 -0.2742  0.1497 -0.4219
 4200SOL    HW124236   2.556   2.238   6.293  0.1840 -0.5244 -0.9526
 4200SOL    HW224237   2.541   2.305   6.164  0.3111  0.3464  0.2538
 4201SOL     OW24238   3.662   3.103  16.939 -0.0969 -0.5454  0.4134
 4201SOL    HW124239   3.693   3.128  16.851 -1.2894 -2.1013 -0.4425
 4201SOL    HW224240   3.626   3.187  16.968  0.6954  0.3530 -1.1797
 4202SOL     OW24241   1.958   2.402   4.850  0.6590  0.0263  0.2391
 4202SOL    HW124242   2.015   2.325   4.860  2.0217  0.8195 -1.4405
 4202SOL    HW224243   1.870   2.364   4.841 -0.0052  1.4951  0.5324
 4203SOL     OW24244   0.188   3.893   0.506  0.2823  0.1614  0.0571
 4203SOL    HW124245   0.101   3.865   0.534  0.1272  3.0460  2.3920
 4203SOL    HW224246   0.190   3.981   0.543 -0.1533  0.8321 -1.4811
 4204SOL     OW24247   1.801   3.218  15.223 -0.1861  0.1962 -0.4509
 4204SOL    HW124248   1.785   3.148  15.160 -0.7592 -0.0509 -0.0406
 4204SOL    HW224249   1.717   3.263  15.218 -0.1286  0.4416  0.6277
 4205SOL     OW24250   1.861   2.731  17.552  0.0898 -0.2874 -0.3354
 4205SOL    HW124251   1.878   2.693  17.466  0.6842 -2.6393  0.8135
 4205SOL    HW224252   1.828   2.648  17.586 -0.1531  0.0728  0.3122
 4206SOL     OW24253   1.228   1.018   2.813 -0.1155 -0.2698 -0.4690
 4206SOL    HW124254   1.187   1.097   2.778  0.0981 -0.3623 -0.9256
 4206SOL    HW224255   1.229   0.971   2.730 -1.8655 -1.3075  0.0821
 4207SOL     OW24256   1.103   0.441  15.888 -0.5977  0.2072 -0.4150
 4207SOL    HW124257   1.098   0.515  15.949  0.2820  0.3724 -0.5313
 4207SOL    HW224258   1.197   0.450  15.868 -0.7990 -1.8758 -2.2683
 4208SOL     OW24259   3.609   2.570   3.498 -0.2908 -0.3969 -0.2313
 4208SOL    HW124260   3.658   2.611   3.427 -1.6164  1.5235 -0.0063
 4208SOL    HW224261   3.528   2.620   3.495  0.0314  0.1323 -0.1937
 4209SOL     OW24262   1.287   1.741   5.591 -0.1250 -0.3437 -0.4813
 4209SOL    HW124263   1.241   1.750   5.507  1.1776 -0.5956 -1.2285
 4209SOL    HW224264   1.258   1.819   5.638  0.1971 -0.6746  0.2684
 4210SOL     OW24265   0.231   4.001  15.104  0.0855 -0.5239 -0.4307
 4210SOL    HW124266   0.254   3.923  15.053 -1.3072 -0.6959 -0.7858
 4210SOL    HW224267   0.146   4.028  15.070 -0.5338 -1.4955  0.3723
 4211SOL     OW24268   4.033   1.510   6.207 -0.3457  0.0339 -0.1041
 4211SOL    HW124269   4.020   1.423   6.245 -2.5755 -0.4806 -2.0655
 4211SOL    HW224270   3.945   1.531   6.177 -1.1113 -1.9221  0.7610
 4212SOL     OW24271   3.988   2.844  13.306  0.5725 -0.1776  0.4930
 4212SOL    HW124272   3.932   2.783  13.257  0.1710 -0.3295  1.1480
 4212SOL    HW224273   4.076   2.807  13.301  1.0549  1.0597 -0.3000
 4213SOL     OW24274   3.140   2.410  15.849 -0.2161 -0.0321 -0.3304
 4213SOL    HW124275   3.139   2.431  15.756 -0.7839 -1.7648 -0.7025
 4213SOL    HW224276   3.119   2.497  15.884 -1.4760 -1.7527  3.2140
 4214SOL     OW24277   2.026   2.328   5.496  0.4186  0.4533  0.1932
 4214SOL    HW124278   2.028   2.233   5.485  0.0451  0.4051  0.5399
 4214SOL    HW224279   1.931   2.336   5.501  0.3125  0.7730 -2.4338
 4215SOL     OW24280   4.688   2.428  12.747  0.1398 -0.2153  0.5561
 4215SOL    HW124281   0.043   2.447  12.764  0.9620 -2.3125 -1.6360
 4215SOL    HW224282   4.691   2.395  12.657  2.4426  1.2210  0.1231
 4216SOL     OW24283   0.841   3.854   5.298 -0.2296 -0.2900  0.4720
 4216SOL    HW124284   0.796   3.869   5.381  3.1073  0.1484  2.1828
 4216SOL    HW224285   0.823   3.760   5.291 -1.6797 -0.0048  0.2808
 4217SOL     OW24286   0.542   1.263   9.110 -0.0374 -0.3089  0.0935
 4217SOL    HW124287   0.508   1.303   9.190 -0.7690 -2.3801  0.8197
 4217SOL    HW224288   0.457   1.253   9.067  0.1363 -0.8565 -0.1247
 4218SOL     OW24289   2.528   2.941   4.499 -0.5992 -0.2616 -0.4748
 4218SOL    HW124290   2.550   3.031   4.475 -1.6819 -0.2504 -1.4110
 4218SOL    HW224291   2.557   2.944   4.590  0.8846  1.5364 -1.0026
 4219SOL     OW24292   0.026   1.014   3.314  0.2957 -0.2267  0.0055
 4219SOL    HW124293   4.684   1.026   3.262  0.3952 -1.3640 -0.4238
 4219SOL    HW224294   0.056   1.103   3.331 -1.4316  0.1813  0.9138
 4220SOL     OW24295   1.724   2.188   5.050 -0.4227  0.4233  0.6292
 4220SOL    HW124296   1.779   2.254   5.093 -0.5527  0.4760  0.7153
 4220SOL    HW224297   1.739   2.113   5.107  2.0212  1.5287  1.4477
 4221SOL     OW24298   4.121   1.176   3.599 -0.7536 -0.0901 -0.1092
 4221SOL    HW124299   4.106   1.254   3.653 -0.7186  0.3346 -0.7076
 4221SOL    HW224300   4.197   1.138   3.643 -1.0065 -0.0458  0.3666
 4222SOL     OW24301   0.063   1.399   5.979  0.3877 -0.5009  0.1107
 4222SOL    HW124302   0.107   1.345   6.045  2.4851  0.0313 -0.8383
 4222SOL    HW224303   0.085   1.486   6.013 -3.2698 -0.1204  1.5322
 4223SOL     OW24304   1.147   3.940   4.284 -0.0626 -0.4044 -0.1099
 4223SOL    HW124305   1.198   3.996   4.226  0.1299 -0.7572 -0.2791
 4223SOL    HW224306   1.214   3.906   4.344 -0.3928 -0.5056  0.2026
 4224SOL     OW24307   3.572   0.872   8.999  0.8277  0.1437  1.0009
 4224SOL    HW124308   3.600   0.915   8.918  0.9485 -0.4674  0.7231
 4224SOL    HW224309   3.543   0.950   9.048 -2.9397 -1.4854  1.3641
 4225SOL     OW24310   1.428   3.899   1.407  0.4370  0.0964  0.5982
 4225SOL    HW124311   1.485   3.976   1.399  1.2847 -0.4429  1.3822
 4225SOL    HW224312   1.456   3.847   1.332 -0.8162 -0.9451  0.8542
 4226SOL     OW24313   3.423   1.096   5.262  0.2484 -0.2247  0.0585
 4226SOL    HW124314   3.501   1.064   5.218  0.8916  0.9953  0.3141
 4226SOL    HW224315   3.361   1.055   5.202  0.3898  0.8963 -0.8561
 4227SOL     OW24316   0.658   4.165   3.309  0.0198  0.1089 -0.0094
 4227SOL    HW124317   0.719   4.158   3.383 -0.3312  2.6627  0.5288
 4227SOL    HW224318   0.602   4.091   3.328 -2.2725  1.8345 -0.0849
 4228SOL     OW24319   4.582   4.426  13.027  0.1515 -0.4402 -0.0982
 4228SOL    HW124320   4.664   4.401  12.986 -0.6648 -0.9035 -1.4663
 4228SOL    HW224321   4.590   4.381  13.111  2.9188  2.7874  1.3492
 4229SOL     OW24322   0.440   2.997   0.028  0.7288  0.5302  0.3053
 4229SOL    HW124323   0.526   2.955   0.021  0.0678 -0.4050 -1.9687
 4229SOL    HW224324   0.392   2.943  17.715  1.7932  0.2758 -0.2955
 4230SOL     OW24325   1.671   0.651   0.761  0.2255 -0.4741 -0.1190
 4230SOL    HW124326   1.677   0.555   0.765  0.9130 -0.3940  0.6789
 4230SOL    HW224327   1.654   0.669   0.668 -2.0386  0.1040  0.4036
 4231SOL     OW24328   0.342   3.969   7.446 -0.0080  0.1013 -0.4277
 4231SOL    HW124329   0.305   4.008   7.524 -0.3852 -0.3657 -0.3713
 4231SOL    HW224330   0.406   4.036   7.422  0.2374 -0.4466 -1.3212
 4232SOL     OW24331   4.540   1.803  16.444  0.2982  0.3765  0.0144
 4232SOL    HW124332   4.601   1.745  16.490 -1.7765 -0.6109  1.5195
 4232SOL    HW224333   4.461   1.802  16.498  0.3880 -0.1731  0.1427
 4233SOL     OW24334   1.811   2.641   3.573 -0.5079 -0.3484  0.1005
 4233SOL    HW124335   1.859   2.636   3.491  0.8121 -1.3053  0.9239
 4233SOL    HW224336   1.872   2.613   3.642  0.2097  0.5549 -0.1611
 4234SOL     OW24337   2.507   3.587  13.592  0.2442 -0.0606  0.4289
 4234SOL    HW124338   2.597   3.574  13.624 -0.0199  3.4609  2.6641
 4234SOL    HW224339   2.518   3.645  13.517  0.2475  0.3673  0.7576
 4235SOL     OW24340   0.315   1.232   2.110  0.1032 -0.2232  0.1713
 4235SOL    HW124341   0.362   1.216   2.028 -0.4255  0.0130 -0.1779
 4235SOL    HW224342   0.370   1.301   2.147 -2.0684  1.5145  0.1422
 4236SOL     OW24343   3.779   2.558   8.102 -0.4663 -0.0018  0.0288
 4236SOL    HW124344   3.736   2.494   8.159  1.6567  1.2176  2.9729
 4236SOL    HW224345   3.867   2.567   8.140 -0.3047  0.8785 -0.5609
 4237SOL     OW24346   4.439   0.674  11.710 -0.2200 -0.4713  0.3065
 4237SOL    HW124347   4.409   0.642  11.795  0.7916 -0.4708  0.6560
 4237SOL    HW224348   4.409   0.764  11.720 -1.7246 -1.1497  2.0785
 4238SOL     OW24349   3.779   0.346   8.003 -0.1186 -0.5546  0.1161
 4238SOL    HW124350   3.806   0.261   8.039  0.6942 -0.8468 -1.1798
 4238SOL    HW224351   3.685   0.331   8.005  0.0844 -1.8217  0.4533
 4239SOL     OW24352   1.834   0.452   6.969  0.0366  0.4748 -0.1620
 4239SOL    HW124353   1.842   0.547   6.956  1.6969  0.5995  1.5800
 4239SOL    HW224354   1.763   0.425   6.912 -1.1945  3.3816 -0.0201
 4240SOL     OW24355   3.833   1.221   5.397  0.0075  0.0379  0.1180
 4240SOL    HW124356   3.869   1.184   5.316 -0.5589 -2.1794  0.8820
 4240SOL    HW224357   3.867   1.310   5.391  0.3266 -0.0715  0.3113
 4241SOL     OW24358   2.141   4.144   4.363  0.4333  0.1726 -1.1958
 4241SOL    HW124359   2.189   4.062   4.364  1.0181  0.5287 -0.5689
 4241SOL    HW224360   2.172   4.190   4.441 -0.7107 -1.8654  0.4556
 4242SOL     OW24361   3.195   2.987   6.727  0.1329 -0.0282  0.0106
 4242SOL    HW124362   3.271   2.943   6.689 -0.1889  0.6196 -1.3826
 4242SOL    HW224363   3.127   2.970   6.662 -0.0927 -0.3616  0.3358
 4243SOL     OW24364   2.697   0.121   7.329  0.0202  0.7626  0.3152
 4243SOL    HW124365   2.779   0.097   7.285  0.5151  0.6963  1.2677
 4243SOL    HW224366   2.727   0.211   7.346  0.0778  1.2338 -2.3666
 4244SOL     OW24367   0.107   0.923   9.729  0.5740  0.2449  0.7755
 4244SOL    HW124368   0.191   0.885   9.701 -0.4708 -1.4698 -0.0620
 4244SOL    HW224369   0.133   0.960   9.813 -0.2368 -0.7050  1.4336
 4245SOL     OW24370   0.918   0.810   1.316 -0.2502 -0.7402  0.3843
 4245SOL    HW124371   0.953   0.741   1.372  0.8039  1.9535  3.0586
 4245SOL    HW224372   0.826   0.802   1.339 -0.5788 -0.1498 -0.7244
 4246SOL     OW24373   4.300   4.456  12.988  0.4770  0.0423 -0.7153
 4246SOL    HW124374   4.270   4.365  12.992  1.3125 -0.1184  1.9051
 4246SOL    HW224375   4.395   4.448  12.990  0.5266  1.2586  2.0972
 4247SOL     OW24376   1.222   4.683   2.214 -0.9122 -0.3619 -0.1157
 4247SOL    HW124377   1.224   4.640   2.129  2.4068 -0.2657 -0.1092
 4247SOL    HW224378   1.217   4.608   2.273 -0.2267  1.0061  1.7008
 4248SOL     OW24379   3.691   0.514  16.230 -0.6077 -0.6078  0.4988
 4248SOL    HW124380   3.641   0.436  16.206  0.6755 -1.7655  1.6018
 4248SOL    HW224381   3.743   0.485  16.305 -3.3515 -0.8870  2.2899
 4249SOL     OW24382   2.658   1.293   7.631 -0.1802 -0.0351 -0.3257
 4249SOL    HW124383   2.635   1.314   7.721 -0.7864  0.5544 -0.6221
 4249SOL    HW224384   2.719   1.362   7.606  0.9164 -1.0170 -0.3640
 4250SOL     OW24385   3.054   0.169   4.129 -0.0137 -0.1747  0.1450
 4250SOL    HW124386   3.004   0.188   4.050  0.6885  0.3628 -0.1709
 4250SOL    HW224387   3.144   0.159   4.099 -0.8367 -0.7521 -2.1289
 4251SOL     OW24388   4.535   3.170  15.588 -0.2617 -0.0044 -0.0168
 4251SOL    HW124389   4.511   3.186  15.496 -1.2767  0.2476  0.2927
 4251SOL    HW224390   4.624   3.138  15.574  0.1626  1.1754 -0.0296
 4252SOL     OW24391   1.861   0.622   5.259 -0.3036  0.4856 -0.3852
 4252SOL    HW124392   1.917   0.649   5.186  0.9654  0.6732  0.6785
 4252SOL    HW224393   1.913   0.659   5.329  0.1954 -3.4722  1.3013
 4253SOL     OW24394   4.641   1.426   2.630  0.4020 -0.7959  0.2447
 4253SOL    HW124395   4.567   1.376   2.595 -0.6686 -1.4731  3.4702
 4253SOL    HW224396   4.678   1.457   2.547  0.5817  0.4906  0.8081
 4254SOL     OW24397   4.439   1.950   5.929 -0.0167  0.0497  0.2168
 4254SOL    HW124398   4.344   1.954   5.929  0.0867  2.2311  0.1072
 4254SOL    HW224399   4.458   1.908   5.845  3.3861  1.4480  0.2762
 4255SOL     OW24400   3.294   2.081  16.394  0.1492  0.3502  0.0035
 4255SOL    HW124401   3.371   2.043  16.436  0.2659  0.4344 -0.1355
 4255SOL    HW224402   3.315   2.096  16.302  1.1951  0.1116  0.2096
 4256SOL     OW24403   3.238   3.329   5.275 -0.4855 -0.0130 -0.2939
 4256SOL    HW124404   3.194   3.307   5.193 -1.5617  2.0852 -0.2725
 4256SOL    HW224405   3.322   3.357   5.238  0.9753 -0.7518  2.4309
 4257SOL     OW24406   3.524   2.931   8.035 -0.0045 -0.6129 -0.0163
 4257SOL    HW124407   3.451   2.988   8.014  1.0490  1.0284  0.7956
 4257SOL    HW224408   3.506   2.891   8.120  0.9288  1.4204  1.1365
 4258SOL     OW24409   4.446   2.037   8.502  0.4428 -0.2166  0.3455
 4258SOL    HW124410   4.523   1.989   8.473  1.0045  0.3691  0.8872
 4258SOL    HW224411   4.378   1.987   8.456  0.5621  2.1637 -2.4460
 4259SOL     OW24412   1.747   3.929   9.281  0.1091  0.2412  0.0574
 4259SOL    HW124413   1.680   3.992   9.308 -0.9163 -1.0924  0.6448
 4259SOL    HW224414   1.709   3.899   9.199  0.6886 -0.1456 -0.0708
 4260SOL     OW24415   3.880   1.832  10.679  0.2878 -0.5439 -0.0896
 4260SOL    HW124416   3.792   1.837  10.715 -0.6991 -0.7933 -2.4255
 4260SOL    HW224417   3.861   1.881  10.599  2.2853  1.0930  0.4637
 4261SOL     OW24418   2.100   2.864  15.668  0.3490  0.1562  0.1395
 4261SOL    HW124419   2.171   2.828  15.721  1.0571  1.1125 -0.1540
 4261SOL    HW224420   2.107   2.820  15.584 -0.7178  0.8621 -0.3234
 4262SOL     OW24421   2.205   0.418  13.882 -0.7556 -0.3282  0.1729
 4262SOL    HW124422   2.120   0.436  13.922 -0.2042 -1.6003  1.9000
 4262SOL    HW224423   2.192   0.450  13.793 -1.8983  0.9126  0.7924
 4263SOL     OW24424   2.228   4.419   0.072 -0.4275 -0.0050 -0.3310
 4263SOL    HW124425   2.186   4.465   0.145 -1.1443 -0.2489 -0.5947
 4263SOL    HW224426   2.160   4.364   0.034  1.1822 -0.7910 -2.0782
 4264SOL     OW24427   2.542   2.664   4.419 -0.4367 -0.2562  0.3622
 4264SOL    HW124428   2.592   2.657   4.500  2.5946 -0.3902 -1.5153
 4264SOL    HW224429   2.519   2.757   4.426  1.7834  0.2097  1.6131
 4265SOL     OW24430   0.450   4.524   9.320  0.1658  0.1021 -0.2580
 4265SOL    HW124431   0.482   4.613   9.311  2.3571 -0.5199  1.3860
 4265SOL    HW224432   0.402   4.538   9.402 -1.9983 -0.8756 -1.3457
 4266SOL     OW24433   0.370   1.599   5.504  0.1644 -0.4815 -0.2424
 4266SOL    HW124434   0.441   1.541   5.533 -0.0316 -1.2313 -1.2878
 4266SOL    HW224435   0.321   1.598   5.586  0.6639 -2.9282  0.0133
 4267SOL     OW24436   4.274   4.188   7.169 -0.5706  0.4333  0.4760
 4267SOL    HW124437   4.369   4.184   7.174 -0.5444  0.2813 -0.1427
 4267SOL    HW224438   4.253   4.144   7.087  1.2306 -1.2843  0.9344
 4268SOL     OW24439   3.632   1.473   4.784  0.5685 -0.0147 -0.4164
 4268SOL    HW124440   3.682   1.480   4.865  0.8764  2.4550 -0.8145
 4268SOL    HW224441   3.686   1.410   4.735  0.1291 -1.4743  0.9683
 4269SOL     OW24442   0.451   0.908  14.244  0.2157  0.4133  0.2038
 4269SOL    HW124443   0.462   0.919  14.339 -1.7378  1.1331  0.3473
 4269SOL    HW224444   0.524   0.958  14.207 -0.9231  2.1349  0.2422
 4270SOL     OW24445   2.975   0.698  12.864 -0.1167 -0.6012 -0.4014
 4270SOL    HW124446   2.908   0.651  12.816 -1.7308  0.3020  0.9564
 4270SOL    HW224447   3.061   0.671  12.832  0.0331  0.1624 -0.6484
 4271SOL     OW24448   1.145   0.470   4.568  0.1988  0.4552 -0.7475
 4271SOL    HW124449   1.182   0.549   4.529 -0.3878  0.1848 -1.8404
 4271SOL    HW224450   1.179   0.488   4.656  1.0668  0.9389 -1.1783
 4272SOL     OW24451   4.131   1.987   4.203  0.0901  0.1713 -0.4565
 4272SOL    HW124452   4.148   2.071   4.161 -1.3427  1.0085  0.6444
 4272SOL    HW224453   4.094   1.932   4.134  1.7130 -0.7441 -0.6085
 4273SOL     OW24454   2.424   2.944  12.776  0.0992  0.0764 -0.5126
 4273SOL    HW124455   2.363   2.920  12.846 -0.2122 -0.5967 -1.0190
 4273SOL    HW224456   2.383   2.912  12.696 -1.2877  1.0510 -0.1863
 4274SOL     OW24457   4.188   3.072   4.356  0.1615 -0.5510  0.1834
 4274SOL    HW124458   4.136   3.113   4.425 -0.1740 -2.1813  0.9014
 4274SOL    HW224459   4.126   3.000   4.342 -1.2094  0.5619  0.5852
 4275SOL     OW24460   3.096   0.711  11.470 -0.2737 -0.7124  0.3042
 4275SOL    HW124461   3.111   0.666  11.387  0.2970 -0.3440  0.2122
 4275SOL    HW224462   3.167   0.774  11.467 -1.1224  0.1507 -1.3788
 4276SOL     OW24463   1.965   1.806  15.695  0.2103 -0.3995  0.2859
 4276SOL    HW124464   1.886   1.839  15.738 -2.3191 -1.9912 -3.1390
 4276SOL    HW224465   1.984   1.742  15.764  0.2330 -0.2150  0.4514
 4277SOL     OW24466   3.609   0.992   9.456  0.8166 -0.2926  0.2493
 4277SOL    HW124467   3.569   1.026   9.375 -0.1674 -0.7580  0.5431
 4277SOL    HW224468   3.665   0.927   9.413 -0.3901 -2.3105  1.7305
 4278SOL     OW24469   4.185   0.949  14.153 -0.8115  0.3130  0.3502
 4278SOL    HW124470   4.281   0.944  14.157 -0.6897  1.7663 -1.0294
 4278SOL    HW224471   4.169   1.022  14.213 -0.4788  0.6336  0.0482
 4279SOL     OW24472   4.046   0.141   3.061 -0.1326  0.2157 -0.8561
 4279SOL    HW124473   4.130   0.097   3.058 -0.5980 -0.9019  2.2426
 4279SOL    HW224474   4.040   0.172   3.152  0.4912 -1.8979 -0.1016
 4280SOL     OW24475   3.516   2.791   6.454  0.0963  0.0728 -0.2851
 4280SOL    HW124476   3.432   2.828   6.428  0.1934 -0.2398 -1.0214
 4280SOL    HW224477   3.494   2.713   6.505  1.2967 -0.4767 -0.6189
 4281SOL     OW24478   0.356   3.985   0.872  0.4656 -0.1476 -0.1570
 4281SOL    HW124479   0.369   4.065   0.924  1.3044 -2.6343  3.4954
 4281SOL    HW224480   0.277   3.944   0.908  0.3683  0.7769  0.6988
 4282SOL     OW24481   4.649   0.157   8.301 -0.4989  0.1236  0.2007
 4282SOL    HW124482   4.636   0.118   8.387  1.4032  0.2433  0.5353
 4282SOL    HW224483   4.637   0.075   8.251  0.0959  1.3222 -1.9249
 4283SOL     OW24484   4.177   4.444   4.683  0.3925 -0.1661 -0.7199
 4283SOL    HW124485   4.262   4.458   4.727 -0.3193  0.6664  0.4024
 4283SOL    HW224486   4.185   4.369   4.624 -1.7902 -0.4882 -0.5978
 4284SOL     OW24487   2.369   3.677   2.604 -0.4183 -0.1519 -0.1630
 4284SOL    HW124488   2.434   3.714   2.664  0.7084 -1.9684 -0.2597
 4284SOL    HW224489   2.296   3.737   2.621 -1.3359 -0.9446 -1.3738
 4285SOL     OW24490   0.407   3.074   3.740  0.4218 -0.0058 -0.0227
 4285SOL    HW124491   0.314   3.086   3.720  0.6192  0.5282 -0.6317
 4285SOL    HW224492   0.436   3.163   3.761  1.3333 -0.5610  1.0927
 4286SOL     OW24493   1.361   2.718   8.550 -0.1078  0.5286  0.5226
 4286SOL    HW124494   1.266   2.732   8.540 -0.2247 -0.8043 -0.1508
 4286SOL    HW224495   1.387   2.808   8.567  0.3327  0.0576  2.3014
 4287SOL     OW24496   3.239   1.001   2.919  0.3693 -0.3509 -0.5031
 4287SOL    HW124497   3.257   1.094   2.903  0.0190 -0.1651  0.2137
 4287SOL    HW224498   3.144   0.988   2.917 -0.0475  2.4708 -0.1538
 4288SOL     OW24499   3.514   3.611   7.258  0.2786 -0.0813  0.2592
 4288SOL    HW124500   3.588   3.625   7.199  0.7426 -2.1037  0.3511
 4288SOL    HW224501   3.522   3.517   7.278  0.3742 -0.4100 -1.3081
 4289SOL     OW24502   1.546   4.105   9.344 -0.0035  0.7372 -0.3368
 4289SOL    HW124503   1.484   4.127   9.414  0.6553 -1.2378  0.8562
 4289SOL    HW224504   1.494   4.110   9.264  1.8376  0.5626 -1.5352
 4290SOL     OW24505   4.244   1.577   1.864  0.3272 -0.0653  0.5787
 4290SOL    HW124506   4.291   1.585   1.781  0.0839  1.1151  0.5678
 4290SOL    HW224507   4.257   1.482   1.873 -2.9393 -0.6308 -0.7975
 4291SOL     OW24508   2.934   1.218   3.192 -0.0531 -0.3943 -0.3941
 4291SOL    HW124509   2.941   1.157   3.265  0.7916 -0.2904 -0.3895
 4291SOL    HW224510   2.977   1.296   3.227 -0.8249 -0.5275  0.8507
 4292SOL     OW24511   3.358   1.223   7.672 -0.0110 -0.6071 -0.0269
 4292SOL    HW124512   3.444   1.193   7.642  0.0622  0.1343 -0.5569
 4292SOL    HW224513   3.387   1.298   7.725 -3.1700  0.3982  0.2581
 4293SOL     OW24514   3.363   4.407   5.892 -0.4362 -0.2159 -0.1037
 4293SOL    HW124515   3.299   4.472   5.863 -0.2773 -0.4645 -1.0201
 4293SOL    HW224516   3.405   4.386   5.808 -0.7593 -2.1848  0.2256
 4294SOL     OW24517   3.755   0.939   5.575  0.4953 -0.0938 -0.3791
 4294SOL    HW124518   3.850   0.929   5.579  0.6730  1.0969 -1.4905
 4294SOL    HW224519   3.745   1.017   5.519 -1.0687 -0.4768 -0.6295
 4295SOL     OW24520   1.838   1.196   7.604  0.3465 -0.3794 -0.0979
 4295SOL    HW124521   1.829   1.291   7.612  2.0814 -0.2363  0.2229
 4295SOL    HW224522   1.933   1.188   7.606  0.4723  1.3633  1.2009
 4296SOL     OW24523   0.724   3.748   2.651 -0.5956  0.6654 -0.2126
 4296SOL    HW124524   0.707   3.780   2.562 -4.0669 -1.4924 -0.3121
 4296SOL    HW224525   0.796   3.688   2.634 -0.6296 -0.0586  2.2732
 4297SOL     OW24526   0.663   2.234   4.371  0.0340  0.1492 -0.4171
 4297SOL    HW124527   0.629   2.290   4.441 -2.1122 -0.0976 -1.2460
 4297SOL    HW224528   0.600   2.163   4.383 -2.5659  2.4621 -0.4000
 4298SOL     OW24529   1.741   2.940  15.114 -0.2606  0.4541  0.1665
 4298SOL    HW124530   1.711   2.859  15.154 -1.3924 -0.1571 -1.8790
 4298SOL    HW224531   1.721   2.919  15.023 -0.2032  1.1533 -0.0084
 4299SOL     OW24532   1.278   1.488   8.824 -0.6383 -0.4695 -0.1492
 4299SOL    HW124533   1.306   1.398   8.838 -2.2695 -1.2082 -1.6042
 4299SOL    HW224534   1.224   1.487   8.745 -0.1438 -2.2372 -0.4477
 4300SOL     OW24535   4.519   2.494  10.322 -0.0650  0.4113  0.1315
 4300SOL    HW124536   4.568   2.569  10.353  0.9453 -0.0165 -0.4333
 4300SOL    HW224537   4.454   2.528  10.260  1.3468  0.5621 -1.2531
 4301SOL     OW24538   3.472   1.334   8.835  0.0215 -0.8339  0.1214
 4301SOL    HW124539   3.405   1.303   8.896 -1.4371  2.2805  0.1129
 4301SOL    HW224540   3.448   1.291   8.753 -1.6549 -2.1899  1.3054
 4302SOL     OW24541   0.038   2.082   8.892  0.1815 -0.5141  0.4925
 4302SOL    HW124542   0.088   2.004   8.869  0.5478  0.3074 -1.5133
 4302SOL    HW224543   0.103   2.144   8.860 -2.3381  2.1722  0.5749
 4303SOL     OW24544   2.615   0.510  10.766  0.2026  0.1569 -0.0118
 4303SOL    HW124545   2.600   0.601  10.793  1.6361  0.0655  1.0761
 4303SOL    HW224546   2.530   0.490  10.726  0.4788  0.9348 -0.9840
 4304SOL     OW24547   0.552   2.529   5.630  0.0356 -0.1309 -0.0621
 4304SOL    HW124548   0.497   2.503   5.704 -1.1214  2.5456  0.0348
 4304SOL    HW224549   0.583   2.442   5.607  2.5936  0.5967  0.5913
 4305SOL     OW24550   0.012   2.915   3.618  0.0301 -0.0283 -0.0992
 4305SOL    HW124551   0.084   2.870   3.662 -0.5883  0.4186  1.3540
 4305SOL    HW224552   4.675   2.856   3.608  0.2304  0.0285 -1.8840
 4306SOL     OW24553   2.211   3.282   8.606  0.1197  0.0952  0.3067
 4306SOL    HW124554   2.294   3.243   8.579 -0.7973 -0.5004 -1.6398
 4306SOL    HW224555   2.233   3.342   8.677  1.3016 -0.3812  0.3397
 4307SOL     OW24556   2.255   4.350   4.233  0.0764  0.2415  0.1325
 4307SOL    HW124557   2.255   4.401   4.314 -1.4250 -0.5439  0.6252
 4307SOL    HW224558   2.187   4.286   4.255  0.0440  0.2649  0.0986
 4308SOL     OW24559   1.933   2.533   8.416 -1.0494 -0.4565 -0.4734
 4308SOL    HW124560   1.882   2.533   8.497  1.4692 -1.5186  1.0862
 4308SOL    HW224561   2.021   2.535   8.453 -0.9319 -0.9054 -0.7354
 4309SOL     OW24562   3.324   2.999   3.848  0.2135  0.0786  0.1283
 4309SOL    HW124563   3.348   3.031   3.762  0.1112 -2.7990 -0.9679
 4309SOL    HW224564   3.315   2.905   3.834  1.0573 -0.1154  0.8776
 4310SOL     OW24565   2.515   3.685   4.345  0.1156 -0.1965  0.4048
 4310SOL    HW124566   2.493   3.641   4.427  0.2744  1.0916  1.1350
 4310SOL    HW224567   2.590   3.740   4.366  0.1952  0.0563 -0.5653
 4311SOL     OW24568   0.845   3.232   3.570  0.1715  0.1591  0.6435
 4311SOL    HW124569   0.937   3.222   3.597  0.3688 -3.1059 -1.1512
 4311SOL    HW224570   0.858   3.259   3.480 -0.3585 -1.0742  0.1911
 4312SOL     OW24571   1.251   1.134   2.136 -0.2934 -0.2869 -0.0855
 4312SOL    HW124572   1.167   1.179   2.150 -1.0075 -1.4709 -0.6145
 4312SOL    HW224573   1.254   1.062   2.199  1.0654 -1.3726 -1.3966
 4313SOL     OW24574   3.838   4.399  10.623  0.7622  0.2421  0.0198
 4313SOL    HW124575   3.791   4.353  10.554 -0.8056  0.4432  0.9468
 4313SOL    HW224576   3.766   4.458  10.647  1.0651  0.2045  1.0470
 4314SOL     OW24577   0.282   3.135   9.927 -0.2255 -0.4023 -0.2822
 4314SOL    HW124578   0.277   3.041   9.910 -1.9477 -0.3753  0.0988
 4314SOL    HW224579   0.249   3.140  10.017 -0.7706  0.2355 -0.5204
 4315SOL     OW24580   0.623   1.934   7.899 -0.0302 -0.0202 -0.1477
 4315SOL    HW124581   0.619   1.928   7.994 -0.2237  0.4450 -0.1258
 4315SOL    HW224582   0.642   2.026   7.880  1.4799 -0.5639 -1.3147
 4316SOL     OW24583   2.512   3.405   6.713 -0.4216 -0.9173  0.4121
 4316SOL    HW124584   2.492   3.421   6.806  1.3132  1.2494  0.4027
 4316SOL    HW224585   2.430   3.367   6.682  0.6304 -0.4000 -2.9834
 4317SOL     OW24586   3.677   2.873   3.471 -0.1370  0.1470 -0.1648
 4317SOL    HW124587   3.583   2.856   3.478 -0.4565  0.9431 -2.2994
 4317SOL    HW224588   3.693   2.882   3.377  2.3855  0.3947  0.2903
 4318SOL     OW24589   4.290   0.824   4.125  0.3063 -0.5496  0.0160
 4318SOL    HW124590   4.225   0.755   4.114  0.4206 -0.7155  0.3805
 4318SOL    HW224591   4.353   0.790   4.189 -0.2212  0.8763  1.2848
 4319SOL     OW24592   4.354   1.183   2.231 -0.3738  0.5291  0.4243
 4319SOL    HW124593   4.444   1.171   2.260 -0.0675  0.8768 -0.3860
 4319SOL    HW224594   4.300   1.175   2.310 -1.0360  2.3424  0.1479
 4320SOL     OW24595   3.827   4.055   1.395  0.0514 -0.0880 -1.0981
 4320SOL    HW124596   3.885   4.126   1.370  0.0022  0.7127  1.0310
 4320SOL    HW224597   3.865   4.021   1.477 -0.1250  2.7491  0.1497
 4321SOL     OW24598   0.672   3.209   6.804  0.1652 -0.2549  0.1305
 4321SOL    HW124599   0.754   3.162   6.814  0.6593  0.0829 -2.2184
 4321SOL    HW224600   0.658   3.216   6.898 -1.1075  0.8863 -0.1371
 4322SOL     OW24601   2.716   0.330   2.756  0.4790 -0.6494  0.2526
 4322SOL    HW124602   2.779   0.259   2.747  0.0749 -1.0789  0.8801
 4322SOL    HW224603   2.630   0.297   2.730 -0.7262  1.9373  0.9672
 4323SOL     OW24604   1.019   3.536   7.316 -0.3455 -0.0949  0.0076
 4323SOL    HW124605   0.961   3.522   7.391 -0.2074  2.2917  0.5561
 4323SOL    HW224606   1.041   3.628   7.334 -1.0460 -0.2273  1.5419
 4324SOL     OW24607   2.296   3.452   9.449 -0.4590 -0.3177  0.3473
 4324SOL    HW124608   2.203   3.428   9.453 -1.0033  1.9721  1.3492
 4324SOL    HW224609   2.294   3.547   9.436 -0.6774 -0.1129  1.9085
 4325SOL     OW24610   4.277   2.907   7.395  0.4218 -0.0355 -0.0180
 4325SOL    HW124611   4.344   2.942   7.454 -0.9100 -0.4760  1.7484
 4325SOL    HW224612   4.310   2.897   7.306  0.2242  0.0038 -0.0964
 4326SOL     OW24613   1.185   4.410   0.659  0.1726 -0.3021  0.0441
 4326SOL    HW124614   1.248   4.381   0.725 -2.2837 -1.1234  2.0270
 4326SOL    HW224615   1.206   4.347   0.590  1.0230  0.9610 -0.8410
 4327SOL     OW24616   3.209   4.366   6.593 -0.0639  0.3175 -0.3450
 4327SOL    HW124617   3.281   4.302   6.596  0.4779  0.8717 -1.6945
 4327SOL    HW224618   3.155   4.337   6.667 -0.1353 -1.4648 -1.1047
 4328SOL     OW24619   3.900   1.240   2.478 -0.0969 -0.2499  0.1665
 4328SOL    HW124620   3.949   1.300   2.421  1.0611 -1.7450 -0.4056
 4328SOL    HW224621   3.972   1.185   2.508 -0.7176  0.1701  2.3904
 4329SOL     OW24622   4.414   1.268   2.000 -0.5874 -0.8615 -0.9788
 4329SOL    HW124623   4.370   1.242   2.081 -1.7789  1.0166 -1.0303
 4329SOL    HW224624   4.341   1.271   1.938 -0.3046  0.2224 -1.2592
 4330SOL     OW24625   3.194   3.203   5.749 -0.1641 -0.3067 -0.1331
 4330SOL    HW124626   3.187   3.164   5.662 -1.3560  0.6303 -0.4618
 4330SOL    HW224627   3.108   3.182   5.785 -0.2089 -1.0117 -0.6662
 4331SOL     OW24628   0.061   4.110  16.451 -0.4353 -0.5927  0.1445
 4331SOL    HW124629   0.153   4.131  16.464 -0.2250 -2.1719  1.1191
 4331SOL    HW224630   0.044   4.156  16.369  0.3594 -0.2652  0.1706
 4332SOL     OW24631   3.163   2.639   3.582  0.0194 -0.5208  0.2058
 4332SOL    HW124632   3.124   2.657   3.667  1.3422  0.9537  0.5052
 4332SOL    HW224633   3.183   2.546   3.573 -0.0771 -0.4151 -1.2000
 4333SOL     OW24634   1.826   4.106   3.833  0.1817  0.6485 -0.2099
 4333SOL    HW124635   1.823   4.081   3.925  0.6499 -0.8941 -0.6217
 4333SOL    HW224636   1.919   4.091   3.818  0.7204  2.4625  1.2448
 4334SOL     OW24637   4.089   3.259   8.218  0.0864 -0.2330 -0.2090
 4334SOL    HW124638   4.017   3.243   8.158  0.3861  1.5579 -1.0403
 4334SOL    HW224639   4.124   3.339   8.178 -3.1644  2.1504  1.7166
 4335SOL     OW24640   2.343   0.552   6.633  0.3760  0.1525 -0.2812
 4335SOL    HW124641   2.381   0.479   6.584 -1.4474  0.0669 -1.5663
 4335SOL    HW224642   2.308   0.612   6.567  0.7260  2.2352  1.4299
 4336SOL     OW24643   3.639   3.402   7.771 -0.1864 -0.2190 -0.4244
 4336SOL    HW124644   3.630   3.404   7.867  3.4557 -0.0243 -0.0955
 4336SOL    HW224645   3.546   3.383   7.758 -0.7925  2.6789 -0.2498
 4337SOL     OW24646   3.250   2.216   9.296  0.1006  0.2053 -0.2057
 4337SOL    HW124647   3.162   2.197   9.327  0.4232 -3.4479 -1.5243
 4337SOL    HW224648   3.236   2.191   9.205 -2.0411  1.1082 -0.1122
 4338SOL     OW24649   4.615   2.860   8.940  0.7464  0.9682 -0.4546
 4338SOL    HW124650   4.686   2.915   8.907  2.1872 -1.8723 -2.0621
 4338SOL    HW224651   4.550   2.926   8.913  1.1456  2.2002  1.6185
 4339SOL     OW24652   2.479   1.841   9.017  0.4022  0.0492  0.1969
 4339SOL    HW124653   2.527   1.880   9.090 -0.0617 -0.2146  0.6461
 4339SOL    HW224654   2.434   1.920   8.988  1.0165 -0.0737 -1.0696
 4340SOL     OW24655   1.950   3.596   2.547  0.1752 -0.1646  0.2299
 4340SOL    HW124656   1.929   3.646   2.468  0.3892  0.3566  0.5035
 4340SOL    HW224657   2.008   3.652   2.599  0.4497 -0.7018  0.5087
 4341SOL     OW24658   4.529   2.497   1.795  0.0209  0.9537 -0.0252
 4341SOL    HW124659   4.578   2.479   1.714 -2.0717 -0.2065 -1.0268
 4341SOL    HW224660   4.585   2.457   1.861  0.6260  1.5274 -0.1797
 4342SOL     OW24661   1.670   2.454   3.892 -0.6396 -0.6085  0.1235
 4342SOL    HW124662   1.746   2.431   3.945 -2.0668 -3.7207  0.8488
 4342SOL    HW224663   1.643   2.531   3.941 -1.2569 -0.4851 -0.4080
 4343SOL     OW24664   0.829   0.811   0.712 -0.0016  0.3003 -0.0005
 4343SOL    HW124665   0.855   0.851   0.795  0.6753  2.0515 -1.0623
 4343SOL    HW224666   0.789   0.892   0.681 -0.9636 -0.1440  0.0858
 4344SOL     OW24667   4.707   3.377   3.167 -0.4345 -0.6338  0.1705
 4344SOL    HW124668   4.669   3.464   3.172 -1.4003 -0.9568 -1.9973
 4344SOL    HW224669   4.666   3.360   3.083 -0.4312  0.7585 -0.1113
 4345SOL     OW24670   1.256   0.244  14.086 -0.2539  0.0707  0.0236
 4345SOL    HW124671   1.288   0.305  14.153 -0.7394 -1.5097  1.6987
 4345SOL    HW224672   1.181   0.214  14.137 -0.7582  1.0203 -0.1638
 4346SOL     OW24673   4.353   0.672   2.857  0.0050  0.1917 -0.1273
 4346SOL    HW124674   4.437   0.679   2.812 -0.5730 -2.4200 -1.5964
 4346SOL    HW224675   4.375   0.587   2.895  2.2552  1.0403  0.4884
 4347SOL     OW24676   0.970   2.948   7.856 -0.0960 -0.1964 -0.7376
 4347SOL    HW124677   1.035   2.896   7.903  1.7062  1.7352 -1.0996
 4347SOL    HW224678   0.891   2.942   7.910  0.2318  0.8213 -0.1578
 4348SOL     OW24679   3.432   2.349   9.130 -0.0383 -0.0288 -0.1989
 4348SOL    HW124680   3.424   2.436   9.091 -0.7034  0.1362  0.3009
 4348SOL    HW224681   3.396   2.373   9.215 -2.6220 -1.0881 -0.9866
 4349SOL     OW24682   3.604   0.930   0.765  0.1478 -0.3560  0.0939
 4349SOL    HW124683   3.509   0.922   0.765 -0.1396  3.2418 -3.0373
 4349SOL    HW224684   3.610   1.009   0.712  2.6805 -0.6938 -0.1536
 4350SOL     OW24685   0.356   0.653   8.360 -0.2668  0.0627 -0.7456
 4350SOL    HW124686   0.380   0.701   8.440 -2.5181  0.9865 -0.6105
 4350SOL    HW224687   0.293   0.594   8.402  0.6816  0.5099  1.3363
 4351SOL     OW24688   2.234   2.079   6.802 -0.2171 -0.4377  0.0607
 4351SOL    HW124689   2.236   2.155   6.861 -1.4472 -0.6933  0.4117
 4351SOL    HW224690   2.320   2.040   6.818 -1.0469 -2.6302 -0.9078
 4352SOL     OW24691   0.046   4.244   8.139 -0.2195 -0.8825  0.6418
 4352SOL    HW124692   4.727   4.266   8.213  1.2089  2.1372  0.8405
 4352SOL    HW224693   0.068   4.330   8.104  1.1391 -0.9533  1.3372
 4353SOL     OW24694   0.074   0.329   3.616 -0.7187 -0.6301 -0.0751
 4353SOL    HW124695   0.040   0.389   3.682  0.4128 -1.3581  1.1894
 4353SOL    HW224696   0.170   0.330   3.621 -0.7747  4.3305 -0.1607
 4354SOL     OW24697   0.523   0.328   4.401 -0.5469 -0.3308 -0.0657
 4354SOL    HW124698   0.538   0.254   4.461 -1.0237 -0.3675  0.0086
 4354SOL    HW224699   0.448   0.286   4.358 -0.9238 -0.3568  0.6114
 4355SOL     OW24700   2.875   0.006  11.649 -0.4108  0.5581 -0.3243
 4355SOL    HW124701   2.907   4.674  11.706  1.5406  0.3734 -1.6212
 4355SOL    HW224702   2.910   0.089  11.683 -2.4047  1.2013  0.1560
 4356SOL     OW24703   4.004   4.551   1.168 -0.4512  0.2980 -0.4051
 4356SOL    HW124704   4.001   4.584   1.078  2.1706 -0.6652 -0.8292
 4356SOL    HW224705   4.080   4.494   1.159  0.1362  0.7206  1.7904
 4357SOL     OW24706   2.713   0.857  13.142  0.2119 -0.3307 -0.2298
 4357SOL    HW124707   2.778   0.899  13.198  0.2683  1.2205 -1.4509
 4357SOL    HW224708   2.704   0.764  13.162  0.7989 -0.6246 -1.3731
 4358SOL     OW24709   0.145   3.239   8.043  0.0030 -0.7333 -0.0640
 4358SOL    HW124710   0.161   3.155   8.000  1.6055 -1.5130  2.0585
 4358SOL    HW224711   0.197   3.230   8.123  0.6207  1.6274 -0.1846
 4359SOL     OW24712   1.277   2.649   7.330  0.1506 -0.8254 -0.1568
 4359SOL    HW124713   1.352   2.707   7.343  0.4651 -1.2356 -0.1342
 4359SOL    HW224714   1.264   2.667   7.237 -1.2946 -0.6641  0.0820
 4360SOL     OW24715   3.723   2.066   0.140  0.2566  0.0062 -0.3045
 4360SOL    HW124716   3.704   1.978   0.173 -1.7168  0.8361  0.8332
 4360SOL    HW224717   3.816   2.058   0.119  0.1421 -1.7253 -0.1602
 4361SOL     OW24718   1.142   1.405   4.036 -0.6406  0.3605  0.5815
 4361SOL    HW124719   1.139   1.400   3.940  0.2995 -1.6670  0.6733
 4361SOL    HW224720   1.051   1.385   4.058 -0.7523 -0.0146 -0.2196
 4362SOL     OW24721   0.608   0.066   5.237  0.0483 -0.4712  0.2083
 4362SOL    HW124722   0.657   0.104   5.310 -0.3923 -0.0667  0.2938
 4362SOL    HW224723   0.539   0.132   5.232  0.7224  0.1769 -0.4266
 4363SOL     OW24724   2.032   2.484   2.926 -0.3101  0.4322  0.1483
 4363SOL    HW124725   1.987   2.442   2.999 -0.0407  1.1600  0.7361
 4363SOL    HW224726   2.048   2.408   2.870 -2.4363 -1.0343  1.5305
 4364SOL     OW24727   3.597   3.581  14.217 -0.1407 -0.3867 -0.0263
 4364SOL    HW124728   3.673   3.553  14.166  1.2462 -0.0617  1.8632
 4364SOL    HW224729   3.601   3.542  14.304  0.0177  0.5363  0.3863
 4365SOL     OW24730   0.166   2.603   2.417  0.1473  0.2341  0.5835
 4365SOL    HW124731   0.074   2.579   2.414  0.8839 -2.4021 -0.5572
 4365SOL    HW224732   0.213   2.524   2.390  0.1691  0.3221  0.3671
 4366SOL     OW24733   1.339   4.496   7.096 -0.7745 -0.2406  0.3035
 4366SOL    HW124734   1.362   4.414   7.140  2.0543  0.5096  0.2106
 4366SOL    HW224735   1.245   4.489   7.116 -1.7267  0.0693 -4.0345
 4367SOL     OW24736   1.098   0.274   9.606 -0.2048  0.0849 -0.3546
 4367SOL    HW124737   1.088   0.337   9.678 -0.1754 -0.4350  0.1029
 4367SOL    HW224738   1.169   0.220   9.641  0.3790  1.7453  1.0077
 4368SOL     OW24739   0.378   2.542  13.842 -0.0583  0.1164 -0.2820
 4368SOL    HW124740   0.418   2.561  13.757  2.4005 -2.5052  0.2780
 4368SOL    HW224741   0.303   2.599  13.826  0.6537  1.7925  2.4328
 4369SOL     OW24742   4.184   4.641   8.511 -0.0332 -0.5054  0.1035
 4369SOL    HW124743   4.139   4.670   8.590  0.4301 -0.2221  0.2679
 4369SOL    HW224744   4.238   4.570   8.544  0.2443  0.9160  2.6762
 4370SOL     OW24745   1.994   1.455   9.081  0.1165 -0.3355  0.4334
 4370SOL    HW124746   1.957   1.446   8.994 -1.7541  1.5918  1.0494
 4370SOL    HW224747   1.976   1.549   9.084  1.3818 -0.0992  0.8992
 4371SOL     OW24748   3.397   0.500   2.277 -0.4637  0.2147 -0.1343
 4371SOL    HW124749   3.371   0.448   2.201  1.8819 -0.8220 -0.2233
 4371SOL    HW224750   3.452   0.444   2.331 -2.4884 -2.0352 -0.4165
 4372SOL     OW24751   3.056   1.645  14.972 -0.2989 -0.0233 -0.4947
 4372SOL    HW124752   3.149   1.625  14.962 -0.6245 -2.3792  1.3118
 4372SOL    HW224753   3.046   1.732  15.011  1.5818 -1.4332  3.1352
 4373SOL     OW24754   2.008   0.154   7.370 -0.1405  0.4927  0.0511
 4373SOL    HW124755   2.103   0.142   7.378  0.1834  2.4265 -1.0212
 4373SOL    HW224756   2.013   0.234   7.318  1.1933 -0.4462 -1.2682
 4374SOL     OW24757   1.400   0.086   2.394  0.2111  0.1832 -0.4606
 4374SOL    HW124758   1.490   0.100   2.365 -0.4178  0.3972 -2.3474
 4374SOL    HW224759   1.369   0.030   2.322  1.3989 -1.0075 -0.0246
 4375SOL     OW24760   3.887   1.421   4.419  0.1960  0.0704 -0.5330
 4375SOL    HW124761   3.976   1.404   4.447 -0.8354  1.2003  3.4713
 4375SOL    HW224762   3.892   1.516   4.429  1.8137  0.1370 -1.9644
 4376SOL     OW24763   2.217   1.502   5.043  0.2666 -0.5282  0.7404
 4376SOL    HW124764   2.200   1.408   5.052 -1.2734 -0.2511  0.6189
 4376SOL    HW224765   2.200   1.504   4.949  0.4726  0.1234  0.7200
 4377SOL     OW24766   0.269   3.393  15.498 -0.0031 -0.5648  0.0222
 4377SOL    HW124767   0.202   3.327  15.515  0.7066 -0.9208  1.3906
 4377SOL    HW224768   0.227   3.469  15.537 -0.6647  0.2672 -2.2865
 4378SOL     OW24769   2.824   0.633   6.024  0.6624  0.0211 -0.0605
 4378SOL    HW124770   2.799   0.584   6.102  0.4769 -0.8953 -0.6973
 4378SOL    HW224771   2.886   0.572   5.982 -0.8962 -1.6490  0.0720
 4379SOL     OW24772   2.870   0.718   2.617 -0.2423  0.5554  0.4239
 4379SOL    HW124773   2.941   0.692   2.558  1.2106 -0.5033  2.6094
 4379SOL    HW224774   2.894   0.810   2.634  1.5444  0.0508  0.6380
 4380SOL     OW24775   1.396   1.999   8.680  0.0067 -0.3406  0.3118
 4380SOL    HW124776   1.301   1.982   8.679 -0.1448  0.6882 -2.6295
 4380SOL    HW224777   1.401   2.074   8.739  0.2025 -0.9059  1.0123
 4381SOL     OW24778   0.062   2.939   4.878 -0.6243 -0.1858  0.9582
 4381SOL    HW124779   0.139   2.983   4.912 -0.9024  0.7138  0.4271
 4381SOL    HW224780   0.084   2.851   4.910  0.0057 -0.3434  0.1113
 4382SOL     OW24781   1.878   2.866   5.470 -0.2624  0.3787  0.1347
 4382SOL    HW124782   1.946   2.931   5.455  0.6820 -0.5990  0.1424
 4382SOL    HW224783   1.815   2.920   5.517 -1.3703 -2.0555  1.4907
 4383SOL     OW24784   2.651   0.499  14.555 -0.6187 -0.6533 -0.5319
 4383SOL    HW124785   2.589   0.571  14.542 -0.8639 -0.7706  0.0125
 4383SOL    HW224786   2.592   0.424  14.559  0.2564 -1.3205 -0.2028
 4384SOL     OW24787   3.960   0.454  15.158 -0.7260  0.2468 -0.0917
 4384SOL    HW124788   3.998   0.472  15.072  1.3854  2.2916  1.2504
 4384SOL    HW224789   3.952   0.359  15.165 -0.8473  0.2394 -0.3383
 4385SOL     OW24790   2.065   1.189   6.444  0.0987 -0.2867 -0.3041
 4385SOL    HW124791   2.069   1.240   6.525 -2.9387  0.5876 -0.7120
 4385SOL    HW224792   2.150   1.149   6.424 -0.4907 -0.9687 -1.4754
 4386SOL     OW24793   3.060   4.544   5.538  0.2939 -0.5169  0.1986
 4386SOL    HW124794   3.098   4.630   5.553 -0.7487  0.1219 -0.8010
 4386SOL    HW224795   2.994   4.546   5.606 -0.5416  1.9257 -0.6829
 4387SOL     OW24796   0.210   0.523   6.002 -0.0521  0.5965  0.0926
 4387SOL    HW124797   0.234   0.438   6.037 -0.7151  0.8362  1.1128
 4387SOL    HW224798   0.271   0.583   6.045  1.0025  0.1812 -0.8368
 4388SOL     OW24799   3.426   3.333   4.716 -0.0651 -0.1589 -0.7544
 4388SOL    HW124800   3.397   3.258   4.665 -0.2443 -0.7832  0.2630
 4388SOL    HW224801   3.517   3.304   4.726  0.4450  1.9388  0.6799
 4389SOL     OW24802   4.041   4.595   4.020  0.1166  0.1904 -0.3880
 4389SOL    HW124803   4.109   4.530   4.037  0.5824  1.2334  1.7203
 4389SOL    HW224804   3.972   4.561   4.076 -2.0024 -0.3457 -3.2836
 4390SOL     OW24805   1.998   3.865   6.568 -0.3108  0.2550 -0.1393
 4390SOL    HW124806   2.054   3.866   6.490  2.5763 -1.0840  1.9173
 4390SOL    HW224807   2.035   3.941   6.613 -0.6405  0.4595 -0.2184
 4391SOL     OW24808   4.731   3.822   6.409 -0.0023  0.5654  0.6645
 4391SOL    HW124809   4.670   3.754   6.438 -0.7280  0.6132 -0.7073
 4391SOL    HW224810   4.716   3.831   6.315  0.0057  0.0593  0.6183
 4392SOL     OW24811   3.544   1.901   9.269 -0.2621  0.1095 -0.2055
 4392SOL    HW124812   3.570   1.951   9.192 -0.7490 -1.5400 -1.4243
 4392SOL    HW224813   3.547   1.814   9.229  1.5889 -1.2303  2.8167
 4393SOL     OW24814   1.869   0.386   8.110  0.3029 -0.2021  0.1925
 4393SOL    HW124815   1.857   0.291   8.104  1.8283 -0.3765 -0.0965
 4393SOL    HW224816   1.904   0.398   8.022  0.8803  1.3092  0.6377
 4394SOL     OW24817   1.322   3.611   1.504 -0.2839  0.0758  0.0013
 4394SOL    HW124818   1.340   3.641   1.593 -3.9732 -0.6429  0.9937
 4394SOL    HW224819   1.355   3.679   1.446 -1.0387 -0.5908 -1.1928
 4395SOL     OW24820   4.049   4.493   1.526  0.1859 -0.0158  0.1946
 4395SOL    HW124821   4.123   4.452   1.483  1.0258 -0.5360  2.1538
 4395SOL    HW224822   4.087   4.577   1.553 -0.5666  0.8870 -1.5461
 4396SOL     OW24823   3.273   3.095   2.206 -0.2930  0.5306 -0.2042
 4396SOL    HW124824   3.290   3.017   2.154 -0.4840  0.4746 -0.1822
 4396SOL    HW224825   3.178   3.100   2.194  0.0321 -0.1729 -3.0688
 4397SOL     OW24826   0.155   4.532   1.356 -0.5687  0.4185 -0.1352
 4397SOL    HW124827   0.063   4.556   1.351 -1.0793 -1.8433 -1.5580
 4397SOL    HW224828   0.165   4.557   1.448  2.7963  1.8118 -0.8719
 4398SOL     OW24829   3.786   0.571   3.162  0.3117 -0.4745  0.3338
 4398SOL    HW124830   3.880   0.560   3.170  0.1724 -2.4443 -0.7821
 4398SOL    HW224831   3.769   0.559   3.255 -2.0435 -1.0915 -0.1747
 4399SOL     OW24832   1.690   1.371   8.943  0.5528 -0.1622 -0.2034
 4399SOL    HW124833   1.756   1.413   8.888  0.0887 -0.7913 -1.2255
 4399SOL    HW224834   1.616   1.403   8.892  0.4122  0.0311  0.1213
 4400SOL     OW24835   1.003   3.417   9.942  0.0411  0.7410  0.4423
 4400SOL    HW124836   0.973   3.494   9.893  0.6823  0.8381  0.1984
 4400SOL    HW224837   0.989   3.450  10.031 -0.0118 -0.6161  0.9295
 4401SOL     OW24838   3.936   4.633   7.779 -0.6292 -0.0408 -0.3670
 4401SOL    HW124839   4.027   4.662   7.771 -0.6496  0.0667 -0.2023
 4401SOL    HW224840   3.916   4.616   7.687  1.6650 -4.6692 -0.0412
 4402SOL     OW24841   2.604   3.697  14.913  0.4753  0.2261 -0.4020
 4402SOL    HW124842   2.520   3.686  14.869  0.9369  0.6762 -1.4080
 4402SOL    HW224843   2.591   3.620  14.968  2.8408  1.4306  1.8772
 4403SOL     OW24844   3.774   1.173   8.656 -0.2341 -0.0026  0.0635
 4403SOL    HW124845   3.841   1.118   8.696 -1.0149 -0.7574  0.3526
 4403SOL    HW224846   3.789   1.259   8.694 -1.2146 -0.1524  0.7963
 4404SOL     OW24847   2.661   4.395   8.859  0.7111  0.2009  0.2389
 4404SOL    HW124848   2.754   4.383   8.879  0.5703  1.0450  1.3986
 4404SOL    HW224849   2.658   4.481   8.817  1.3303  1.0407  1.8838
 4405SOL     OW24850   4.256   0.046   8.966  0.6384  0.1302  0.0786
 4405SOL    HW124851   4.347   0.027   8.945  1.1274  1.7943  0.7074
 4405SOL    HW224852   4.214   0.094   8.895 -1.4451 -0.5593  0.8436
 4406SOL     OW24853   2.376   2.593  10.195 -0.1442  0.1033  0.7090
 4406SOL    HW124854   2.325   2.649  10.136  2.2164  1.5996  0.1206
 4406SOL    HW224855   2.339   2.507  10.174  0.9943 -0.5552  1.4102
 4407SOL     OW24856   4.705   2.381   3.515  0.2254  0.0342 -0.2726
 4407SOL    HW124857   0.036   2.442   3.540 -1.0089 -0.2696  3.7934
 4407SOL    HW224858   4.663   2.442   3.454  0.9064  0.7441 -0.0355
 4408SOL     OW24859   3.102   0.680   9.086  0.4442 -0.0673  0.5243
 4408SOL    HW124860   3.081   0.661   8.994 -0.6621  2.5593  0.2344
 4408SOL    HW224861   3.107   0.775   9.092 -0.2536  0.1411 -1.9524
 4409SOL     OW24862   0.392   4.682  14.005 -0.3590 -0.6454  0.1978
 4409SOL    HW124863   0.481   4.692  13.973 -0.0791  0.8070  1.4563
 4409SOL    HW224864   0.400   4.672  14.100  2.0026 -1.0264 -0.0360
 4410SOL     OW24865   0.210   1.425  11.495  0.1533  1.0001 -0.5935
 4410SOL    HW124866   0.174   1.367  11.428 -0.0543 -2.0358  2.1191
 4410SOL    HW224867   0.189   1.358  11.561  1.2239 -0.6322 -1.9115
 4411SOL     OW24868   3.748   1.905   7.267 -0.3123  0.2025 -0.4800
 4411SOL    HW124869   3.743   1.950   7.183  0.6526  2.2570  0.5505
 4411SOL    HW224870   3.827   1.853   7.253 -0.9484  0.0634 -3.4450
 4412SOL     OW24871   1.275   4.102  13.040  0.2406  0.2596 -0.2915
 4412SOL    HW124872   1.213   4.134  12.975  0.3143 -0.6564 -0.8078
 4412SOL    HW224873   1.312   4.181  13.078 -0.0163 -0.4632  1.4796
 4413SOL     OW24874   3.558   1.880   5.309  0.4187 -0.0203 -0.3555
 4413SOL    HW124875   3.467   1.899   5.285  0.6007  0.9882 -0.2430
 4413SOL    HW224876   3.543   1.808   5.370 -0.4960  0.4918  0.0338
 4414SOL     OW24877   3.119   3.808  12.681 -0.2225  0.2224 -0.1443
 4414SOL    HW124878   3.195   3.791  12.738  0.1446  2.1521 -0.0524
 4414SOL    HW224879   3.126   3.903  12.669 -2.4346  0.2386 -1.3024
 4415SOL     OW24880   0.340   2.890   2.585 -0.7605  0.4517 -0.1454
 4415SOL    HW124881   0.290   2.861   2.509  0.8229  1.5819 -1.6366
 4415SOL    HW224882   0.315   2.828   2.653  0.0262 -2.0408 -2.1309
 4416SOL     OW24883   2.761   0.013   5.218  0.0873 -0.2042 -0.1669
 4416SOL    HW124884   2.792   0.069   5.289 -0.5100 -2.0216  1.5488
 4416SOL    HW224885   2.762   0.080   5.150 -2.4656 -0.4980 -0.5242
 4417SOL     OW24886   2.859   2.225  10.823 -0.0648  0.2643 -0.0408
 4417SOL    HW124887   2.800   2.275  10.767 -0.5478  1.5255  1.6043
 4417SOL    HW224888   2.843   2.262  10.910  1.8235  0.3636  0.2740
 4418SOL     OW24889   0.089   1.718  11.381  0.5902 -1.0385  0.0140
 4418SOL    HW124890   0.032   1.765  11.321  2.1925 -2.6387 -2.7489
 4418SOL    HW224891   0.124   1.662  11.312  0.9931 -2.7327  1.6048
 4419SOL     OW24892   1.511   0.113   8.526  0.2888 -1.3032  0.1664
 4419SOL    HW124893   1.464   0.091   8.445  0.5390 -1.0010 -0.0611
 4419SOL    HW224894   1.594   0.072   8.503  0.8206 -0.4523  0.5682
 4420SOL     OW24895   4.506   4.107  17.735 -0.2523 -0.0078 -0.4156
 4420SOL    HW124896   4.594   4.111  17.698 -0.3731 -0.7600 -0.7638
 4420SOL    HW224897   4.499   4.197   0.019 -1.7475 -0.1693 -0.3172
 4421SOL     OW24898   3.867   0.392   0.380  0.5220  0.3715  0.0468
 4421SOL    HW124899   3.822   0.428   0.457 -0.8074 -2.4722  0.5952
 4421SOL    HW224900   3.802   0.422   0.316  0.6631 -0.3661 -0.4373
 4422SOL     OW24901   4.688   1.291  11.281 -0.3703 -0.6351 -0.6254
 4422SOL    HW124902   4.642   1.266  11.361 -0.9702  1.2432 -0.3837
 4422SOL    HW224903   4.733   1.209  11.261 -1.0415 -0.9027 -1.0175
 4423SOL     OW24904   0.054   0.715   8.125  0.4040  0.1078  0.4517
 4423SOL    HW124905   0.122   0.649   8.121  0.5496  0.1616  2.1722
 4423SOL    HW224906   0.106   0.794   8.112 -0.9928  0.9286 -0.2605
 4424SOL     OW24907   4.679   0.676   9.310 -0.4833  0.1275 -0.7241
 4424SOL    HW124908   4.685   0.671   9.405 -1.3929 -0.9780 -0.7215
 4424SOL    HW224909   4.663   0.767   9.286 -2.3498 -0.9125 -3.4843
 4425SOL     OW24910   4.686   2.786   1.741 -0.1667 -0.4277 -0.7259
 4425SOL    HW124911   4.705   2.832   1.823 -1.2949  1.0969 -1.3240
 4425SOL    HW224912   4.723   2.700   1.763  0.6412 -0.2180 -1.2635
 4426SOL     OW24913   0.522   1.466   7.654 -0.0956  0.0682  0.0305
 4426SOL    HW124914   0.609   1.447   7.689 -0.0157  0.3397 -0.0169
 4426SOL    HW224915   0.530   1.562   7.655 -3.8654  0.3547  1.4543
 4427SOL     OW24916   0.706   2.382  15.265 -0.0624 -0.6880  0.3918
 4427SOL    HW124917   0.738   2.298  15.295  0.2721 -0.7452 -0.1144
 4427SOL    HW224918   0.668   2.420  15.344  2.3687  0.4065  1.0377
 4428SOL     OW24919   1.673   1.453   0.123 -0.5631  0.2124 -0.3011
 4428SOL    HW124920   1.744   1.446   0.187 -2.5648 -0.6538  1.7937
 4428SOL    HW224921   1.639   1.365   0.138  0.1812  0.0788  0.6023
 4429SOL     OW24922   1.555   3.465   9.011 -0.0182 -0.1024 -0.8550
 4429SOL    HW124923   1.470   3.431   8.981  0.2884 -1.2043 -0.5001
 4429SOL    HW224924   1.600   3.484   8.928 -2.0612 -2.2826 -2.4613
 4430SOL     OW24925   0.470   3.705   8.392 -0.1187 -0.1104  0.2351
 4430SOL    HW124926   0.532   3.649   8.345 -1.4508 -1.5717  0.2268
 4430SOL    HW224927   0.393   3.672   8.346 -0.3093 -0.1951  0.6178
 4431SOL     OW24928   4.443   4.638   7.926 -0.4166 -0.2443 -0.0369
 4431SOL    HW124929   4.517   4.588   7.892 -0.5789 -0.6123  0.1543
 4431SOL    HW224930   4.472   4.643   8.018  0.5312 -3.0891 -0.2014
 4432SOL     OW24931   4.581   2.305   3.238  0.1402 -1.1687  0.3459
 4432SOL    HW124932   4.674   2.283   3.237  0.5976  0.7867 -0.3138
 4432SOL    HW224933   4.562   2.328   3.329  0.2766  0.8240 -0.1311
 4433SOL     OW24934   4.130   2.079   5.362 -0.2620 -0.4255 -0.2576
 4433SOL    HW124935   4.076   2.158   5.359  0.9975  0.3165 -3.7069
 4433SOL    HW224936   4.127   2.049   5.452  0.1968 -0.4237 -0.2410
 4434SOL     OW24937   0.788   4.588   9.334 -0.1960 -0.0291 -0.1496
 4434SOL    HW124938   0.721   4.628   9.278  0.6183  1.3865 -0.1191
 4434SOL    HW224939   0.854   4.656   9.350  0.3150 -1.0391  1.9768
 4435SOL     OW24940   1.450   2.702   5.363 -0.0389 -0.2934  0.2344
 4435SOL    HW124941   1.497   2.731   5.285 -0.9800 -0.6608 -0.4755
 4435SOL    HW224942   1.423   2.612   5.347  1.1811 -0.5252 -0.5230
 4436SOL     OW24943   4.414   3.394   8.635  0.0218  0.1704  0.0151
 4436SOL    HW124944   4.344   3.446   8.675 -0.5386 -0.1341 -0.5714
 4436SOL    HW224945   4.441   3.455   8.567  1.3686  0.2343  0.6089
 4437SOL     OW24946   1.675   3.225   6.971  0.0394  0.0992  0.4121
 4437SOL    HW124947   1.628   3.166   7.030  0.4720 -0.4697  0.1892
 4437SOL    HW224948   1.619   3.239   6.895  1.5279  1.2386 -0.4670
 4438SOL     OW24949   2.517   2.558   2.528 -0.2175 -0.2708  0.3191
 4438SOL    HW124950   2.501   2.652   2.525  1.1029 -0.0038  1.7662
 4438SOL    HW224951   2.544   2.530   2.441 -0.6264 -1.5094  0.5850
 4439SOL     OW24952   0.515   4.237   0.395  0.0895 -0.3921  0.2407
 4439SOL    HW124953   0.508   4.190   0.478 -0.8284 -1.7219 -0.6069
 4439SOL    HW224954   0.497   4.326   0.425  0.7558 -0.1976  0.0818
 4440SOL     OW24955   1.151   1.862   2.101 -0.3024  0.1899  0.1672
 4440SOL    HW124956   1.160   1.933   2.165 -1.3789 -0.5984  1.1990
 4440SOL    HW224957   1.242   1.835   2.088 -0.9833 -0.8149 -2.3414
 4441SOL     OW24958   4.661   1.523   2.367 -0.0359 -0.4588  0.3286
 4441SOL    HW124959   4.666   1.616   2.387  2.7572 -0.4917 -0.2802
 4441SOL    HW224960   4.568   1.523   2.341  0.5442  2.1626 -1.7372
 4442SOL     OW24961   4.592   1.001  13.363  0.0487 -0.3044  0.2890
 4442SOL    HW124962   4.525   1.062  13.395  1.7897  1.8194 -0.1454
 4442SOL    HW224963   4.623   1.056  13.291 -3.5117  1.1995 -0.0920
 4443SOL     OW24964   2.420   3.011  10.000 -0.4477 -0.1497  0.0647
 4443SOL    HW124965   2.398   3.104  10.008 -3.5435 -0.7815 -1.0642
 4443SOL    HW224966   2.385   2.984   9.915 -0.2938  3.2265 -1.0616
 4444SOL     OW24967   3.104   3.413  16.690  0.5484 -0.3052  0.2435
 4444SOL    HW124968   3.010   3.398  16.685  0.7892 -0.6789 -2.7469
 4444SOL    HW224969   3.134   3.373  16.608  1.6274  0.9244  0.0321
 4445SOL     OW24970   1.941   2.878   5.943 -0.4175  0.1336  0.0065
 4445SOL    HW124971   1.876   2.899   6.010 -0.6076  1.5527 -0.5975
 4445SOL    HW224972   2.007   2.827   5.990 -0.4248  0.6311  0.5599
 4446SOL     OW24973   0.717   3.022   2.547 -0.0746  0.3728 -0.1097
 4446SOL    HW124974   0.794   3.010   2.602 -1.0291 -2.0753  0.7095
 4446SOL    HW224975   0.659   3.011   2.623  1.3294 -2.2940  0.5796
 4447SOL     OW24976   3.930   0.177   1.142 -0.3219 -0.7411 -0.9219
 4447SOL    HW124977   3.949   0.101   1.087  0.3072 -0.7012 -0.7568
 4447SOL    HW224978   3.956   0.152   1.231 -0.4943 -1.8857 -1.1888
 4448SOL     OW24979   2.626   2.598   4.713  0.1696  0.2441  0.3637
 4448SOL    HW124980   2.540   2.576   4.749  0.0267  0.6054  0.2421
 4448SOL    HW224981   2.676   2.569   4.790  0.1157  3.0463  1.4418
 4449SOL     OW24982   3.981   0.046  11.585 -0.1293  0.0368  0.0133
 4449SOL    HW124983   3.953   0.127  11.542 -2.7361 -0.9585 -0.1405
 4449SOL    HW224984   3.988   0.076  11.676  0.1235 -0.4260  0.1485
 4450SOL     OW24985   3.012   0.381   2.903 -0.0365  0.3631  0.1647
 4450SOL    HW124986   2.973   0.319   2.841  1.2896 -1.6242  1.3043
 4450SOL    HW224987   3.046   0.448   2.843  2.8893 -0.6634  0.6479
 4451SOL     OW24988   1.471   4.559   7.436  0.2295  0.9948  0.0853
 4451SOL    HW124989   1.495   4.628   7.498 -1.8636  0.7941  1.1325
 4451SOL    HW224990   1.554   4.547   7.390  0.0084  1.0859 -0.3344
 4452SOL     OW24991   2.535   3.878   5.241 -0.2368  0.0632  0.7316
 4452SOL    HW124992   2.598   3.944   5.212  2.2375 -2.0755  1.2307
 4452SOL    HW224993   2.568   3.864   5.330 -1.0072 -0.8066  0.8748
 4453SOL     OW24994   3.806   4.139   5.481 -0.1245 -0.0457  0.0770
 4453SOL    HW124995   3.737   4.202   5.458  0.1970 -0.1877 -1.2817
 4453SOL    HW224996   3.773   4.053   5.455  0.1283 -0.1714  0.1714
 4454SOL     OW24997   2.113   2.077  16.912 -0.0206  0.1594 -0.1105
 4454SOL    HW124998   2.083   2.101  16.825  2.6302  1.6580 -0.6211
 4454SOL    HW224999   2.102   2.161  16.957  2.1671  0.0129  0.7052
 4455SOL     OW25000   1.086   0.127   1.770  0.6537  0.5174 -1.1175
 4455SOL    HW125001   0.999   0.167   1.774  1.0378  1.5014 -2.6564
 4455SOL    HW225002   1.068   0.039   1.738 -2.8865  0.2386  1.6354
 4456SOL     OW25003   4.394   2.791   2.515 -0.0465  0.1792 -0.2726
 4456SOL    HW125004   4.391   2.772   2.421 -0.3382  1.2260 -0.4782
 4456SOL    HW225005   4.467   2.745   2.557  0.4401  0.1337 -1.1770
 4457SOL     OW25006   4.669   3.238   3.479 -0.0796 -0.2293  0.0003
 4457SOL    HW125007   4.718   3.206   3.403  2.1114  1.0425  0.8958
 4457SOL    HW225008   4.609   3.298   3.434 -1.9855 -1.3231  1.0875
 4458SOL     OW25009   3.924   2.389   7.864  0.1196 -0.0787 -0.1570
 4458SOL    HW125010   4.012   2.419   7.887  0.3934 -0.2049 -1.0251
 4458SOL    HW225011   3.944   2.339   7.785 -1.7449  1.5512 -1.6589
 4459SOL     OW25012   3.776   4.643   3.095  0.0808 -0.5356  0.4997
 4459SOL    HW125013   3.852   4.620   3.148  0.8032  0.6845  0.0006
 4459SOL    HW225014   3.806   4.726   3.058 -0.5122 -0.3558  0.4175
 4460SOL     OW25015   1.484   1.510   4.906 -0.1601  0.1484 -0.2679
 4460SOL    HW125016   1.482   1.428   4.956 -0.8303 -0.4696 -1.3120
 4460SOL    HW225017   1.413   1.498   4.842 -1.2691  0.1007  0.9772
 4461SOL     OW25018   2.757   3.081   6.203 -0.4593 -0.2487  0.2420
 4461SOL    HW125019   2.721   3.126   6.126 -1.4724 -2.1523 -0.3947
 4461SOL    HW225020   2.677   3.033   6.224  0.4128 -1.0150  1.7147
 4462SOL     OW25021   3.365   1.959   6.875  0.1569 -0.2211  0.3879
 4462SOL    HW125022   3.436   1.895   6.864 -0.0264 -0.5233  1.0026
 4462SOL    HW225023   3.295   1.894   6.872  0.6947 -0.7012 -2.5203
 4463SOL     OW25024   2.241   0.466   5.790  0.0494 -0.0384 -0.3571
 4463SOL    HW125025   2.218   0.559   5.793 -2.5704 -0.6862  0.2810
 4463SOL    HW225026   2.164   0.429   5.746 -0.0313 -2.4593  1.8137
 4464SOL     OW25027   0.224   3.451   7.888  0.0338  0.7181 -0.6675
 4464SOL    HW125028   0.179   3.423   7.809 -1.5901 -1.3207  0.9814
 4464SOL    HW225029   0.195   3.388   7.954  2.2389 -0.0625 -0.4480
 4465SOL     OW25030   4.266   3.156   9.166 -0.0109 -0.4854 -0.3875
 4465SOL    HW125031   4.332   3.212   9.206  2.2195 -2.4889 -1.3121
 4465SOL    HW225032   4.284   3.173   9.073  0.5557 -0.0665 -0.1968
 4466SOL     OW25033   1.298   1.791   2.887  0.2515 -0.1478 -0.5400
 4466SOL    HW125034   1.222   1.790   2.828 -0.1019 -0.9753 -0.0587
 4466SOL    HW225035   1.321   1.884   2.877 -1.8219  0.5415  1.1463
 4467SOL     OW25036   4.636   2.100   0.721  0.0955 -0.5282  0.0889
 4467SOL    HW125037   4.544   2.123   0.711  0.2498  0.7790  1.6409
 4467SOL    HW225038   4.678   2.186   0.718  0.2484 -0.5564  1.1692
 4468SOL     OW25039   3.293   0.567   7.170 -0.3811  0.3857  0.4981
 4468SOL    HW125040   3.382   0.557   7.135 -1.2827  0.2029 -1.7100
 4468SOL    HW225041   3.301   0.527   7.257 -3.8233 -1.0051  0.1449
 4469SOL     OW25042   1.867   1.000   4.596  0.1386 -0.1158 -0.2045
 4469SOL    HW125043   1.940   0.940   4.589  0.2787 -0.1789  1.8079
 4469SOL    HW225044   1.789   0.949   4.620 -0.5127 -0.2437 -2.6807
 4470SOL     OW25045   0.902   0.176   3.155 -0.2289  0.1030 -0.2413
 4470SOL    HW125046   0.807   0.185   3.160 -0.0403  2.9670 -1.4329
 4470SOL    HW225047   0.925   0.156   3.246  0.2292 -3.7190 -1.2079
 4471SOL     OW25048   3.730   2.116   6.262 -0.1947  0.1361  0.3312
 4471SOL    HW125049   3.749   2.138   6.171 -0.2447  1.3822  0.6166
 4471SOL    HW225050   3.640   2.148   6.275 -0.3657  0.3473 -1.4807
 4472SOL     OW25051   2.895   4.526   5.754 -0.0264  0.3486  0.6589
 4472SOL    HW125052   2.804   4.508   5.728  0.8045  0.3259 -2.2504
 4472SOL    HW225053   2.898   4.473   5.833  0.2885  0.1411  0.5058
 4473SOL     OW25054   2.292   3.153   2.822  0.0392  0.0287  0.0354
 4473SOL    HW125055   2.335   3.237   2.808  1.5648 -0.5695  1.2194
 4473SOL    HW225056   2.224   3.165   2.756  0.1302  1.6285  0.2330
 4474SOL     OW25057   3.015   3.660   5.721 -0.0285  0.4792  0.2406
 4474SOL    HW125058   3.089   3.710   5.686  0.3131 -1.4208 -1.7227
 4474SOL    HW225059   2.962   3.727   5.765 -0.4398  0.4071 -0.1454
 4475SOL     OW25060   4.116   3.944   6.319  0.1137 -0.1169 -0.0376
 4475SOL    HW125061   4.135   3.917   6.229  2.6002 -0.4799  0.5916
 4475SOL    HW225062   4.202   3.964   6.356 -0.3430 -0.3385  1.1578
 4476SOL     OW25063   0.364   3.561   3.566  0.5209 -0.5728 -0.2026
 4476SOL    HW125064   0.452   3.526   3.580  1.1013  0.6596 -0.8002
 4476SOL    HW225065   0.342   3.517   3.484 -0.7263  0.3540 -0.3586
 4477SOL     OW25066   2.516   2.849  16.699 -0.6790 -0.5819 -0.3984
 4477SOL    HW125067   2.596   2.901  16.700 -1.4953  0.6892 -0.9050
 4477SOL    HW225068   2.537   2.761  16.668  1.0563  0.1858 -1.4042
 4478SOL     OW25069   1.847   1.690   8.709  0.2583  0.3472  0.5507
 4478SOL    HW125070   1.891   1.774   8.698 -0.0327  0.3613 -0.4915
 4478SOL    HW225071   1.764   1.725   8.743 -0.0605  0.7189 -0.6089
 4479SOL     OW25072   4.380   0.520   9.492 -0.6791 -0.1889  0.5441
 4479SOL    HW125073   4.471   0.494   9.476 -0.1701  1.3268  0.9171
 4479SOL    HW225074   4.357   0.485   9.577  1.2618 -1.1936  0.6555
 4480SOL     OW25075   3.324   0.796   8.822  0.3970  0.1096  0.0028
 4480SOL    HW125076   3.337   0.732   8.892  1.1913 -2.1631 -2.2582
 4480SOL    HW225077   3.246   0.840   8.856  0.3158 -1.3815  1.7620
 4481SOL     OW25078   1.854   4.186   4.400 -0.3690  0.5012 -0.5578
 4481SOL    HW125079   1.942   4.153   4.379 -0.6582 -0.4079 -0.3467
 4481SOL    HW225080   1.824   4.129   4.470 -0.1983 -0.0945 -0.9644
 4482SOL     OW25081   4.735   0.694   3.726 -0.1369  0.3743 -0.5499
 4482SOL    HW125082   0.065   0.746   3.684  0.1860  1.6156  1.5224
 4482SOL    HW225083   4.663   0.728   3.672 -0.4346  0.4090 -0.1342
 4483SOL     OW25084   4.559   4.679   1.923 -0.0493  0.6256  0.2426
 4483SOL    HW125085   4.606   4.695   2.004 -0.7753 -0.4542  0.8739
 4483SOL    HW225086   4.585   0.023   1.879 -1.8577  0.7838 -0.5198
 4484SOL     OW25087   3.542   1.629   2.940  0.3777  0.0327  0.4139
 4484SOL    HW125088   3.607   1.633   3.010 -0.3949  0.1322  1.1292
 4484SOL    HW225089   3.536   1.535   2.925  0.6991  0.0411  0.2247
 4485SOL     OW25090   1.266   1.642   1.828 -0.2424  0.0549  0.1952
 4485SOL    HW125091   1.327   1.583   1.873 -0.6763 -1.9018 -1.7711
 4485SOL    HW225092   1.332   1.707   1.803  1.9748 -1.4056  2.2834
 4486SOL     OW25093   0.591   2.898   5.816 -0.1588  0.0184  0.8678
 4486SOL    HW125094   0.662   2.841   5.786  0.6262  1.5255 -0.1545
 4486SOL    HW225095   0.582   2.864   5.904 -4.1886 -1.1222  0.0349
 4487SOL     OW25096   4.730   0.316  14.495  0.1713 -0.7696 -0.1013
 4487SOL    HW125097   4.673   0.243  14.473 -0.6934 -0.3393  0.6777
 4487SOL    HW225098   4.668   0.370  14.545 -1.2746 -1.2969 -1.3285
 4488SOL     OW25099   1.792   3.887   6.793 -0.0105 -0.2597 -0.0779
 4488SOL    HW125100   1.878   3.888   6.752  0.5910  0.6622  1.1900
 4488SOL    HW225101   1.753   3.810   6.752 -1.4533  1.7088 -2.4356
 4489SOL     OW25102   2.822   4.693  12.362  0.1998 -0.3880 -0.0110
 4489SOL    HW125103   2.825   4.605  12.323 -3.4160 -0.4184 -0.2552
 4489SOL    HW225104   2.846   4.670  12.451  0.1078  1.0451  0.3837
 4490SOL     OW25105   1.061   3.407   1.874  0.0408 -0.4173 -1.0972
 4490SOL    HW125106   1.066   3.403   1.970 -0.4210 -1.3971 -1.1152
 4490SOL    HW225107   0.976   3.450   1.864  1.2882  2.7987  2.0724
 4491SOL     OW25108   4.401   0.002   2.188  0.0145 -0.0466  0.2982
 4491SOL    HW125109   4.495   4.728   2.170 -0.0144  3.0057 -1.7591
 4491SOL    HW225110   4.400   0.090   2.227  1.0318  0.8134 -1.5918
 4492SOL     OW25111   3.295   1.950   5.283  0.2198 -0.5451  0.1507
 4492SOL    HW125112   3.225   1.932   5.219  1.1816  0.6617 -1.2350
 4492SOL    HW225113   3.273   2.036   5.317 -0.5191 -1.2984  1.5817
 4493SOL     OW25114   4.198   0.140   3.866  0.6686  0.1321 -0.0261
 4493SOL    HW125115   4.226   0.053   3.893 -3.0432 -1.1293 -0.3094
 4493SOL    HW225116   4.280   0.173   3.829  0.8595 -1.0339 -0.6366
 4494SOL     OW25117   4.405   0.938   5.508 -0.4308 -0.1291 -0.1068
 4494SOL    HW125118   4.334   0.874   5.504 -0.0677 -0.4714 -1.0900
 4494SOL    HW225119   4.475   0.896   5.559 -0.1540 -2.4383 -2.3788
 4495SOL     OW25120   2.061   4.274   9.056  0.0202  0.5521 -0.8404
 4495SOL    HW125121   2.023   4.328   9.125 -1.1988 -0.8723 -0.3786
 4495SOL    HW225122   2.025   4.192   9.090 -1.7500  1.4042 -0.6430
 4496SOL     OW25123   1.005   0.202  11.408 -0.8795  0.8780 -0.5314
 4496SOL    HW125124   0.910   0.214  11.409 -1.1311 -1.0226 -2.2098
 4496SOL    HW225125   1.028   0.289  11.375  0.2879  0.8786  0.2618
 4497SOL     OW25126   4.403   0.682   8.066  0.0062  0.2349  0.1231
 4497SOL    HW125127   4.400   0.622   8.140 -0.1621  1.1483  0.8507
 4497SOL    HW225128   4.430   0.756   8.120  0.4297  0.3079 -0.1864
 4498SOL     OW25129   3.519   3.343   7.271  0.2045 -0.2202  0.3182
 4498SOL    HW125130   3.486   3.270   7.219 -1.3637 -0.2360  1.3219
 4498SOL    HW225131   3.596   3.300   7.309 -0.4309 -0.8172  0.9330
 4499SOL     OW25132   1.009   1.716   8.596 -0.2897  0.1406 -0.4915
 4499SOL    HW125133   1.065   1.757   8.530  1.4615 -0.3177  0.7063
 4499SOL    HW225134   1.039   1.625   8.597 -0.3732  0.1415  2.5804
 4500SOL     OW25135   1.797   4.325   5.753 -0.4959  0.3607  0.4117
 4500SOL    HW125136   1.720   4.311   5.807 -0.9066 -0.8888 -0.4841
 4500SOL    HW225137   1.766   4.332   5.662  0.7637 -1.0456 -0.1284
 4501SOL     OW25138   3.386   3.332  10.486 -0.2898 -0.0373 -0.0282
 4501SOL    HW125139   3.377   3.345  10.392 -1.7854  0.8301  0.2467
 4501SOL    HW225140   3.355   3.242  10.493 -2.5702  0.9143  2.2563
 4502SOL     OW25141   2.380   0.708  12.796  0.2864  0.0288  0.0173
 4502SOL    HW125142   2.415   0.736  12.712  0.1897  2.1503  0.7066
 4502SOL    HW225143   2.442   0.753  12.853  1.5439 -2.9861  1.0865
 4503SOL     OW25144   0.766   3.579   5.870  0.1765 -0.4549  0.4826
 4503SOL    HW125145   0.809   3.591   5.955 -0.5112  0.0608  0.7639
 4503SOL    HW225146   0.696   3.518   5.894 -0.9439  1.0946  1.2125
 4504SOL     OW25147   4.559   3.250  13.267 -0.1561  0.2616 -0.1172
 4504SOL    HW125148   4.627   3.183  13.281 -0.9184 -0.3508  0.7101
 4504SOL    HW225149   4.617   3.326  13.269 -0.7674  0.7121  0.4724
 4505SOL     OW25150   1.406   3.253   3.125  0.0953  0.3322 -0.3483
 4505SOL    HW125151   1.376   3.181   3.181  1.8253 -0.3988 -0.3361
 4505SOL    HW225152   1.493   3.267   3.165  0.0650 -0.1280 -0.1216
 4506SOL     OW25153   0.611   4.659   7.120  0.4301 -0.4365  0.2767
 4506SOL    HW125154   0.667   4.732   7.093 -2.0449  1.8865  1.4488
 4506SOL    HW225155   0.630   4.605   7.043  1.4553 -0.6785  0.7045
 4507SOL     OW25156   0.329   3.983   8.853 -0.0578 -0.2738 -0.5789
 4507SOL    HW125157   0.258   4.046   8.840  0.2677 -0.1142 -1.5604
 4507SOL    HW225158   0.319   3.924   8.778 -0.6038 -1.6951  0.6298
 4508SOL     OW25159   3.499   3.415   8.826 -0.6779 -0.4947  0.0775
 4508SOL    HW125160   3.494   3.396   8.920  1.0273  0.1084  0.2782
 4508SOL    HW225161   3.410   3.447   8.810 -0.2938  1.0669  1.0464
 4509SOL     OW25162   0.684   3.389   1.312  0.1919 -0.0689 -0.1128
 4509SOL    HW125163   0.644   3.476   1.319  0.8458  0.1767  0.5742
 4509SOL    HW225164   0.659   3.361   1.224  0.2639  0.7920 -0.4064
 4510SOL     OW25165   4.186   2.227   8.321 -0.2631 -0.2426  0.4300
 4510SOL    HW125166   4.200   2.293   8.389  1.9955  1.5444 -1.7920
 4510SOL    HW225167   4.272   2.230   8.279 -0.8927  0.3698 -0.7807
 4511SOL     OW25168   2.530   2.593   8.260  0.3937  0.6144  1.1150
 4511SOL    HW125169   2.623   2.573   8.259  0.0481 -0.9081 -2.1085
 4511SOL    HW225170   2.504   2.538   8.333  3.9092 -0.5996  1.4384
 4512SOL     OW25171   0.921   1.585   6.569 -0.0233 -0.1925 -0.4484
 4512SOL    HW125172   0.958   1.656   6.515  3.7199  1.2658  4.0007
 4512SOL    HW225173   0.898   1.644   6.641 -1.4644 -0.1475 -0.9581
 4513SOL     OW25174   2.912   3.246   6.363 -0.2518  0.4589  0.1168
 4513SOL    HW125175   2.868   3.186   6.303  1.7293 -0.4974 -0.3737
 4513SOL    HW225176   2.870   3.329   6.340  0.6664  0.6809 -0.7425
 4514SOL     OW25177   0.146   0.280   4.989  0.0669  0.1579 -0.1049
 4514SOL    HW125178   0.158   0.274   4.894  2.2815 -2.1877  0.3293
 4514SOL    HW225179   0.227   0.242   5.022 -0.8006 -0.3242  1.4566
 4515SOL     OW25180   0.870   1.949   5.952  0.0040 -0.3533 -0.0918
 4515SOL    HW125181   0.775   1.962   5.950  0.1304  0.6354  0.4082
 4515SOL    HW225182   0.883   2.010   6.025 -1.8601 -0.6886  0.5261
 4516SOL     OW25183   3.157   3.112   6.954  0.0099 -0.3219 -0.4803
 4516SOL    HW125184   3.079   3.158   6.922 -0.0185  0.3572  0.5562
 4516SOL    HW225185   3.163   3.060   6.874  0.3726  0.5374 -1.0131
 4517SOL     OW25186   1.178   2.313  12.170 -0.3743 -0.1051  0.1217
 4517SOL    HW125187   1.252   2.298  12.112 -1.7858 -1.2895 -1.3770
 4517SOL    HW225188   1.184   2.233  12.223 -0.1237 -1.2891 -1.7063
 4518SOL     OW25189   2.953   4.541  17.351  0.0549  0.1685 -0.2958
 4518SOL    HW125190   2.922   4.583  17.270 -3.4667 -0.3954  0.7856
 4518SOL    HW225191   2.991   4.617  17.395 -0.1443 -0.5540  1.1191
 4519SOL     OW25192   1.437   3.333   2.774  0.4265  0.3530  0.5793
 4519SOL    HW125193   1.407   3.244   2.755 -2.5271  1.7599 -1.3678
 4519SOL    HW225194   1.526   3.318   2.807  0.6792 -1.6964 -0.9919
 4520SOL     OW25195   3.720   2.096   5.784  0.3463  0.1413  0.1694
 4520SOL    HW125196   3.807   2.115   5.748  0.8425  0.2635  1.4264
 4520SOL    HW225197   3.683   2.026   5.730 -0.6558  1.5179 -0.9150
 4521SOL     OW25198   4.188   4.207  12.921 -0.3455  0.0693 -0.0018
 4521SOL    HW125199   4.270   4.173  12.957  0.7985  1.0742 -1.7102
 4521SOL    HW225200   4.129   4.139  12.954 -0.6663 -0.7969 -2.3470
 4522SOL     OW25201   4.141   3.654   3.963  0.0041  0.2878  0.1223
 4522SOL    HW125202   4.177   3.642   4.051 -1.6122  2.2954  1.0411
 4522SOL    HW225203   4.168   3.570   3.925  0.7809 -0.3122  1.9666
 4523SOL     OW25204   1.000   2.649   5.385 -0.7011  0.1243  0.0388
 4523SOL    HW125205   1.078   2.639   5.331 -0.8784 -1.5079  0.0792
 4523SOL    HW225206   0.987   2.573   5.442 -2.2872  0.6990  0.4460
 4524SOL     OW25207   1.801   3.054   3.913  0.4463 -0.4928  0.8636
 4524SOL    HW125208   1.885   3.053   3.867 -1.6829  0.6934 -3.0981
 4524SOL    HW225209   1.806   3.120   3.981 -1.8798  2.5997 -1.9794
 4525SOL     OW25210   4.128   4.085  17.708 -0.1751 -0.5913 -0.1491
 4525SOL    HW125211   4.160   4.103   0.048 -1.6434 -1.5797  0.5715
 4525SOL    HW225212   4.068   4.157  17.688  2.9213  1.5211 -2.0258
 4526SOL     OW25213   4.181   4.479   6.995  0.5880  0.1965 -0.3976
 4526SOL    HW125214   4.129   4.469   6.916 -1.5605 -1.0344  1.1815
 4526SOL    HW225215   4.151   4.566   7.023 -2.9556 -0.7568 -1.2606
 4527SOL     OW25216   0.074   0.500   7.547 -0.0462 -0.1672 -0.3592
 4527SOL    HW125217   0.019   0.439   7.498  0.5376  0.2269 -1.5052
 4527SOL    HW225218   0.119   0.442   7.608 -0.1601  2.1814  1.9993
 4528SOL     OW25219   4.566   0.560  11.972  0.2088 -0.0494 -0.4207
 4528SOL    HW125220   4.472   0.548  11.959 -0.1251 -0.3090  2.1584
 4528SOL    HW225221   4.584   0.546  12.065 -3.2774  1.2771  0.4466
 4529SOL     OW25222   4.147   1.848  11.503  0.1837  0.0094  0.2887
 4529SOL    HW125223   4.226   1.887  11.540  0.9077 -1.9509  0.7817
 4529SOL    HW225224   4.084   1.892  11.561  0.5666 -0.8820  1.3980
 4530SOL     OW25225   0.248   3.833   3.304  0.3162 -0.8748 -0.1762
 4530SOL    HW125226   0.228   3.765   3.239  1.0429 -0.6526 -0.6386
 4530SOL    HW225227   0.237   3.803   3.394  0.9853 -1.2671 -0.2230
 4531SOL     OW25228   2.884   1.229   8.465 -0.0338 -0.4640  0.3751
 4531SOL    HW125229   2.810   1.229   8.404 -0.2093  0.4671  0.5939
 4531SOL    HW225230   2.842   1.187   8.541  0.8523  0.0806  1.1498
 4532SOL     OW25231   2.180   0.765  12.269 -0.3862 -0.0483  0.4354
 4532SOL    HW125232   2.133   0.743  12.189  0.0320 -1.6381  0.6229
 4532SOL    HW225233   2.270   0.754  12.240 -0.6551 -1.2452  0.0540
 4533SOL     OW25234   3.949   0.990  12.458  0.5810 -0.4985  0.4294
 4533SOL    HW125235   3.923   0.937  12.533  0.1171 -2.0370 -0.8147
 4533SOL    HW225236   4.009   0.935  12.408  0.4227 -2.1613  2.0981
 4534SOL     OW25237   3.776   1.562   7.022 -0.8392  0.0032  0.1334
 4534SOL    HW125238   3.768   1.474   6.984 -1.4318 -0.1042  0.4961
 4534SOL    HW225239   3.866   1.589   7.006 -0.5549 -0.4339  1.0155
 4535SOL     OW25240   4.709   1.587   7.566 -0.1780 -0.1446 -0.1282
 4535SOL    HW125241   4.615   1.570   7.563 -0.7610  3.4175 -2.2590
 4535SOL    HW225242   4.714   1.662   7.506  0.8865 -0.4176 -0.3755
 4536SOL     OW25243   4.531   2.200   8.950  0.9302  0.4283 -0.5396
 4536SOL    HW125244   4.617   2.159   8.952  1.3360  1.4189  1.9353
 4536SOL    HW225245   4.522   2.254   9.029  1.5420 -0.9979  0.4885
 4537SOL     OW25246   3.169   2.912   2.523  0.5529 -0.0363 -0.1590
 4537SOL    HW125247   3.146   2.953   2.440 -1.9509 -1.6598 -0.2727
 4537SOL    HW225248   3.095   2.906   2.584 -1.2281  1.1854 -2.2038
 4538SOL     OW25249   0.332   4.636   0.809 -0.2225  0.0740  0.1024
 4538SOL    HW125250   0.360   4.710   0.756  0.4227  0.4246  0.9363
 4538SOL    HW225251   0.261   4.678   0.858 -0.1731  2.2524 -1.7008
 4539SOL     OW25252   0.666   1.801  10.099  0.1404  0.1919 -0.1192
 4539SOL    HW125253   0.726   1.728  10.087 -0.7180 -0.7939  1.5185
 4539SOL    HW225254   0.703   1.866  10.039 -1.3710  0.7430 -0.4645
 4540SOL     OW25255   2.469   4.531   4.699 -0.0526 -0.1353  0.2695
 4540SOL    HW125256   2.476   4.572   4.613 -0.4740  1.5024  1.0129
 4540SOL    HW225257   2.535   4.463   4.687 -2.3926 -2.2124 -0.8109
 4541SOL     OW25258   4.161   2.275   5.818 -0.4809 -0.6156 -0.5937
 4541SOL    HW125259   4.148   2.219   5.894 -0.6364 -0.3131 -0.3993
 4541SOL    HW225260   4.215   2.347   5.852 -1.3202 -0.4204  0.2921
 4542SOL     OW25261   2.018   3.446   5.732  0.4981  0.5325 -0.1750
 4542SOL    HW125262   2.000   3.497   5.653  1.9896  0.6628 -0.4292
 4542SOL    HW225263   2.051   3.522   5.781 -0.0337 -0.3314  1.5141
 4543SOL     OW25264   0.241   3.861  13.253  0.2271 -0.1754  0.0311
 4543SOL    HW125265   0.313   3.883  13.194  1.0090 -0.4014  0.8970
 4543SOL    HW225266   0.168   3.912  13.218  0.2549  0.3738  0.7818
 4544SOL     OW25267   1.195   2.391   6.824  0.0595 -0.8927  0.2177
 4544SOL    HW125268   1.280   2.423   6.855  0.1121  1.4084 -2.3267
 4544SOL    HW225269   1.144   2.469   6.844  1.2763  0.3653 -1.6585
 4545SOL     OW25270   2.597   1.541   4.168 -0.2192  0.2586 -0.0585
 4545SOL    HW125271   2.584   1.635   4.176 -1.0857  0.2945 -1.9873
 4545SOL    HW225272   2.567   1.520   4.079 -0.7456  0.3637  0.0986
 4546SOL     OW25273   2.686   2.820  16.188  0.1788  0.2404  0.1297
 4546SOL    HW125274   2.747   2.757  16.150  0.9628  1.2034 -0.2197
 4546SOL    HW225275   2.745   2.886  16.225  0.5062  0.4695 -0.8133
 4547SOL     OW25276   3.391   0.886   6.668  0.2939  0.3424  0.2851
 4547SOL    HW125277   3.387   0.889   6.764 -2.7810  1.1567  0.1233
 4547SOL    HW225278   3.296   0.880   6.653  0.1664  0.5868  0.9836
 4548SOL     OW25279   0.293   2.217   4.571 -0.3077 -0.2340  0.1552
 4548SOL    HW125280   0.276   2.285   4.506  1.3306 -1.1604 -1.2491
 4548SOL    HW225281   0.221   2.154   4.562 -0.0034 -0.6360  0.5194
 4549SOL     OW25282   0.682   2.416  14.535 -0.2206  0.4214  0.0076
 4549SOL    HW125283   0.589   2.402  14.550 -0.2102 -0.6825 -0.8847
 4549SOL    HW225284   0.718   2.400  14.622  0.3656  0.4496 -0.2253
 4550SOL     OW25285   3.297   4.175   7.452  0.5616 -0.1149  0.3912
 4550SOL    HW125286   3.265   4.123   7.378  0.6086 -0.5927  0.7133
 4550SOL    HW225287   3.320   4.257   7.407 -0.5609  0.4294  0.8012
 4551SOL     OW25288   2.353   0.236   2.148  0.5274 -0.2429  0.2266
 4551SOL    HW125289   2.403   0.155   2.138 -1.6044 -1.5402  0.1850
 4551SOL    HW225290   2.288   0.207   2.212 -0.9212  2.5210 -0.0017
 4552SOL     OW25291   0.113   3.703   7.782 -0.0225  0.2897 -0.2862
 4552SOL    HW125292   0.163   3.701   7.700  0.3879  1.9889 -0.0910
 4552SOL    HW225293   0.086   3.612   7.791 -1.3197  0.8714  1.7762
 4553SOL     OW25294   3.286   1.613   3.497  0.1208  0.0379 -0.9754
 4553SOL    HW125295   3.198   1.637   3.525  0.4497 -1.3697  1.2483
 4553SOL    HW225296   3.331   1.698   3.496 -1.9360  1.1311  0.0895
 4554SOL     OW25297   4.120   0.855  11.217 -0.3246  0.1800 -0.3442
 4554SOL    HW125298   4.128   0.949  11.234  0.3958  0.1935 -0.7604
 4554SOL    HW225299   4.145   0.821  11.303 -3.3032 -1.5086 -0.1383
 4555SOL     OW25300   1.653   3.276   4.686 -0.5812  0.0839 -0.7610
 4555SOL    HW125301   1.565   3.314   4.685 -0.7722 -0.3607 -0.5481
 4555SOL    HW225302   1.706   3.338   4.636  0.1674 -1.6978 -2.1445
 4556SOL     OW25303   4.390   1.225   3.303 -1.0238  0.1082 -0.0236
 4556SOL    HW125304   4.375   1.273   3.221  0.2969 -1.5131 -1.2128
 4556SOL    HW225305   4.309   1.246   3.351 -0.7778  2.0554 -0.4512
 4557SOL     OW25306   2.615   4.097   4.413  0.3180  0.0558 -0.5584
 4557SOL    HW125307   2.654   4.012   4.429 -0.9170 -0.7875 -1.9829
 4557SOL    HW225308   2.673   4.141   4.351 -0.0483  2.2570  0.6662
 4558SOL     OW25309   3.692   2.260   8.538  0.0158  0.9953 -0.3487
 4558SOL    HW125310   3.772   2.313   8.532  1.0848 -0.9118 -3.1674
 4558SOL    HW225311   3.680   2.241   8.631  2.9736 -2.1026 -0.5900
 4559SOL     OW25312   3.885   1.885  11.188 -0.5034  0.1869 -0.1062
 4559SOL    HW125313   3.943   1.888  11.112 -1.5182 -0.1744 -0.9057
 4559SOL    HW225314   3.938   1.948  11.237  0.1755 -0.8421  0.4856
 4560SOL     OW25315   4.652   4.653   4.079 -0.0012  0.0901  0.5889
 4560SOL    HW125316   4.733   4.632   4.126 -0.5409 -1.1007  0.9735
 4560SOL    HW225317   4.610   4.567   4.068  0.1401  0.2390 -1.0829
 4561SOL     OW25318   2.052   1.156   8.216  0.1459  0.5068  0.2738
 4561SOL    HW125319   2.066   1.070   8.257  0.9586  0.8518  0.7171
 4561SOL    HW225320   2.072   1.205   8.296  3.3028 -1.8590  0.9563
 4562SOL     OW25321   0.243   3.124  12.646 -0.2814  0.5686  0.1159
 4562SOL    HW125322   0.206   3.187  12.584 -1.5334 -0.9698 -0.6995
 4562SOL    HW225323   0.216   3.162  12.730  2.5191  2.2768  0.2514
 4563SOL     OW25324   4.436   4.431   1.721 -0.4228 -0.2787  0.2263
 4563SOL    HW125325   4.392   4.494   1.664 -1.0931 -0.1990  0.8215
 4563SOL    HW225326   4.494   4.491   1.767  1.1851  1.1068 -3.6550
 4564SOL     OW25327   4.198   2.132   6.098  0.2203 -0.1440  0.2989
 4564SOL    HW125328   4.230   2.207   6.148  0.2689  1.1486 -1.6381
 4564SOL    HW225329   4.257   2.062   6.126 -0.3692 -0.8029 -0.1116
 4565SOL     OW25330   0.171   2.530  13.376 -0.0267  0.1043 -0.3360
 4565SOL    HW125331   0.099   2.572  13.328 -0.8171  0.2755  1.0087
 4565SOL    HW225332   0.144   2.438  13.377  0.5910 -0.0469  1.3758
 4566SOL     OW25333   4.559   0.310   6.645 -0.4626  0.3739  0.2347
 4566SOL    HW125334   4.595   0.339   6.730 -2.0211  0.2189  0.9437
 4566SOL    HW225335   4.489   0.257   6.682  0.4606 -2.4825 -2.1136
 4567SOL     OW25336   3.334   3.725   4.422 -0.2214 -0.0974 -0.2041
 4567SOL    HW125337   3.296   3.660   4.482  0.4220 -0.8506 -0.6185
 4567SOL    HW225338   3.373   3.788   4.482 -0.4132 -1.2148  1.0982
 4568SOL     OW25339   1.797   0.694   7.298 -0.2401  0.0628  0.5797
 4568SOL    HW125340   1.868   0.710   7.360  1.8582 -0.0486 -1.7949
 4568SOL    HW225341   1.815   0.603   7.275 -1.0821 -0.3813  1.7086
 4569SOL     OW25342   4.614   2.681   2.915 -0.0619  0.3456 -0.4316
 4569SOL    HW125343   4.683   2.637   2.966 -0.5637  0.3967  0.2949
 4569SOL    HW225344   4.565   2.729   2.982 -0.2629 -0.3595 -0.0725
 4570SOL     OW25345   2.163   0.833   2.779 -0.0061 -0.4506 -0.3651
 4570SOL    HW125346   2.173   0.921   2.742  0.5336  0.2861  1.5234
 4570SOL    HW225347   2.236   0.792   2.733 -0.7834  0.4192 -2.4025
 4571SOL     OW25348   0.109   0.069  13.749 -0.7761  0.5517  0.0611
 4571SOL    HW125349   0.196   0.108  13.747  0.5648 -2.4695 -0.4876
 4571SOL    HW225350   0.111   4.731  13.808 -0.5145  0.5848  0.0950
 4572SOL     OW25351   4.505   4.673  16.325 -0.3236  0.5337 -0.0773
 4572SOL    HW125352   4.433   4.722  16.287  0.3607  1.3934 -0.2418
 4572SOL    HW225353   4.523   4.722  16.405  0.2932  2.1091 -1.1964
 4573SOL     OW25354   2.442   3.587  10.599 -0.5393  0.0688  0.1592
 4573SOL    HW125355   2.384   3.514  10.618  0.4939 -0.4732  1.2274
 4573SOL    HW225356   2.390   3.661  10.630  0.2302 -0.3217  2.3972
 4574SOL     OW25357   4.515   3.493   5.116  0.5150  0.6423  0.2028
 4574SOL    HW125358   4.482   3.583   5.111 -0.0180  0.3841 -1.0492
 4574SOL    HW225359   4.528   3.468   5.207  0.3651  1.2574  0.3869
 4575SOL     OW25360   0.547   4.185   8.354  0.1046  0.0256 -0.0075
 4575SOL    HW125361   0.530   4.122   8.424  1.8813  1.7727  1.9880
 4575SOL    HW225362   0.554   4.130   8.276 -0.1399 -0.0892  0.0508
 4576SOL     OW25363   2.613   3.358   3.639  0.2078 -0.2366  0.2491
 4576SOL    HW125364   2.590   3.365   3.732  1.4161 -1.0115  0.6189
 4576SOL    HW225365   2.555   3.286   3.615  0.2609  0.4873 -2.0253
 4577SOL     OW25366   2.414   3.940   8.874  0.1656  0.1378  0.1968
 4577SOL    HW125367   2.488   3.899   8.830  1.1633  1.7042  0.4157
 4577SOL    HW225368   2.363   3.945   8.792 -1.3865  1.1249  1.2145
 4578SOL     OW25369   2.314   3.508  11.531  0.0839  0.7763  0.4037
 4578SOL    HW125370   2.373   3.512  11.456 -1.7648 -0.1265 -1.0958
 4578SOL    HW225371   2.365   3.453  11.591 -0.9941  0.4369  1.0203
 4579SOL     OW25372   3.052   1.164   3.621  0.5483  0.2347 -0.2676
 4579SOL    HW125373   3.097   1.080   3.628 -0.2444  0.0695  2.7389
 4579SOL    HW225374   3.125   1.218   3.592 -0.4856  0.7411 -1.9110
 4580SOL     OW25375   2.317   1.087  12.969  0.0514  0.3592 -0.0259
 4580SOL    HW125376   2.269   1.009  12.997  0.5457  0.3910  0.9033
 4580SOL    HW225377   2.258   1.156  13.000  0.4012 -0.4871  2.5598
 4581SOL     OW25378   2.876   1.136   7.785  0.5583 -0.7564 -0.2429
 4581SOL    HW125379   2.842   1.196   7.719 -2.2285  0.5036  2.3496
 4581SOL    HW225380   2.932   1.193   7.838 -0.2565 -0.2644  0.0804
 4582SOL     OW25381   4.712   4.554   8.939  0.0080  0.0201  0.0055
 4582SOL    HW125382   4.628   4.591   8.908  0.7527  2.1194  0.4750
 4582SOL    HW225383   0.017   4.638   8.958  2.1600 -1.0335 -0.3151
 4583SOL     OW25384   0.792   1.281   8.263  0.0439  0.0529 -0.0405
 4583SOL    HW125385   0.819   1.361   8.308  0.7731  0.4543 -1.2065
 4583SOL    HW225386   0.723   1.248   8.321 -0.0312  0.7947  0.2882
 4584SOL     OW25387   2.659   2.272   6.430 -0.2803  0.7564 -0.4789
 4584SOL    HW125388   2.675   2.355   6.387  0.0341 -0.2805 -2.3423
 4584SOL    HW225389   2.649   2.306   6.519 -1.7308 -2.6123  0.6488
 4585SOL     OW25390   3.745   2.853   3.185 -0.5413  0.2198  0.1064
 4585SOL    HW125391   3.697   2.865   3.103 -0.6883 -0.2767  0.1220
 4585SOL    HW225392   3.784   2.940   3.179  0.3425 -0.1287  0.6563
 4586SOL     OW25393   3.643   2.994   3.798  0.1581 -0.4155  0.4800
 4586SOL    HW125394   3.712   3.037   3.748 -1.2621  0.9313 -0.3208
 4586SOL    HW225395   3.574   3.002   3.732 -1.2454 -1.6616  1.7798
 4587SOL     OW25396   2.261   1.874   8.646 -0.7649  0.3308  0.5794
 4587SOL    HW125397   2.310   1.820   8.585  2.6493  2.6351  1.2903
 4587SOL    HW225398   2.231   1.803   8.703 -0.2560  0.3152  0.8181
 4588SOL     OW25399   3.373   3.847  12.267 -0.3287  0.2139 -0.7468
 4588SOL    HW125400   3.281   3.827  12.284 -0.5654  0.3053 -1.9163
 4588SOL    HW225401   3.410   3.759  12.261  0.2926  0.5744 -2.0634
 4589SOL     OW25402   3.576   4.140  11.646  0.3652  0.1907 -0.0587
 4589SOL    HW125403   3.619   4.061  11.613  0.6593  0.3794 -0.1256
 4589SOL    HW225404   3.514   4.100  11.706 -1.7842  2.2764 -0.9029
 4590SOL     OW25405   2.628   3.300  13.411 -0.0028  0.0748  0.0736
 4590SOL    HW125406   2.607   3.219  13.459 -2.4240  0.5191 -0.2370
 4590SOL    HW225407   2.622   3.369  13.477 -2.6403 -0.9752  0.9191
 4591SOL     OW25408   1.264   2.935   4.173  0.0124 -0.9357 -0.1938
 4591SOL    HW125409   1.231   2.846   4.182 -0.7884 -0.8310 -2.2994
 4591SOL    HW225410   1.354   2.928   4.206  1.3709  0.0336 -3.7088
 4592SOL     OW25411   1.917   4.452   4.217 -0.1493 -0.3948 -0.0955
 4592SOL    HW125412   1.974   4.450   4.293  1.3410 -1.1525 -1.2267
 4592SOL    HW225413   1.837   4.451   4.270 -0.4273 -0.2646 -0.5088
 4593SOL     OW25414   0.240   2.237   8.825 -0.0326 -0.1205  0.3508
 4593SOL    HW125415   0.258   2.288   8.745  3.3444  0.9215  1.7727
 4593SOL    HW225416   0.291   2.275   8.896 -0.9697 -3.7037  2.9424
 4594SOL     OW25417   3.845   2.801  15.544 -0.2315  0.6823 -0.0144
 4594SOL    HW125418   3.858   2.847  15.461  2.1011  0.1428  0.0357
 4594SOL    HW225419   3.790   2.728  15.516  0.4689  0.7549 -1.6159
 4595SOL     OW25420   2.438   3.942   2.398  0.4538  0.0273 -0.2773
 4595SOL    HW125421   2.369   4.008   2.407 -0.0917 -0.7024  0.8890
 4595SOL    HW225422   2.512   3.991   2.434  1.1597 -1.7666  0.6938
 4596SOL     OW25423   1.705   1.385   1.269  0.3309  0.2349 -0.2003
 4596SOL    HW125424   1.662   1.371   1.185 -0.4263  1.5711 -0.0370
 4596SOL    HW225425   1.659   1.462   1.302  0.3847  0.5725 -0.9194
 4597SOL     OW25426   3.165   0.672   6.835 -0.0199  0.2659 -0.0076
 4597SOL    HW125427   3.151   0.723   6.915 -2.5941 -0.4873 -0.0050
 4597SOL    HW225428   3.174   0.739   6.766 -1.6327 -0.1749 -0.6438
 4598SOL     OW25429   3.047   4.371   1.306 -0.2688  0.0907 -0.0351
 4598SOL    HW125430   2.974   4.309   1.301  1.6284 -2.2325  1.0818
 4598SOL    HW225431   3.123   4.323   1.338  1.2224  0.8397 -2.5147
 4599SOL     OW25432   4.017   0.282   6.951 -0.7064 -0.6660  0.0634
 4599SOL    HW125433   4.079   0.248   7.015 -1.0676 -0.5486  0.4805
 4599SOL    HW225434   4.039   0.234   6.871  0.9322  0.4638 -0.1609
 4600SOL     OW25435   4.690   2.940   2.024 -0.7052  0.3750 -0.1756
 4600SOL    HW125436   4.640   2.985   2.092  0.6737  0.5427  0.7271
 4600SOL    HW225437   0.031   2.990   2.001 -0.9690  1.0258  0.3550
 4601SOL     OW25438   2.472   4.615   4.350 -0.4810  0.5578 -0.3915
 4601SOL    HW125439   2.393   4.563   4.366  0.6807 -0.7894  0.9616
 4601SOL    HW225440   2.435   4.703   4.358  0.5722  1.0141 -0.5672
 4602SOL     OW25441   2.964   0.453   6.875 -0.6814 -0.2874  0.1525
 4602SOL    HW125442   2.949   0.486   6.964  1.0311 -0.7517  0.6366
 4602SOL    HW225443   3.033   0.511   6.843  0.2838 -0.2640  2.1943
 4603SOL     OW25444   4.295   4.268   3.606 -0.2488  0.4528  0.3553
 4603SOL    HW125445   4.324   4.178   3.617  0.2091  0.5706  0.1021
 4603SOL    HW225446   4.212   4.248   3.563 -1.7354  2.1971  2.3458
 4604SOL     OW25447   2.313   2.430   7.615  0.0731  0.6904  0.1376
 4604SOL    HW125448   2.282   2.349   7.656 -0.7031  1.3874  0.9222
 4604SOL    HW225449   2.255   2.427   7.538  1.7382 -2.4097 -1.0185
 4605SOL     OW25450   2.689   3.076   9.702  0.3980 -0.5387 -0.1470
 4605SOL    HW125451   2.665   3.118   9.619  1.3099  0.1209 -0.0779
 4605SOL    HW225452   2.656   2.987   9.687  0.4503 -0.6339  0.3129
 4606SOL     OW25453   3.545   0.186   7.766 -0.2667  0.2855  0.0409
 4606SOL    HW125454   3.627   0.139   7.773  1.0042  2.6252  0.8343
 4606SOL    HW225455   3.540   0.198   7.671 -0.9079  1.9800  0.2922
 4607SOL     OW25456   1.374   3.533   9.605 -0.0298 -0.6169  0.4588
 4607SOL    HW125457   1.446   3.471   9.603 -0.7252 -1.3497 -2.6167
 4607SOL    HW225458   1.322   3.508   9.681  1.2519 -1.5604  1.0139
 4608SOL     OW25459   4.173   3.675  13.039  0.4791  0.0828  0.4726
 4608SOL    HW125460   4.154   3.581  13.034  1.6830 -0.0614 -1.0655
 4608SOL    HW225461   4.106   3.692  13.106 -0.1554 -0.5558 -0.0124
 4609SOL     OW25462   0.907   0.077   1.397  0.0342 -0.2948 -0.0179
 4609SOL    HW125463   0.922   0.026   1.477 -1.0461 -3.6647 -1.9664
 4609SOL    HW225464   0.899   0.002   1.338  1.1095  1.9348 -2.9674
 4610SOL     OW25465   3.177   3.010   4.073 -0.0687 -0.5019 -0.0032
 4610SOL    HW125466   3.229   2.994   3.994 -1.2243  2.1565 -1.2949
 4610SOL    HW225467   3.164   3.105   4.073  0.9038 -0.3683 -0.6693
 4611SOL     OW25468   4.545   1.962   6.377  0.9846 -0.5761 -0.0676
 4611SOL    HW125469   4.625   1.991   6.420  1.0744  1.5979 -1.6664
 4611SOL    HW225470   4.582   1.920   6.299  0.3856  0.8699 -1.1274
 4612SOL     OW25471   4.344   2.254   6.290  0.3713 -0.0787 -0.3466
 4612SOL    HW125472   4.333   2.190   6.360  0.1120  1.3101  0.8712
 4612SOL    HW225473   4.436   2.280   6.299  0.0572  0.5441  1.0598
 4613SOL     OW25474   3.182   1.941  14.919  0.1882 -0.0857 -0.3023
 4613SOL    HW125475   3.218   2.019  14.876  0.8934  0.5252  1.4138
 4613SOL    HW225476   3.096   1.970  14.950  0.3191  0.4448 -0.4250
 4614SOL     OW25477   2.228   1.644  10.876  0.1856 -0.5774  0.8451
 4614SOL    HW125478   2.192   1.648  10.787  1.0076 -1.6701  0.4737
 4614SOL    HW225479   2.275   1.727  10.875  2.2430 -1.7439 -0.0077
 4615SOL     OW25480   3.234   2.887   0.404  0.3867  0.4881 -0.0517
 4615SOL    HW125481   3.151   2.841   0.418  1.5482 -1.4759  0.3848
 4615SOL    HW225482   3.210   2.966   0.355 -0.6188  0.6909  0.7774
 4616SOL     OW25483   3.237   1.178   6.956 -0.1196 -0.1597 -0.0524
 4616SOL    HW125484   3.304   1.187   7.024  0.1269 -1.9685 -0.0493
 4616SOL    HW225485   3.230   1.083   6.944 -0.6156 -0.4124  2.2162
 4617SOL     OW25486   2.622   3.540   3.016  0.0397 -0.1662  0.0164
 4617SOL    HW125487   2.707   3.519   2.976  1.1703  3.0023  0.6752
 4617SOL    HW225488   2.638   3.554   3.110 -3.5926  0.2367  0.5467
 4618SOL     OW25489   4.161   1.978   2.727 -0.1126 -0.0902  1.0986
 4618SOL    HW125490   4.093   2.034   2.688  0.4243 -0.9126 -0.9955
 4618SOL    HW225491   4.115   1.944   2.804 -0.5968 -0.5487  0.6029
 4619SOL     OW25492   3.449   2.358   8.387 -0.5244  0.3190  0.0928
 4619SOL    HW125493   3.516   2.310   8.435 -0.3735 -0.8212 -1.2405
 4619SOL    HW225494   3.409   2.403   8.461  1.2714 -1.9873  2.4617
 4620SOL     OW25495   0.547   4.369   4.953 -0.5027  0.0214 -0.3111
 4620SOL    HW125496   0.599   4.288   4.949 -0.3463  0.0024  1.8957
 4620SOL    HW225497   0.527   4.375   4.860 -3.3794  0.8555  0.3619
 4621SOL     OW25498   1.140   1.721  11.571  0.5262  0.2249  0.0105
 4621SOL    HW125499   1.124   1.749  11.481  1.7707  0.2289 -0.2124
 4621SOL    HW225500   1.053   1.685  11.590  0.9961 -0.7852  0.2573
 4622SOL     OW25501   4.059   4.382  17.170  0.1011  0.3726  0.2483
 4622SOL    HW125502   4.152   4.363  17.183  0.2422  0.5559 -0.4968
 4622SOL    HW225503   4.022   4.299  17.200  0.6105  0.5873  1.4850
 4623SOL     OW25504   3.430   1.798  15.696  0.4846 -0.1285 -0.1926
 4623SOL    HW125505   3.429   1.771  15.788 -3.6730  1.6751  0.3134
 4623SOL    HW225506   3.477   1.879  15.716  1.4204 -0.6796 -0.1765
 4624SOL     OW25507   0.377   1.009  15.450 -0.6510 -0.0801  0.4706
 4624SOL    HW125508   0.429   0.941  15.407 -1.5502 -0.5913  0.1913
 4624SOL    HW225509   0.299   1.012  15.395 -0.6041 -0.9270  0.3573
 4625SOL     OW25510   3.950   3.976  11.650 -0.4858  0.1855 -0.4597
 4625SOL    HW125511   3.993   3.937  11.574 -0.4349 -1.8088  0.5784
 4625SOL    HW225512   4.012   4.043  11.676  1.8014 -1.4749 -1.5938
 4626SOL     OW25513   2.048   1.293  10.377  0.5631  0.1267 -0.2704
 4626SOL    HW125514   2.028   1.323  10.465 -0.4398 -0.9213 -0.1367
 4626SOL    HW225515   1.981   1.346  10.335  1.1439  0.9660 -0.1287
 4627SOL     OW25516   2.174   1.022   4.453  0.5296  0.1117 -0.2924
 4627SOL    HW125517   2.248   1.068   4.415  0.5410 -2.6419 -3.6237
 4627SOL    HW225518   2.212   0.955   4.510 -0.0931 -1.3569 -1.6048
 4628SOL     OW25519   4.378   4.101   5.689  0.0876  0.1222 -0.1215
 4628SOL    HW125520   4.367   4.157   5.613  1.5299 -0.4276 -0.7527
 4628SOL    HW225521   4.374   4.014   5.650  2.1257  0.7133 -1.6679
 4629SOL     OW25522   3.321   0.655  10.358 -0.2586 -0.4547 -0.2576
 4629SOL    HW125523   3.378   0.596  10.407  1.4988  1.0134 -0.5580
 4629SOL    HW225524   3.274   0.600  10.296 -0.3493 -0.7803  0.0994
 4630SOL     OW25525   2.098   1.993  16.433  0.1087  0.1648  0.0440
 4630SOL    HW125526   2.053   2.023  16.513  1.4426 -0.6991  1.1202
 4630SOL    HW225527   2.149   2.072  16.415 -1.1897  1.1104  0.4677
 4631SOL     OW25528   1.399   4.224  14.031  0.6927 -0.4911  0.3303
 4631SOL    HW125529   1.360   4.145  13.992 -0.3429  0.6918 -1.0008
 4631SOL    HW225530   1.364   4.299  13.982 -0.3900  1.3614  3.9958
 4632SOL     OW25531   1.080   4.622   6.925  0.4528  0.4295 -0.4943
 4632SOL    HW125532   1.023   4.675   6.870 -0.3520 -2.0766 -2.0524
 4632SOL    HW225533   1.128   4.696   6.963  0.2795  0.9900 -1.3652
 4633SOL     OW25534   1.123   0.247   4.376  0.1028 -0.0379  0.5473
 4633SOL    HW125535   1.095   0.337   4.392  1.8645  0.7649 -0.8130
 4633SOL    HW225536   1.215   0.253   4.347  0.1103  0.9670  0.7972
 4634SOL     OW25537   0.125   2.656   4.972  0.4145 -0.1617 -0.6543
 4634SOL    HW125538   0.135   2.564   4.948  3.2216 -0.1247  0.4928
 4634SOL    HW225539   0.088   2.653   5.060 -1.1423  0.0831 -1.2970
 4635SOL     OW25540   4.427   4.450   7.647 -0.2252 -0.4922  0.1196
 4635SOL    HW125541   4.368   4.441   7.573  0.2146  1.5545 -0.4815
 4635SOL    HW225542   4.511   4.482   7.612 -0.8257  0.4821 -0.4268
 4636SOL     OW25543   3.303   2.622   8.883  0.6617 -0.5873  0.0607
 4636SOL    HW125544   3.253   2.610   8.964 -1.2043 -1.0293 -1.1584
 4636SOL    HW225545   3.300   2.717   8.872 -2.0117 -0.6343  0.2451
 4637SOL     OW25546   3.248   3.568  12.080  0.0271 -0.3385 -0.5083
 4637SOL    HW125547   3.213   3.497  12.134  0.9480  0.9812  1.8229
 4637SOL    HW225548   3.286   3.523  12.005 -1.3617 -1.3436 -0.6136
 4638SOL     OW25549   0.420   0.675  10.468 -0.1036  0.3404  0.0504
 4638SOL    HW125550   0.341   0.696  10.417 -0.0859  0.9354  0.2688
 4638SOL    HW225551   0.433   0.761  10.509 -2.4206  1.3294 -1.2725
 4639SOL     OW25552   0.054   0.902   6.168 -0.0174 -0.1066 -0.4281
 4639SOL    HW125553   4.706   0.873   6.136 -1.0782  0.3187  1.9978
 4639SOL    HW225554   0.029   0.943   6.252 -2.3653 -0.9220 -0.7173
 4640SOL     OW25555   4.330   3.044  10.400 -0.0558  0.0739  0.0560
 4640SOL    HW125556   4.253   3.098  10.416 -0.6672 -1.4125  2.1309
 4640SOL    HW225557   4.306   2.965  10.448  2.5863 -1.5050 -1.1880
 4641SOL     OW25558   1.239   3.571   8.825 -0.1271  0.0833  0.1686
 4641SOL    HW125559   1.317   3.586   8.771  1.1017 -0.1103  1.9014
 4641SOL    HW225560   1.187   3.641   8.787 -2.9203 -2.5456 -0.8358
 4642SOL     OW25561   3.441   4.063  11.096 -0.1355 -0.7233 -0.3664
 4642SOL    HW125562   3.508   4.116  11.139 -0.2463 -0.5735 -0.3802
 4642SOL    HW225563   3.483   3.978  11.081 -1.0002 -1.2694  0.3225
 4643SOL     OW25564   0.362   3.102   6.425  0.6520 -0.7305  0.0300
 4643SOL    HW125565   0.390   3.023   6.378  1.0505 -0.9527  0.6300
 4643SOL    HW225566   0.411   3.097   6.508  2.2119  0.8003 -0.7937
 4644SOL     OW25567   3.345   1.194   5.000 -0.3889  0.2811 -0.0234
 4644SOL    HW125568   3.276   1.192   4.934  1.5052 -0.3373 -1.9788
 4644SOL    HW225569   3.293   1.224   5.074  0.7191 -1.0060  1.2746
 4645SOL     OW25570   2.707   3.222   2.995 -0.4349  0.1473 -0.2490
 4645SOL    HW125571   2.753   3.305   2.996 -1.0585  0.5118 -2.6336
 4645SOL    HW225572   2.686   3.220   2.902 -1.3523  0.9010 -0.0583
 4646SOL     OW25573   2.811   3.350   3.473 -0.2938 -0.3398 -0.2154
 4646SOL    HW125574   2.790   3.271   3.423 -0.9743 -1.3915  1.7218
 4646SOL    HW225575   2.757   3.330   3.549  0.1954 -0.7028  0.0391
 4647SOL     OW25576   3.099   3.047   8.747  0.8273 -0.3501 -0.1026
 4647SOL    HW125577   3.121   3.001   8.827 -2.0571  0.7338  1.3308
 4647SOL    HW225578   3.145   3.131   8.742 -1.1204  0.6686 -1.2093
 4648SOL     OW25579   2.171   3.379   8.131 -0.2834 -0.6330  0.1160
 4648SOL    HW125580   2.143   3.342   8.048 -1.4187  0.8251 -0.1437
 4648SOL    HW225581   2.168   3.472   8.111  1.7448 -0.6421 -0.3010
 4649SOL     OW25582   1.775   4.252   1.533 -0.0984 -0.1652 -0.3283
 4649SOL    HW125583   1.856   4.204   1.550 -0.7749 -0.3598  2.3506
 4649SOL    HW225584   1.816   4.337   1.550 -1.3676  0.4507 -0.3330
 4650SOL     OW25585   4.317   3.795   4.862 -0.1216  0.2244  0.1474
 4650SOL    HW125586   4.287   3.719   4.814  1.3023 -0.0431 -0.3106
 4650SOL    HW225587   4.380   3.829   4.799 -0.3108 -0.4787 -0.4131
 4651SOL     OW25588   1.107   3.159   2.880  0.6535 -0.0564  0.0873
 4651SOL    HW125589   1.184   3.128   2.832  0.9559  0.4399  0.2555
 4651SOL    HW225590   1.135   3.250   2.881  1.7825 -0.4046  1.1299
 4652SOL     OW25591   3.161   3.149   5.483 -0.0268  0.4800 -0.2123
 4652SOL    HW125592   3.068   3.129   5.474 -0.0588 -0.1865  1.7193
 4652SOL    HW225593   3.163   3.228   5.428  1.8877 -1.8129 -3.4419
 4653SOL     OW25594   1.425   4.517  12.642 -0.1989  0.1732 -0.1626
 4653SOL    HW125595   1.423   4.603  12.600 -1.1324  0.6848  0.9469
 4653SOL    HW225596   1.463   4.554  12.721 -1.3054  0.5024  0.2133
 4654SOL     OW25597   2.905   3.199   1.432  0.4854 -0.7439 -0.1229
 4654SOL    HW125598   2.815   3.216   1.403  0.4623 -1.3305 -0.3957
 4654SOL    HW225599   2.900   3.103   1.425  0.4065 -0.5759 -2.1495
 4655SOL     OW25600   4.364   1.122   9.070  0.2066 -0.9615  0.1042
 4655SOL    HW125601   4.383   1.038   9.111  3.2138  0.4490  1.5983
 4655SOL    HW225602   4.404   1.107   8.984  1.5089  2.2068  0.1436
 4656SOL     OW25603   4.623   3.023   6.721 -0.2189 -0.6069  0.2655
 4656SOL    HW125604   4.713   2.992   6.710  0.2685 -0.2521  3.2509
 4656SOL    HW225605   4.643   3.104   6.767 -1.2573 -0.6325  0.7610
 4657SOL     OW25606   1.968   1.954   6.269  0.1999 -0.8080  0.8596
 4657SOL    HW125607   2.051   1.911   6.248 -0.3324 -1.6869  0.5730
 4657SOL    HW225608   1.906   1.894   6.228 -0.4223  1.3732 -1.4248
 4658SOL     OW25609   4.361   4.071   2.934 -1.1459  0.7029 -0.1653
 4658SOL    HW125610   4.441   4.057   2.884 -1.0910 -0.1624  0.1755
 4658SOL    HW225611   4.387   4.111   3.017  0.4095 -0.9704  0.1382
 4659SOL     OW25612   0.232   0.688  11.753 -0.0983 -0.6244 -0.3576
 4659SOL    HW125613   0.311   0.639  11.778  0.4334 -0.7180 -2.2125
 4659SOL    HW225614   0.164   0.625  11.778 -1.3352  1.4142  1.3552
 4660SOL     OW25615   2.787   4.665  15.445  0.3414  0.5137  0.5157
 4660SOL    HW125616   2.842   4.687  15.520  0.1318  2.1478  0.1837
 4660SOL    HW225617   2.708   4.706  15.480  0.2322  2.6229 -2.2525
 4661SOL     OW25618   4.523   3.103   4.668  0.4991 -0.1505 -0.5418
 4661SOL    HW125619   4.542   3.138   4.755  1.4985 -0.5023 -0.6300
 4661SOL    HW225620   4.503   3.183   4.619  1.4016  1.0880  1.0838
 4662SOL     OW25621   0.627   1.157   2.618 -0.8787  0.2733 -0.0911
 4662SOL    HW125622   0.579   1.236   2.645 -0.4672  0.1119  1.1298
 4662SOL    HW225623   0.686   1.147   2.693 -2.9502  2.0402  1.7980
 4663SOL     OW25624   3.994   3.917   1.920 -0.6388  0.3502  0.7325
 4663SOL    HW125625   4.016   3.940   2.010  3.0102 -1.2570  0.2560
 4663SOL    HW225626   3.970   3.826   1.936 -1.6983  0.8840  2.1012
 4664SOL     OW25627   3.208   0.239   3.284  0.1021  0.4684  0.1792
 4664SOL    HW125628   3.257   0.313   3.321  0.5012 -0.1161  0.8182
 4664SOL    HW225629   3.268   0.166   3.299  0.9006  0.7866 -1.3871
 4665SOL     OW25630   3.884   1.486   5.498  0.2652  0.2400 -0.1580
 4665SOL    HW125631   3.808   1.475   5.555 -0.5429 -1.4925 -1.5826
 4665SOL    HW225632   3.839   1.533   5.428  1.3027  0.6703 -0.5494
 4666SOL     OW25633   0.685   0.255   8.172 -0.5975  0.2825 -0.2759
 4666SOL    HW125634   0.649   0.320   8.233 -0.5954 -0.4471  0.5059
 4666SOL    HW225635   0.713   0.316   8.104 -1.0703 -1.3459 -1.9061
 4667SOL     OW25636   0.608   4.269   2.596  0.0282  0.3155  0.4939
 4667SOL    HW125637   0.534   4.313   2.637  0.6285 -0.4743  2.4794
 4667SOL    HW225638   0.614   4.194   2.655  0.4915  0.2694  0.3868
 4668SOL     OW25639   0.935   3.582   5.659 -0.4223 -0.3552  0.6026
 4668SOL    HW125640   1.018   3.594   5.705 -1.7162 -0.3728  2.9413
 4668SOL    HW225641   0.876   3.576   5.734 -0.0149  0.0271  0.9545
 4669SOL     OW25642   0.501   2.774   4.472  0.2826 -0.4228 -0.1681
 4669SOL    HW125643   0.486   2.868   4.464  2.2617 -0.1388 -0.6718
 4669SOL    HW225644   0.576   2.751   4.417  0.0739  0.3321 -0.7632
 4670SOL     OW25645   3.108   1.394  10.840 -0.0462  0.7158 -0.5203
 4670SOL    HW125646   3.109   1.307  10.881 -0.2605  0.8223 -0.2874
 4670SOL    HW225647   3.061   1.438  10.911  1.1255  1.5568 -0.2666
 4671SOL     OW25648   1.566   1.629  15.388  0.2332  0.4313 -0.4226
 4671SOL    HW125649   1.620   1.637  15.309  0.9202 -0.0731  0.0000
 4671SOL    HW225650   1.487   1.680  15.371 -0.1769 -0.4963 -1.3162
 4672SOL     OW25651   1.254   2.738   6.696 -0.0765 -0.2323 -0.3091
 4672SOL    HW125652   1.274   2.821   6.738 -2.9423  0.6538 -0.7086
 4672SOL    HW225653   1.300   2.671   6.747  0.1579  0.4701  0.4137
 4673SOL     OW25654   2.351   0.557   7.682  0.4227  0.2585 -0.1641
 4673SOL    HW125655   2.285   0.596   7.739  0.5579  0.6709 -0.2848
 4673SOL    HW225656   2.431   0.582   7.728  0.3553  1.4379 -0.6913
 4674SOL     OW25657   0.256   3.059   4.214  0.1124  0.4664  0.0671
 4674SOL    HW125658   0.313   3.024   4.145 -0.9035  0.8178 -0.9508
 4674SOL    HW225659   0.184   2.996   4.222 -0.8122  1.5056 -0.0899
 4675SOL     OW25660   4.296   3.490   4.743  0.2245 -0.1781 -0.2767
 4675SOL    HW125661   4.207   3.489   4.778  0.4342 -1.3669  0.2304
 4675SOL    HW225662   4.334   3.428   4.805  0.2448  1.1171  0.9972
 4676SOL     OW25663   4.408   0.937  11.733 -0.3138 -0.2817  0.7325
 4676SOL    HW125664   4.326   0.984  11.717 -0.7912 -1.1081  0.7114
 4676SOL    HW225665   4.458   1.012  11.765 -0.6178  0.7090 -1.0891
 4677SOL     OW25666   4.014   3.848   9.045 -0.3365 -0.6460  0.4131
 4677SOL    HW125667   4.066   3.814   9.118  0.9210 -1.0690 -0.6749
 4677SOL    HW225668   4.020   3.941   9.070 -1.3753 -0.4797  0.0335
 4678SOL     OW25669   1.223   0.898  14.790 -0.5340 -0.3254  0.6481
 4678SOL    HW125670   1.192   0.930  14.706 -0.5622  1.3473  1.2945
 4678SOL    HW225671   1.215   0.803  14.784 -0.0749 -0.4077  1.2456
 4679SOL     OW25672   1.773   2.125   6.562 -0.3069  0.0333 -0.2910
 4679SOL    HW125673   1.725   2.108   6.643 -1.0445  0.2525 -0.6853
 4679SOL    HW225674   1.839   2.056   6.563  1.2606  1.5503 -0.6413
 4680SOL     OW25675   2.300   1.312   2.743 -0.3927 -0.8388 -0.2638
 4680SOL    HW125676   2.261   1.371   2.807 -0.1310  0.3733 -1.1986
 4680SOL    HW225677   2.367   1.273   2.799  0.9660  0.6477 -0.8193
 4681SOL     OW25678   4.414   1.318   3.024 -0.4998 -0.2451 -1.2215
 4681SOL    HW125679   4.433   1.401   2.982 -0.3029  1.0340  1.4303
 4681SOL    HW225680   4.479   1.268   2.974 -1.2246 -2.0889 -0.3473
 4682SOL     OW25681   4.273   1.257   4.944  0.0482 -0.4989 -0.3681
 4682SOL    HW125682   4.193   1.239   4.895 -0.8218  0.8994  0.5389
 4682SOL    HW225683   4.324   1.301   4.877 -0.4223  0.7256  0.0620
 4683SOL     OW25684   3.490   0.362   7.969  0.1207 -0.0642  0.6820
 4683SOL    HW125685   3.442   0.439   7.938 -0.0356 -1.0869 -1.6515
 4683SOL    HW225686   3.523   0.311   7.895  1.0468  1.9881 -0.3178
 4684SOL     OW25687   4.661   4.303   9.509  0.1984 -0.3999 -0.4528
 4684SOL    HW125688   4.602   4.356   9.562 -1.4372 -2.6486 -0.0464
 4684SOL    HW225689   4.672   4.358   9.431  0.2913  1.4077  0.8398
 4685SOL     OW25690   4.340   1.721   5.567 -0.2923  0.5496  0.0465
 4685SOL    HW125691   4.247   1.731   5.543 -0.7358 -2.7538  0.3291
 4685SOL    HW225692   4.338   1.653   5.635 -0.2829 -0.8145 -1.2963
 4686SOL     OW25693   3.012   1.302   7.272  0.2511  0.5248  0.5951
 4686SOL    HW125694   2.925   1.261   7.265 -0.3459  2.1846 -1.4709
 4686SOL    HW225695   3.054   1.255   7.344  1.4421  1.1384  0.2959
 4687SOL     OW25696   2.068   1.995   0.044 -0.0789 -0.4018  0.6338
 4687SOL    HW125697   2.073   1.991  17.698  1.2459 -0.1306  0.6938
 4687SOL    HW225698   2.139   2.053   0.071  1.8640 -1.1944 -2.7537
 4688SOL     OW25699   3.843   3.348  16.944  0.1150  0.0829 -0.0330
 4688SOL    HW125700   3.748   3.346  16.938  0.1088  1.2740 -0.3620
 4688SOL    HW225701   3.858   3.442  16.937  0.2786  0.1679  1.4881
 4689SOL     OW25702   1.476   2.211   6.668 -0.2236  0.2137  0.5551
 4689SOL    HW125703   1.530   2.256   6.732 -0.2257 -0.2656  0.8952
 4689SOL    HW225704   1.421   2.277   6.625 -1.6633 -1.2195  0.1773
 4690SOL     OW25705   3.913   0.265  11.412 -0.0839 -0.2506 -0.6071
 4690SOL    HW125706   3.871   0.260  11.326 -0.1682 -0.9427 -0.5281
 4690SOL    HW225707   3.854   0.308  11.473  1.7622  1.3723  0.0547
 4691SOL     OW25708   4.652   4.729   4.417  0.3792 -0.1257  0.5853
 4691SOL    HW125709   4.649   4.690   4.329 -0.0593 -0.1112  0.5945
 4691SOL    HW225710   4.571   4.685   4.443 -1.2012  1.9289 -0.8787
 4692SOL     OW25711   0.488   3.503  10.416 -0.5620  0.4378 -0.1159
 4692SOL    HW125712   0.495   3.589  10.458  1.8743 -0.5251  1.4529
 4692SOL    HW225713   0.576   3.474  10.442 -0.3459  0.3628 -0.9177
 4693SOL     OW25714   1.785   4.551   2.986  0.2713 -0.5522 -0.4842
 4693SOL    HW125715   1.708   4.543   2.930  0.3473 -2.4326 -0.3289
 4693SOL    HW225716   1.793   4.464   3.025 -1.1570 -0.8068 -0.7880
 4694SOL     OW25717   0.138   0.448  14.731  0.5765 -0.4502  0.0540
 4694SOL    HW125718   0.157   0.502  14.654  0.9139 -1.3113 -0.4596
 4694SOL    HW225719   0.185   0.370  14.704 -0.3262 -1.0137  0.1091
 4695SOL     OW25720   0.295   2.967   5.521  0.1530  0.2458 -0.0560
 4695SOL    HW125721   0.368   2.905   5.522  0.6473  0.8872  2.9395
 4695SOL    HW225722   0.218   2.913   5.533  1.5840 -0.7649  4.3159
 4696SOL     OW25723   0.206   1.137   4.037  0.1098  0.7663 -0.5709
 4696SOL    HW125724   0.153   1.214   4.014 -0.0239  1.0789  0.8180
 4696SOL    HW225725   0.245   1.116   3.952 -0.7085  0.8529 -0.9712
 4697SOL     OW25726   1.590   1.754   6.900 -0.0440  0.7400 -0.3685
 4697SOL    HW125727   1.630   1.704   6.829 -1.8736  1.6190 -2.0518
 4697SOL    HW225728   1.585   1.681   6.961 -3.4172  1.4323  0.1912
 4698SOL     OW25729   1.766   0.067   1.467  0.1361 -0.4185  0.0282
 4698SOL    HW125730   1.860   0.066   1.486  0.3771 -1.2397 -1.2468
 4698SOL    HW225731   1.735   0.136   1.526 -0.4833 -0.9884  0.3666
 4699SOL     OW25732   1.315   0.321   4.106 -0.0378 -0.0980 -0.4314
 4699SOL    HW125733   1.309   0.305   4.012  2.1137  0.4360 -0.6739
 4699SOL    HW225734   1.239   0.377   4.120 -0.9516 -1.0971 -1.3459
 4700SOL     OW25735   3.566   2.284   3.084  0.0217 -0.3815  0.1992
 4700SOL    HW125736   3.505   2.261   3.014 -0.1913 -1.0578  0.6016
 4700SOL    HW225737   3.516   2.257   3.161  1.0607 -0.7391  0.7480
 4701SOL     OW25738   4.458   2.232   4.343  0.2505  0.1008  0.1815
 4701SOL    HW125739   4.393   2.303   4.337  1.5425  1.0548 -2.4591
 4701SOL    HW225740   4.476   2.220   4.250  0.6522  0.6062  0.1963
 4702SOL     OW25741   2.548   3.981  10.027  0.1868 -0.3716  0.6647
 4702SOL    HW125742   2.510   4.048  10.083  0.0586  1.4833 -1.6766
 4702SOL    HW225743   2.508   3.996   9.942 -0.5252  0.2799  1.1267
 4703SOL     OW25744   0.894   2.268  14.466 -0.0026 -0.2053  0.3881
 4703SOL    HW125745   0.808   2.311  14.467 -0.1212 -0.4454  1.1040
 4703SOL    HW225746   0.882   2.210  14.541 -1.1067 -0.9886 -0.3827
 4704SOL     OW25747   2.720   4.220   4.013  0.3212  0.5558  0.3265
 4704SOL    HW125748   2.627   4.198   4.018  0.1718  1.3014  0.8288
 4704SOL    HW225749   2.730   4.222   3.918 -0.7048 -0.6749  0.1934
 4705SOL     OW25750   1.284   0.640   1.580  0.0937  0.2532  0.2641
 4705SOL    HW125751   1.207   0.665   1.631  0.8111  0.4813  1.2436
 4705SOL    HW225752   1.336   0.598   1.649  0.7315 -0.6548 -0.7597
 4706SOL     OW25753   4.208   4.350   1.130 -0.1792  0.5484  1.0422
 4706SOL    HW125754   4.279   4.288   1.149  0.2029  0.5476 -0.3777
 4706SOL    HW225755   4.250   4.403   1.061 -0.1562 -0.4844  0.2730
 4707SOL     OW25756   1.391   0.950   6.361 -0.0597  0.0842 -0.3845
 4707SOL    HW125757   1.390   0.880   6.426 -0.6643  2.2130  1.9007
 4707SOL    HW225758   1.364   1.023   6.417 -1.4419 -0.4826 -0.3269
 4708SOL     OW25759   4.696   2.567   3.315 -0.1305  0.1920  0.5362
 4708SOL    HW125760   4.708   2.662   3.326  2.5677  0.0021 -0.7989
 4708SOL    HW225761   0.007   2.557   3.232 -2.9049  1.1476 -1.2118
 4709SOL     OW25762   2.092   2.076   7.243  0.2438 -0.1953  0.9254
 4709SOL    HW125763   2.074   2.154   7.190  1.0155  0.9345  2.3090
 4709SOL    HW225764   2.174   2.098   7.287 -0.9014  0.4533  2.7421
 4710SOL     OW25765   3.857   2.779   3.648 -0.8519  0.7687  0.8763
 4710SOL    HW125766   3.788   2.804   3.587 -0.0743  1.0642  0.1060
 4710SOL    HW225767   3.937   2.810   3.604 -1.4134  0.2853 -0.4702
 4711SOL     OW25768   3.275   2.769   3.177 -0.3233 -0.4465  0.8481
 4711SOL    HW125769   3.184   2.751   3.154  0.5969 -1.7341 -1.8774
 4711SOL    HW225770   3.321   2.713   3.114 -1.2947 -1.9870  1.5089
 4712SOL     OW25771   4.217   0.365  16.114  0.1930  0.1894  0.7812
 4712SOL    HW125772   4.152   0.370  16.044  0.3326  1.2849  0.7322
 4712SOL    HW225773   4.200   0.442  16.168  1.4342  2.5262 -2.1384
 4713SOL     OW25774   1.539   0.516   2.734 -0.4029  0.3814  0.4105
 4713SOL    HW125775   1.599   0.454   2.693 -3.7965 -1.5168 -1.7573
 4713SOL    HW225776   1.464   0.514   2.674  0.6816 -1.4660 -0.8902
 4714SOL     OW25777   2.650   1.445   0.467  0.3006 -0.4654  1.1930
 4714SOL    HW125778   2.717   1.377   0.476  0.1798 -0.5233  1.6534
 4714SOL    HW225779   2.704   1.510   0.421 -1.6207  1.0397  1.0599
 4715SOL     OW25780   3.153   0.762  16.909 -0.0537  0.3543  0.0865
 4715SOL    HW125781   3.194   0.756  16.995 -2.0183  0.3991  1.0331
 4715SOL    HW225782   3.069   0.798  16.938  0.1104  0.4091  0.4911
 4716SOL     OW25783   2.204   2.251   0.044  0.2106  0.0326  0.3373
 4716SOL    HW125784   2.183   2.301  17.714  0.4557 -0.5656 -0.1043
 4716SOL    HW225785   2.244   2.309   0.109 -1.4394 -0.5977  1.9223
 4717SOL     OW25786   2.436   3.900  16.647 -0.1094  0.2282  0.0461
 4717SOL    HW125787   2.457   3.874  16.736  0.2772 -2.0432 -0.6980
 4717SOL    HW225788   2.426   3.829  16.582 -0.6819 -1.2927  1.8070
 4718SOL     OW25789   1.581   4.076   7.466 -0.1822  0.5426 -0.1428
 4718SOL    HW125790   1.660   4.022   7.464 -0.7744 -0.3317  0.2364
 4718SOL    HW225791   1.612   4.167   7.472 -3.9214  1.9618 -1.6059
 4719SOL     OW25792   4.160   3.023   0.773  0.4178  0.2773  0.1211
 4719SOL    HW125793   4.088   3.062   0.723  1.2752  0.2858 -1.0860
 4719SOL    HW225794   4.113   3.008   0.856  0.5192  2.3458  0.5473
 4720SOL     OW25795   4.224   3.178   5.908  0.1216 -0.6374  0.2556
 4720SOL    HW125796   4.271   3.215   5.833  1.6719 -2.5129  0.3102
 4720SOL    HW225797   4.135   3.188   5.873 -0.7096  2.3991  3.2482
 4721SOL     OW25798   3.069   4.270   3.966 -0.2601  0.4731 -0.2397
 4721SOL    HW125799   3.097   4.205   3.902  0.2060  0.0840  0.3562
 4721SOL    HW225800   3.009   4.323   3.914  0.7530  2.2979  0.4550
 4722SOL     OW25801   4.407   2.599   6.705  0.5309 -0.4902  0.1707
 4722SOL    HW125802   4.316   2.631   6.709  0.0850 -1.9481  2.1159
 4722SOL    HW225803   4.436   2.604   6.796 -0.4615  3.3452  0.2904
 4723SOL     OW25804   0.185   3.560   3.760  0.1512 -0.0727  0.3122
 4723SOL    HW125805   0.210   3.473   3.792  0.7038  0.1279  0.4110
 4723SOL    HW225806   0.243   3.563   3.685 -0.6846 -0.8556 -0.3779
 4724SOL     OW25807   2.330   1.520   7.882 -0.3089 -0.6944  0.0502
 4724SOL    HW125808   2.363   1.567   7.806  0.0715  0.9256  1.2206
 4724SOL    HW225809   2.337   1.592   7.945 -0.8598 -0.8403  0.2749
 4725SOL     OW25810   2.362   1.126   8.421  0.4815 -0.4671 -0.0452
 4725SOL    HW125811   2.387   1.034   8.432  1.7602  0.0057  0.9966
 4725SOL    HW225812   2.370   1.156   8.511 -3.0129 -0.1123  0.1267
 4726SOL     OW25813   0.969   2.427  10.825  0.5116  0.1310 -0.4433
 4726SOL    HW125814   0.941   2.513  10.795  2.8473  1.0442 -0.0054
 4726SOL    HW225815   1.031   2.459  10.891 -1.1667  0.4906  0.9342
 4727SOL     OW25816   3.899   0.235  14.863 -0.1314 -0.5747 -0.9422
 4727SOL    HW125817   3.871   0.257  14.774  0.4123 -0.7578 -1.1585
 4727SOL    HW225818   3.881   0.319  14.904 -1.3309  0.1340 -2.9416
 4728SOL     OW25819   0.512   1.717   2.465  0.3372 -0.5835  0.3654
 4728SOL    HW125820   0.516   1.808   2.492 -1.7594  0.3419 -2.4053
 4728SOL    HW225821   0.428   1.721   2.419  0.3321  0.1381  0.4532
 4729SOL     OW25822   3.695   0.122  16.904 -0.3588  0.1785 -0.0891
 4729SOL    HW125823   3.617   0.146  16.954  0.4874  1.9393  0.3927
 4729SOL    HW225824   3.736   0.208  16.905 -0.6223  0.3252 -1.8328
 4730SOL     OW25825   2.083   0.653   0.145 -0.1127  0.3973  0.0520
 4730SOL    HW125826   2.011   0.625   0.202  0.3274 -0.4213  0.2058
 4730SOL    HW225827   2.138   0.688   0.215  1.8554 -1.9597 -0.3130
 4731SOL     OW25828   1.514   2.662   3.347 -0.2942  0.4864  0.0884
 4731SOL    HW125829   1.441   2.611   3.312 -1.2694  0.3751  2.2622
 4731SOL    HW225830   1.591   2.639   3.296 -0.4613 -1.9478  0.9746
 4732SOL     OW25831   1.411   4.147   3.495 -0.0426 -0.1611 -0.1159
 4732SOL    HW125832   1.469   4.158   3.571  1.2181  2.7754 -1.5173
 4732SOL    HW225833   1.470   4.190   3.433 -0.9462  2.0912  0.5797
 4733SOL     OW25834   4.563   4.551   2.840  0.0199  0.1534 -0.0083
 4733SOL    HW125835   4.477   4.564   2.799 -0.3681 -0.6617  0.5442
 4733SOL    HW225836   4.562   4.455   2.839 -2.0812  0.1601 -0.0677
 4734SOL     OW25837   3.924   2.389   2.574  0.0270  0.1925  0.1636
 4734SOL    HW125838   3.959   2.304   2.548  0.5259  1.0597 -1.9887
 4734SOL    HW225839   3.939   2.382   2.668  0.4677  0.0397  0.0823
 4735SOL     OW25840   4.047   1.508   7.240  0.5681 -0.1399  0.2849
 4735SOL    HW125841   4.078   1.533   7.327 -1.2294  1.3002  0.5162
 4735SOL    HW225842   3.977   1.448   7.267  1.5066 -0.0637  2.8327
 4736SOL     OW25843   2.615   3.202   2.443  0.4406 -0.4292  0.1804
 4736SOL    HW125844   2.675   3.134   2.412 -1.2790 -1.6833 -0.3731
 4736SOL    HW225845   2.537   3.188   2.389  1.2460 -1.0102 -0.8326
 4737SOL     OW25846   3.835   2.655   2.575  0.5295  0.3819  0.5613
 4737SOL    HW125847   3.916   2.627   2.617  0.6782 -0.4002 -0.2384
 4737SOL    HW225848   3.800   2.566   2.569 -2.8691  1.5100  3.3118
 4738SOL     OW25849   1.477   1.330   6.780  0.0796 -0.2368  0.2839
 4738SOL    HW125850   1.543   1.377   6.832  2.9266 -2.4284 -1.3204
 4738SOL    HW225851   1.441   1.403   6.730  0.3207 -1.3357 -1.4925
 4739SOL     OW25852   1.640   0.321   0.631  0.3400 -0.1850 -0.2433
 4739SOL    HW125853   1.716   0.301   0.686 -1.2908 -0.9975  1.7458
 4739SOL    HW225854   1.570   0.292   0.690  0.8772  1.9294  1.4355
 4740SOL     OW25855   2.132   4.058  10.074 -0.5249  0.2506 -0.3977
 4740SOL    HW125856   2.194   4.101  10.134  0.3199 -1.2996 -0.1760
 4740SOL    HW225857   2.164   3.968  10.070 -1.3380 -0.0576  0.1165
 4741SOL     OW25858   2.733   2.608   8.869 -0.3124  0.2105 -0.3890
 4741SOL    HW125859   2.755   2.687   8.819 -0.3697  0.3755 -0.1513
 4741SOL    HW225860   2.642   2.609   8.897  0.0685 -1.0288  0.8783
 4742SOL     OW25861   2.125   3.966   4.740 -0.3813 -0.2310 -0.0149
 4742SOL    HW125862   2.085   4.031   4.797 -1.0503 -1.4279  0.8736
 4742SOL    HW225863   2.213   3.973   4.775  0.5321  0.3324 -2.4104
 4743SOL     OW25864   0.734   4.576   6.163 -0.3193  0.4962  0.1181
 4743SOL    HW125865   0.778   4.565   6.247 -1.6802 -2.5451  0.4078
 4743SOL    HW225866   0.691   4.492   6.150  1.8388 -0.5166 -0.4603
 4744SOL     OW25867   0.669   3.278   7.075  0.0089 -0.1864  0.0171
 4744SOL    HW125868   0.663   3.347   7.140 -0.9893 -2.3935  2.2709
 4744SOL    HW225869   0.578   3.249   7.083 -0.2345  0.6231  0.1859
 4745SOL     OW25870   1.545   3.467   3.040  0.1195 -0.3492 -0.0921
 4745SOL    HW125871   1.474   3.403   3.036 -0.1863  0.0707 -1.2424
 4745SOL    HW225872   1.528   3.490   3.132 -1.1867 -1.8185  0.0173
 4746SOL     OW25873   0.811   2.291   9.271 -0.3210  0.0786 -0.0674
 4746SOL    HW125874   0.894   2.337   9.262 -1.4060  1.3896 -3.3166
 4746SOL    HW225875   0.803   2.274   9.365  0.5051  0.5777  0.0918
 4747SOL     OW25876   3.582   3.158   9.204  0.8620  0.4013  0.9900
 4747SOL    HW125877   3.568   3.066   9.180  0.6434  0.3861  1.1685
 4747SOL    HW225878   3.610   3.143   9.294  0.5500  2.6736  1.4599
 4748SOL     OW25879   2.840   3.204   8.727  0.3564 -0.2875  0.0614
 4748SOL    HW125880   2.866   3.188   8.817 -0.8457  0.1154  0.4745
 4748SOL    HW225881   2.908   3.148   8.690  0.1348 -0.1972 -0.4871
 4749SOL     OW25882   2.451   3.349   2.005 -0.5580 -0.3334  0.3075
 4749SOL    HW125883   2.409   3.288   2.066 -2.4553  0.0169 -0.6750
 4749SOL    HW225884   2.405   3.427   2.033  0.5103  0.5421 -0.3752
 4750SOL     OW25885   3.189   2.952   9.013 -0.0623 -0.0325 -0.6465
 4750SOL    HW125886   3.285   2.957   9.010  0.0470 -2.2917 -0.7109
 4750SOL    HW225887   3.183   3.019   9.082 -4.0924 -2.5163  1.4500
 4751SOL     OW25888   4.262   2.680   7.756  0.1481  0.1947  0.1466
 4751SOL    HW125889   4.343   2.716   7.721  0.7966 -1.9085 -0.5186
 4751SOL    HW225890   4.256   2.604   7.696 -0.7300 -1.5463  2.4381
 4752SOL     OW25891   1.546   4.493  17.160 -0.0403 -0.0536  0.1298
 4752SOL    HW125892   1.542   4.588  17.152 -0.8904 -0.1717 -0.7683
 4752SOL    HW225893   1.627   4.478  17.112 -0.3170  2.6967 -1.1796
 4753SOL     OW25894   1.090   2.118   2.651  0.3628 -0.6799  0.4301
 4753SOL    HW125895   1.147   2.183   2.692  0.9086 -0.4646 -0.6944
 4753SOL    HW225896   1.155   2.055   2.621 -0.7264 -0.9380 -1.4080
 4754SOL     OW25897   1.461   1.305   0.698 -0.1041 -0.8484  0.1609
 4754SOL    HW125898   1.540   1.264   0.734  0.9850  1.7318  0.6679
 4754SOL    HW225899   1.452   1.384   0.751 -0.6472 -0.0941 -1.0619
 4755SOL     OW25900   4.682   4.322  17.166 -0.0320 -0.3859 -0.1096
 4755SOL    HW125901   4.681   4.252  17.231  0.9000 -0.8298 -0.5803
 4755SOL    HW225902   0.037   4.343  17.176 -0.5569  1.0056  1.8005
 4756SOL     OW25903   2.253   3.409  10.644 -0.6509  0.7140  0.0696
 4756SOL    HW125904   2.174   3.396  10.591 -0.1169  0.6796 -0.7300
 4756SOL    HW225905   2.225   3.368  10.726  1.0808  0.2190  0.4160
 4757SOL     OW25906   0.147   3.154   2.002 -0.4917 -0.2591 -0.6232
 4757SOL    HW125907   0.223   3.110   2.040  1.2058  2.4022 -0.9702
 4757SOL    HW225908   0.155   3.245   2.031 -0.6255 -0.5434  0.3172
 4758SOL     OW25909   2.547   1.049   7.195 -0.7156  0.3636 -0.0195
 4758SOL    HW125910   2.561   0.958   7.217 -1.7789  0.6919  1.9632
 4758SOL    HW225911   2.496   1.091   7.265  1.0561  2.0282  0.2675
 4759SOL     OW25912   0.826   3.677   3.595  0.1970  0.0846  0.1675
 4759SOL    HW125913   0.755   3.731   3.629  0.1699 -0.0303  0.2960
 4759SOL    HW225914   0.790   3.644   3.512  0.8253  0.7280 -0.3588
 4760SOL     OW25915   1.121   2.663  10.324 -0.0847 -0.4071  0.6320
 4760SOL    HW125916   1.069   2.671  10.244  0.5758  0.0334  0.2481
 4760SOL    HW225917   1.118   2.756  10.342 -1.8094 -0.5076  0.8075
 4761SOL     OW25918   0.774   1.976   6.675  0.1142 -0.2712 -0.5881
 4761SOL    HW125919   0.739   1.889   6.692 -2.2409  0.8617  0.3385
 4761SOL    HW225920   0.781   1.963   6.580  1.2352 -1.5658 -0.3256
 4762SOL     OW25921   1.207   2.209   1.660  0.2164  0.2068 -0.6818
 4762SOL    HW125922   1.269   2.218   1.587  1.4181 -0.4408  0.2635
 4762SOL    HW225923   1.230   2.282   1.717 -2.2865 -0.2764  0.9353
 4763SOL     OW25924   3.131   3.288   5.038 -0.4445  0.8305  0.3719
 4763SOL    HW125925   3.156   3.197   5.028 -1.7557  0.6025 -0.7999
 4763SOL    HW225926   3.107   3.305   4.947  1.3433  0.7474 -0.1194
 4764SOL     OW25927   3.412   4.212   6.697 -0.0035 -0.3926  0.3006
 4764SOL    HW125928   3.495   4.195   6.742  0.5778  0.7143 -0.3516
 4764SOL    HW225929   3.361   4.141   6.735  0.9510 -1.8457 -1.1029
 4765SOL     OW25930   1.996   0.998   4.063  0.3011 -0.9583  0.0004
 4765SOL    HW125931   1.917   1.002   4.116  0.1614 -0.3157 -0.2509
 4765SOL    HW225932   2.024   0.909   4.082  0.3951 -0.4529  2.2240
 4766SOL     OW25933   3.586   2.616   8.929  0.0809  0.7569 -0.0862
 4766SOL    HW125934   3.500   2.602   8.890  0.2752 -3.1740  0.8256
 4766SOL    HW225935   3.649   2.583   8.865  2.0575  4.1117  0.1237
 4767SOL     OW25936   3.316   1.309   3.855  0.4410 -0.9950  1.1502
 4767SOL    HW125937   3.311   1.400   3.882 -0.6845  0.2291 -3.1714
 4767SOL    HW225938   3.299   1.312   3.760  0.2077  1.2803  1.2635
 4768SOL     OW25939   2.386   3.745   1.044  0.0579  0.0725 -0.0511
 4768SOL    HW125940   2.467   3.696   1.057 -0.3959  0.0638  2.8019
 4768SOL    HW225941   2.354   3.703   0.964  1.3625 -1.8419  0.4324
 4769SOL     OW25942   0.820   3.557   5.226  0.1561 -0.5820  0.2531
 4769SOL    HW125943   0.799   3.465   5.209 -1.0423 -0.2056 -0.2868
 4769SOL    HW225944   0.758   3.581   5.295 -0.4014 -1.8978  0.1953
 4770SOL     OW25945   2.998   3.740   7.994  0.5205  0.2850  0.7795
 4770SOL    HW125946   2.939   3.677   7.952  0.3327  0.7807  0.2922
 4770SOL    HW225947   2.948   3.819   8.016  0.9591  0.9523 -0.5503
 4771SOL     OW25948   1.040   4.007   7.309 -0.4348  0.2102  0.2323
 4771SOL    HW125949   1.042   3.923   7.355 -0.4455 -0.5893 -1.2113
 4771SOL    HW225950   1.126   4.038   7.337 -0.3404 -0.1189  0.3087
 4772SOL     OW25951   2.131   2.460   4.190 -0.3483 -0.0814 -0.0482
 4772SOL    HW125952   2.144   2.384   4.247  1.8631  0.0012 -0.4596
 4772SOL    HW225953   2.217   2.502   4.184  0.4611 -1.2212  3.3486
 4773SOL     OW25954   3.352   0.954  12.487 -0.2830 -0.0935 -0.0791
 4773SOL    HW125955   3.431   0.987  12.445 -0.7385 -0.0404 -0.9068
 4773SOL    HW225956   3.382   0.950  12.578  0.9649  1.9384 -0.4081
 4774SOL     OW25957   0.264   3.039  10.193  0.2054  0.4224 -0.6591
 4774SOL    HW125958   0.179   3.061  10.231 -0.2538 -0.3476 -1.2301
 4774SOL    HW225959   0.292   2.963  10.243 -1.2899  0.4429  0.2241
 4775SOL     OW25960   3.928   2.757   5.576  0.9294  0.5607 -0.6757
 4775SOL    HW125961   3.981   2.686   5.611  0.4038  0.0905 -0.8356
 4775SOL    HW225962   3.860   2.701   5.540 -0.5215  1.8150  0.1005
 4776SOL     OW25963   3.152   2.709  10.292 -0.1663  0.6597 -0.2353
 4776SOL    HW125964   3.139   2.614  10.292 -0.4350  0.6992  0.2017
 4776SOL    HW225965   3.163   2.724  10.386  3.9474 -2.6372 -0.1302
 4777SOL     OW25966   2.011   1.194   8.685 -0.2065  0.3052  0.1466
 4777SOL    HW125967   1.918   1.215   8.677 -0.2255 -1.0779 -2.9000
 4777SOL    HW225968   2.014   1.106   8.724 -0.7844  1.0589  1.9086
 4778SOL     OW25969   3.865   1.615  17.092 -0.5670  0.1566 -0.7598
 4778SOL    HW125970   3.943   1.565  17.067 -0.1526 -0.5164  1.8899
 4778SOL    HW225971   3.821   1.598  17.009  0.4742 -2.3917 -0.7850
 4779SOL     OW25972   0.097   3.430   6.325  0.0133  0.1808 -0.0050
 4779SOL    HW125973   0.154   3.368   6.278  0.0367  0.2569 -0.0780
 4779SOL    HW225974   0.135   3.433   6.413  0.1446 -0.7455 -0.0309
 4780SOL     OW25975   1.895   0.233   1.117  0.2705 -0.5011 -0.0782
 4780SOL    HW125976   1.952   0.218   1.192 -0.4913 -1.4296  0.3020
 4780SOL    HW225977   1.809   0.215   1.156  0.2254 -0.8366 -0.3404
 4781SOL     OW25978   0.180   2.698   4.657 -0.4647  0.3028  0.0265
 4781SOL    HW125979   0.169   2.653   4.741 -2.5998 -0.0956 -0.4640
 4781SOL    HW225980   0.263   2.740   4.679 -0.4244 -0.0601  0.5972
 4782SOL     OW25981   3.014   2.520   6.959 -0.1030 -0.2159 -0.4696
 4782SOL    HW125982   3.063   2.596   6.929 -1.1727  0.6391 -0.0573
 4782SOL    HW225983   2.946   2.567   7.008 -0.9202 -0.6949 -1.1540
 4783SOL     OW25984   2.338   0.672   0.268 -1.0653  0.4200 -0.3528
 4783SOL    HW125985   2.348   0.591   0.219 -0.6422 -0.3976  1.0908
 4783SOL    HW225986   2.346   0.737   0.198  1.8444  2.0793  1.4919
 4784SOL     OW25987   1.009   1.653   6.964 -0.2792 -0.4742 -0.4588
 4784SOL    HW125988   1.091   1.700   6.952 -1.1760  1.0892 -0.4273
 4784SOL    HW225989   1.011   1.604   7.046 -2.3285 -0.3328 -0.3157
 4785SOL     OW25990   4.208   1.829   2.032  0.3220  0.5386  0.0034
 4785SOL    HW125991   4.295   1.867   2.047  0.9616 -0.7210 -0.5859
 4785SOL    HW225992   4.226   1.755   1.975 -3.1237 -0.5015  0.3076
 4786SOL     OW25993   1.451   3.284   2.039  0.4557 -0.0657 -0.8377
 4786SOL    HW125994   1.370   3.256   2.083  1.7720  0.1696  1.7426
 4786SOL    HW225995   1.421   3.279   1.948  0.5990  0.4172 -0.9082
 4787SOL     OW25996   1.505   0.660   8.665 -0.1305  0.0521  0.4005
 4787SOL    HW125997   1.529   0.596   8.732 -0.9700 -1.3532 -0.6295
 4787SOL    HW225998   1.457   0.597   8.611 -0.9928  0.7777  0.3278
 4788SOL     OW25999   0.818   0.795  10.614  0.4340 -0.0875  0.2316
 4788SOL    HW126000   0.911   0.777  10.604  0.3196  0.7320 -2.3620
 4788SOL    HW226001   0.811   0.822  10.706 -1.9863  0.7521 -0.1934
 4789SOL     OW26002   1.597   2.191   9.028 -0.0614  1.0085  0.2991
 4789SOL    HW126003   1.529   2.128   9.004  1.0160  0.5120 -1.4711
 4789SOL    HW226004   1.546   2.264   9.063  0.5542  0.5498  2.1529
 4790SOL     OW26005   2.278   4.147   2.450  0.1758  0.5573 -0.4822
 4790SOL    HW126006   2.234   4.187   2.375 -0.0930  0.6416 -0.2780
 4790SOL    HW226007   2.312   4.223   2.499 -1.9891 -0.2430  2.2747
 4791SOL     OW26008   2.173   3.922   6.364 -0.4692  0.2845 -0.3151
 4791SOL    HW126009   2.177   3.916   6.269 -1.1706 -2.5634 -0.1434
 4791SOL    HW226010   2.264   3.898   6.380 -0.3435 -0.2789 -1.9220
 4792SOL     OW26011   4.680   0.788  11.879 -0.5823  0.7152  0.6500
 4792SOL    HW126012   4.647   0.715  11.931  1.3125  0.1565  1.0554
 4792SOL    HW226013   4.601   0.803  11.826 -0.3168  0.8230  0.2857
 4793SOL     OW26014   0.832   1.390  15.346  0.0938  0.2316 -0.0917
 4793SOL    HW126015   0.898   1.326  15.319  0.7147  0.7575  0.1864
 4793SOL    HW226016   0.848   1.458  15.282 -1.5405 -0.7745 -1.5487
 4794SOL     OW26017   1.728   2.141  12.253  0.2655  0.0333 -0.0474
 4794SOL    HW126018   1.708   2.051  12.276  0.1498 -0.0409 -0.4441
 4794SOL    HW226019   1.817   2.157  12.286  0.6961  0.5671 -1.4461
 4795SOL     OW26020   0.533   2.664   0.027  0.2709 -0.1053  0.0446
 4795SOL    HW126021   0.592   2.680   0.101  0.4731 -0.7657  0.0297
 4795SOL    HW226022   0.451   2.697   0.064 -0.1300 -0.2168 -0.7530
 4796SOL     OW26023   3.647   4.435   8.152 -0.7109  0.0505  0.0780
 4796SOL    HW126024   3.600   4.517   8.136  0.9291  1.0089  0.1705
 4796SOL    HW226025   3.719   4.454   8.092 -2.7494  0.7695 -2.1550
 4797SOL     OW26026   3.057   2.082  11.890 -0.3198 -0.1325 -0.0023
 4797SOL    HW126027   3.107   2.042  11.961 -0.0083  0.3843  0.0671
 4797SOL    HW226028   3.004   2.136  11.950  1.0599  0.2944  0.8251
 4798SOL     OW26029   0.392   4.442   0.517 -0.1587  0.3097  0.2657
 4798SOL    HW126030   0.394   4.538   0.515  1.7604  0.2959  1.4513
 4798SOL    HW226031   0.344   4.422   0.598 -0.2183  2.0182  0.6487
 4799SOL     OW26032   1.133   4.233   4.078  0.8717 -0.2139  0.3330
 4799SOL    HW126033   1.213   4.192   4.109  0.2015 -1.1978  0.7849
 4799SOL    HW226034   1.117   4.286   4.157 -1.7688  0.2876 -0.5442
 4800SOL     OW26035   1.157   3.577   4.121 -0.0313  0.4967  0.1457
 4800SOL    HW126036   1.171   3.484   4.101  0.7146  0.7400 -0.4906
 4800SOL    HW226037   1.070   3.578   4.159  0.0686  0.0165  0.3805
 4801SOL     OW26038   3.356   1.926   3.514 -0.4100  0.2943  0.4884
 4801SOL    HW126039   3.281   1.901   3.567 -0.7578 -2.9787 -1.5398
 4801SOL    HW226040   3.306   1.939   3.433 -1.0404  0.6129  0.9297
 4802SOL     OW26041   2.183   2.145   4.835 -0.5160  0.3652 -0.2190
 4802SOL    HW126042   2.161   2.130   4.928  0.2931  2.9782  0.3899
 4802SOL    HW226043   2.115   2.086   4.802 -0.4090 -0.7801  1.5968
 4803SOL     OW26044   0.887   3.332   2.554 -0.3889 -0.1581  0.4148
 4803SOL    HW126045   0.845   3.261   2.505  0.4366 -0.8156  0.6538
 4803SOL    HW226046   0.975   3.312   2.521 -0.0340  0.0750  1.2341
 4804SOL     OW26047   2.901   2.691   6.609  0.1763 -0.0500 -0.6330
 4804SOL    HW126048   2.878   2.612   6.657  1.2109 -0.2771 -0.5006
 4804SOL    HW226049   2.838   2.689   6.537  0.3219  1.4961 -0.8008
 4805SOL     OW26050   4.699   0.707   5.370  0.4069  0.0288 -0.7015
 4805SOL    HW126051   4.669   0.690   5.459  0.4277 -0.2097 -0.7413
 4805SOL    HW226052   4.734   0.795   5.385  0.4960  0.0134 -0.8191
 4806SOL     OW26053   2.775   3.957   0.300  0.0526  0.3369  0.1213
 4806SOL    HW126054   2.702   3.909   0.338 -2.0142  2.7582 -0.7819
 4806SOL    HW226055   2.766   3.923   0.211  2.0892 -1.5244  0.6265
 4807SOL     OW26056   2.654   3.532   3.295  0.6742  0.2428 -0.2519
 4807SOL    HW126057   2.674   3.459   3.354  0.2609 -0.1801 -0.6378
 4807SOL    HW226058   2.737   3.579   3.307 -0.6915  2.7600 -0.6152
 4808SOL     OW26059   1.750   3.742  17.029  0.1123 -0.7975  0.4618
 4808SOL    HW126060   1.693   3.667  17.011  1.0556 -1.4859  0.3614
 4808SOL    HW226061   1.788   3.747  16.941 -0.7128 -1.2990  0.0743
 4809SOL     OW26062   0.275   0.021   2.945  0.2560  0.4586 -0.5287
 4809SOL    HW126063   0.192   0.006   2.899 -0.6992 -0.7499  1.6180
 4809SOL    HW226064   0.322   0.085   2.891  1.2166  0.2631  0.0905
 4810SOL     OW26065   0.345   2.260  14.281  0.6173 -0.2336  0.0901
 4810SOL    HW126066   0.257   2.285  14.309 -0.2986 -1.3368 -1.7583
 4810SOL    HW226067   0.398   2.300  14.350  2.5216 -2.6040 -0.0025
 4811SOL     OW26068   4.611   2.693   2.636 -0.2899 -0.3333 -0.1741
 4811SOL    HW126069   4.624   2.737   2.720  1.6952 -1.8319  0.3264
 4811SOL    HW226070   4.601   2.601   2.660  3.1237 -0.9172 -0.9592
 4812SOL     OW26071   4.331   4.714   3.342 -0.0937 -0.6451  0.2415
 4812SOL    HW126072   4.356   4.621   3.338 -1.8517 -1.1394  0.6482
 4812SOL    HW226073   4.350   4.724   3.435  0.5463  0.9318 -0.0636
 4813SOL     OW26074   0.044   2.103   6.526 -0.0132 -0.7147  0.0865
 4813SOL    HW126075   4.727   2.095   6.605  1.5239 -0.7857  1.1384
 4813SOL    HW226076   0.127   2.115   6.571 -0.8346 -0.2183  1.4660
 4814SOL     OW26077   1.253   3.141   6.910 -0.4000  0.3846  0.7227
 4814SOL    HW126078   1.200   3.107   6.982 -0.0268 -0.4343  0.6163
 4814SOL    HW226079   1.282   3.056   6.876  3.6733  1.1880  2.2050
 4815SOL     OW26080   2.633   1.440  17.096 -0.4108 -0.9898 -0.0685
 4815SOL    HW126081   2.639   1.406  17.007  3.2249 -2.4615  0.7176
 4815SOL    HW226082   2.638   1.357  17.144  0.9815  0.2159  1.8763
 4816SOL     OW26083   1.015   2.007   7.043 -0.7879  0.6301  0.2880
 4816SOL    HW126084   0.933   2.056   7.038  0.4616  2.8401  1.6285
 4816SOL    HW226085   0.998   1.943   6.974 -4.6545  0.0433  1.7899
 4817SOL     OW26086   2.486   1.078  12.751  0.2205 -0.1533 -0.1633
 4817SOL    HW126087   2.477   1.172  12.734  3.7924  0.2584  0.1253
 4817SOL    HW226088   2.430   1.074  12.828  1.3598  0.3669  0.6961
 4818SOL     OW26089   1.907   0.244  13.307 -0.2136  0.0710 -0.6939
 4818SOL    HW126090   1.836   0.222  13.367 -0.4411 -0.0486 -1.0095
 4818SOL    HW226091   1.858   0.288  13.238  0.1858 -0.0624 -1.0610
 4819SOL     OW26092   3.603   2.804   3.985 -0.2714  0.6533  0.0502
 4819SOL    HW126093   3.627   2.877   3.928  1.5287 -0.7610 -0.9882
 4819SOL    HW226094   3.687   2.794   4.030  0.3593 -4.6188 -2.3343
 4820SOL     OW26095   0.664   3.361   9.179 -0.1700 -0.5305 -0.1299
 4820SOL    HW126096   0.646   3.383   9.087  0.8560  0.3669 -0.1177
 4820SOL    HW226097   0.632   3.272   9.188 -2.3066  0.4423  1.8158
 4821SOL     OW26098   0.796   0.640   6.049 -0.2631  0.7799 -0.1554
 4821SOL    HW126099   0.762   0.674   6.132  0.4603 -0.2989  0.5822
 4821SOL    HW226100   0.718   0.627   5.996 -1.1907  2.1663  0.8720
 4822SOL     OW26101   4.219   4.163   4.658 -0.2175  0.3680 -0.2862
 4822SOL    HW126102   4.278   4.128   4.591 -1.0793  1.7564 -1.7954
 4822SOL    HW226103   4.286   4.192   4.719 -0.2951 -0.9257  0.4113
 4823SOL     OW26104   1.859   1.284  13.473 -0.2469  0.5257  0.0194
 4823SOL    HW126105   1.792   1.226  13.510 -0.0883 -0.0896 -0.6669
 4823SOL    HW226106   1.810   1.365  13.459  0.0321  0.0997 -3.3209
 4824SOL     OW26107   0.871   1.729  14.348  1.4715  0.6644 -0.4915
 4824SOL    HW126108   0.838   1.658  14.293  1.4140 -0.1302  0.5758
 4824SOL    HW226109   0.838   1.709  14.436  0.7240 -0.6183 -1.0720
 4825SOL     OW26110   3.920   0.441   2.536  0.0336  0.1853  0.3870
 4825SOL    HW126111   3.836   0.426   2.579  1.4493 -2.2130  2.2900
 4825SOL    HW226112   3.916   0.536   2.527 -0.7124  0.1511  0.2973
 4826SOL     OW26113   1.340   4.031  12.718 -0.7131 -0.0617  0.3963
 4826SOL    HW126114   1.315   4.121  12.699  2.7453  1.1554  1.5097
 4826SOL    HW226115   1.256   3.986  12.717 -0.9234  0.3560 -0.3755
 4827SOL     OW26116   2.160   2.049   8.333 -0.0954  0.1424 -0.1023
 4827SOL    HW126117   2.154   2.122   8.272 -1.3373 -0.4470 -0.6847
 4827SOL    HW226118   2.238   2.071   8.384 -0.9046  3.3518 -0.2658
 4828SOL     OW26119   0.959   0.090   9.329 -0.2197 -0.5081 -0.3202
 4828SOL    HW126120   1.022   0.161   9.332  0.3308 -1.0380  0.7046
 4828SOL    HW226121   0.925   0.105   9.417  0.1879  2.3047 -0.6445
 4829SOL     OW26122   1.218   0.296   1.126  0.0555 -0.8367  0.1607
 4829SOL    HW126123   1.131   0.282   1.089 -0.0065 -2.1922  0.8146
 4829SOL    HW226124   1.229   0.381   1.084 -1.8026 -0.7548 -0.1478
 4830SOL     OW26125   0.266   4.489   6.852  0.0870 -0.1119  0.3561
 4830SOL    HW126126   0.269   4.467   6.945 -0.3378  1.2473  0.6841
 4830SOL    HW226127   0.297   4.407   6.813  0.0196 -0.7974  1.7308
 4831SOL     OW26128   0.883   3.141   3.004 -0.0014  0.2990  0.4230
 4831SOL    HW126129   0.859   3.234   3.002  0.9924  0.5670  0.9817
 4831SOL    HW226130   0.969   3.140   2.961  0.1119  3.8693  0.4924
 4832SOL     OW26131   0.486   0.140   5.879  0.0521 -0.7453  0.4718
 4832SOL    HW126132   0.463   0.092   5.799 -0.7144 -2.7518  1.9141
 4832SOL    HW226133   0.491   0.070   5.943  1.4621 -0.0276  1.1385
 4833SOL     OW26134   0.240   1.125  10.186  0.1818  1.0166  0.3119
 4833SOL    HW126135   0.182   1.182  10.235 -0.1393 -0.9641  2.2246
 4833SOL    HW226136   0.323   1.151  10.226  1.6553  0.2776 -2.2416
 4834SOL     OW26137   2.048   4.176   1.608  0.0008  0.1368 -0.0666
 4834SOL    HW126138   2.084   4.100   1.654  0.8721 -0.5614 -1.9123
 4834SOL    HW226139   2.097   4.169   1.526  1.2171 -1.0544  0.7593
 4835SOL     OW26140   2.105   4.120   0.278 -0.0651 -0.0552 -0.6777
 4835SOL    HW126141   2.021   4.115   0.323  0.2106  1.0933 -0.0384
 4835SOL    HW226142   2.161   4.069   0.336 -0.4204 -2.0563 -2.1032
 4836SOL     OW26143   2.453   3.306   5.006  0.0462 -0.1277 -0.1398
 4836SOL    HW126144   2.363   3.333   4.988  0.0760 -0.6311 -1.0834
 4836SOL    HW226145   2.471   3.376   5.068 -0.3192 -1.2339  1.2129
 4837SOL     OW26146   3.857   4.092   8.142  0.3123 -0.1590  0.9075
 4837SOL    HW126147   3.914   4.158   8.103  1.1405 -0.2061  2.0334
 4837SOL    HW226148   3.815   4.150   8.206 -0.1438  0.8044 -0.2732
 4838SOL     OW26149   0.463   0.420  10.857  0.8246  0.0062  0.4515
 4838SOL    HW126150   0.424   0.472  10.928 -2.0571 -0.9875 -0.4413
 4838SOL    HW226151   0.544   0.469  10.841  1.5536 -1.4243 -0.1659
 4839SOL     OW26152   3.853   3.541   0.158  0.2953  0.1005  0.0631
 4839SOL    HW126153   3.937   3.535   0.112  0.3577 -0.7902  0.2896
 4839SOL    HW226154   3.847   3.632   0.185  4.0490  0.7493 -1.2512
 4840SOL     OW26155   3.284   4.075  12.056 -0.6289  0.2292  0.4370
 4840SOL    HW126156   3.282   4.009  12.125 -2.7389  0.1691  0.3239
 4840SOL    HW226157   3.295   4.152  12.111  1.1619  0.1199  0.2290
 4841SOL     OW26158   4.286   2.137   7.836  0.0098  0.1322 -0.0815
 4841SOL    HW126159   4.322   2.157   7.749  1.6336 -0.7793  0.3858
 4841SOL    HW226160   4.331   2.208   7.881 -0.6923 -0.6875  1.8933
 4842SOL     OW26161   1.432   4.481   4.157 -1.0893 -0.1099  0.1284
 4842SOL    HW126162   1.447   4.417   4.227  0.3445 -0.5812 -0.5996
 4842SOL    HW226163   1.492   4.446   4.090 -2.1795 -1.7162 -0.0149
 4843SOL     OW26164   2.710   1.453   6.899  0.1359  0.6042 -0.7254
 4843SOL    HW126165   2.704   1.521   6.965 -0.7068  0.2301 -0.4206
 4843SOL    HW226166   2.801   1.426   6.912 -0.1359 -0.3727 -0.8518
 4844SOL     OW26167   4.235   2.150  11.357 -0.4236  0.4396  0.3828
 4844SOL    HW126168   4.154   2.143  11.408 -0.6912 -1.2341 -0.2535
 4844SOL    HW226169   4.200   2.184  11.275 -3.6692 -2.0438  0.7447
 4845SOL     OW26170   1.907   3.355   7.920 -0.5950 -0.3624 -0.8776
 4845SOL    HW126171   1.856   3.401   7.854  0.8337 -1.6854 -2.9066
 4845SOL    HW226172   1.977   3.420   7.925 -0.9117 -0.2099  1.5113
 4846SOL     OW26173   4.241   0.293   8.518 -0.2186 -0.2944  0.2090
 4846SOL    HW126174   4.313   0.351   8.493  0.9409 -0.4092  3.2635
 4846SOL    HW226175   4.183   0.340   8.458 -0.5661  0.4247  1.1113
 4847SOL     OW26176   0.465   4.140  10.547 -0.2774 -0.0650 -0.5640
 4847SOL    HW126177   0.373   4.167  10.550 -0.7038 -1.5520 -0.1397
 4847SOL    HW226178   0.504   4.217  10.506  1.3338 -0.6695 -0.1640
 4848SOL     OW26179   4.284   3.699   8.703  0.1315  0.3953 -0.0934
 4848SOL    HW126180   4.208   3.662   8.747 -0.9679  1.0756 -1.4192
 4848SOL    HW226181   4.244   3.738   8.625  1.0970  0.0041 -0.7770
 4849SOL     OW26182   2.954   4.577   1.819 -0.2812 -0.9525 -0.1698
 4849SOL    HW126183   2.995   4.587   1.905 -0.9115  0.2994 -0.0229
 4849SOL    HW226184   2.998   4.500   1.782  1.4309 -0.8668  1.6480
 4850SOL     OW26185   1.185   3.893  10.903  0.3344 -0.1029  0.8887
 4850SOL    HW126186   1.210   3.822  10.963  0.4491 -0.1748  0.7565
 4850SOL    HW226187   1.144   3.849  10.829  1.0451  0.0592  0.4013
 4851SOL     OW26188   1.679   2.221   8.116  0.1394  0.0848 -0.4384
 4851SOL    HW126189   1.710   2.272   8.191 -1.3986  0.8299 -0.3208
 4851SOL    HW226190   1.694   2.285   8.047  0.1478  0.2304 -0.3018
 4852SOL     OW26191   1.493   3.784  14.675  0.2344  0.2227  0.2378
 4852SOL    HW126192   1.513   3.802  14.583  0.1335  0.1121  0.1939
 4852SOL    HW226193   1.424   3.850  14.692  0.0002  0.0230  0.0634
 4853SOL     OW26194   1.637   2.341   2.826 -0.7766 -0.0809 -0.0330
 4853SOL    HW126195   1.710   2.345   2.764 -0.0033  0.2032  0.9017
 4853SOL    HW226196   1.668   2.283   2.895  0.7642  1.1975  0.3478
 4854SOL     OW26197   3.451   3.861   4.620 -0.2000 -0.2298  0.6421
 4854SOL    HW126198   3.512   3.821   4.682 -0.2720 -2.2060 -0.5643
 4854SOL    HW226199   3.478   3.953   4.625 -1.1637  0.1894 -1.6173
 4855SOL     OW26200   2.240   3.561   4.606 -0.4322 -0.5781  0.0489
 4855SOL    HW126201   2.168   3.519   4.653 -1.2724 -1.6626 -2.2556
 4855SOL    HW226202   2.191   3.617   4.546  1.3036 -0.4290 -1.2065
 4856SOL     OW26203   2.108   2.855   1.794 -0.2182 -0.2982  0.2405
 4856SOL    HW126204   2.093   2.835   1.886  1.0044 -0.9610  0.2928
 4856SOL    HW226205   2.202   2.837   1.792 -0.3120 -0.7029 -0.6856
 4857SOL     OW26206   4.375   4.401  16.597  0.0337 -0.0646  0.8973
 4857SOL    HW126207   4.418   4.483  16.573  0.5089 -0.7006 -0.4470
 4857SOL    HW226208   4.423   4.363  16.670 -0.0951 -0.7112  0.6460
 4858SOL     OW26209   1.364   4.087   4.168  0.0337 -0.5366  0.1663
 4858SOL    HW126210   1.427   4.037   4.116  0.6660  0.5547 -0.1254
 4858SOL    HW226211   1.426   4.120   4.234  0.3229  0.6437 -0.6991
 4859SOL     OW26212   3.187   2.023   3.293 -0.4761 -0.4073 -0.3987
 4859SOL    HW126213   3.197   1.939   3.249 -2.1656 -0.6783 -0.2711
 4859SOL    HW226214   3.110   2.061   3.250 -0.6295  0.3215  0.5329
 4860SOL     OW26215   0.962   2.897   5.528  0.1657 -0.3741 -0.1195
 4860SOL    HW126216   0.985   2.830   5.463 -2.8818 -0.5195 -1.0266
 4860SOL    HW226217   0.970   2.850   5.611 -1.6392 -1.9810 -0.8406
 4861SOL     OW26218   4.481   2.473   6.086  0.4120  0.2306 -0.1855
 4861SOL    HW126219   4.491   2.381   6.063 -1.6230 -0.3602  1.3194
 4861SOL    HW226220   4.515   2.467   6.175 -0.7203 -1.2416  0.1364
 4862SOL     OW26221   2.479   4.088   9.401 -0.8156 -0.1493  1.0809
 4862SOL    HW126222   2.386   4.089   9.379 -0.3858  0.1560 -0.6984
 4862SOL    HW226223   2.481   4.009   9.456  0.1826 -1.7894 -1.3419
 4863SOL     OW26224   1.683   2.361   6.823  0.2162 -0.9304  0.1327
 4863SOL    HW126225   1.774   2.382   6.801 -0.0298  1.8317  1.7161
 4863SOL    HW226226   1.690   2.312   6.905  2.5931 -0.0992  0.4287
 4864SOL     OW26227   1.560   2.448   3.645 -0.3772  0.8632 -0.1916
 4864SOL    HW126228   1.618   2.515   3.607  1.1379 -0.6884 -0.6436
 4864SOL    HW226229   1.618   2.429   3.719 -1.0050 -1.7109 -0.3510
 4865SOL     OW26230   3.124   4.060   7.001 -0.4111  0.2530 -0.4592
 4865SOL    HW126231   3.145   4.052   7.094  1.3868  0.9853 -0.7991
 4865SOL    HW226232   3.037   4.020   7.014  0.5205 -1.1847  1.3481
 4866SOL     OW26233   2.985   1.161  13.546  0.2567  0.1631 -0.1942
 4866SOL    HW126234   3.004   1.238  13.599  0.6360  0.2987 -0.5242
 4866SOL    HW226235   3.025   1.183  13.461  0.4225 -2.5768 -0.8323
 4867SOL     OW26236   0.718   1.107   4.792  0.0046  0.0851  0.0796
 4867SOL    HW126237   0.660   1.044   4.835 -0.8388  0.5953 -0.3023
 4867SOL    HW226238   0.771   1.137   4.866  0.4870  2.5671 -1.2723
 4868SOL     OW26239   0.890   2.689   2.030 -0.6703  0.1978  0.6793
 4868SOL    HW126240   0.853   2.774   2.055 -1.6342  0.4720 -1.6879
 4868SOL    HW226241   0.848   2.670   1.946 -1.4611  0.0150  1.1226
 4869SOL     OW26242   0.135   3.112  16.670  0.4051  0.0058  0.1836
 4869SOL    HW126243   0.144   3.115  16.765 -1.8239 -0.0698  0.3988
 4869SOL    HW226244   0.040   3.108  16.669  0.3138  1.9204  1.5068
 4870SOL     OW26245   2.275   3.573   6.839  0.2022  0.1737 -0.3375
 4870SOL    HW126246   2.226   3.509   6.787 -1.1871  0.7982  0.2206
 4870SOL    HW226247   2.226   3.650   6.811 -2.3766 -1.8166 -1.2523
 4871SOL     OW26248   0.842   0.851   4.224  0.1932  0.1871 -0.6758
 4871SOL    HW126249   0.794   0.795   4.163  1.2081 -0.5656 -0.7832
 4871SOL    HW226250   0.782   0.926   4.222 -2.4484 -1.8779  0.7087
 4872SOL     OW26251   3.104   0.369   7.666  0.2832  0.2629 -0.1344
 4872SOL    HW126252   3.038   0.326   7.721 -1.0763  0.3822 -1.6751
 4872SOL    HW226253   3.113   0.310   7.591 -2.0050  0.5888 -0.6541
 4873SOL     OW26254   1.241   2.640   7.074 -0.1481 -0.4484  0.0590
 4873SOL    HW126255   1.307   2.575   7.052  0.8836  1.2304 -1.7499
 4873SOL    HW226256   1.174   2.630   7.006  0.4915  1.5066 -0.8753
 4874SOL     OW26257   0.358   4.734   7.053 -0.2943 -0.0188 -0.6330
 4874SOL    HW126258   0.371   4.707   6.963  2.6934 -0.8210  0.0483
 4874SOL    HW226259   0.448   4.726   7.084  0.3555 -1.7914 -2.9802
 4875SOL     OW26260   0.155   2.777   5.293  0.1320 -0.2968  0.2304
 4875SOL    HW126261   0.246   2.763   5.269  1.1500  2.1052  2.6957
 4875SOL    HW226262   0.124   2.686   5.288 -1.2255  0.1399  0.7445
 4876SOL     OW26263   3.636   1.526   8.870  0.3600 -0.1488 -0.2351
 4876SOL    HW126264   3.576   1.455   8.850 -0.1875  0.4111 -0.5992
 4876SOL    HW226265   3.581   1.602   8.891  0.2304 -0.6192  1.1365
 4877SOL     OW26266   1.361   4.216  11.914  0.0211  0.0990  0.4308
 4877SOL    HW126267   1.314   4.300  11.908  0.5561  0.2786 -1.4008
 4877SOL    HW226268   1.443   4.241  11.957 -0.6282  0.9144  1.1877
 4878SOL     OW26269   2.587   4.672   0.556 -0.0638 -0.7696 -0.2392
 4878SOL    HW126270   2.512   4.730   0.570  1.2851  0.9687 -0.2679
 4878SOL    HW226271   2.585   4.661   0.461  0.6922  2.8426 -0.6313
 4879SOL     OW26272   4.655   2.390   5.296  0.8635 -0.1407  0.2806
 4879SOL    HW126273   4.601   2.325   5.251 -1.0729  0.5409  1.5873
 4879SOL    HW226274   4.614   2.465   5.253 -0.4544 -1.7057 -1.1601
 4880SOL     OW26275   0.634   2.212   3.656 -0.5293  0.1424 -0.1589
 4880SOL    HW126276   0.642   2.153   3.732  0.0157  1.1048  0.5255
 4880SOL    HW226277   0.702   2.186   3.594  0.2164  1.7254  0.0174
 4881SOL     OW26278   3.384   3.306  10.222 -0.7395  0.3430  0.7791
 4881SOL    HW126279   3.412   3.264  10.141 -1.3060  3.1360 -0.8495
 4881SOL    HW226280   3.339   3.385  10.192  0.1082  1.7810  3.3055
 4882SOL     OW26281   1.231   3.192   1.857  0.5211  1.1225 -0.2622
 4882SOL    HW126282   1.164   3.260   1.859  0.1502  0.7893 -1.1877
 4882SOL    HW226283   1.204   3.145   1.778 -0.6938  0.7537  0.3688
 4883SOL     OW26284   0.493   3.984   2.566 -0.5465 -0.6674 -0.0401
 4883SOL    HW126285   0.548   3.997   2.644 -0.9289  2.9093 -0.3618
 4883SOL    HW226286   0.434   3.914   2.594 -0.6973 -0.0565  1.1936
 4884SOL     OW26287   4.334   2.310   8.777 -0.9849 -0.3484 -0.4614
 4884SOL    HW126288   4.294   2.350   8.854  2.3902 -1.2027  1.7169
 4884SOL    HW226289   4.411   2.269   8.815  0.3669  0.7166 -2.0082
 4885SOL     OW26290   0.215   3.551  10.615 -0.0719  0.2315  0.0118
 4885SOL    HW126291   0.192   3.629  10.565  4.1603  0.0033 -2.3437
 4885SOL    HW226292   0.171   3.488  10.559  0.6508 -0.9123  0.7313
 4886SOL     OW26293   0.353   0.287   0.250  0.4224  0.3559 -0.1370
 4886SOL    HW126294   0.376   0.303   0.159  1.1056  0.9867  0.1391
 4886SOL    HW226295   0.293   0.212   0.252  0.8226  0.0445  0.2921
 4887SOL     OW26296   0.224   4.351   3.964 -0.4103  0.7418  0.8545
 4887SOL    HW126297   0.173   4.271   3.950 -1.1894  1.7144 -1.8299
 4887SOL    HW226298   0.312   4.317   3.980 -0.3307  0.9322  0.8162
 4888SOL     OW26299   2.394   3.208   9.313 -0.2152 -0.2234 -0.0893
 4888SOL    HW126300   2.305   3.174   9.317  0.0860 -0.7176  2.2749
 4888SOL    HW226301   2.376   3.302   9.319  0.4312 -0.1012 -0.0757
 4889SOL     OW26302   1.519   0.815   3.147  0.1162  0.4692  0.5982
 4889SOL    HW126303   1.445   0.826   3.206 -1.8615  0.3621 -1.8430
 4889SOL    HW226304   1.500   0.871   3.071 -0.4648 -1.3312 -0.5871
 4890SOL     OW26305   4.168   0.540   9.294 -0.2723 -0.4457 -0.1531
 4890SOL    HW126306   4.237   0.479   9.268 -0.0041  0.1724 -0.8645
 4890SOL    HW226307   4.209   0.573   9.374 -1.0121  0.4792 -0.1553
 4891SOL     OW26308   0.887   3.492   7.537 -0.0620 -0.0178 -0.2287
 4891SOL    HW126309   0.838   3.423   7.583  0.8205 -0.3648  0.2007
 4891SOL    HW226310   0.890   3.558   7.606 -0.9283  1.0904 -1.2689
 4892SOL     OW26311   3.731   2.626  12.931  0.2019 -0.0552 -0.4043
 4892SOL    HW126312   3.767   2.657  12.847 -1.1279  0.0053 -0.9529
 4892SOL    HW226313   3.689   2.708  12.956  1.3607  0.4553 -0.1365
 4893SOL     OW26314   1.458   2.708  17.057 -0.1857 -0.0106 -0.4677
 4893SOL    HW126315   1.441   2.726  16.965  0.3758  1.3633 -0.3115
 4893SOL    HW226316   1.405   2.629  17.069  0.7503 -0.1210  3.1710
 4894SOL     OW26317   3.838   2.769   7.533 -0.3035  0.3750 -0.3969
 4894SOL    HW126318   3.920   2.818   7.538 -1.0490  1.4830  0.7106
 4894SOL    HW226319   3.792   2.813   7.604  2.3325  1.4729  0.6148
 4895SOL     OW26320   2.610   0.049   6.770 -0.2015  0.5377 -0.0344
 4895SOL    HW126321   2.666   0.089   6.837 -2.1866  2.1311  0.6446
 4895SOL    HW226322   2.534   0.099   6.799 -0.1315  1.8226 -2.0808
 4896SOL     OW26323   1.789   0.668   5.768  0.5611 -0.3954 -0.8583
 4896SOL    HW126324   1.698   0.648   5.746  0.5065  0.0865 -1.0784
 4896SOL    HW226325   1.800   0.756   5.733 -1.7004  0.9594  1.8060
 4897SOL     OW26326   1.129   3.458   3.136 -0.2944  0.8078 -0.0347
 4897SOL    HW126327   1.037   3.471   3.113 -0.8666  0.2938  1.9314
 4897SOL    HW226328   1.161   3.445   3.047 -0.7793  2.4140 -0.4327
 4898SOL     OW26329   2.108   3.218   2.626 -0.3098 -0.1790 -0.2050
 4898SOL    HW126330   2.013   3.230   2.624 -0.1367  1.1582 -0.4005
 4898SOL    HW226331   2.129   3.293   2.571 -1.8447  1.7897  1.8996
 4899SOL     OW26332   1.457   1.327   7.691  0.3142  0.0514  0.0439
 4899SOL    HW126333   1.498   1.413   7.689 -0.7109  0.5160 -1.1385
 4899SOL    HW226334   1.504   1.282   7.621  0.2882 -1.1400  0.7773
 4900SOL     OW26335   0.503   1.725   0.530 -0.0442  0.1561  0.2648
 4900SOL    HW126336   0.566   1.682   0.588  0.5839  1.1827  0.3308
 4900SOL    HW226337   0.439   1.761   0.592 -0.5567 -0.8853  0.3398
 4901SOL     OW26338   4.563   4.660   8.464 -0.2370  0.0082 -0.1808
 4901SOL    HW126339   4.494   4.655   8.531  0.4765 -3.3172  0.3159
 4901SOL    HW226340   4.640   4.627   8.512 -0.0790  0.8830  0.1541
 4902SOL     OW26341   0.713   3.840   5.750  0.2164 -0.0946  0.5775
 4902SOL    HW126342   0.638   3.878   5.795  1.4910 -1.0601  3.5392
 4902SOL    HW226343   0.716   3.756   5.796 -1.0643 -0.0950  0.6478
 4903SOL     OW26344   2.182   1.189   5.749  0.0859 -0.2559 -0.2632
 4903SOL    HW126345   2.205   1.245   5.674  0.1618 -0.5225 -0.4375
 4903SOL    HW226346   2.105   1.231   5.789  1.8926  2.8149 -0.0026
 4904SOL     OW26347   3.258   2.468  16.125 -0.1341 -0.4451  0.3473
 4904SOL    HW126348   3.225   2.399  16.182  1.0491 -0.0478  1.5126
 4904SOL    HW226349   3.212   2.450  16.043 -0.1015  0.6441  0.0916
 4905SOL     OW26350   1.162   0.833   5.767  0.1637 -0.3781  0.3583
 4905SOL    HW126351   1.102   0.840   5.842 -0.6228  1.8265 -0.4877
 4905SOL    HW226352   1.252   0.833   5.800  0.4126 -1.5286 -0.3319
 4906SOL     OW26353   2.581   1.390  13.328  0.3333 -0.6790  0.5085
 4906SOL    HW126354   2.639   1.314  13.336  0.0501 -1.0503 -0.8938
 4906SOL    HW226355   2.542   1.372  13.242 -1.1177 -0.5725  1.1422
 4907SOL     OW26356   0.415   3.057  16.348  0.1417 -0.0074 -0.0290
 4907SOL    HW126357   0.393   3.128  16.408 -0.1665  1.1344 -1.5157
 4907SOL    HW226358   0.334   3.007  16.338  0.7772 -1.0498 -0.0544
 4908SOL     OW26359   4.149   1.652   2.279 -0.2606  0.2261  0.0612
 4908SOL    HW126360   4.090   1.700   2.337  0.2121  0.8127  0.0562
 4908SOL    HW226361   4.179   1.719   2.219  1.6942 -0.6753 -0.0053
 4909SOL     OW26362   1.809   1.193   6.933 -0.0564 -0.1613  0.0083
 4909SOL    HW126363   1.890   1.240   6.951  1.2588 -1.7651 -1.6899
 4909SOL    HW226364   1.835   1.133   6.863 -1.1382  0.1544 -0.6829
 4910SOL     OW26365   2.875   1.757   7.980 -0.6332 -0.0392  0.1329
 4910SOL    HW126366   2.892   1.836   8.032  1.0514 -1.0297  1.0673
 4910SOL    HW226367   2.967   1.742   7.955 -0.5017 -0.1026  0.6569
 4911SOL     OW26368   0.180   1.295   6.712 -0.6944 -0.0234  0.0112
 4911SOL    HW126369   0.113   1.227   6.725 -0.5234 -0.0341  0.8670
 4911SOL    HW226370   0.206   1.268   6.624 -1.0694 -0.4232  0.0220
 4912SOL     OW26371   4.708   2.346  12.471 -0.8752  0.2807  0.4496
 4912SOL    HW126372   0.063   2.342  12.493 -0.8015 -0.7253 -0.0577
 4912SOL    HW226373   4.718   2.393  12.388 -3.8446  0.5019  0.2269
 4913SOL     OW26374   4.603   3.710  10.239 -0.2969  0.2321 -0.3687
 4913SOL    HW126375   4.556   3.680  10.161 -1.0277  0.2908  0.0423
 4913SOL    HW226376   4.552   3.785  10.271  1.3540  1.5395 -0.8239
 4914SOL     OW26377   3.190   0.850  12.291 -0.2250 -0.0548  0.1048
 4914SOL    HW126378   3.229   0.909  12.356  2.2134 -1.5663  0.0138
 4914SOL    HW226379   3.161   0.777  12.345  0.7901 -0.8596 -0.4299
 4915SOL     OW26380   1.539   0.796   5.506  0.4024  0.1256  0.2341
 4915SOL    HW126381   1.447   0.787   5.481 -0.0097  0.2441  1.7059
 4915SOL    HW226382   1.563   0.705   5.519  1.6917  0.3593 -0.5072
 4916SOL     OW26383   4.189   3.639   5.971  0.1384 -0.0819  0.1230
 4916SOL    HW126384   4.237   3.570   6.017 -0.4139 -1.6575 -1.6475
 4916SOL    HW226385   4.186   3.608   5.880 -0.8523  1.7978 -0.4846
 4917SOL     OW26386   2.091   0.690   1.875  0.0188  0.5561  0.0005
 4917SOL    HW126387   2.129   0.641   1.803 -0.3408  1.9688 -1.1664
 4917SOL    HW226388   2.165   0.714   1.931 -1.5297  1.8409  1.4973
 4918SOL     OW26389   0.339   4.197   5.195 -0.3033  0.0470 -0.4632
 4918SOL    HW126390   0.378   4.284   5.187 -0.5690  0.4031  2.1478
 4918SOL    HW226391   0.417   4.142   5.196 -0.2701  0.1161  0.6143
 4919SOL     OW26392   1.985   4.208   6.306 -0.2916  0.0167  0.0213
 4919SOL    HW126393   1.895   4.235   6.324  0.7535  1.5672  2.8217
 4919SOL    HW226394   1.978   4.119   6.271 -1.2212 -0.2018  0.7591
 4920SOL     OW26395   3.131   2.451   6.388  0.3193 -0.8587  0.1412
 4920SOL    HW126396   3.223   2.476   6.392  0.4524 -1.2903 -0.2542
 4920SOL    HW226397   3.092   2.515   6.448  1.1059  0.4455 -0.7344
 4921SOL     OW26398   3.887   0.873   9.025  0.5237  0.1816 -0.6081
 4921SOL    HW126399   3.969   0.826   9.041 -0.1839 -1.6319 -2.3924
 4921SOL    HW226400   3.842   0.800   8.983 -2.0206  0.0280  2.4144
 4922SOL     OW26401   3.595   1.301   6.382 -0.0428  0.6696  0.6206
 4922SOL    HW126402   3.560   1.250   6.309  0.3946  1.5336 -0.1771
 4922SOL    HW226403   3.526   1.287   6.447 -1.1807 -1.2043 -0.9796
 4923SOL     OW26404   3.248   3.233  14.049 -0.6300  0.0274  0.0990
 4923SOL    HW126405   3.323   3.181  14.077 -0.8842  0.4862  1.6000
 4923SOL    HW226406   3.220   3.274  14.130  1.8713  0.7044  0.6111
 4924SOL     OW26407   0.622   2.241   1.225 -0.4680 -0.6062  0.0507
 4924SOL    HW126408   0.693   2.303   1.240 -0.7782 -0.4942  1.1003
 4924SOL    HW226409   0.673   2.161   1.236  4.3335  2.4653 -0.0889
 4925SOL     OW26410   0.739   3.416   1.607  0.8228 -0.2856  0.6328
 4925SOL    HW126411   0.800   3.347   1.634  0.5916 -1.2764 -1.4230
 4925SOL    HW226412   0.714   3.396   1.517  1.1291  0.1230  0.4577
 4926SOL     OW26413   2.725   1.145  11.279 -0.3764 -0.0257  0.0719
 4926SOL    HW126414   2.819   1.137  11.293 -0.0717 -0.9064 -2.4144
 4926SOL    HW226415   2.691   1.059  11.306  0.4664 -0.7657 -1.2137
 4927SOL     OW26416   4.495   1.175   1.311 -0.1630 -0.6814  0.6870
 4927SOL    HW126417   4.421   1.151   1.367 -1.2435 -0.8377 -0.8167
 4927SOL    HW226418   4.453   1.163   1.226 -2.1344 -2.6936  1.9484
 4928SOL     OW26419   3.857   4.344   3.065  0.1520  0.1997 -0.0705
 4928SOL    HW126420   3.828   4.318   3.153  1.6214 -2.5897 -0.3914
 4928SOL    HW226421   3.832   4.436   3.064 -2.5189 -0.5079 -2.2656
 4929SOL     OW26422   0.367   2.159   7.790 -0.1396  0.1224 -0.2013
 4929SOL    HW126423   0.422   2.231   7.821 -0.9152  1.0781 -1.0340
 4929SOL    HW226424   0.374   2.083   7.849  0.9519  1.4187  1.3368
 4930SOL     OW26425   3.742   1.568   1.995 -0.0819  0.2446 -0.3661
 4930SOL    HW126426   3.682   1.603   1.929 -1.6768 -0.4685  0.7050
 4930SOL    HW226427   3.826   1.579   1.950  0.6961 -1.4934  0.6371
 4931SOL     OW26428   3.731   0.216   4.296  0.2360  0.0105 -0.9048
 4931SOL    HW126429   3.696   0.281   4.234  0.0720  1.1938  0.4282
 4931SOL    HW226430   3.654   0.225   4.352  2.1294 -0.9192  1.8644
 4932SOL     OW26431   1.078   4.043   1.879  0.5409  0.1335 -0.4598
 4932SOL    HW126432   1.137   4.057   1.805  3.1118  1.3775  1.8077
 4932SOL    HW226433   1.143   3.994   1.931 -1.1169  0.7840  2.2044
 4933SOL     OW26434   2.109   2.879  11.894 -0.3751 -0.3530  0.6476
 4933SOL    HW126435   2.186   2.834  11.929 -1.7890 -0.6416  3.3529
 4933SOL    HW226436   2.145   2.963  11.864 -1.3416  0.7588  2.6468
 4934SOL     OW26437   2.589   3.245  12.597  0.4814 -0.2386  0.0874
 4934SOL    HW126438   2.607   3.316  12.657 -1.2558 -0.0513  0.4042
 4934SOL    HW226439   2.673   3.202  12.608  1.6818  1.6263 -1.8742
 4935SOL     OW26440   3.305   1.519   9.134  0.0249  0.4303  0.2120
 4935SOL    HW126441   3.246   1.586   9.100 -0.1799 -0.0363 -0.3666
 4935SOL    HW226442   3.395   1.541   9.109 -0.3710  2.4134  0.5501
 4936SOL     OW26443   3.363   0.827  17.632  0.4528  0.0062 -0.1831
 4936SOL    HW126444   3.351   0.874  17.550  0.8456  0.2616 -0.0937
 4936SOL    HW226445   3.445   0.787  17.604 -0.0626 -0.1193 -1.4963
 4937SOL     OW26446   0.779   2.977   4.060  0.4316  0.7682 -0.1364
 4937SOL    HW126447   0.764   2.959   4.153  2.4510  0.6338  0.1561
 4937SOL    HW226448   0.713   3.046   4.047  1.3553  2.1191  2.4003
 4938SOL     OW26449   3.186   1.037   8.838  0.3260 -0.1414  0.3155
 4938SOL    HW126450   3.243   1.092   8.783 -2.5091  0.5116 -1.9790
 4938SOL    HW226451   3.125   1.007   8.771 -0.2281 -0.3720  0.9250
 4939SOL     OW26452   4.438   1.315  16.589 -0.1469 -0.0255 -0.5869
 4939SOL    HW126453   4.503   1.342  16.654 -1.6439  1.4092  0.3227
 4939SOL    HW226454   4.473   1.352  16.507  0.9484 -0.7931 -0.4684
 4940SOL     OW26455   4.728   2.699   1.454  0.1572  0.1631  0.0801
 4940SOL    HW126456   4.719   2.722   1.546  0.5701  2.0965 -0.3661
 4940SOL    HW226457   0.086   2.691   1.452 -0.0389 -1.9503 -1.1097
 4941SOL     OW26458   3.250   0.733   4.672  0.0663  0.2499 -0.4615
 4941SOL    HW126459   3.314   0.766   4.735 -1.7681  0.0190  1.5552
 4941SOL    HW226460   3.280   0.645   4.693  0.0942  0.5893  0.9335
 4942SOL     OW26461   1.415   4.124   9.108 -0.1482 -0.4626  0.0929
 4942SOL    HW126462   1.326   4.144   9.078  0.0965  1.1768  0.4709
 4942SOL    HW226463   1.428   4.040   9.064  0.6590  0.9874 -2.4278
 4943SOL     OW26464   0.046   4.133   3.871 -0.2525 -0.1362 -0.4944
 4943SOL    HW126465   0.076   4.053   3.826  1.4506  0.4719 -0.4393
 4943SOL    HW226466   4.714   4.171   3.818 -2.8619 -0.2641  2.8550
 4944SOL     OW26467   1.562   2.271   4.229  0.2511 -0.2952  0.1723
 4944SOL    HW126468   1.620   2.274   4.305 -2.2529 -1.8425  2.1220
 4944SOL    HW226469   1.510   2.347   4.257  0.1560  0.0474 -0.9274
 4945SOL     OW26470   0.202   2.072   2.994 -0.3723 -0.2667  0.1070
 4945SOL    HW126471   0.256   2.038   2.923 -1.7960  0.2337 -1.2267
 4945SOL    HW226472   0.258   2.134   3.042  0.4883 -0.4483 -0.6776
 4946SOL     OW26473   1.728   3.244   8.131 -1.0437  0.4459  0.1951
 4946SOL    HW126474   1.698   3.235   8.040  0.4963 -0.9291 -0.1745
 4946SOL    HW226475   1.782   3.167   8.146 -0.9194  0.6674  0.8910
 4947SOL     OW26476   4.461   4.469   9.605  0.2396 -0.7479 -0.3778
 4947SOL    HW126477   4.368   4.453   9.585  0.6547 -1.4702 -1.7301
 4947SOL    HW226478   4.448   4.559   9.635  3.1919 -0.6596  0.5858
 4948SOL     OW26479   2.020   1.730   3.905  0.3035  0.2074  1.0203
 4948SOL    HW126480   2.091   1.754   3.845  2.2114 -0.9983  2.8035
 4948SOL    HW226481   2.033   1.635   3.914 -1.5825 -0.1180  0.4990
 4949SOL     OW26482   0.004   0.746   9.939  0.0341 -0.2974 -0.2734
 4949SOL    HW126483   0.035   0.827   9.900 -3.9441  0.3691 -1.9936
 4949SOL    HW226484   4.704   0.776  10.022 -1.2079  1.2188 -1.3955
 4950SOL     OW26485   0.670   4.562   4.375 -0.2403 -0.4469  0.2412
 4950SOL    HW126486   0.578   4.582   4.391 -0.4995 -1.7893  0.4374
 4950SOL    HW226487   0.700   4.550   4.465 -1.4910  0.1585  0.7336
 4951SOL     OW26488   1.193   3.958   1.600 -0.0820  0.5257 -0.0084
 4951SOL    HW126489   1.132   3.974   1.528 -2.0207 -1.6938  1.1003
 4951SOL    HW226490   1.268   3.939   1.544 -1.5975  0.6747 -2.0845
 4952SOL     OW26491   4.350   2.428   4.129 -0.2685 -0.5431 -0.5621
 4952SOL    HW126492   4.378   2.519   4.136  1.2308 -1.1695  1.7557
 4952SOL    HW226493   4.258   2.441   4.150 -0.1505 -0.6546  0.0314
 4953SOL     OW26494   3.823   3.657  10.159 -0.0632 -0.4972 -0.0964
 4953SOL    HW126495   3.842   3.564  10.169  0.3317 -0.5210 -1.1065
 4953SOL    HW226496   3.746   3.672  10.214  0.3060  1.9098 -0.2256
 4954SOL     OW26497   3.693   1.081   6.024 -0.4647  0.5896 -0.2745
 4954SOL    HW126498   3.664   1.074   5.933  1.2710  0.4104 -0.8159
 4954SOL    HW226499   3.693   1.177   6.032 -0.4123  0.6964 -1.4766
 4955SOL     OW26500   0.402   0.272   4.870 -0.2558 -0.5724 -0.3142
 4955SOL    HW126501   0.494   0.255   4.847  0.2845  1.6363  0.2361
 4955SOL    HW226502   0.373   0.184   4.844 -2.3070  0.0527 -0.0746
 4956SOL     OW26503   4.142   3.906   9.756 -0.7166 -0.1554  0.0104
 4956SOL    HW126504   4.098   3.885   9.673 -1.5265  1.3930  0.0520
 4956SOL    HW226505   4.071   3.893   9.819  1.7581  2.2802  3.2633
 4957SOL     OW26506   2.723   1.942   9.116  0.2703 -0.2264 -0.1064
 4957SOL    HW126507   2.764   1.931   9.202 -0.9757 -3.4729  0.0442
 4957SOL    HW226508   2.775   2.018   9.089 -1.4700  0.3786 -1.7416
 4958SOL     OW26509   0.661   0.448   7.782  0.3659 -0.1893 -0.0368
 4958SOL    HW126510   0.703   0.381   7.837  0.3419 -1.4543 -1.5425
 4958SOL    HW226511   0.734   0.497   7.745  1.0564  0.8147  2.6378
 4959SOL     OW26512   3.675   1.596   5.271  0.6200 -0.0453  0.1726
 4959SOL    HW126513   3.621   1.631   5.342  1.3558 -0.5126  0.9769
 4959SOL    HW226514   3.635   1.649   5.202 -1.1964 -0.8780  0.6006
 4960SOL     OW26515   0.361   4.050  15.359 -0.1435  0.5851 -0.4482
 4960SOL    HW126516   0.319   4.028  15.275  0.5477 -3.2318  0.2068
 4960SOL    HW226517   0.452   4.035  15.336  0.6748 -0.4517  3.4194
 4961SOL     OW26518   0.700   1.246   8.879  0.9885  0.2515  0.3396
 4961SOL    HW126519   0.650   1.225   8.958 -1.0800 -0.8015 -1.2283
 4961SOL    HW226520   0.762   1.313   8.906  1.5193 -0.7374  1.5608
 4962SOL     OW26521   4.697   3.953   5.202 -0.0860  0.4833  0.4121
 4962SOL    HW126522   4.638   3.898   5.150 -0.4468 -0.5441  1.9243
 4962SOL    HW226523   0.043   3.934   5.158  0.8519  0.3124  2.2925
 4963SOL     OW26524   4.599   3.234   2.607  0.2785  0.0121  0.0702
 4963SOL    HW126525   4.523   3.205   2.556  0.2453 -2.2466  1.4413
 4963SOL    HW226526   4.630   3.145   2.627 -2.1962 -0.9677 -0.5210
 4964SOL     OW26527   1.402   3.393   7.209  1.1865 -0.0672  0.8505
 4964SOL    HW126528   1.373   3.459   7.272  1.9414 -0.1153  1.2506
 4964SOL    HW226529   1.491   3.422   7.190  0.2537  1.7301 -0.8026
 4965SOL     OW26530   0.757   0.402   3.296  0.0495  0.4249  0.2265
 4965SOL    HW126531   0.680   0.392   3.240 -0.1064  2.7934  0.0060
 4965SOL    HW226532   0.734   0.336   3.362 -2.1251  1.1094  0.1493
 4966SOL     OW26533   0.192   0.081   3.460  0.3441 -0.0033  0.6511
 4966SOL    HW126534   0.165   0.173   3.463  0.7049  0.1647 -1.3397
 4966SOL    HW226535   0.228   0.066   3.373 -0.5248 -0.0708  0.3036
 4967SOL     OW26536   3.475   2.460   6.237  0.4730 -0.1505  0.4185
 4967SOL    HW126537   3.465   2.365   6.241 -0.3166 -0.0836 -0.0069
 4967SOL    HW226538   3.570   2.466   6.253  0.5002 -1.7238  0.8607
 4968SOL     OW26539   2.681   1.798   3.166 -0.2354  0.4422  0.4420
 4968SOL    HW126540   2.694   1.754   3.082 -1.8972  2.2279 -0.7558
 4968SOL    HW226541   2.590   1.774   3.185 -0.4750  1.7800  0.9801
 4969SOL     OW26542   1.684   4.722   4.213 -0.4443  0.1660  0.2291
 4969SOL    HW126543   1.605   0.015   4.169 -1.8018 -0.3881  2.3028
 4969SOL    HW226544   1.718   4.669   4.141 -1.5367 -0.9590  0.5413
 4970SOL     OW26545   4.150   3.522   8.452  0.5946  0.3416  0.1052
 4970SOL    HW126546   4.111   3.438   8.477  1.7379 -0.5132 -1.0487
 4970SOL    HW226547   4.077   3.565   8.407  0.8339 -0.9764 -1.5317
 4971SOL     OW26548   1.119   3.626   4.486  0.2915 -0.2364 -0.2008
 4971SOL    HW126549   1.058   3.645   4.414  0.0989  1.7886  0.5059
 4971SOL    HW226550   1.196   3.677   4.461 -0.0275  1.2782  1.9103
 4972SOL     OW26551   2.680   3.305   8.497  0.2395 -0.1426 -0.3198
 4972SOL    HW126552   2.707   3.396   8.486  0.8258 -0.0564  1.7495
 4972SOL    HW226553   2.747   3.266   8.554 -2.2217  0.7029  3.1951
 4973SOL     OW26554   4.633   4.355   6.212  0.2005  0.0988 -0.4309
 4973SOL    HW126555   4.649   4.266   6.181  0.1989  0.0641 -0.3319
 4973SOL    HW226556   4.554   4.376   6.162 -0.3544 -0.9318  0.0301
 4974SOL     OW26557   2.329   4.488   8.548  0.2268 -0.4144 -0.2794
 4974SOL    HW126558   2.279   4.570   8.545  2.2925  0.8115 -1.6881
 4974SOL    HW226559   2.390   4.499   8.475  2.0133  2.4881  1.6349
 4975SOL     OW26560   0.246   1.699   7.690 -0.1065  0.0427 -0.9480
 4975SOL    HW126561   0.341   1.685   7.694 -0.1569  0.2560  1.1205
 4975SOL    HW226562   0.243   1.751   7.770  0.4310 -1.5322  0.0842
 4976SOL     OW26563   4.539   0.332   2.651  0.6311  0.3940 -0.3591
 4976SOL    HW126564   4.608   0.329   2.717 -1.1819 -0.1413  1.5072
 4976SOL    HW226565   4.462   0.348   2.705  1.5216 -1.1382  1.3593
 4977SOL     OW26566   1.336   1.144   6.539 -0.0194 -0.7093  0.0488
 4977SOL    HW126567   1.394   1.206   6.583  0.5603 -0.7940 -0.6072
 4977SOL    HW226568   1.247   1.175   6.560  0.2217  0.8100 -1.1509
 4978SOL     OW26569   4.062   3.499  17.736  0.2048  0.8394  0.4268
 4978SOL    HW126570   4.070   3.467  17.646 -1.8453  0.2244  0.4668
 4978SOL    HW226571   4.144   3.463   0.021  0.1757 -0.5854 -1.0010
 4979SOL     OW26572   2.198   1.234  17.251 -0.0059  0.6525 -0.3277
 4979SOL    HW126573   2.215   1.222  17.157 -3.2480  0.3407 -0.8867
 4979SOL    HW226574   2.240   1.152  17.278 -0.1943  0.6319 -0.0961
 4980SOL     OW26575   0.947   1.700  17.361  0.4888 -0.8764 -0.0248
 4980SOL    HW126576   0.856   1.720  17.340  1.2046  2.7610  0.4318
 4980SOL    HW226577   0.949   1.712  17.456  0.6211  1.3696 -0.3123
 4981SOL     OW26578   0.652   3.631   6.307 -0.3635 -0.2820  0.1979
 4981SOL    HW126579   0.602   3.550   6.307 -0.6421 -0.1237 -1.5347
 4981SOL    HW226580   0.666   3.649   6.400 -1.1800 -2.4082  0.7244
 4982SOL     OW26581   2.749   1.701  12.082  0.1863  0.3026 -0.0383
 4982SOL    HW126582   2.761   1.769  12.015  0.1594  2.2859  1.9560
 4982SOL    HW226583   2.841   1.686  12.104  0.5553  2.8197  0.1346
 4983SOL     OW26584   0.424   1.145   5.263  0.1237 -0.8791  0.1354
 4983SOL    HW126585   0.347   1.102   5.301 -0.1509 -0.0544  0.5174
 4983SOL    HW226586   0.380   1.180   5.185 -2.3174 -2.0670  0.9813
 4984SOL     OW26587   1.341   3.827   4.434  0.3059 -0.5194 -0.0163
 4984SOL    HW126588   1.369   3.866   4.516 -2.0909  2.1642 -0.4551
 4984SOL    HW226589   1.406   3.760   4.412  1.7841  0.5047  1.3111
 4985SOL     OW26590   4.253   1.622   6.065 -0.3746 -0.0661  0.5334
 4985SOL    HW126591   4.281   1.632   6.155  0.2734  0.0249  0.3212
 4985SOL    HW226592   4.169   1.578   6.083 -0.5289  0.3639  0.8460
 4986SOL     OW26593   3.955   2.332   1.961 -0.6820 -0.4853 -0.6981
 4986SOL    HW126594   3.929   2.284   1.883  1.5573 -1.8533 -0.6157
 4986SOL    HW226595   3.925   2.276   2.032 -0.2196  1.3848  0.9787
 4987SOL     OW26596   1.890   4.388   2.156 -0.2651 -0.3894  0.0431
 4987SOL    HW126597   1.915   4.399   2.064 -1.0911  1.7425  0.0844
 4987SOL    HW226598   1.847   4.472   2.172 -1.9789 -1.0392 -1.1233
 4988SOL     OW26599   3.634   3.536   5.282  1.0689 -0.4920 -0.7477
 4988SOL    HW126600   3.708   3.486   5.316 -0.1602  0.3824  3.1862
 4988SOL    HW226601   3.689   3.596   5.231  0.7588  1.5403  1.3327
 4989SOL     OW26602   0.885   0.347   4.908  0.7316 -0.1171 -0.3731
 4989SOL    HW126603   0.948   0.328   4.978  1.9488  1.5098 -1.0197
 4989SOL    HW226604   0.872   0.441   4.923  0.6491 -0.2814  0.6205
 4990SOL     OW26605   3.259   2.238   4.898  0.5955 -0.5387 -0.0840
 4990SOL    HW126606   3.240   2.225   4.991  1.9241 -0.7595  0.1551
 4990SOL    HW226607   3.180   2.285   4.871 -0.5884 -1.8376  1.0605
 4991SOL     OW26608   2.427   1.655   6.191 -0.6300 -0.0866 -0.4651
 4991SOL    HW126609   2.472   1.634   6.110  2.6167  3.1208  0.5331
 4991SOL    HW226610   2.388   1.570   6.213 -3.1880  1.2172  0.0814
 4992SOL     OW26611   0.674   0.080  11.977 -0.0145  0.2854 -0.2070
 4992SOL    HW126612   0.706   4.738  12.018  3.7830  0.7409 -2.2642
 4992SOL    HW226613   0.763   0.110  11.957 -0.1119  1.5115  1.1282
 4993SOL     OW26614   2.815   1.909   6.117  0.1626  0.0849 -0.3153
 4993SOL    HW126615   2.807   1.973   6.188 -0.5324 -0.0546 -0.2655
 4993SOL    HW226616   2.738   1.927   6.063 -0.0562 -0.9049 -0.3350
 4994SOL     OW26617   3.575   1.719   1.397 -0.6558  0.5085  0.0721
 4994SOL    HW126618   3.624   1.748   1.474 -0.0509 -0.1101 -0.0824
 4994SOL    HW226619   3.567   1.800   1.347  0.4178  0.8827  0.5118
 4995SOL     OW26620   1.593   2.704  15.205 -0.1978  0.2805 -0.6256
 4995SOL    HW126621   1.626   2.646  15.273  0.7185  1.6716  0.1054
 4995SOL    HW226622   1.506   2.713  15.243 -0.1190 -2.1836  0.1749
 4996SOL     OW26623   3.856   0.863   1.316  0.1800  0.1913  0.6078
 4996SOL    HW126624   3.774   0.897   1.351 -0.7448 -0.4874 -0.9023
 4996SOL    HW226625   3.849   0.768   1.324  0.2152  0.2482  1.2917
 4997SOL     OW26626   4.389   3.259  15.798  0.1935 -0.2131 -0.5377
 4997SOL    HW126627   4.403   3.224  15.710  0.3492 -1.7007  0.0768
 4997SOL    HW226628   4.437   3.341  15.790 -1.9533  0.8805 -1.9088
 4998SOL     OW26629   3.101   2.495   8.534  0.0500  0.1003 -0.0063
 4998SOL    HW126630   3.023   2.488   8.589 -0.5489 -0.6878 -0.9547
 4998SOL    HW226631   3.106   2.409   8.492 -3.0889  0.1930 -0.5730
 4999SOL     OW26632   0.408   2.972  12.297 -0.3233  0.2950 -0.2122
 4999SOL    HW126633   0.500   2.954  12.273 -0.2916 -1.3967  1.1716
 4999SOL    HW226634   0.363   2.893  12.328  0.9366  0.0458  0.9972
 5000SOL     OW26635   1.881   4.500   1.600  0.2802  0.2424  0.1475
 5000SOL    HW126636   1.954   4.464   1.650  0.0178  0.7288  0.8818
 5000SOL    HW226637   1.919   4.582   1.566 -0.7376  0.6351 -0.0336
 5001SOL     OW26638   4.415   1.432   0.191 -0.6762  0.3212 -0.0930
 5001SOL    HW126639   4.414   1.528   0.183 -2.6755  0.5416  2.9719
 5001SOL    HW226640   4.426   1.409   0.099 -1.0023  2.9902 -0.8036
 5002SOL     OW26641   3.992   4.442   6.027 -0.8419  0.3969  0.1153
 5002SOL    HW126642   4.026   4.362   6.067  0.3218  0.7454 -0.1805
 5002SOL    HW226643   3.982   4.500   6.103 -0.8066 -1.2260  1.3653
 5003SOL     OW26644   1.112   1.032   8.385  0.2115  0.2067 -0.0976
 5003SOL    HW126645   1.197   1.067   8.359  0.4950  0.8401  1.7032
 5003SOL    HW226646   1.060   1.077   8.318  0.7207  1.5617  0.4186
 5004SOL     OW26647   2.800   2.719   4.263 -0.3230 -0.0793 -0.0980
 5004SOL    HW126648   2.719   2.691   4.304  1.3412 -0.6946  2.7591
 5004SOL    HW226649   2.784   2.677   4.178 -1.6752 -2.6400  1.4203
 5005SOL     OW26650   3.508   2.060   0.648  0.4827  0.2970  0.0268
 5005SOL    HW126651   3.511   2.125   0.718 -0.8809  1.0631 -0.6099
 5005SOL    HW226652   3.414   2.067   0.633  0.0774 -2.0506  1.4853
 5006SOL     OW26653   2.237   4.318  14.605 -0.1960  0.0854 -0.2081
 5006SOL    HW126654   2.326   4.350  14.624  0.9388 -1.7510 -2.4918
 5006SOL    HW226655   2.197   4.360  14.681 -1.9399 -0.8365 -0.6159
 5007SOL     OW26656   1.513   0.150   4.479  0.4577  0.1441  0.0906
 5007SOL    HW126657   1.465   0.191   4.551  1.7195 -0.8717  1.5234
 5007SOL    HW226658   1.482   0.060   4.492 -0.6100  0.5394  0.2755
 5008SOL     OW26659   2.423   1.140   4.009 -0.3081 -0.6947 -0.4259
 5008SOL    HW126660   2.342   1.154   3.960 -0.7263 -0.3573  0.3505
 5008SOL    HW226661   2.409   1.205   4.078  0.1354  1.2357 -2.1744
 5009SOL     OW26662   0.826   0.056   4.546 -0.5829 -0.7443  0.0336
 5009SOL    HW126663   0.902   0.053   4.488  0.0993 -0.5597  0.8996
 5009SOL    HW226664   0.846   0.143   4.579 -1.2021 -0.6441  0.1381
 5010SOL     OW26665   1.797   2.083   3.496 -0.2854  0.1493 -0.1095
 5010SOL    HW126666   1.825   2.111   3.583  0.3016 -1.3409  0.1830
 5010SOL    HW226667   1.799   1.987   3.503 -0.3815  0.1725  0.2120
 5011SOL     OW26668   0.168   0.470   9.397  0.2690  0.3654 -0.1495
 5011SOL    HW126669   0.225   0.514   9.333 -0.1517 -3.3099 -3.0821
 5011SOL    HW226670   0.138   0.545   9.447  0.4526  0.8832 -0.8125
 5012SOL     OW26671   0.823   3.466   6.954 -0.1638 -0.0859  0.3750
 5012SOL    HW126672   0.776   3.396   6.999 -1.8275 -0.3095 -1.7092
 5012SOL    HW226673   0.901   3.419   6.926  0.3416  1.4906 -0.8417
 5013SOL     OW26674   1.982   4.212   7.393  0.0170 -0.4692  0.1345
 5013SOL    HW126675   1.993   4.129   7.346 -1.9058  0.6014 -2.1937
 5013SOL    HW226676   1.949   4.265   7.320  2.2272  0.0928 -0.4635
 5014SOL     OW26677   4.288   1.257   8.023  0.1114  0.3521  0.1894
 5014SOL    HW126678   4.263   1.171   7.990 -0.1167  0.3983  0.2413
 5014SOL    HW226679   4.201   1.296   8.032  0.7560  1.6285  1.0319
 5015SOL     OW26680   0.479   0.491   7.167  0.2228  0.2478 -0.6980
 5015SOL    HW126681   0.474   0.428   7.094 -1.1052 -0.6656  0.1944
 5015SOL    HW226682   0.487   0.570   7.114 -0.7335  1.1013  0.4514
 5016SOL     OW26683   1.906   3.715   8.953 -0.3032 -0.3888  0.2692
 5016SOL    HW126684   1.937   3.707   9.043 -0.0763 -0.8173  0.1553
 5016SOL    HW226685   1.814   3.703   8.974 -0.1288 -0.2544  1.1074
 5017SOL     OW26686   1.236   0.481  15.555  0.3030  0.1905 -0.1615
 5017SOL    HW126687   1.176   0.556  15.554  0.6922  0.4974 -0.3691
 5017SOL    HW226688   1.181   0.403  15.556 -1.8470  1.6941 -0.6576
 5018SOL     OW26689   2.956   4.136   6.697  0.5381  0.1609 -0.5935
 5018SOL    HW126690   2.998   4.096   6.621  1.1184 -0.3461  0.0035
 5018SOL    HW226691   2.931   4.054   6.739  0.2951  0.3877 -0.2933
 5019SOL     OW26692   4.207   3.587  10.840  0.0214 -0.2689  0.3805
 5019SOL    HW126693   4.223   3.663  10.784 -0.0419 -1.1592 -0.8437
 5019SOL    HW226694   4.296   3.568  10.871  1.3144  2.1258 -1.8216
 5020SOL     OW26695   2.850   1.227   5.225  0.3838 -0.2700 -0.2253
 5020SOL    HW126696   2.806   1.275   5.296 -0.4590  1.3855 -1.8587
 5020SOL    HW226697   2.941   1.217   5.253 -0.0004 -2.6237  0.1855
 5021SOL     OW26698   3.099   0.567  15.061 -0.2167  0.3616 -0.0593
 5021SOL    HW126699   3.152   0.646  15.071 -2.2988  1.9495 -1.6760
 5021SOL    HW226700   3.025   0.588  15.003 -0.9884 -0.3876  0.6485
 5022SOL     OW26701   4.139   1.148   6.722 -0.1234 -0.3794  0.3895
 5022SOL    HW126702   4.087   1.229   6.725 -1.2410 -1.0489 -0.5474
 5022SOL    HW226703   4.172   1.163   6.633  1.0761 -2.3544  0.5083
 5023SOL     OW26704   2.142   3.601  16.795 -0.2273  0.7595  0.2510
 5023SOL    HW126705   2.080   3.652  16.742  0.0039  1.9440  1.1214
 5023SOL    HW226706   2.135   3.520  16.744  0.3326 -0.0243  1.4298
 5024SOL     OW26707   2.238   4.303   5.720 -0.1966 -0.1550  0.2638
 5024SOL    HW126708   2.190   4.383   5.701 -2.2189 -0.7944  2.6956
 5024SOL    HW226709   2.196   4.250   5.653  0.7405 -0.1325 -0.3450
 5025SOL     OW26710   1.547   3.879   4.611 -0.0549 -0.1726 -0.3566
 5025SOL    HW126711   1.553   3.850   4.702  0.9984  0.8651 -0.1060
 5025SOL    HW226712   1.591   3.810   4.561 -0.1728 -0.1269 -0.5239
 5026SOL     OW26713   4.717   1.752   2.479  0.6738  0.3657  0.0030
 5026SOL    HW126714   4.634   1.796   2.462 -0.8386 -2.7165 -0.6125
 5026SOL    HW226715   4.729   1.795   2.564  2.2971  1.6645 -0.8806
 5027SOL     OW26716   3.150   0.954  13.689 -0.1660 -0.4008 -0.2281
 5027SOL    HW126717   3.183   0.888  13.627  0.3467 -0.1231 -0.2527
 5027SOL    HW226718   3.089   1.009  13.641  0.4245  1.1497  0.7827
 5028SOL     OW26719   2.397   4.658   9.040 -0.6399  0.0441  0.0350
 5028SOL    HW126720   2.318   4.710   9.055  0.9168  1.3180  3.8270
 5028SOL    HW226721   2.349   4.580   9.009 -1.5310  0.4429  0.4016
 5029SOL     OW26722   2.386   3.584   2.902 -0.1622  0.0870 -0.1582
 5029SOL    HW126723   2.457   3.556   2.961  0.7175  1.4645 -0.5428
 5029SOL    HW226724   2.395   3.680   2.902 -0.2695  0.0913  2.1248
 5030SOL     OW26725   0.307   1.216   0.795  0.2279  0.1999 -0.1746
 5030SOL    HW126726   0.272   1.198   0.883 -2.3076 -0.3632 -1.2802
 5030SOL    HW226727   0.315   1.127   0.761 -1.4293  0.9908 -2.6570
 5031SOL     OW26728   1.172   2.449   4.688 -0.4845 -0.4037  0.0152
 5031SOL    HW126729   1.090   2.497   4.675  0.5565  1.1244 -0.9489
 5031SOL    HW226730   1.180   2.448   4.783 -1.6363  1.0388  0.1419
 5032SOL     OW26731   1.793   4.085   4.905  0.4550 -0.3015  0.5029
 5032SOL    HW126732   1.756   4.004   4.939 -1.2671  1.0733  1.8960
 5032SOL    HW226733   1.827   4.130   4.982 -1.3313  1.9167 -0.0090
 5033SOL     OW26734   4.412   2.736   5.317 -0.0501  0.4320  0.0255
 5033SOL    HW126735   4.373   2.761   5.401 -0.7118 -2.3857  0.5335
 5033SOL    HW226736   4.359   2.665   5.282 -0.6972  1.4055 -1.0084
 5034SOL     OW26737   1.939   3.571   4.111  0.7441  0.9510 -0.3422
 5034SOL    HW126738   1.885   3.612   4.043 -1.6248 -1.0768  0.3084
 5034SOL    HW226739   1.933   3.645   4.172 -3.6451 -0.9142  1.4837
 5035SOL     OW26740   3.058   4.277   1.871  0.4181 -0.0443 -0.0833
 5035SOL    HW126741   3.138   4.224   1.864  0.5892  0.1285  0.5177
 5035SOL    HW226742   3.006   4.241   1.943 -0.9702 -0.0217 -1.0847
 5036SOL     OW26743   1.294   2.128   7.109  0.7682  0.3595 -0.3249
 5036SOL    HW126744   1.215   2.125   7.163  0.4805  0.4444 -0.7456
 5036SOL    HW226745   1.259   2.112   7.022  1.8267 -0.4017 -0.6170
 5037SOL     OW26746   1.607   2.888   4.253  0.0010  0.0052  0.1101
 5037SOL    HW126747   1.549   2.862   4.324 -2.6522  0.9753 -1.7029
 5037SOL    HW226748   1.658   2.958   4.295  0.2627 -1.4120  2.1733
 5038SOL     OW26749   3.329   1.565  14.895  0.3049 -0.1227  0.4389
 5038SOL    HW126750   3.316   1.490  14.837 -0.7023 -0.4316  1.0622
 5038SOL    HW226751   3.385   1.532  14.965  0.6371  1.1451  0.7775
 5039SOL     OW26752   1.632   2.234  13.812  0.3259 -0.2109  0.3032
 5039SOL    HW126753   1.614   2.201  13.900 -0.0721 -0.8609 -0.0200
 5039SOL    HW226754   1.706   2.175  13.797 -0.2489 -1.4295  2.3006
 5040SOL     OW26755   3.545   4.374   6.329 -0.1333  0.1643  0.1349
 5040SOL    HW126756   3.512   4.285   6.317  1.0489 -0.3695  0.8572
 5040SOL    HW226757   3.526   4.420   6.248  0.2465  0.1793  0.0531
 5041SOL     OW26758   1.665   3.448   9.868 -1.1959  0.2903  0.0421
 5041SOL    HW126759   1.614   3.426   9.946 -0.5626  1.4349  0.7929
 5041SOL    HW226760   1.682   3.542   9.883  0.4292 -0.2707  1.7197
 5042SOL     OW26761   4.595   2.686   7.944 -0.5945 -0.2066  0.2886
 5042SOL    HW126762   4.543   2.716   8.018  1.0461  1.3270  0.8392
 5042SOL    HW226763   4.685   2.683   7.977 -1.1296 -0.2401  1.7506
 5043SOL     OW26764   2.230   1.112   6.245  0.0849  0.5390  0.3984
 5043SOL    HW126765   2.290   1.093   6.173  0.0165  0.6335  0.3164
 5043SOL    HW226766   2.146   1.093   6.204  0.6360 -0.6729 -0.1750
 5044SOL     OW26767   4.689   3.925  12.116 -0.0398 -0.4015 -0.1642
 5044SOL    HW126768   4.716   3.842  12.077 -0.8981 -0.2935 -0.9994
 5044SOL    HW226769   4.730   3.990  12.060 -1.2303  0.2824 -0.2419
 5045SOL     OW26770   1.953   1.342  14.414 -0.0463  0.4167  0.2693
 5045SOL    HW126771   1.943   1.393  14.333 -1.8425 -0.2884  0.0621
 5045SOL    HW226772   1.875   1.287  14.421  0.4539 -0.7525 -2.9390
 5046SOL     OW26773   3.461   0.213   8.186 -0.7693  0.0755  0.1967
 5046SOL    HW126774   3.441   0.290   8.239 -2.0319  0.8088 -1.3794
 5046SOL    HW226775   3.465   0.259   8.103  0.0399  1.9772  1.2863
 5047SOL     OW26776   2.743   0.088   0.766 -0.0031 -0.4197  0.0932
 5047SOL    HW126777   2.691   0.146   0.711  2.3943  3.4672  1.9454
 5047SOL    HW226778   2.769   0.019   0.705  1.7019  2.2807 -2.2129
 5048SOL     OW26779   4.478   0.792   5.178 -0.7499  0.0399  0.3947
 5048SOL    HW126780   4.469   0.878   5.218 -1.6134  0.3105 -0.3951
 5048SOL    HW226781   4.396   0.775   5.132 -0.7919  0.1328  0.4357
 5049SOL     OW26782   3.339   3.867  14.590 -0.3123  0.0673  0.0739
 5049SOL    HW126783   3.302   3.949  14.560  2.0574  1.0700 -0.1466
 5049SOL    HW226784   3.431   3.876  14.565 -0.5480  1.8126 -0.1631
 5050SOL     OW26785   2.192   2.081   2.581 -0.1909  0.3819  0.2929
 5050SOL    HW126786   2.184   1.987   2.598 -1.5819  0.4265 -0.1209
 5050SOL    HW226787   2.146   2.096   2.498  1.3342 -1.6345 -0.9000
 5051SOL     OW26788   0.077   0.777   1.528 -0.2173  0.0161  0.0548
 5051SOL    HW126789   0.012   0.837   1.493  0.7342  0.5198 -0.8385
 5051SOL    HW226790   0.144   0.835   1.564 -0.3611 -0.7922  1.6303
 5052SOL     OW26791   0.103   2.274  15.907 -0.1443 -0.1485  0.2531
 5052SOL    HW126792   0.076   2.296  15.818  0.4876 -0.4644 -0.0159
 5052SOL    HW226793   0.061   2.188  15.913  0.7306 -0.5345  0.8027
 5053SOL     OW26794   2.194   3.227   7.702 -0.4650  0.4115 -0.2917
 5053SOL    HW126795   2.119   3.168   7.693 -0.5022  0.3850  0.1921
 5053SOL    HW226796   2.179   3.296   7.638 -0.6248  0.7338  0.0923
 5054SOL     OW26797   0.500   0.758   5.878 -0.3883 -0.7357  0.6853
 5054SOL    HW126798   0.463   0.830   5.826 -0.0157 -1.8501 -1.1181
 5054SOL    HW226799   0.566   0.729   5.816 -1.4063 -1.9616  0.1992
 5055SOL     OW26800   2.702   0.526  14.838 -0.3686  0.6228  0.4210
 5055SOL    HW126801   2.713   0.432  14.826 -1.0704  0.3571  1.8215
 5055SOL    HW226802   2.673   0.553  14.751  1.8812 -0.2763 -0.6140
 5056SOL     OW26803   1.665   2.762   6.241 -0.2618  0.2367 -0.3452
 5056SOL    HW126804   1.654   2.800   6.154 -1.0804  0.1477 -0.2834
 5056SOL    HW226805   1.586   2.709   6.251 -0.4108  0.9421  2.4175
 5057SOL     OW26806   2.547   3.727  10.098  0.0696  0.3280  0.1766
 5057SOL    HW126807   2.589   3.730  10.184  1.5640 -5.7790 -0.3120
 5057SOL    HW226808   2.566   3.820  10.084 -2.8436  0.8955  0.1309
 5058SOL     OW26809   4.736   3.436   2.398  0.3018 -0.4250  0.5002
 5058SOL    HW126810   4.641   3.443   2.412  0.3646 -0.7860  1.0837
 5058SOL    HW226811   0.013   3.528   2.374 -0.8163 -0.1784  0.7584
 5059SOL     OW26812   1.243   3.599   3.317  0.0538  0.4673  0.0355
 5059SOL    HW126813   1.180   3.618   3.386 -0.8152  0.2644 -0.6933
 5059SOL    HW226814   1.193   3.543   3.257  2.4841 -0.8110 -0.8410
 5060SOL     OW26815   0.722   0.040   4.170 -0.3348 -0.5554 -0.1162
 5060SOL    HW126816   0.723   0.129   4.203 -1.3194 -1.2213  1.7078
 5060SOL    HW226817   0.715   4.717   4.244 -0.6653 -1.5319 -0.9430
 5061SOL     OW26818   0.885   1.138   3.706 -0.2930  0.0821 -0.3695
 5061SOL    HW126819   0.845   1.118   3.622 -0.0359 -1.9240  0.0026
 5061SOL    HW226820   0.963   1.185   3.678 -0.5200  0.8402  0.2447
 5062SOL     OW26821   1.572   1.570   9.254  0.2229 -0.2691  0.1980
 5062SOL    HW126822   1.542   1.541   9.168 -1.4320  0.1864  0.6079
 5062SOL    HW226823   1.645   1.509   9.268 -0.4409 -0.7173  1.7135
 5063SOL     OW26824   0.122   1.246   8.316 -0.4755  0.3493 -0.0500
 5063SOL    HW126825   0.105   1.319   8.256  1.2273  1.4455  0.7915
 5063SOL    HW226826   0.200   1.216   8.269  1.1798  1.9151  1.6802
 5064SOL     OW26827   2.355   1.940  15.078 -0.2832 -0.2302 -0.1499
 5064SOL    HW126828   2.328   1.890  15.155 -3.0928  2.4541  0.6259
 5064SOL    HW226829   2.414   1.874  15.042 -2.0308 -2.1158  0.4118
 5065SOL     OW26830   0.784   2.488  12.517  0.0883  0.6179  0.1715
 5065SOL    HW126831   0.791   2.508  12.610  0.5863  0.7855  0.0950
 5065SOL    HW226832   0.870   2.455  12.493  0.3273  1.9741 -0.8046
 5066SOL     OW26833   0.192   3.247   2.674 -0.0779 -0.8672  0.0222
 5066SOL    HW126834   0.189   3.203   2.589  0.0379  1.1438 -1.0189
 5066SOL    HW226835   0.286   3.239   2.690  0.3039  1.9171 -0.7843
 5067SOL     OW26836   2.513   2.381   5.106 -0.0430  0.2337 -0.1061
 5067SOL    HW126837   2.453   2.430   5.050 -0.0871  0.7142  0.3518
 5067SOL    HW226838   2.545   2.447   5.168 -0.5964 -0.0252  0.4509
 5068SOL     OW26839   3.359   4.249   7.061  0.3346  0.1660  0.3126
 5068SOL    HW126840   3.424   4.274   6.996 -0.1978 -1.9916 -1.0606
 5068SOL    HW226841   3.330   4.161   7.034 -0.1972  0.7467 -1.0411
 5069SOL     OW26842   0.692   0.456   7.324  0.4080 -0.3354 -0.1763
 5069SOL    HW126843   0.655   0.388   7.381  1.2222 -2.9709 -2.7700
 5069SOL    HW226844   0.617   0.476   7.269 -0.1121  1.0427  1.0451
 5070SOL     OW26845   0.813   3.718   7.362  0.9274 -0.0816 -0.2703
 5070SOL    HW126846   0.741   3.762   7.316 -0.8363 -4.5826 -1.7628
 5070SOL    HW226847   0.776   3.630   7.365  0.4840  0.1550  1.1193
 5071SOL     OW26848   0.226   0.939   1.704 -0.1008 -0.4352  0.1181
 5071SOL    HW126849   0.138   0.930   1.739 -0.4054  0.3953 -0.4420
 5071SOL    HW226850   0.263   0.947   1.792  0.2671  0.7401 -0.1479
 5072SOL     OW26851   4.164   0.385  14.510 -0.0559 -0.6707 -0.0568
 5072SOL    HW126852   4.131   0.397  14.421 -0.5747  1.8056  0.4584
 5072SOL    HW226853   4.108   0.442  14.562  1.3422 -0.3522  1.1081
 5073SOL     OW26854   2.978   0.078  10.998 -0.1575 -0.2019  0.0778
 5073SOL    HW126855   2.912   0.086  11.067  1.5433  1.3718  1.5387
 5073SOL    HW226856   2.918   0.037  10.936 -1.1084 -0.2196  1.0170
 5074SOL     OW26857   0.571   1.192   2.336 -0.0790  0.0705 -1.0884
 5074SOL    HW126858   0.546   1.284   2.335 -1.0762 -0.2027 -1.3622
 5074SOL    HW226859   0.584   1.180   2.430 -0.5465 -3.0452 -1.4042
 5075SOL     OW26860   4.469   4.269   4.776  0.4158 -0.6609 -0.0649
 5075SOL    HW126861   4.556   4.234   4.795  1.2240  1.3788 -0.0019
 5075SOL    HW226862   4.493   4.361   4.774 -1.0092 -0.3302 -1.8071
 5076SOL     OW26863   3.221   0.359   2.032  0.1964 -0.1394 -0.2843
 5076SOL    HW126864   3.182   0.287   1.983  0.9280  1.1337 -2.7487
 5076SOL    HW226865   3.303   0.370   1.983  0.3312  0.3416  0.0502
 5077SOL     OW26866   2.678   1.646  15.432 -0.0276 -0.4507 -0.5283
 5077SOL    HW126867   2.692   1.633  15.526  0.8517  0.1085 -0.5839
 5077SOL    HW226868   2.616   1.577  15.409  1.2031 -1.6039 -0.3551
 5078SOL     OW26869   3.509   4.376   2.544 -0.4242  0.0343 -0.1592
 5078SOL    HW126870   3.485   4.458   2.587 -0.7778  1.1666 -2.5210
 5078SOL    HW226871   3.565   4.405   2.472 -0.8828 -1.1865 -1.0076
 5079SOL     OW26872   2.707   3.120   3.390  0.3647  0.5254 -0.2045
 5079SOL    HW126873   2.623   3.137   3.347  1.0755  0.3876 -1.6504
 5079SOL    HW226874   2.694   3.026   3.405  1.0948  0.2408 -1.3823
 5080SOL     OW26875   2.560   2.876   4.764 -0.5795 -0.2395  0.4880
 5080SOL    HW126876   2.469   2.847   4.763 -0.7719  0.4101 -0.5824
 5080SOL    HW226877   2.585   2.784   4.755  0.3365  0.0067  0.5766
 5081SOL     OW26878   0.791   1.801  13.757  0.2856  0.6496 -0.4535
 5081SOL    HW126879   0.784   1.755  13.673  2.2325  0.0199 -0.2583
 5081SOL    HW226880   0.796   1.895  13.737  2.6318  0.2149 -1.9180
 5082SOL     OW26881   4.589   0.964   2.601  0.4182 -0.1522  0.7446
 5082SOL    HW126882   4.545   0.998   2.678  2.3220 -0.5761  2.0027
 5082SOL    HW226883   4.638   0.893   2.641 -0.0180 -1.2975 -0.7640
 5083SOL     OW26884   0.789   4.483   2.545 -0.0335 -0.8931 -0.0622
 5083SOL    HW126885   0.705   4.437   2.541 -0.8626  0.7342 -1.3527
 5083SOL    HW226886   0.858   4.418   2.558 -0.5198 -1.2425  0.7864
 5084SOL     OW26887   3.285   2.396   6.946  0.3695 -0.2017  0.6225
 5084SOL    HW126888   3.190   2.405   6.943  0.4219  0.3296  0.6712
 5084SOL    HW226889   3.305   2.333   6.877  1.2662  0.0868  0.6141
 5085SOL     OW26890   4.204   1.995   7.063  0.0381  0.4562 -0.0088
 5085SOL    HW126891   4.209   2.048   7.143 -2.1583  2.1184 -0.9727
 5085SOL    HW226892   4.291   1.954   7.056 -1.3278 -2.0979 -1.9559
 5086SOL     OW26893   1.692   0.295   7.829  0.1156 -0.0755  0.1766
 5086SOL    HW126894   1.683   0.390   7.837 -3.0954 -0.2394 -1.4702
 5086SOL    HW226895   1.622   0.273   7.891 -1.4968  0.7416 -1.3367
 5087SOL     OW26896   0.809   1.939   6.396  0.0183  0.0933  0.1374
 5087SOL    HW126897   0.829   1.987   6.315 -1.0180  0.0962 -0.1282
 5087SOL    HW226898   0.757   1.869   6.356  1.2856 -0.9885  0.3843
 5088SOL     OW26899   1.503   2.062  14.054  0.1692  0.0469  0.0164
 5088SOL    HW126900   1.465   2.013  13.981 -2.0956 -0.1414  1.3210
 5088SOL    HW226901   1.442   2.045  14.126 -0.8211  0.2887 -0.7591
 5089SOL     OW26902   0.129   0.215  16.316 -0.3703  0.6206  0.3174
 5089SOL    HW126903   0.057   0.265  16.355 -1.1699 -0.4258  0.2005
 5089SOL    HW226904   0.186   0.290  16.297 -1.1301  1.2441  0.5083
 5090SOL     OW26905   2.631   0.097   3.362 -0.3024  0.0077 -0.2106
 5090SOL    HW126906   2.549   0.081   3.409  1.4162 -1.3822  2.3418
 5090SOL    HW226907   2.595   0.146   3.289 -1.9958  0.5664  1.0173
 5091SOL     OW26908   3.665   2.045  14.877  0.3127  0.3784  0.2673
 5091SOL    HW126909   3.726   1.993  14.826 -2.5810 -1.4541 -1.3695
 5091SOL    HW226910   3.705   2.037  14.964 -1.2932 -0.8772  0.9067
 5092SOL     OW26911   0.972   0.207  17.098 -0.1089 -0.0420  0.1881
 5092SOL    HW126912   0.982   0.208  17.193  3.5822 -1.0424 -0.1576
 5092SOL    HW226913   1.034   0.134  17.091  0.3023  0.3269 -0.0126
 5093SOL     OW26914   0.167   0.227   5.335 -0.2046  0.5472  0.0986
 5093SOL    HW126915   0.228   0.202   5.265 -1.3661 -1.5532 -0.1860
 5093SOL    HW226916   0.118   0.300   5.298  0.3684  0.0469 -1.6502
 5094SOL     OW26917   1.177   3.415   4.646  0.1542 -0.0106  0.3078
 5094SOL    HW126918   1.169   3.475   4.572 -1.6060 -0.3080  0.2630
 5094SOL    HW226919   1.101   3.357   4.637  1.7716 -2.1110  0.2230
 5095SOL     OW26920   4.248   0.857   3.528 -0.2532  0.3446  0.2942
 5095SOL    HW126921   4.204   0.859   3.613 -0.3261 -2.7020  0.3372
 5095SOL    HW226922   4.282   0.946   3.518 -1.8739  0.9536  0.1004
 5096SOL     OW26923   0.888   1.263   6.784  0.1204 -0.0244 -0.3341
 5096SOL    HW126924   0.935   1.285   6.864  0.8884 -0.0598 -0.7700
 5096SOL    HW226925   0.809   1.316   6.790  1.6705  2.2959 -0.3420
 5097SOL     OW26926   2.380   1.125   8.696  0.0865  0.0823 -0.2877
 5097SOL    HW126927   2.351   1.201   8.747  0.3485  1.0614 -1.5942
 5097SOL    HW226928   2.442   1.083   8.755  0.3278  2.3364  1.0726
 5098SOL     OW26929   4.481   3.204   7.940 -0.2542  0.2509 -0.3629
 5098SOL    HW126930   4.441   3.119   7.921  0.9025 -0.4233  0.1960
 5098SOL    HW226931   4.562   3.173   7.981 -0.0309 -1.6337 -2.2141
 5099SOL     OW26932   1.471   4.729   7.153 -0.4109  0.4623  0.0910
 5099SOL    HW126933   1.434   4.641   7.154 -1.4810  0.9268  1.5650
 5099SOL    HW226934   1.432   0.031   7.075 -0.3240 -0.8806 -0.6287
 5100SOL     OW26935   2.785   0.300   2.204 -0.4438  0.4664  0.0269
 5100SOL    HW126936   2.793   0.301   2.300 -0.3710 -0.0798  0.0276
 5100SOL    HW226937   2.870   0.262   2.185 -0.1854  0.9662  0.1846
 5101SOL     OW26938   1.571   3.669   4.368 -0.2338 -0.7966 -0.5419
 5101SOL    HW126939   1.666   3.672   4.376 -0.0933 -0.2122 -2.4863
 5101SOL    HW226940   1.543   3.593   4.419 -3.2412  0.1489 -0.7663
 5102SOL     OW26941   4.712   0.917   8.425 -0.4575  0.0702 -0.2122
 5102SOL    HW126942   0.064   0.912   8.457 -0.5101  0.4339 -0.0078
 5102SOL    HW226943   4.660   0.953   8.497  0.0495  1.8409 -0.7229
 5103SOL     OW26944   1.938   0.419   6.535 -0.1863 -0.1115  0.2781
 5103SOL    HW126945   1.979   0.336   6.557  1.0950  0.4685  0.0660
 5103SOL    HW226946   1.853   0.406   6.577 -1.2976  2.1600 -1.2253
 5104SOL     OW26947   2.902   1.548   0.663  0.0017 -0.5516  0.2919
 5104SOL    HW126948   2.896   1.532   0.569  0.0426 -2.5019  0.6043
 5104SOL    HW226949   2.859   1.633   0.670  0.8644 -0.1681  0.9075
 5105SOL     OW26950   0.252   2.691   4.392 -0.0550 -0.2949 -0.2183
 5105SOL    HW126951   0.344   2.710   4.411 -0.2725  0.1115  0.4191
 5105SOL    HW226952   0.212   2.709   4.477 -1.0786  2.2774 -1.2410
 5106SOL     OW26953   4.638   0.383   6.386 -0.2500 -0.5918  0.2679
 5106SOL    HW126954   4.557   0.420   6.351  0.2654  1.3037  1.0942
 5106SOL    HW226955   4.615   0.378   6.479 -0.8769 -1.0349  0.0930
 5107SOL     OW26956   0.500   0.906  10.573  0.8067  0.1540 -0.9188
 5107SOL    HW126957   0.509   0.998  10.597  1.1596 -0.1623  0.1358
 5107SOL    HW226958   0.500   0.862  10.657  3.6387  0.0019 -0.9914
 5108SOL     OW26959   4.668   0.512   4.352 -0.1920 -0.1260 -0.4437
 5108SOL    HW126960   4.623   0.442   4.399  0.2922 -1.2628 -1.6661
 5108SOL    HW226961   0.006   0.467   4.315  1.0057  1.1678  0.4267
 5109SOL     OW26962   2.928   0.132  10.541 -1.0226 -0.1000  0.2967
 5109SOL    HW126963   2.866   0.178  10.598  0.0185  3.4444 -1.3907
 5109SOL    HW226964   2.866   0.119  10.469 -1.9109  1.9445  0.6941
 5110SOL     OW26965   1.643   0.492   3.693 -0.2524 -0.2194 -0.5482
 5110SOL    HW126966   1.727   0.447   3.694  0.6359  1.4308 -0.5300
 5110SOL    HW226967   1.608   0.475   3.605 -1.7940 -0.8163  0.1776
 5111SOL     OW26968   4.719   1.939  15.602  0.1983 -0.1264 -0.4410
 5111SOL    HW126969   4.652   1.876  15.578  1.6382 -2.2012  0.8714
 5111SOL    HW226970   4.677   1.979  15.678  1.7395  0.7089 -0.0156
 5112SOL     OW26971   0.239   3.721   6.968 -0.4036 -0.3623  0.2293
 5112SOL    HW126972   0.249   3.800   7.022  1.7615 -0.9096  0.6083
 5112SOL    HW226973   0.311   3.737   6.907 -0.2257 -1.8359  0.0562
 5113SOL     OW26974   0.783   0.282   7.110 -0.0099 -0.2596 -0.5536
 5113SOL    HW126975   0.785   0.342   7.185 -2.1731  0.0497 -0.7525
 5113SOL    HW226976   0.759   0.349   7.046 -0.6595  1.0287  1.0196
 5114SOL     OW26977   1.444   3.755   2.177  0.1175  0.4569  0.3636
 5114SOL    HW126978   1.436   3.827   2.239  1.4331  1.7940 -1.0186
 5114SOL    HW226979   1.507   3.796   2.117  1.5092 -3.2081 -0.6780
 5115SOL     OW26980   1.042   2.867   5.943 -0.0132 -0.2160 -0.5414
 5115SOL    HW126981   1.018   2.808   5.871  0.5267 -1.0235 -0.0627
 5115SOL    HW226982   1.076   2.796   5.997  3.0609  0.7578 -1.1583
 5116SOL     OW26983   3.198   0.743   0.394 -0.1949 -0.0835  0.0344
 5116SOL    HW126984   3.250   0.811   0.435 -0.5724  0.1295  0.1620
 5116SOL    HW226985   3.111   0.784   0.398 -0.1926  0.0643 -1.2610
 5117SOL     OW26986   0.688   3.681   1.592 -0.3461 -0.2046  0.1133
 5117SOL    HW126987   0.719   3.594   1.617  0.0669 -0.4179 -1.1280
 5117SOL    HW226988   0.605   3.663   1.549 -0.7339  0.4535  0.5904
 5118SOL     OW26989   2.946   0.545   8.556 -0.8525 -0.1232 -0.0185
 5118SOL    HW126990   3.008   0.532   8.628  1.1607  0.3381 -1.6764
 5118SOL    HW226991   2.880   0.481   8.583 -2.4128  1.6725  0.4861
 5119SOL     OW26992   2.078   4.062   9.531  0.4171  0.0120  0.4662
 5119SOL    HW126993   2.125   4.137   9.495 -1.3478  0.4822 -0.8128
 5119SOL    HW226994   2.082   4.082   9.625  1.4921 -0.7567  0.5879
 5120SOL     OW26995   4.536   2.219   6.052 -0.1659 -0.1131 -0.1630
 5120SOL    HW126996   4.592   2.190   5.980 -0.6210  0.9707 -0.9521
 5120SOL    HW226997   4.482   2.140   6.051  0.1084 -0.3123  0.8043
 5121SOL     OW26998   0.680   1.343  15.033 -0.2214 -0.1515 -0.1000
 5121SOL    HW126999   0.710   1.395  15.108 -0.6945  0.3288 -0.2472
 5121SOL    HW227000   0.642   1.270  15.083 -1.4936 -0.6013 -1.7383
 5122SOL     OW27001   3.164   2.505  15.596 -0.7025 -0.3928  0.0759
 5122SOL    HW127002   3.229   2.574  15.607 -1.6937  1.0311 -3.1140
 5122SOL    HW227003   3.143   2.513  15.503  3.2090  1.9631 -0.5838
 5123SOL     OW27004   1.119   1.220   6.335  0.2582  0.0830 -0.6890
 5123SOL    HW127005   1.075   1.274   6.401  1.4665  0.5979 -0.3028
 5123SOL    HW227006   1.211   1.247   6.340  1.1926 -2.8233 -2.2473
 5124SOL     OW27007   2.859   2.140   8.505  0.1154  1.0595  0.3111
 5124SOL    HW127008   2.942   2.187   8.500  0.2520  0.6257 -1.4826
 5124SOL    HW227009   2.882   2.070   8.566 -1.5538  1.1919  1.1056
 5125SOL     OW27010   4.541   4.382   5.189  0.5529  0.4990 -0.4497
 5125SOL    HW127011   4.508   4.414   5.273  0.9789 -1.8526  0.5830
 5125SOL    HW227012   4.475   4.325   5.149  1.3808 -0.5556 -0.2752
 5126SOL     OW27013   2.140   1.436   3.119 -0.2528 -0.5370 -0.1377
 5126SOL    HW127014   2.139   1.513   3.063  0.7641  0.5200  1.2999
 5126SOL    HW227015   2.057   1.454   3.164 -0.6862 -0.9461 -0.7709
 5127SOL     OW27016   2.632   2.240   8.613  0.8058  0.0530 -0.4158
 5127SOL    HW127017   2.710   2.225   8.560  2.3664  1.4592  1.4968
 5127SOL    HW227018   2.643   2.155   8.657  1.4264 -1.2657 -3.1158
 5128SOL     OW27019   2.731   4.695   1.691 -0.1142 -0.2219  0.1114
 5128SOL    HW127020   2.778   4.664   1.768  2.2912 -0.1593 -1.3351
 5128SOL    HW227021   2.795   4.683   1.621 -1.2716  0.9695 -1.1663
 5129SOL     OW27022   2.386   0.072  16.197 -0.7924  0.8991 -0.0832
 5129SOL    HW127023   2.419   4.721  16.183 -2.6315  0.4721 -1.7599
 5129SOL    HW227024   2.363   0.100  16.109  1.3142 -2.0563 -1.5635
 5130SOL     OW27025   3.248   2.985   3.382 -0.3719  0.1663 -0.3208
 5130SOL    HW127026   3.154   2.974   3.366 -0.0326 -0.2494 -1.9773
 5130SOL    HW227027   3.278   2.979   3.291  0.5475  2.2510 -0.1637
 5131SOL     OW27028   0.264   4.123   7.126  0.0106  0.6329  0.2694
 5131SOL    HW127029   0.261   4.093   7.217  0.6930  0.2020  0.1516
 5131SOL    HW227030   0.190   4.087   7.076  1.3496  0.6614 -1.7589
 5132SOL     OW27031   2.835   1.979   2.185  0.6377  0.3804  0.0986
 5132SOL    HW127032   2.877   2.017   2.107  0.1611 -0.8037 -0.7357
 5132SOL    HW227033   2.778   1.920   2.136  0.3922 -1.4046  2.6025
 5133SOL     OW27034   2.959   2.935   4.846  0.0587  0.2802  0.0208
 5133SOL    HW127035   2.928   2.941   4.755 -1.0551 -0.8003  0.3287
 5133SOL    HW227036   3.042   2.981   4.834 -0.1779  0.2122 -1.8782
 5134SOL     OW27037   4.483   2.932  11.635 -0.4905  0.4037  0.1368
 5134SOL    HW127038   4.463   2.947  11.542 -1.3751  0.3812  0.3210
 5134SOL    HW227039   4.465   2.838  11.643 -2.1413  0.6602 -0.4050
 5135SOL     OW27040   0.208   1.659   1.673 -0.7498  0.0475 -0.4076
 5135SOL    HW127041   0.151   1.589   1.642 -1.8666 -0.6980  3.3326
 5135SOL    HW227042   0.196   1.728   1.608  1.0092  1.5204  0.8277
 5136SOL     OW27043   4.492   3.511   3.320 -0.2707 -0.3672  0.4091
 5136SOL    HW127044   4.417   3.512   3.261 -0.0801 -0.3964  0.1615
 5136SOL    HW227045   4.453   3.446   3.378  1.3570 -0.2274  1.6667
 5137SOL     OW27046   3.852   3.624  16.955 -0.4939 -0.1213  0.1096
 5137SOL    HW127047   3.833   3.692  16.891 -1.2420 -1.9281 -1.5840
 5137SOL    HW227048   3.939   3.644  16.991  0.6413 -2.4016 -1.3399
 5138SOL     OW27049   4.030   3.959   2.990 -0.6512  0.4649 -0.1144
 5138SOL    HW127050   4.037   4.035   2.931 -0.4655  2.0532  1.9619
 5138SOL    HW227051   3.955   3.985   3.044  0.7247  0.1596  1.9177
 5139SOL     OW27052   4.248   0.902   8.509  0.2343 -0.0415 -0.0099
 5139SOL    HW127053   4.203   0.818   8.519  1.5880 -0.5321  1.8641
 5139SOL    HW227054   4.259   0.902   8.414 -0.8975 -0.9080 -0.1367
 5140SOL     OW27055   2.561   2.043  15.269  0.2040 -0.5781 -0.4225
 5140SOL    HW127056   2.618   2.067  15.196 -0.4060 -0.0816 -0.7388
 5140SOL    HW227057   2.474   2.049  15.229 -0.2408  0.0437  0.6215
 5141SOL     OW27058   0.128   3.939   6.612 -0.1687 -0.3818  0.2688
 5141SOL    HW127059   0.078   3.908   6.536  0.2460 -0.8132  0.1689
 5141SOL    HW227060   0.065   3.948   6.683  0.6790  1.0728  0.8462
 5142SOL     OW27061   1.572   3.974  12.632 -0.2575  0.1666 -0.3030
 5142SOL    HW127062   1.483   3.990  12.664 -1.3028 -2.7059 -1.8714
 5142SOL    HW227063   1.622   3.965  12.713  1.4843 -1.0551 -1.5350
 5143SOL     OW27064   1.664   2.290   0.309  0.3450  0.3769 -0.1585
 5143SOL    HW127065   1.604   2.363   0.292  2.3745  2.4928  1.7410
 5143SOL    HW227066   1.690   2.276   0.218 -0.5485 -1.5536 -0.1103
 5144SOL     OW27067   3.685   1.090   3.273  0.7365  0.8391  0.1538
 5144SOL    HW127068   3.756   1.079   3.337  0.0927 -0.8924  0.5673
 5144SOL    HW227069   3.678   0.999   3.245  1.1470  0.6408  0.6986
 5145SOL     OW27070   4.148   2.368   4.383  0.1011  0.2201 -0.1210
 5145SOL    HW127071   4.149   2.274   4.368  1.1932  0.3944 -1.1491
 5145SOL    HW227072   4.057   2.379   4.412 -0.8159 -0.0191 -2.9088
 5146SOL     OW27073   4.155   2.345   3.025  0.3569 -0.1666 -0.6945
 5146SOL    HW127074   4.240   2.317   2.992  0.7874  1.2295 -0.7528
 5146SOL    HW227075   4.107   2.304   2.953 -0.2965  1.9468 -1.4529
 5147SOL     OW27076   3.396   3.559   3.791  0.1864 -0.1569 -0.1896
 5147SOL    HW127077   3.392   3.588   3.699 -3.0957 -0.9549 -0.3216
 5147SOL    HW227078   3.324   3.495   3.799 -1.3675  1.2928 -2.6046
 5148SOL     OW27079   4.082   3.173   7.351 -0.2355  0.1295  0.3123
 5148SOL    HW127080   4.036   3.254   7.330 -0.0097  0.5061  1.2687
 5148SOL    HW227081   4.161   3.212   7.388  0.1308  1.1120 -1.5089
 5149SOL     OW27082   2.871   0.524   7.599 -0.3854  0.1777  0.3599
 5149SOL    HW127083   2.850   0.543   7.690 -0.1130  0.5578  0.3498
 5149SOL    HW227084   2.966   0.527   7.610 -0.2072  0.9069 -1.3066
 5150SOL     OW27085   1.845   2.836  11.888  0.2004  0.0901 -0.0861
 5150SOL    HW127086   1.837   2.776  11.962 -1.5377  0.0830 -0.2617
 5150SOL    HW227087   1.939   2.846  11.877  0.0709 -0.6689 -1.9992
 5151SOL     OW27088   2.095   4.662  11.876  0.1966  0.3089  0.0693
 5151SOL    HW127089   2.160   4.599  11.843 -1.3206  0.0317 -2.4073
 5151SOL    HW227090   2.133   4.667  11.964  1.5516  1.1324 -0.5606
 5152SOL     OW27091   1.121   2.120   2.260 -0.7603  0.1108 -0.2416
 5152SOL    HW127092   1.213   2.144   2.254 -0.3167 -1.3777  0.6856
 5152SOL    HW227093   1.083   2.182   2.197  0.0457  0.2108 -0.6308
 5153SOL     OW27094   4.443   0.038   7.462 -0.0584  0.7964 -0.3567
 5153SOL    HW127095   4.505   0.011   7.530  1.5725  0.4691 -1.9660
 5153SOL    HW227096   4.495   4.733   7.393 -0.0990  1.4749 -0.8128
 5154SOL     OW27097   1.930   3.240   2.357 -0.4789 -0.2637  0.2989
 5154SOL    HW127098   1.983   3.304   2.309  0.0000  0.3085  1.5934
 5154SOL    HW227099   1.874   3.290   2.416  1.3976 -0.7669  2.5094
 5155SOL     OW27100   1.731   0.012  14.857 -0.5153  0.2427 -0.0622
 5155SOL    HW127101   1.698   4.674  14.907 -0.2542 -0.0179 -0.2806
 5155SOL    HW227102   1.772   0.076  14.916 -1.8526  2.3259 -1.4194
 5156SOL     OW27103   3.225   1.964   7.333  0.2475  0.6250  0.0494
 5156SOL    HW127104   3.292   1.954   7.402  1.8546 -0.7008 -1.7135
 5156SOL    HW227105   3.234   2.054   7.304  1.2398  0.8874  1.1497
 5157SOL     OW27106   0.666   2.572   9.986 -0.0163  0.1701 -0.2265
 5157SOL    HW127107   0.644   2.572  10.079  1.4387  0.1199  0.1183
 5157SOL    HW227108   0.583   2.544   9.947 -0.1432 -0.5738  0.5882
 5158SOL     OW27109   1.229   2.949   8.070  0.0556  0.3699 -0.1306
 5158SOL    HW127110   1.165   3.019   8.080 -1.3946 -1.3646  2.4627
 5158SOL    HW227111   1.305   2.993   8.108 -0.2268  0.9371 -0.2288
 5159SOL     OW27112   3.007   4.309   1.607 -0.4721  0.0867  0.0796
 5159SOL    HW127113   3.066   4.380   1.583  0.2131 -0.3943  0.3496
 5159SOL    HW227114   2.991   4.312   1.701 -3.5884 -2.2021 -0.3815
 5160SOL     OW27115   2.135   0.706   5.830 -0.3249 -0.5190 -0.7760
 5160SOL    HW127116   2.060   0.729   5.883  0.1156 -2.5559  0.7295
 5160SOL    HW227117   2.160   0.789   5.790 -1.8913 -0.1842 -1.0697
 5161SOL     OW27118   3.315   0.452   0.867 -0.0317 -0.3340 -0.1050
 5161SOL    HW127119   3.288   0.402   0.944  1.0585 -0.0654  0.4598
 5161SOL    HW227120   3.266   0.400   0.804 -1.8800  0.1976  0.8921
 5162SOL     OW27121   3.972   2.871  17.048 -0.1880 -0.3902  0.1410
 5162SOL    HW127122   4.056   2.827  17.035 -0.3448 -1.0121  1.1728
 5162SOL    HW227123   3.991   2.963  17.031 -1.2736 -0.8360 -3.4261
 5163SOL     OW27124   4.007   3.253   6.218 -0.2086  0.3122 -0.3355
 5163SOL    HW127125   4.053   3.329   6.255 -2.1585  0.9043  0.8835
 5163SOL    HW227126   3.923   3.298   6.226 -0.5416 -0.1892 -1.0623
 5164SOL     OW27127   1.301   1.976   3.305  0.5479 -0.5310 -0.2133
 5164SOL    HW127128   1.233   1.956   3.369  0.7359 -0.8733 -0.1221
 5164SOL    HW227129   1.364   2.024   3.359  0.0094 -1.8837  1.5704
 5165SOL     OW27130   4.136   1.556   9.434 -0.2322 -0.3405  0.1294
 5165SOL    HW127131   4.135   1.507   9.516 -0.5901 -1.2747 -0.4291
 5165SOL    HW227132   4.072   1.501   9.388  0.6592 -1.6491  0.4559
 5166SOL     OW27133   3.686   1.418   5.670  0.1530  0.9419  0.3234
 5166SOL    HW127134   3.748   1.426   5.743 -0.0327  2.9960  0.2520
 5166SOL    HW227135   3.604   1.436   5.715 -0.8045 -2.2527 -0.1909
 5167SOL     OW27136   0.769   3.906   7.572  0.3690  0.4428  0.3399
 5167SOL    HW127137   0.794   3.861   7.492  2.0235  2.9126 -0.5238
 5167SOL    HW227138   0.861   3.920   7.595  0.6620 -1.2313  0.2165
 5168SOL     OW27139   1.907   2.236   9.114 -0.2190  0.2991  0.3633
 5168SOL    HW127140   1.875   2.316   9.154  0.7231  1.2524 -0.7835
 5168SOL    HW227141   1.865   2.172   9.171  1.6012 -0.4554  0.8654
 5169SOL     OW27142   2.950   2.016   1.700  0.0390 -0.3795  0.4409
 5169SOL    HW127143   2.995   2.099   1.686 -0.6066  0.0620  0.9504
 5169SOL    HW227144   2.993   1.988   1.780 -0.8042 -1.3125  0.5635
 5170SOL     OW27145   0.405   3.003   2.083 -0.0405  0.3832 -0.3728
 5170SOL    HW127146   0.369   2.919   2.056  1.9221 -1.3889  2.4542
 5170SOL    HW227147   0.453   2.982   2.163 -0.1568  1.0704 -0.1219
 5171SOL     OW27148   0.589   0.180  10.613  0.0775 -0.2693  0.5539
 5171SOL    HW127149   0.548   0.266  10.603  2.1275  1.0416  3.4515
 5171SOL    HW227150   0.675   0.210  10.641  0.1070 -0.2203  0.4078
 5172SOL     OW27151   1.931   2.226  17.438  0.3730 -0.3927 -0.3556
 5172SOL    HW127152   1.889   2.310  17.457  0.0276 -1.2932  2.8362
 5172SOL    HW227153   2.019   2.263  17.426 -0.0540  0.7781  0.1089
 5173SOL     OW27154   0.152   3.386  14.677  0.3696  0.3157 -0.3324
 5173SOL    HW127155   0.207   3.440  14.734  1.4866 -2.4513  1.1808
 5173SOL    HW227156   0.133   3.316  14.739 -2.4671  1.2563 -0.1463
 5174SOL     OW27157   3.484   2.137   7.351 -0.2371 -0.4204 -0.2774
 5174SOL    HW127158   3.515   2.083   7.279 -0.0077  1.1595 -1.3549
 5174SOL    HW227159   3.420   2.184   7.299  0.2516  1.4823  0.8443
 5175SOL     OW27160   2.249   0.611   8.461 -0.1822  0.1427  0.9206
 5175SOL    HW127161   2.210   0.686   8.507  1.0682 -0.0281  2.2629
 5175SOL    HW227162   2.320   0.658   8.417  0.2558 -1.2467  0.1591
 5176SOL     OW27163   3.359   0.968  12.101  0.0493  0.1698 -0.2656
 5176SOL    HW127164   3.298   0.910  12.145 -0.1222 -0.0199 -0.7451
 5176SOL    HW227165   3.441   0.957  12.149 -0.3014 -2.1520 -0.1987
 5177SOL     OW27166   0.777   2.998  15.900  0.2888 -0.4692  0.0854
 5177SOL    HW127167   0.773   3.085  15.861 -0.0523  0.0446  1.2602
 5177SOL    HW227168   0.817   3.030  15.981  2.1035 -2.6396  0.0372
 5178SOL     OW27169   4.604   4.268   2.867 -0.0249  0.1055 -0.1210
 5178SOL    HW127170   4.523   4.250   2.820 -0.2901  1.4949 -0.1782
 5178SOL    HW227171   4.655   4.187   2.854 -1.0403 -0.6123  0.3881
 5179SOL     OW27172   2.652   1.000   3.570  0.6948  0.1481 -0.5289
 5179SOL    HW127173   2.566   1.035   3.592  0.3771 -0.5907 -0.5997
 5179SOL    HW227174   2.685   0.988   3.659 -0.0941 -0.9295 -0.3808
 5180SOL     OW27175   0.417   2.328   2.130  0.1554  0.3749  0.0933
 5180SOL    HW127176   0.436   2.291   2.044 -0.0717  4.0025 -1.4779
 5180SOL    HW227177   0.505   2.355   2.155  0.7568 -0.9495 -0.5676
 5181SOL     OW27178   2.844   2.380   5.799 -0.3686  0.4326  0.0653
 5181SOL    HW127179   2.751   2.373   5.781 -0.2192  0.3014 -0.6646
 5181SOL    HW227180   2.867   2.454   5.742  0.5777  1.2833  1.5342
 5182SOL     OW27181   1.183   1.988  13.593 -0.4667 -0.2980  0.3565
 5182SOL    HW127182   1.133   1.963  13.671  2.0703  1.7460  2.6951
 5182SOL    HW227183   1.258   2.023  13.642 -2.0656  1.8042  1.2435
 5183SOL     OW27184   4.706   4.121   4.807  0.3254  0.1773 -0.3019
 5183SOL    HW127185   0.037   4.147   4.746  0.0898 -0.1002 -0.6906
 5183SOL    HW227186   0.015   4.107   4.889 -0.8184  0.8056  0.4502
 5184SOL     OW27187   0.661   0.533  13.348  0.7627  0.5296  0.6314
 5184SOL    HW127188   0.688   0.625  13.348 -1.4536  1.2025  2.9604
 5184SOL    HW227189   0.675   0.511  13.256  1.7479 -0.0694  0.9277
 5185SOL     OW27190   3.550   1.792   3.685 -0.4034 -0.0228  0.4169
 5185SOL    HW127191   3.508   1.783   3.771 -1.3599 -3.2800 -0.3910
 5185SOL    HW227192   3.486   1.840   3.633  0.6508  1.2361  0.2761
 5186SOL     OW27193   3.241   0.161   9.090  0.1921  0.1226  0.0632
 5186SOL    HW127194   3.263   0.071   9.065 -3.5713 -0.4442 -1.1989
 5186SOL    HW227195   3.332   0.191   9.097  0.0927  0.9059 -1.9902
 5187SOL     OW27196   3.907   3.331   7.990 -0.0201 -0.2129 -0.4127
 5187SOL    HW127197   3.992   3.371   8.010  0.1068  0.6173 -2.6219
 5187SOL    HW227198   3.864   3.413   7.964  0.2005 -0.2905 -1.0053
 5188SOL     OW27199   0.038   3.032   6.285  0.4188  0.3655 -0.8639
 5188SOL    HW127200   0.128   3.046   6.255  0.6975 -1.2863 -0.7744
 5188SOL    HW227201   0.003   3.029   6.196  1.5144 -2.4042 -1.1860
 5189SOL     OW27202   0.105   0.897  11.226 -0.4943 -0.4470 -0.2500
 5189SOL    HW127203   0.094   0.845  11.306  0.4007 -1.2369 -0.6346
 5189SOL    HW227204   0.021   0.943  11.216  1.3469  3.1797  1.0229
 5190SOL     OW27205   2.736   0.288  12.246 -0.0866  0.3160  0.0898
 5190SOL    HW127206   2.754   0.367  12.196 -1.7233  1.5699  1.4719
 5190SOL    HW227207   2.690   0.330  12.319 -3.0586 -0.7528 -1.1737
 5191SOL     OW27208   2.010   4.408   2.822 -0.1594 -0.4099  0.3508
 5191SOL    HW127209   2.072   4.466   2.867 -0.4028 -0.6678  1.0026
 5191SOL    HW227210   1.964   4.375   2.898  1.0222  0.6117  1.5143
 5192SOL     OW27211   3.231   1.869   4.368 -0.3634 -0.7344  0.1034
 5192SOL    HW127212   3.240   1.836   4.457  0.2608  0.7417  0.5831
 5192SOL    HW227213   3.320   1.882   4.336 -0.3493 -1.0721  0.0107
 5193SOL     OW27214   3.036   1.942   8.074  0.0260  0.3933 -0.2325
 5193SOL    HW127215   3.112   1.938   8.016 -0.2072  2.6167 -0.6989
 5193SOL    HW227216   3.048   2.027   8.117 -0.5678 -0.3472  1.3856
 5194SOL     OW27217   3.450   3.981   7.048  0.4660  0.3735  0.6878
 5194SOL    HW127218   3.476   3.970   7.140 -0.5369 -0.0658  0.9137
 5194SOL    HW227219   3.388   3.910   7.032 -0.2677  1.0766  0.4140
 5195SOL     OW27220   2.978   3.801  16.093  0.3828 -0.2099  0.0112
 5195SOL    HW127221   2.917   3.801  16.019  0.9574  0.2019 -0.4623
 5195SOL    HW227222   2.910   3.809  16.160  0.0429  0.0892 -0.3652
 5196SOL     OW27223   1.768   0.195  12.779  0.3427 -0.0784 -0.5179
 5196SOL    HW127224   1.727   0.273  12.743  0.4566 -0.7896 -2.1695
 5196SOL    HW227225   1.741   0.127  12.717 -2.0939 -0.9821  1.5236
 5197SOL     OW27226   0.170   2.152   6.250 -0.2501 -0.4390 -0.1972
 5197SOL    HW127227   0.239   2.106   6.299  0.1736  2.9171  2.3072
 5197SOL    HW227228   0.106   2.132   6.318  2.8053 -1.8273  2.3212
 5198SOL     OW27229   4.658   4.223   8.412  0.1930 -0.1021  0.5441
 5198SOL    HW127230   4.682   4.148   8.467  2.2771 -1.0581 -1.6848
 5198SOL    HW227231   4.621   4.281   8.478 -0.0235  1.3590 -0.8595
 5199SOL     OW27232   3.883   2.154   7.308 -0.2060 -0.1240  0.2585
 5199SOL    HW127233   3.835   2.083   7.350 -1.6197  0.6978  0.0303
 5199SOL    HW227234   3.856   2.143   7.217 -0.1043  1.5440  0.0206
 5200SOL     OW27235   3.723   2.338   5.551 -0.0928  0.3482 -0.5970
 5200SOL    HW127236   3.676   2.259   5.525  0.4559  0.4663 -1.9463
 5200SOL    HW227237   3.801   2.297   5.589 -0.8352  0.9765  1.6227
 5201SOL     OW27238   0.209   0.992   9.956  0.0023 -0.1048 -0.1452
 5201SOL    HW127239   0.202   1.035  10.041  2.0263  0.0418 -0.0424
 5201SOL    HW227240   0.292   1.026   9.921  0.3356 -1.5054 -0.7301
 5202SOL     OW27241   0.367   2.285  15.867 -0.4921  0.4647  0.4722
 5202SOL    HW127242   0.273   2.286  15.887 -0.6373  0.8916 -0.2130
 5202SOL    HW227243   0.391   2.355  15.927 -0.9195  0.2772  0.8643
 5203SOL     OW27244   4.565   4.378  11.628  0.1237  0.5851 -0.0142
 5203SOL    HW127245   4.635   4.442  11.614  0.3786  0.0808 -1.0577
 5203SOL    HW227246   4.537   4.351  11.540 -2.1370 -1.7343  1.4134
 5204SOL     OW27247   3.973   2.971   1.504  0.1889  0.5231  0.6859
 5204SOL    HW127248   4.003   2.913   1.575  0.6649 -0.1269 -0.0393
 5204SOL    HW227249   4.014   3.050   1.539 -0.3046  1.2409 -0.3390
 5205SOL     OW27250   1.575   2.433   1.372 -0.0533  0.0141  0.1487
 5205SOL    HW127251   1.583   2.505   1.434 -0.1099 -1.4313  1.8524
 5205SOL    HW227252   1.595   2.479   1.291 -1.3951  0.4101  0.0410
 5206SOL     OW27253   0.239   3.716   5.911 -0.2258  0.3999 -0.3563
 5206SOL    HW127254   0.286   3.649   5.959  3.0627  2.9033 -0.0197
 5206SOL    HW227255   0.203   3.666   5.838  0.8347 -1.2140  0.2479
 5207SOL     OW27256   1.116   4.630  14.027  0.2985 -0.4207  0.6681
 5207SOL    HW127257   1.075   4.614  14.112 -0.5564 -1.6780  0.0139
 5207SOL    HW227258   1.206   4.647  14.054 -0.9298  3.2373  2.4702
 5208SOL     OW27259   4.684   0.091   9.341  0.2246  0.2158  0.2985
 5208SOL    HW127260   0.004   0.031   9.294 -1.4423 -0.3808 -1.0003
 5208SOL    HW227261   4.693   0.061   9.432  1.2225  1.4396  0.5983
 5209SOL     OW27262   2.535   0.949  15.024 -0.2631 -1.1256 -0.2625
 5209SOL    HW127263   2.612   0.990  14.985 -2.6406  2.9626 -0.6727
 5209SOL    HW227264   2.520   0.869  14.973  0.3341 -2.2828  1.3825
 5210SOL     OW27265   3.098   1.525  11.989  0.9979  0.0273  0.1960
 5210SOL    HW127266   3.066   1.515  11.899  2.0028 -1.4882  0.0142
 5210SOL    HW227267   3.099   1.436  12.025 -3.0164 -0.3052 -0.4655
 5211SOL     OW27268   1.513   0.370   3.443  0.1959  0.2437  0.3688
 5211SOL    HW127269   1.544   0.291   3.488  1.9067  0.9383  0.3937
 5211SOL    HW227270   1.448   0.331   3.384  0.5873 -1.0296  0.7802
 5212SOL     OW27271   1.323   3.923   2.587  0.0998 -0.3938  0.6314
 5212SOL    HW127272   1.385   3.860   2.550  2.4258  2.3097 -0.0295
 5212SOL    HW227273   1.254   3.868   2.626  1.3317 -2.0001  0.5658
 5213SOL     OW27274   4.059   3.168   1.671 -0.8981 -0.1490 -0.1789
 5213SOL    HW127275   3.986   3.151   1.730  0.7461  0.5964  2.0848
 5213SOL    HW227276   4.125   3.112   1.711 -2.0453 -1.7615 -0.5673
 5214SOL     OW27277   3.474   0.629   0.705 -0.0189  0.4078  0.4023
 5214SOL    HW127278   3.555   0.607   0.751 -0.1351  1.8963  1.3453
 5214SOL    HW227279   3.405   0.590   0.759  1.2515 -1.6233  0.5407
 5215SOL     OW27280   1.326   1.982   3.669  0.2605  0.1882  0.1819
 5215SOL    HW127281   1.399   2.019   3.620 -0.7692  0.8409 -0.8699
 5215SOL    HW227282   1.358   1.893   3.666 -0.3450 -0.0029 -0.7922
 5216SOL     OW27283   4.716   2.043  12.423 -0.0136  0.2365 -0.1299
 5216SOL    HW127284   4.697   2.134  12.444 -2.6259 -0.5570  0.9626
 5216SOL    HW227285   0.071   2.028  12.439  0.2136  0.1967 -1.4196
 5217SOL     OW27286   3.347   1.102   4.329 -0.2038  0.2101 -0.0785
 5217SOL    HW127287   3.393   1.131   4.408  2.0603  0.7930 -1.6113
 5217SOL    HW227288   3.303   1.181   4.300 -0.4011 -0.5957 -2.0147
 5218SOL     OW27289   3.074   4.437   2.861  0.0766 -0.6980  0.4276
 5218SOL    HW127290   3.089   4.350   2.825 -1.3147 -0.2546 -1.2105
 5218SOL    HW227291   2.994   4.418   2.909  0.1405  1.1277  1.2937
 5219SOL     OW27292   4.234   3.835   6.837  0.3357 -0.6801 -0.0954
 5219SOL    HW127293   4.324   3.809   6.819  0.7566 -0.7192  1.9920
 5219SOL    HW227294   4.191   3.749   6.837 -1.7021  0.3223  1.6813
 5220SOL     OW27295   3.678   2.259  16.415 -0.5262 -0.1568  0.0807
 5220SOL    HW127296   3.742   2.303  16.471  0.5403 -1.0288 -0.4713
 5220SOL    HW227297   3.613   2.326  16.391 -1.0349 -0.0085  1.9214
 5221SOL     OW27298   4.019   0.291   7.822 -0.1193  0.1405 -0.2514
 5221SOL    HW127299   3.979   0.322   7.903  0.6210 -0.7209  0.4489
 5221SOL    HW227300   4.099   0.344   7.813 -0.8709  0.7305 -3.2717
 5222SOL     OW27301   1.936   2.988   9.878 -0.0909 -0.5885 -0.0326
 5222SOL    HW127302   1.989   3.068   9.880  0.5595 -0.9985 -0.8377
 5222SOL    HW227303   1.854   3.031   9.901  0.8733  0.3923  1.6030
 5223SOL     OW27304   1.985   4.302  15.632 -0.4701 -0.2851 -0.1505
 5223SOL    HW127305   2.026   4.272  15.550  0.1242 -1.2806  0.5073
 5223SOL    HW227306   2.042   4.369  15.671 -1.0398  1.9095 -3.0992
 5224SOL     OW27307   3.569   2.684   2.350  0.1667 -0.2876 -0.0101
 5224SOL    HW127308   3.613   2.631   2.417  1.7011  0.7615 -0.1755
 5224SOL    HW227309   3.615   2.767   2.356  0.9586 -0.7145 -0.1282
 5225SOL     OW27310   3.086   1.687  13.069 -0.0627  0.5612 -0.3528
 5225SOL    HW127311   3.166   1.635  13.076  0.1709  1.2296  1.9526
 5225SOL    HW227312   3.049   1.651  12.988  0.0632 -2.6118  1.0150
 5226SOL     OW27313   1.658   2.331  17.534  0.6534  0.2227  0.3367
 5226SOL    HW127314   1.609   2.414  17.538  1.2755  0.6178 -0.2308
 5226SOL    HW227315   1.742   2.375  17.550  0.2118  0.9248  0.7237
 5227SOL     OW27316   0.104   1.461   6.334 -0.1681  0.2381 -0.0430
 5227SOL    HW127317   0.132   1.549   6.360  0.5801 -0.2977  0.9641
 5227SOL    HW227318   0.043   1.493   6.267  0.0246  2.0337  0.6171
 5228SOL     OW27319   2.820   4.438   8.183  0.2922  0.8038 -0.4161
 5228SOL    HW127320   2.754   4.433   8.253  0.2070  0.0793 -0.5476
 5228SOL    HW227321   2.844   4.528   8.203 -1.5884  1.0340  0.8085
 5229SOL     OW27322   4.069   0.920   5.711 -0.0016  0.4766 -0.4792
 5229SOL    HW127323   4.092   1.003   5.753  1.7389  0.5082 -1.5041
 5229SOL    HW227324   3.988   0.893   5.756  0.9205 -0.8193  0.4178
 5230SOL     OW27325   0.329   3.375  15.152  0.0540  0.5718  0.4478
 5230SOL    HW127326   0.407   3.323  15.133 -0.3942  0.3290 -0.6926
 5230SOL    HW227327   0.363   3.431  15.222  1.3181  1.4369 -0.8707
 5231SOL     OW27328   0.995   0.466   6.142 -0.1140 -0.4098 -0.6913
 5231SOL    HW127329   0.924   0.529   6.140 -0.3622 -0.6445  1.0371
 5231SOL    HW227330   1.075   0.512   6.115  1.4690 -1.8995  1.3779
 5232SOL     OW27331   2.519   4.436  14.567  0.4498  0.3149  0.0251
 5232SOL    HW127332   2.580   4.459  14.637 -0.4501  1.4942  0.4379
 5232SOL    HW227333   2.535   4.343  14.552 -1.3358 -0.4518  2.8524
 5233SOL     OW27334   0.630   4.708  10.837  0.1069 -0.0112  0.0544
 5233SOL    HW127335   0.710   4.658  10.824 -1.8319 -2.7275 -1.3327
 5233SOL    HW227336   0.663   0.031  10.904 -1.1979 -2.0652  2.5663
 5234SOL     OW27337   0.706   1.022   1.026  0.1075  0.3582  0.1565
 5234SOL    HW127338   0.797   0.996   1.043  0.5302  1.3042 -0.6933
 5234SOL    HW227339   0.720   1.108   0.987 -0.3493  0.7808  0.9158
 5235SOL     OW27340   4.433   4.253   8.858 -0.2257 -0.3039 -0.3031
 5235SOL    HW127341   4.408   4.161   8.867  1.2202 -0.5892  0.7015
 5235SOL    HW227342   4.394   4.276   8.943  1.2551 -0.2912  0.3762
 5236SOL     OW27343   0.153   3.772   4.706 -0.4985  0.1406  0.2359
 5236SOL    HW127344   0.239   3.794   4.671  1.4354 -0.8456  4.4467
 5236SOL    HW227345   0.170   3.700   4.767  1.2355 -0.8499 -1.4449
 5237SOL     OW27346   1.199   0.011   6.405  0.1543 -0.4359 -0.1307
 5237SOL    HW127347   1.146   0.063   6.465  2.2615  0.2755  1.1124
 5237SOL    HW227348   1.197   0.067   6.327  1.3539  0.4438  0.4705
 5238SOL     OW27349   3.494   1.727  12.939  0.9505 -0.1059 -0.2139
 5238SOL    HW127350   3.403   1.722  12.967  0.6175  3.0094 -0.6931
 5238SOL    HW227351   3.509   1.822  12.945  2.1960 -0.2420 -1.1673
 5239SOL     OW27352   3.800   2.403   6.680  0.0791 -0.3937  0.0025
 5239SOL    HW127353   3.885   2.362   6.692  1.4137  2.5499  0.7577
 5239SOL    HW227354   3.805   2.467   6.751 -2.4169 -1.6907  1.3439
 5240SOL     OW27355   4.485   3.108  14.289  0.2692  0.3230 -0.0319
 5240SOL    HW127356   4.483   3.032  14.347 -0.7829 -1.1161 -1.9331
 5240SOL    HW227357   4.401   3.148  14.310  0.6356  0.9554  0.2294
 5241SOL     OW27358   2.843   3.523   4.988  0.1823  0.7979 -0.0437
 5241SOL    HW127359   2.813   3.611   5.011 -0.4071  1.2714 -2.5492
 5241SOL    HW227360   2.788   3.477   5.051 -1.1915  1.1388 -0.9759
 5242SOL     OW27361   2.677   1.170   8.654 -0.2535 -0.2781  0.8161
 5242SOL    HW127362   2.621   1.247   8.651 -0.7396 -0.6477  0.2238
 5242SOL    HW227363   2.632   1.110   8.714 -3.3527  1.1526 -0.0957
 5243SOL     OW27364   1.757   4.492   4.833  0.2556  0.3921 -0.1996
 5243SOL    HW127365   1.848   4.467   4.848  0.4437  0.9440 -0.3930
 5243SOL    HW227366   1.724   4.403   4.827  2.7135 -0.4748 -0.8976
 5244SOL     OW27367   1.385   2.556  12.220  0.2139 -0.7832  0.3500
 5244SOL    HW127368   1.351   2.593  12.138  0.0573 -1.0670  0.2868
 5244SOL    HW227369   1.326   2.482  12.235 -0.1165 -0.3489  1.2349
 5245SOL     OW27370   3.978   3.155   2.285  0.5298  1.0242  0.9509
 5245SOL    HW127371   3.920   3.086   2.254 -0.5426  1.6467  1.5662
 5245SOL    HW227372   3.972   3.221   2.216  1.2969  0.8128  0.6828
 5246SOL     OW27373   3.501   2.281   7.088  0.1267  0.1834 -0.0132
 5246SOL    HW127374   3.525   2.233   7.009 -0.0652 -1.3655  0.8584
 5246SOL    HW227375   3.410   2.304   7.068 -0.0391 -0.8535 -0.4870
 5247SOL     OW27376   1.291   3.973   2.992  0.3450  0.0240  0.1269
 5247SOL    HW127377   1.342   3.909   3.043 -1.7583 -2.0544 -0.4242
 5247SOL    HW227378   1.245   4.017   3.064 -0.8985 -0.6864 -0.2339
 5248SOL     OW27379   3.915   4.255  17.738  0.1354 -0.1489  0.5084
 5248SOL    HW127380   3.829   4.221   0.016  0.4102 -2.3165 -1.3480
 5248SOL    HW227381   3.887   4.300  17.659 -0.5496 -1.9789 -0.2996
 5249SOL     OW27382   0.082   2.781  14.744 -0.2272  0.2188  0.1198
 5249SOL    HW127383   4.726   2.783  14.724 -0.0742  0.7386 -0.5353
 5249SOL    HW227384   0.083   2.742  14.832 -0.4051 -0.2166 -0.0704
 5250SOL     OW27385   1.908   3.029   5.164 -0.2844 -0.3297  0.3129
 5250SOL    HW127386   2.001   3.005   5.167  0.4008  2.2133 -0.8749
 5250SOL    HW227387   1.909   3.098   5.230  0.6150 -0.2018  0.1705
 5251SOL     OW27388   3.294   1.592   3.804  0.2695 -0.1325 -0.2599
 5251SOL    HW127389   3.262   1.647   3.732 -0.7856  2.3248  2.0866
 5251SOL    HW227390   3.349   1.658   3.847 -0.6759  1.2954 -1.2526
 5252SOL     OW27391   3.221   3.819   5.131 -0.3700  0.7916  0.3664
 5252SOL    HW127392   3.251   3.824   5.040  1.0662  1.5787  0.8872
 5252SOL    HW227393   3.160   3.746   5.131  1.3818 -0.6601  0.8875
 5253SOL     OW27394   4.333   3.754   2.643 -0.6209  0.3357 -0.6741
 5253SOL    HW127395   4.242   3.772   2.665 -0.5002  0.5900 -0.3701
 5253SOL    HW227396   4.369   3.843   2.649  1.2193 -0.2518 -2.9101
 5254SOL     OW27397   1.055   0.377   0.594 -0.0136 -0.4587  0.6235
 5254SOL    HW127398   1.054   0.469   0.620  2.6051  1.0235 -4.5490
 5254SOL    HW227399   1.117   0.353   0.663 -0.8473  1.1490  1.9471
 5255SOL     OW27400   4.254   4.424   5.002  0.0448 -0.1199  0.7822
 5255SOL    HW127401   4.216   4.417   5.090 -1.3671 -2.0126  0.0275
 5255SOL    HW227402   4.305   4.343   5.000 -0.3321 -0.2787 -2.1831
 5256SOL     OW27403   4.168   3.094  14.261  0.7117  0.2973 -0.1174
 5256SOL    HW127404   4.141   3.073  14.351  0.3074 -0.1347 -0.3390
 5256SOL    HW227405   4.109   3.167  14.240 -0.4474 -0.2208  1.3372
 5257SOL     OW27406   1.254   1.468  10.882  0.1084 -0.3483 -0.0644
 5257SOL    HW127407   1.268   1.533  10.950 -2.5765 -0.7799  0.8728
 5257SOL    HW227408   1.294   1.507  10.804 -1.8719  0.9544 -0.3996
 5258SOL     OW27409   3.509   0.259  13.292 -0.0469 -0.1484  0.0180
 5258SOL    HW127410   3.511   0.220  13.204  0.6598 -1.6956  0.7279
 5258SOL    HW227411   3.499   0.353  13.277  1.1326  0.1819  1.3710
 5259SOL     OW27412   0.038   3.426   7.692  0.2609 -0.3007  0.7586
 5259SOL    HW127413   4.684   3.400   7.687 -0.1185  1.1345  0.3041
 5259SOL    HW227414   0.077   3.379   7.618 -1.5663  1.1396 -1.1165
 5260SOL     OW27415   0.209   3.631   4.347 -0.1041 -0.3786  0.2880
 5260SOL    HW127416   0.199   3.726   4.336  1.2833 -0.1816  0.7194
 5260SOL    HW227417   0.291   3.633   4.298 -1.0292  3.0377 -1.1535
 5261SOL     OW27418   3.879   3.609  13.468  0.1549  0.4854  0.2209
 5261SOL    HW127419   3.883   3.704  13.481 -0.0840  0.5793 -0.3705
 5261SOL    HW227420   3.803   3.580  13.519 -1.1131  1.9485 -0.8104
 5262SOL     OW27421   2.947   1.112   2.391  0.1341  0.2200 -0.0417
 5262SOL    HW127422   2.903   1.069   2.317  0.7346 -2.9626  1.4854
 5262SOL    HW227423   2.916   1.203   2.388 -0.3126  0.0884  0.5191
 5263SOL     OW27424   3.008   3.264   4.508  0.2896  0.1999  0.4724
 5263SOL    HW127425   3.060   3.247   4.430 -0.9985 -0.5258 -0.2246
 5263SOL    HW227426   2.935   3.312   4.468  2.5384  1.7508 -1.7479
 5264SOL     OW27427   0.020   1.051   4.225  0.3140  0.7687  0.8253
 5264SOL    HW127428   0.075   1.005   4.288 -0.9351 -0.6095  0.9114
 5264SOL    HW227429   0.082   1.072   4.155 -0.7027 -0.5651 -0.4743
 5265SOL     OW27430   0.058   3.252   8.491  0.0596 -0.0009 -0.2389
 5265SOL    HW127431   0.002   3.285   8.419 -1.5526 -0.0006  1.0119
 5265SOL    HW227432   0.019   3.175   8.532 -1.7465  0.5974 -0.8195
 5266SOL     OW27433   1.944   3.153   2.925 -0.0138  0.4742 -0.1729
 5266SOL    HW127434   1.954   3.244   2.952 -1.9869  0.5699  0.2684
 5266SOL    HW227435   2.022   3.119   2.968 -0.6525  2.2005  2.3597
 5267SOL     OW27436   4.123   2.373  14.052  0.6027 -0.1996  0.4110
 5267SOL    HW127437   4.162   2.326  14.126 -0.6574 -1.0463  0.5504
 5267SOL    HW227438   4.109   2.305  13.986 -0.6914  1.2783 -0.8458
 5268SOL     OW27439   1.591   1.421  12.494 -0.3318 -0.1653 -0.5024
 5268SOL    HW127440   1.650   1.396  12.565  0.3030 -1.6212 -1.5459
 5268SOL    HW227441   1.636   1.377  12.421  2.0059  0.7878  0.3563
 5269SOL     OW27442   4.589   0.861  16.999  0.1779  0.1538 -0.4004
 5269SOL    HW127443   4.558   0.864  16.908  0.0719  1.3774 -0.3182
 5269SOL    HW227444   4.657   0.927  16.992  1.9930 -1.7163 -0.5160
 5270SOL     OW27445   4.098   0.914   7.151  0.5674 -0.1572  0.4866
 5270SOL    HW127446   4.119   0.927   7.059 -0.8476  0.0018  0.1823
 5270SOL    HW227447   4.142   0.830   7.166  0.2085 -1.2678 -4.9651
 5271SOL     OW27448   2.003   3.743   4.643 -0.0333 -0.3959  0.2909
 5271SOL    HW127449   2.067   3.813   4.654 -2.0905  1.9263 -2.3498
 5271SOL    HW227450   2.042   3.671   4.693 -1.7758 -1.0183  0.7757
 5272SOL     OW27451   0.812   3.219   3.843  0.3838  0.0548 -0.6022
 5272SOL    HW127452   0.810   3.218   3.748  0.4051  0.3374 -0.6064
 5272SOL    HW227453   0.893   3.179   3.875 -0.2968 -0.4259  0.5455
 5273SOL     OW27454   1.409   3.531  10.038  0.4298  0.2636 -0.0803
 5273SOL    HW127455   1.340   3.491   9.985  0.0535 -1.5136  1.7714
 5273SOL    HW227456   1.386   3.495  10.124 -0.4985 -2.4713 -1.4817
 5274SOL     OW27457   3.481   4.167   3.076 -0.0193 -0.1436  0.3140
 5274SOL    HW127458   3.439   4.246   3.041  0.2658 -0.1304 -0.0005
 5274SOL    HW227459   3.495   4.190   3.167 -0.5739 -1.6279  0.7754
 5275SOL     OW27460   3.785   4.008   7.294 -0.1250 -0.0804  0.5051
 5275SOL    HW127461   3.877   4.011   7.268  0.0498  0.8590  1.2246
 5275SOL    HW227462   3.785   4.046   7.382  2.7780  2.5303 -0.6205
 5276SOL     OW27463   4.315   4.442   9.080 -0.4955  0.6022  0.4594
 5276SOL    HW127464   4.234   4.486   9.052 -1.2221  0.3154  2.0856
 5276SOL    HW227465   4.376   4.515   9.094  0.6192 -0.0919 -0.7684
 5277SOL     OW27466   4.072   4.558   9.000  0.1536  0.3132 -0.1716
 5277SOL    HW127467   4.042   4.594   9.084  0.0261 -0.0116 -0.0804
 5277SOL    HW227468   4.112   4.640   8.971  2.7786  0.6025  4.3467
 5278SOL     OW27469   3.421   3.974   5.742 -0.1688 -0.0102 -0.2592
 5278SOL    HW127470   3.347   4.013   5.696 -1.4282 -1.0671  0.8896
 5278SOL    HW227471   3.407   3.880   5.733  2.0060 -0.1627 -1.9437
 5279SOL     OW27472   2.071   2.790  12.845 -0.5372 -0.3564  0.6679
 5279SOL    HW127473   2.149   2.820  12.892 -1.3104  0.9300  1.1315
 5279SOL    HW227474   2.011   2.815  12.915 -0.2948  0.3004  0.6404
 5280SOL     OW27475   0.231   4.523   9.503  0.3538 -0.1438 -0.3565
 5280SOL    HW127476   0.257   4.434   9.479 -0.1378 -0.5652  0.6643
 5280SOL    HW227477   0.201   4.507   9.592  1.3313 -2.5519 -0.4591
 5281SOL     OW27478   4.612   1.929  10.956 -0.2766 -0.6870 -0.2774
 5281SOL    HW127479   4.613   1.933  11.052  0.8719 -0.9991 -0.2800
 5281SOL    HW227480   4.626   2.022  10.941 -1.3582 -0.2755  1.2611
 5282SOL     OW27481   3.951   1.851  15.362  0.1326 -0.1488  0.3433
 5282SOL    HW127482   3.932   1.918  15.427 -1.8522  1.8037 -2.2390
 5282SOL    HW227483   3.869   1.848  15.312 -0.2146  1.9700  0.7896
 5283SOL     OW27484   0.059   3.288   5.130 -0.5035 -0.4168 -0.1912
 5283SOL    HW127485   0.102   3.239   5.200  2.1184  0.1008 -1.4252
 5283SOL    HW227486   0.019   3.362   5.176 -1.0755 -0.6297 -0.3556
 5284SOL     OW27487   0.237   4.604   3.870  0.3744 -0.2606 -0.4449
 5284SOL    HW127488   0.224   4.519   3.910 -1.8009 -0.1451 -0.9481
 5284SOL    HW227489   0.179   4.606   3.794  0.4710 -2.9745 -0.5822
 5285SOL     OW27490   1.701   1.480   6.922 -0.0695  0.0478  0.5435
 5285SOL    HW127491   1.730   1.389   6.932  0.9748  0.2741 -0.5377
 5285SOL    HW227492   1.775   1.517   6.970  0.7043 -1.4553  0.5116
 5286SOL     OW27493   4.107   4.355   6.752  0.9733  0.0593 -0.4588
 5286SOL    HW127494   4.046   4.285   6.731  0.2979  0.5730 -0.1960
 5286SOL    HW227495   4.158   4.301   6.813  0.7121  2.6129  2.0201
 5287SOL     OW27496   1.361   3.821   5.604 -0.0514  0.7405  0.4262
 5287SOL    HW127497   1.373   3.748   5.665 -2.2590 -0.6368 -0.7872
 5287SOL    HW227498   1.326   3.775   5.527  0.0696 -0.3603  1.0379
 5288SOL     OW27499   4.625   0.292   7.410 -0.2904 -0.4764 -0.5103
 5288SOL    HW127500   4.651   0.323   7.324 -0.9916  0.8725 -0.2317
 5288SOL    HW227501   4.676   0.211   7.415 -2.3093 -1.7563 -0.6891
 5289SOL     OW27502   0.261   4.110  15.939 -0.3336 -0.5618 -0.8003
 5289SOL    HW127503   0.321   4.045  15.903  0.9661  1.6163 -2.5171
 5289SOL    HW227504   0.310   4.160  16.004 -0.1054 -2.3491  0.4223
 5290SOL     OW27505   0.180   2.926   8.704 -0.0626 -0.4559  0.0882
 5290SOL    HW127506   0.180   2.969   8.789 -2.6210  0.1553 -0.2185
 5290SOL    HW227507   0.095   2.947   8.664  0.9050 -2.2958 -2.9069
 5291SOL     OW27508   0.171   3.280   3.836 -0.2806  0.5195 -0.3958
 5291SOL    HW127509   0.170   3.281   3.740 -0.3812 -2.3465 -0.4150
 5291SOL    HW227510   0.096   3.225   3.857  1.5537 -1.5169  0.8286
 5292SOL     OW27511   2.007   4.436   9.274 -0.8330  0.4936 -0.0436
 5292SOL    HW127512   1.920   4.396   9.280 -2.0007  3.1276  0.5017
 5292SOL    HW227513   1.981   4.526   9.292 -0.1690  0.7720 -0.5000
 5293SOL     OW27514   1.592   1.136  15.352  0.3747  0.0606  0.2098
 5293SOL    HW127515   1.630   1.209  15.303 -2.2097  0.7138 -0.8076
 5293SOL    HW227516   1.510   1.175  15.380  0.4244 -1.6790  2.8049
 5294SOL     OW27517   1.124   2.556   6.059  0.1838 -0.2282 -0.1644
 5294SOL    HW127518   1.183   2.551   5.984 -0.5516 -0.4717 -0.7272
 5294SOL    HW227519   1.153   2.478   6.107  2.4344  0.4676 -0.3824
 5295SOL     OW27520   0.930   1.101   7.515 -0.1607 -0.1317 -0.5561
 5295SOL    HW127521   0.981   1.037   7.465 -2.0855 -0.9863 -1.4260
 5295SOL    HW227522   0.841   1.064   7.506 -0.0427 -0.8091  1.2248
 5296SOL     OW27523   4.330   2.824   0.748  0.1069  0.6786  0.2116
 5296SOL    HW127524   4.259   2.887   0.738 -1.3364 -0.5722  2.5820
 5296SOL    HW227525   4.311   2.784   0.833 -1.8229  4.3749  1.4935
 5297SOL     OW27526   3.478   1.202   9.273 -0.1722  0.0986  0.7541
 5297SOL    HW127527   3.484   1.276   9.212  1.7603  2.0575  3.3804
 5297SOL    HW227528   3.428   1.245   9.342 -1.5468 -0.1851 -0.0438
 5298SOL     OW27529   3.540   1.700   6.648 -0.2305  0.5209 -0.5127
 5298SOL    HW127530   3.497   1.734   6.569  1.9372 -0.6835 -2.2129
 5298SOL    HW227531   3.488   1.619   6.653  1.3762 -0.3885  1.4088
 5299SOL     OW27532   1.332   2.828   7.543  0.1265  0.1182  0.2417
 5299SOL    HW127533   1.406   2.768   7.533 -0.3981 -0.7136  1.3048
 5299SOL    HW227534   1.279   2.769   7.597 -1.3203  0.5796 -0.6738
 5300SOL     OW27535   0.478   4.532  10.640  0.1112  0.4162 -0.0996
 5300SOL    HW127536   0.508   4.477  10.568 -0.7782  1.1432 -1.0323
 5300SOL    HW227537   0.481   4.480  10.720  0.4792 -2.7950 -2.1749
 5301SOL     OW27538   2.095   2.906   4.979 -0.1199 -0.3150  0.0051
 5301SOL    HW127539   2.031   2.925   4.911  1.3862  1.4471 -0.9114
 5301SOL    HW227540   2.112   2.812   4.970 -2.0376 -0.6189 -0.5295
 5302SOL     OW27541   3.162   3.216   6.038  0.5196 -0.1313 -0.0598
 5302SOL    HW127542   3.190   3.268   5.962  0.0624  1.0160  0.5699
 5302SOL    HW227543   3.152   3.129   6.000 -1.1012  0.2236 -0.4484
 5303SOL     OW27544   2.220   4.716   6.895 -0.0510  0.1159 -0.0082
 5303SOL    HW127545   2.230   0.065   6.855  0.7807  0.3742  0.7636
 5303SOL    HW227546   2.130   4.697   6.869  0.2670 -1.6573  0.2288
 5304SOL     OW27547   2.682   1.254   1.948 -0.1888 -0.1751  0.1377
 5304SOL    HW127548   2.700   1.223   1.859  4.3195 -0.5246  1.1510
 5304SOL    HW227549   2.601   1.211   1.974 -0.3798  1.3278  2.0280
 5305SOL     OW27550   1.116   1.197   4.550 -0.0496  0.5757  0.5765
 5305SOL    HW127551   1.120   1.229   4.640 -1.3311 -1.2510  1.2792
 5305SOL    HW227552   1.112   1.278   4.499 -3.0765  0.2432  0.2988
 5306SOL     OW27553   0.014   3.685   5.399  0.7867 -0.4714  0.6484
 5306SOL    HW127554   4.693   3.760   5.406  0.8335 -0.3393 -0.2954
 5306SOL    HW227555   0.096   3.730   5.381  0.7407 -0.3253  0.8059
 5307SOL     OW27556   3.256   1.311  15.165 -0.2314  0.1402  0.9105
 5307SOL    HW127557   3.306   1.272  15.236  1.8585 -0.2507 -0.7467
 5307SOL    HW227558   3.239   1.396  15.205  0.9812  0.2954  1.1002
 5308SOL     OW27559   0.912   0.613   7.768  0.2907 -0.2922 -0.2375
 5308SOL    HW127560   0.861   0.636   7.690  1.9862  1.4107 -0.8555
 5308SOL    HW227561   0.973   0.687   7.777  0.3208  0.0947 -3.6428
 5309SOL     OW27562   4.336   3.211   7.465  0.0846 -0.1086  0.2309
 5309SOL    HW127563   4.381   3.241   7.386 -0.1373  1.7366  0.8002
 5309SOL    HW227564   4.391   3.135   7.484  1.5548  0.6320 -1.0908
 5310SOL     OW27565   1.091   4.635   4.756  0.3092  0.0648  0.4871
 5310SOL    HW127566   1.104   4.662   4.665  2.0813 -1.9960  0.0975
 5310SOL    HW227567   1.170   4.667   4.800  2.5512 -1.5690 -2.3388
 5311SOL     OW27568   2.973   3.769   6.961  0.1185  0.0919  0.2782
 5311SOL    HW127569   2.967   3.774   6.865  1.3607 -1.6186  0.1202
 5311SOL    HW227570   2.930   3.851   6.985  1.2344  1.0189 -0.8609
 5312SOL     OW27571   3.337   3.634   6.580  0.0538 -0.1028 -0.8634
 5312SOL    HW127572   3.392   3.556   6.582  0.1444 -0.0261 -0.0059
 5312SOL    HW227573   3.382   3.673   6.506 -1.2536 -0.3602 -1.7994
 5313SOL     OW27574   2.734   1.588  15.722 -0.0665  0.1137 -0.0537
 5313SOL    HW127575   2.815   1.607  15.674 -0.5794  1.3445 -0.4282
 5313SOL    HW227576   2.713   1.674  15.758 -0.4704 -0.9551  2.2903
 5314SOL     OW27577   2.449   0.563  14.065 -1.1316 -0.0650 -0.5183
 5314SOL    HW127578   2.385   0.525  14.005 -2.1049 -2.4389  2.0339
 5314SOL    HW227579   2.438   0.506  14.141 -0.0904  1.0512  0.4755
 5315SOL     OW27580   2.838   4.182   2.055 -0.0413  0.6151 -0.3102
 5315SOL    HW127581   2.849   4.095   2.016  2.8053  1.1372 -0.6468
 5315SOL    HW227582   2.782   4.165   2.131 -2.0100  2.2754 -1.3604
 5316SOL     OW27583   2.850   2.274   5.373 -0.5128 -0.2659 -0.4089
 5316SOL    HW127584   2.897   2.356   5.390 -2.1600  0.3372  1.2634
 5316SOL    HW227585   2.858   2.248   5.465 -2.6685  0.9280  0.1409
 5317SOL     OW27586   1.227   4.054   9.681 -0.6397  0.1112 -0.2856
 5317SOL    HW127587   1.320   4.074   9.671 -0.9152  1.5501  0.0912
 5317SOL    HW227588   1.223   4.028   9.773  2.4099  1.2998  0.1643
 5318SOL     OW27589   0.980   2.387  10.211 -1.0962 -0.3702  0.3345
 5318SOL    HW127590   0.953   2.348  10.295  2.1517 -0.1473  1.4889
 5318SOL    HW227591   1.075   2.376  10.204 -1.0392 -0.4307  1.1173
 5319SOL     OW27592   1.772   1.658  17.720 -0.2828 -0.6405  0.3559
 5319SOL    HW127593   1.832   1.616  17.659  2.5961  3.6302  0.1959
 5319SOL    HW227594   1.729   1.585   0.015 -0.8219 -0.4892  0.0804
 5320SOL     OW27595   1.674   2.746  10.951  0.4797  0.0312  0.0885
 5320SOL    HW127596   1.720   2.818  10.995 -0.8266  0.6681  0.4119
 5320SOL    HW227597   1.673   2.686  11.025  0.4789 -1.7380 -1.3590
 5321SOL     OW27598   3.873   3.242   9.281  0.7292  0.9746 -0.1846
 5321SOL    HW127599   3.948   3.208   9.332 -1.2879 -1.8511  0.8953
 5321SOL    HW227600   3.819   3.163   9.276 -0.9338  2.0853  0.3582
 5322SOL     OW27601   4.161   2.891   0.043  0.1734 -0.1619 -0.5431
 5322SOL    HW127602   4.175   2.976   0.002  1.5132 -0.0386  0.1474
 5322SOL    HW227603   4.093   2.910   0.107 -0.9618 -0.6532 -1.6060
 5323SOL     OW27604   1.212   1.208   4.836 -0.8761  0.6678 -0.1318
 5323SOL    HW127605   1.286   1.204   4.897 -0.6454  0.4509 -0.4269
 5323SOL    HW227606   1.199   1.301   4.817 -0.7382  0.9505  1.1660
 5324SOL     OW27607   0.171   2.502   5.282 -0.2747  0.2573 -0.0098
 5324SOL    HW127608   0.240   2.462   5.229 -0.1945  0.6118 -0.1690
 5324SOL    HW227609   0.092   2.459   5.250 -0.6808 -1.5850  3.3592
 5325SOL     OW27610   1.745   2.697   6.522  0.1392  0.1933  0.3424
 5325SOL    HW127611   1.768   2.604   6.523 -0.3179  0.0781 -0.5096
 5325SOL    HW227612   1.756   2.726   6.432 -1.9397  1.6365  0.5670
 5326SOL     OW27613   2.363   3.031   2.002  0.7889  0.3333  0.2791
 5326SOL    HW127614   2.358   2.952   1.947 -0.8481  0.9866 -0.4928
 5326SOL    HW227615   2.394   2.989   2.083  0.0828  1.1401  0.9579
 5327SOL     OW27616   4.327   4.622   3.930  0.1882  0.2424  0.1860
 5327SOL    HW127617   4.415   4.584   3.923  0.0053  0.0589 -1.1336
 5327SOL    HW227618   4.269   4.577   3.869 -0.4970  3.0086 -1.2116
 5328SOL     OW27619   0.915   0.864   8.493  0.5931  0.1730  0.3120
 5328SOL    HW127620   0.913   0.896   8.583  0.6773 -2.2589  1.1941
 5328SOL    HW227621   0.972   0.927   8.450  1.1359 -0.2899  0.3533
 5329SOL     OW27622   3.202   2.494   6.047  0.2272 -0.2571 -0.5433
 5329SOL    HW127623   3.165   2.407   6.030  1.5278 -0.8470 -0.3244
 5329SOL    HW227624   3.279   2.468   6.098 -1.1276 -3.9882 -0.3717
 5330SOL     OW27625   2.895   4.171   5.991 -0.9967  0.0816  0.4747
 5330SOL    HW127626   2.887   4.264   6.010  2.1144  0.3421  0.5634
 5330SOL    HW227627   2.975   4.173   5.937  0.1675 -1.2111  2.1340
 5331SOL     OW27628   0.735   4.710   2.709 -0.6428 -0.1370  0.2606
 5331SOL    HW127629   0.732   4.643   2.777 -0.5880  0.4173  0.8079
 5331SOL    HW227630   0.745   4.652   2.634  0.6110  1.4248 -0.7771
 5332SOL     OW27631   1.359   0.892   5.165 -0.6984 -0.4106  0.1297
 5332SOL    HW127632   1.335   0.891   5.257 -0.7474  1.6444  0.1305
 5332SOL    HW227633   1.339   0.985   5.156  0.8657 -0.0265  0.6574
 5333SOL     OW27634   2.989   4.667  17.080  0.0401 -0.5717 -0.0534
 5333SOL    HW127635   3.000   4.724  17.003  1.5457 -3.2536 -1.8225
 5333SOL    HW227636   2.896   4.647  17.074 -0.2563  0.5649  0.7690
 5334SOL     OW27637   2.618   4.728   5.647 -0.4750 -0.1644 -0.2683
 5334SOL    HW127638   2.585   4.690   5.728  1.7889 -0.6546  0.4173
 5334SOL    HW227639   2.550   4.702   5.585 -0.5633 -0.1769 -0.1662
 5335SOL     OW27640   3.946   0.207   7.556  0.1026  0.3065 -0.3771
 5335SOL    HW127641   3.935   0.112   7.552  0.0980  0.2507  1.0136
 5335SOL    HW227642   3.973   0.225   7.646  2.3766  1.3768 -1.2620
 5336SOL     OW27643   0.421   2.784   4.729 -0.0724  0.2227 -0.8329
 5336SOL    HW127644   0.469   2.770   4.647 -0.0325  3.9614 -1.4434
 5336SOL    HW227645   0.473   2.851   4.773  0.9251 -1.6774  0.9187
 5337SOL     OW27646   2.607   2.473   7.478 -0.1781  0.0134 -0.2369
 5337SOL    HW127647   2.618   2.537   7.549 -0.7861  2.7219 -2.5520
 5337SOL    HW227648   2.589   2.396   7.531  1.0166 -0.6481 -0.8065
 5338SOL     OW27649   0.779   0.180   6.391 -0.6225  0.4384  0.3179
 5338SOL    HW127650   0.872   0.177   6.414 -0.5261 -1.5553 -0.3273
 5338SOL    HW227651   0.779   0.135   6.307  1.1852  1.2254 -0.1129
 5339SOL     OW27652   0.949   3.728   4.308 -0.4843  0.2992  0.0018
 5339SOL    HW127653   0.858   3.719   4.339 -0.3931 -0.4686  0.0500
 5339SOL    HW227654   0.941   3.820   4.285  2.4475 -0.2776 -3.1824
 5340SOL     OW27655   4.007   1.948   6.128 -0.0233 -0.2074 -0.0615
 5340SOL    HW127656   4.033   2.039   6.116  0.4523 -0.2621  0.5879
 5340SOL    HW227657   4.052   1.935   6.211 -1.9593 -1.9887  0.6986
 5341SOL     OW27658   1.295   4.164   0.476  0.8246 -0.2054  0.3913
 5341SOL    HW127659   1.215   4.115   0.495  0.3371  0.8259  0.9628
 5341SOL    HW227660   1.250   4.232   0.426  2.2029  0.0709 -0.4694
 5342SOL     OW27661   1.969   0.162  10.483 -1.0013  0.3215  0.1046
 5342SOL    HW127662   1.972   0.246  10.437 -1.2554  0.6399  0.6652
 5342SOL    HW227663   2.031   0.119  10.424  0.1794  1.4037  0.5533
 5343SOL     OW27664   2.465   3.494   5.217 -0.6070 -0.0454 -0.4039
 5343SOL    HW127665   2.558   3.509   5.199 -0.3145 -1.4711 -0.0358
 5343SOL    HW227666   2.440   3.577   5.258  2.5894  0.0609  1.2906
 5344SOL     OW27667   3.241   2.859   2.068 -0.0817  0.5594 -0.0348
 5344SOL    HW127668   3.264   2.816   1.986 -0.4480 -0.6375  0.4946
 5344SOL    HW227669   3.172   2.805   2.107  1.3675 -0.5551  0.9375
 5345SOL     OW27670   0.115   3.197   2.422 -0.5710  0.2844 -0.4617
 5345SOL    HW127671   0.066   3.277   2.406 -0.2794  0.5344 -0.0835
 5345SOL    HW227672   0.053   3.124   2.419 -0.8131  0.4866 -0.3934
 5346SOL     OW27673   3.728   2.242   5.201 -0.6007 -0.0522  0.3119
 5346SOL    HW127674   3.740   2.317   5.141 -3.7410 -1.0322 -1.5295
 5346SOL    HW227675   3.642   2.258   5.239 -1.1622 -1.4798 -0.3906
 5347SOL     OW27676   3.397   0.882   3.980  0.1423 -0.3600 -0.5469
 5347SOL    HW127677   3.432   0.833   4.054 -0.5483 -0.2968 -0.1835
 5347SOL    HW227678   3.333   0.943   4.015  0.6845  0.0193 -0.2075
 5348SOL     OW27679   1.985   4.647   5.896  0.2571 -0.1077  0.4768
 5348SOL    HW127680   2.036   4.727   5.878  0.4754 -1.0317 -3.0959
 5348SOL    HW227681   1.903   4.688   5.871  0.1527 -1.4992 -1.5104
 5349SOL     OW27682   0.182   0.979   8.568 -0.6949 -0.1274 -0.0910
 5349SOL    HW127683   0.275   0.955   8.560 -0.6296  0.0734  0.0829
 5349SOL    HW227684   0.193   1.073   8.558 -1.2014  0.2482  3.0021
 5350SOL     OW27685   1.279   2.597   9.163  0.0728 -0.7438  0.2306
 5350SOL    HW127686   1.284   2.680   9.211  0.4036 -1.1013  0.8147
 5350SOL    HW227687   1.203   2.617   9.109  0.7008 -0.2982 -0.4868
 5351SOL     OW27688   1.694   3.147   7.592  0.1215 -0.4123  0.4662
 5351SOL    HW127689   1.756   3.194   7.536 -0.7638 -0.2044 -0.3402
 5351SOL    HW227690   1.738   3.117   7.671 -0.3085 -0.9585  0.4945
 5352SOL     OW27691   0.767   4.470  15.813 -0.0614  0.2142  0.3178
 5352SOL    HW127692   0.729   4.410  15.749  1.9474 -0.1160 -0.5495
 5352SOL    HW227693   0.690   4.510  15.854 -0.8083 -1.7585  0.8546
 5353SOL     OW27694   0.184   3.824  13.515 -0.1392 -0.0255  0.0644
 5353SOL    HW127695   0.276   3.828  13.541 -0.0714 -3.2023  0.3168
 5353SOL    HW227696   0.198   3.807  13.422  0.9510  1.0427  0.0395
 5354SOL     OW27697   3.996   3.142  17.068  0.1531  0.7835  0.2164
 5354SOL    HW127698   3.917   3.184  17.034 -0.0017  0.2886 -0.0403
 5354SOL    HW227699   4.062   3.210  17.058 -0.2757  1.3719  1.3938
 5355SOL     OW27700   0.400   0.200   2.791  0.5325  0.3368 -0.1644
 5355SOL    HW127701   0.438   0.274   2.838 -1.1643  1.4493 -0.5395
 5355SOL    HW227702   0.473   0.172   2.736  0.2628 -1.3388  0.3259
 5356SOL     OW27703   0.266   2.620   8.691 -0.7438  0.1053 -0.2489
 5356SOL    HW127704   0.331   2.574   8.744 -0.2735 -1.1617 -1.9024
 5356SOL    HW227705   0.275   2.709   8.725  1.9329  0.0307 -0.7593
 5357SOL     OW27706   2.267   4.272   3.791  0.2323 -0.2649 -0.1821
 5357SOL    HW127707   2.292   4.326   3.866  0.3859  0.5692 -0.8410
 5357SOL    HW227708   2.336   4.290   3.727 -0.9090 -3.1682 -2.2477
 5358SOL     OW27709   1.282   0.333   3.297 -0.2261 -0.2137  0.0624
 5358SOL    HW127710   1.229   0.347   3.218 -1.0013  1.8833  0.9540
 5358SOL    HW227711   1.242   0.401   3.352 -1.2240 -0.0380 -0.8702
 5359SOL     OW27712   3.291   1.428   0.141  0.6669  0.2210  0.3976
 5359SOL    HW127713   3.275   1.336   0.161  1.4013  0.1201  0.5391
 5359SOL    HW227714   3.387   1.432   0.134  0.7522 -0.1640  1.2303
 5360SOL     OW27715   1.698   0.343  10.412  0.0138  1.0804  0.5601
 5360SOL    HW127716   1.713   0.310  10.500 -1.2285 -0.0239  0.3504
 5360SOL    HW227717   1.727   0.434  10.405  1.1414  0.6421 -0.4565
 5361SOL     OW27718   3.294   4.504   3.235  0.0478 -0.2860  0.2164
 5361SOL    HW127719   3.290   4.451   3.156 -1.5668  0.9662 -0.5448
 5361SOL    HW227720   3.228   4.570   3.212  0.9362  0.5401  0.0069
 5362SOL     OW27721   3.611   0.980   5.129 -0.3870  0.1405  0.5352
 5362SOL    HW127722   3.596   1.018   5.043 -0.9369 -0.4235  0.3820
 5362SOL    HW227723   3.642   0.893   5.104  1.6561  0.0832  3.3022
 5363SOL     OW27724   1.727   3.595   8.495  0.7636 -0.1852 -0.2131
 5363SOL    HW127725   1.637   3.580   8.526 -0.3895  0.9499 -2.9425
 5363SOL    HW227726   1.705   3.623   8.406  0.9806  2.2827  0.5067
 5364SOL     OW27727   1.614   0.432   2.158  0.1594 -0.4644 -0.2246
 5364SOL    HW127728   1.693   0.449   2.107  0.5575  0.5385  0.7364
 5364SOL    HW227729   1.564   0.403   2.082 -0.1816  0.1901 -0.2485
 5365SOL     OW27730   2.531   3.795  13.836 -0.3186 -0.1717  0.6041
 5365SOL    HW127731   2.507   3.735  13.765 -0.5393  1.4317 -0.6769
 5365SOL    HW227732   2.505   3.877  13.796 -0.6246 -0.3705  0.3972
 5366SOL     OW27733   4.332   3.798  16.635  0.1159 -0.7673 -0.1203
 5366SOL    HW127734   4.269   3.797  16.707  0.6638  0.9601  0.3894
 5366SOL    HW227735   4.381   3.880  16.642 -0.8977 -0.1783  0.0400
 5367SOL     OW27736   1.421   4.493  11.805  0.5394  0.4620 -0.3443
 5367SOL    HW127737   1.364   4.570  11.810  0.9310  0.6225  1.5731
 5367SOL    HW227738   1.485   4.523  11.870 -1.9086 -2.1035  3.2714
 5368SOL     OW27739   3.191   0.458  17.735 -0.0703  0.5325 -0.2874
 5368SOL    HW127740   3.150   0.529   0.036  0.5414  0.7604 -0.1170
 5368SOL    HW227741   3.254   0.427   0.051 -0.4356 -0.3872 -0.3667
 5369SOL     OW27742   4.646   1.711  16.822 -0.6363  0.1993  0.4026
 5369SOL    HW127743   4.556   1.744  16.821 -0.6071  0.2818  0.4771
 5369SOL    HW227744   4.644   1.680  16.912 -0.5436 -2.0866 -0.3960
 5370SOL     OW27745   1.722   4.521   7.325  0.3242  0.0291 -0.0930
 5370SOL    HW127746   1.810   4.533   7.360  0.1884  0.4629  0.0965
 5370SOL    HW227747   1.718   4.576   7.247  1.5440 -0.2211 -0.3379
 5371SOL     OW27748   3.102   0.010   3.633  0.5332  0.2136  0.3665
 5371SOL    HW127749   3.011   0.024   3.606  1.0286 -1.7777 -2.3126
 5371SOL    HW227750   3.126   0.077   3.697  2.5615  0.1433 -0.3301
 5372SOL     OW27751   2.423   0.090   8.679 -0.1271 -0.4145  0.1341
 5372SOL    HW127752   2.363   0.099   8.604 -0.8334 -0.2833  0.7216
 5372SOL    HW227753   2.374   0.138   8.744 -0.2646 -1.1982  0.6115
 5373SOL     OW27754   4.202   3.044  14.520 -0.0129 -0.1268  0.1492
 5373SOL    HW127755   4.285   2.997  14.516 -0.0552 -0.0496 -1.3216
 5373SOL    HW227756   4.173   3.026  14.610 -1.0394  0.1173 -0.1308
 5374SOL     OW27757   1.668   2.261   2.376  0.1735  0.1610  0.7727
 5374SOL    HW127758   1.736   2.197   2.396 -1.3122 -2.0727 -1.3097
 5374SOL    HW227759   1.632   2.249   2.464 -2.1926 -0.8879 -0.3415
 5375SOL     OW27760   4.354   4.085  15.243  0.0589  0.2223  0.8165
 5375SOL    HW127761   4.396   4.165  15.273  0.8911 -0.1981  0.7832
 5375SOL    HW227762   4.261   4.108  15.249 -0.3685 -1.5683  1.1717
 5376SOL     OW27763   3.784   3.447   6.181  0.1312 -0.2985 -0.6143
 5376SOL    HW127764   3.800   3.474   6.272 -1.1589  1.2939 -0.8558
 5376SOL    HW227765   3.702   3.400   6.199 -0.0108  0.1615 -0.0450
 5377SOL     OW27766   1.100   3.014   4.689 -0.1350  0.0143 -0.1494
 5377SOL    HW127767   1.190   3.043   4.705  0.0592  0.4372 -2.0003
 5377SOL    HW227768   1.074   3.082   4.627 -1.0273  0.8430  1.1191
 5378SOL     OW27769   4.704   0.071   3.685  0.1946  0.4156  0.5353
 5378SOL    HW127770   4.734   4.733   3.633 -0.7881  1.7369 -1.9373
 5378SOL    HW227771   0.020   0.144   3.654 -0.2529  0.4095 -0.2652
 5379SOL     OW27772   1.586   4.323   2.582  0.0485 -0.0071  0.0304
 5379SOL    HW127773   1.622   4.317   2.494  1.9748 -1.8139  0.9319
 5379SOL    HW227774   1.497   4.356   2.565  0.9999  2.8475  0.6365
 5380SOL     OW27775   2.823   2.046   6.372 -0.2692  0.8540  0.7274
 5380SOL    HW127776   2.759   2.081   6.433 -0.9624 -0.4961  0.7763
 5380SOL    HW227777   2.886   2.116   6.356 -0.5425  0.7046 -0.9872
 5381SOL     OW27778   4.190   0.346   7.517 -0.6317  0.3187  0.7750
 5381SOL    HW127779   4.158   0.436   7.508  0.5905  0.7611  0.9352
 5381SOL    HW227780   4.118   0.290   7.487 -0.4874 -0.0016  1.0319
 5382SOL     OW27781   0.998   4.444  11.905 -0.3016  0.4162  0.2406
 5382SOL    HW127782   0.933   4.514  11.913 -1.8911 -1.0304  0.0855
 5382SOL    HW227783   0.949   4.379  11.854  1.2272 -0.5804  0.0557
 5383SOL     OW27784   3.470   1.480   8.362  0.3558 -0.5920 -0.0629
 5383SOL    HW127785   3.419   1.445   8.289  0.0998 -1.4523  0.5318
 5383SOL    HW227786   3.525   1.408   8.391 -0.5933  0.0572  3.3535
 5384SOL     OW27787   4.650   1.447   3.625  0.3749 -0.3856  0.6088
 5384SOL    HW127788   4.704   1.368   3.625 -0.4020 -0.9205  0.2059
 5384SOL    HW227789   4.686   1.501   3.556  1.8070 -0.6325  1.1594
 5385SOL     OW27790   4.042   2.322   6.385  0.4740  0.2552 -0.4297
 5385SOL    HW127791   4.075   2.405   6.420  1.4634 -1.4542  2.6333
 5385SOL    HW227792   4.052   2.345   6.292  1.5603 -1.7262 -0.7832
 5386SOL     OW27793   0.530   3.395  11.276  0.3179  0.0371 -0.1389
 5386SOL    HW127794   0.553   3.307  11.306 -2.1280 -0.1332  1.2526
 5386SOL    HW227795   0.613   3.430  11.243 -1.2169  2.7977 -1.0501
 5387SOL     OW27796   4.061   2.364   6.767  0.8030  0.0306 -0.1928
 5387SOL    HW127797   4.130   2.304   6.736  1.7603  1.0299  0.0142
 5387SOL    HW227798   4.083   2.369   6.861  1.3837  2.1351 -0.4417
 5388SOL     OW27799   0.055   1.857   5.879  0.4048 -0.0605  0.3883
 5388SOL    HW127800   0.116   1.917   5.835  0.1297 -0.0318  0.0446
 5388SOL    HW227801   4.719   1.865   5.818  1.4566  1.1679 -0.7138
 5389SOL     OW27802   1.419   1.034   4.597  0.3355  0.0958  0.1934
 5389SOL    HW127803   1.450   1.120   4.623 -2.6933  1.6466 -1.2853
 5389SOL    HW227804   1.353   1.072   4.539 -0.9288 -1.6612  0.4674
 5390SOL     OW27805   2.049   2.518  15.762 -0.5039  0.6249  0.0134
 5390SOL    HW127806   2.109   2.565  15.703  0.5159 -2.0043 -1.0393
 5390SOL    HW227807   1.992   2.478  15.697 -0.9672 -1.3971  1.6859
 5391SOL     OW27808   3.551   0.552   8.712  0.2674 -0.3202  0.6692
 5391SOL    HW127809   3.635   0.542   8.757  0.2113 -1.9678  0.4153
 5391SOL    HW227810   3.517   0.638   8.738 -0.3762  0.4638 -2.7088
 5392SOL     OW27811   1.175   4.450   7.461  0.8043 -0.9731  0.0147
 5392SOL    HW127812   1.131   4.458   7.376  0.0943  2.7501  0.7667
 5392SOL    HW227813   1.261   4.488   7.444 -0.7106  1.5433 -1.9662
 5393SOL     OW27814   1.017   2.965   6.445 -0.0689 -0.4073 -0.7425
 5393SOL    HW127815   1.099   2.943   6.401 -0.8453  1.0139 -2.9229
 5393SOL    HW227816   1.003   2.882   6.490  3.6638  0.7158  2.5885
 5394SOL     OW27817   1.775   2.579   5.846 -0.5659  0.6382  0.2376
 5394SOL    HW127818   1.827   2.649   5.806 -1.3252  0.6006 -0.8010
 5394SOL    HW227819   1.833   2.511   5.881 -0.5189  0.7541  0.3842
 5395SOL     OW27820   1.067   3.410  10.939  0.1847 -0.2200 -0.1730
 5395SOL    HW127821   1.022   3.460  11.008  2.7557 -0.0823  1.3773
 5395SOL    HW227822   1.153   3.406  10.979  0.0759 -0.3936  0.0450
 5396SOL     OW27823   2.136   0.486   0.503  0.0532 -0.2571 -0.6677
 5396SOL    HW127824   2.168   0.414   0.448 -2.1350 -0.2277 -1.9811
 5396SOL    HW227825   2.062   0.518   0.451  0.3845  0.0919 -0.9266
 5397SOL     OW27826   0.286   3.960   1.265 -0.1153  0.1324  0.1944
 5397SOL    HW127827   0.283   3.899   1.192 -0.3489  0.7036 -0.2672
 5397SOL    HW227828   0.251   4.038   1.223 -0.0972 -0.4168 -0.8440
 5398SOL     OW27829   3.714   2.807   1.105  0.7128 -0.0499  0.7244
 5398SOL    HW127830   3.753   2.780   1.022  1.2929  3.2779 -0.1168
 5398SOL    HW227831   3.791   2.828   1.158  1.3041 -0.5863  0.0726
 5399SOL     OW27832   2.970   4.055   8.842 -0.4374 -0.5683 -0.2711
 5399SOL    HW127833   3.065   4.049   8.850 -0.1618  0.0967 -3.2031
 5399SOL    HW227834   2.964   4.150   8.850  0.2378 -0.7348  2.2057
 5400SOL     OW27835   4.406   0.415  16.865  0.2036 -0.0528  0.5231
 5400SOL    HW127836   4.445   0.485  16.918 -1.5231  3.7610 -3.3071
 5400SOL    HW227837   4.323   0.395  16.909 -0.9575 -0.9083 -2.0392
 5401SOL     OW27838   2.066   1.880   1.764  0.0258  0.0391  0.4003
 5401SOL    HW127839   2.016   1.933   1.702  0.2351  0.4298  0.5601
 5401SOL    HW227840   2.058   1.800   1.712  0.4454  0.6892 -0.6808
 5402SOL     OW27841   3.821   4.446   7.921  0.1116 -0.1334  0.2235
 5402SOL    HW127842   3.893   4.407   7.970  0.2408 -0.1190  0.0443
 5402SOL    HW227843   3.872   4.517   7.881 -2.1848  0.2193 -2.1036
 5403SOL     OW27844   2.566   0.690  11.769  0.6343 -0.3418 -0.1129
 5403SOL    HW127845   2.642   0.743  11.793 -0.8765  1.4626  0.7411
 5403SOL    HW227846   2.575   0.606  11.814  0.1982  0.4598  1.4543
 5404SOL     OW27847   0.426   1.544   6.104 -0.3546 -0.0983 -0.4770
 5404SOL    HW127848   0.522   1.546   6.101 -0.3847  0.1358 -1.1604
 5404SOL    HW227849   0.424   1.457   6.143  1.0149 -0.6653 -1.6572
 5405SOL     OW27850   1.859   1.338   0.252  0.4986 -0.1081  0.3066
 5405SOL    HW127851   1.845   1.270   0.317 -0.0691 -0.2152  0.0718
 5405SOL    HW227852   1.933   1.306   0.199  0.0045 -1.6762  0.5942
 5406SOL     OW27853   4.464   0.598   4.761  0.3505 -0.1922 -0.5616
 5406SOL    HW127854   4.489   0.656   4.690  0.2579 -0.1164 -0.5321
 5406SOL    HW227855   4.550   0.599   4.804  1.2722  1.3875 -2.4703
 5407SOL     OW27856   1.124   1.934   8.691  0.1549 -0.4562  0.0231
 5407SOL    HW127857   1.067   1.860   8.669 -2.7469  1.8122 -0.0209
 5407SOL    HW227858   1.060   1.998   8.721  1.6480  0.9337  0.1988
 5408SOL     OW27859   1.062   3.863  15.117 -0.6190  0.1843 -0.0466
 5408SOL    HW127860   1.153   3.891  15.123 -0.9788  1.8807 -2.4508
 5408SOL    HW227861   1.056   3.767  15.117 -2.9010  0.3187 -1.5923
 5409SOL     OW27862   0.155   4.404   3.379 -0.1717 -0.8597  0.2461
 5409SOL    HW127863   0.151   4.360   3.294  0.7353 -1.4517  0.5166
 5409SOL    HW227864   0.220   4.360   3.433  2.4223  0.2553 -1.9642
 5410SOL     OW27865   3.786   2.836   8.957  0.0371  0.1778 -0.1233
 5410SOL    HW127866   3.717   2.770   8.953  1.1682 -1.2662  3.3989
 5410SOL    HW227867   3.818   2.840   8.867  0.6640  3.0523  0.2213
 5411SOL     OW27868   4.206   3.537   3.638 -0.4528 -0.0467 -0.5839
 5411SOL    HW127869   4.226   3.493   3.555 -0.3770  0.6825 -0.9536
 5411SOL    HW227870   4.235   3.474   3.704  0.3055 -1.1946 -1.9873
 5412SOL     OW27871   2.248   0.019   5.766 -0.1427 -0.6220  0.0128
 5412SOL    HW127872   2.307   0.031   5.840  1.0132 -0.9745 -0.8391
 5412SOL    HW227873   2.282   0.079   5.699 -3.9039  2.0738  0.5340
 5413SOL     OW27874   3.734   3.047   9.425  0.0666 -0.3113  0.9145
 5413SOL    HW127875   3.808   3.051   9.486  0.1819 -0.0529  0.7602
 5413SOL    HW227876   3.759   2.973   9.369 -0.2850 -0.4227  0.9076
 5414SOL     OW27877   2.865   2.924  12.522 -0.1072 -0.1210  0.6472
 5414SOL    HW127878   2.869   3.012  12.560 -0.5736  0.5910 -0.9752
 5414SOL    HW227879   2.959   2.914  12.505 -0.2659  0.6774 -0.6504
 5415SOL     OW27880   3.109   3.803   9.010  0.4527  0.5973 -0.3913
 5415SOL    HW127881   3.041   3.841   9.066 -0.6634 -0.3130 -1.1356
 5415SOL    HW227882   3.051   3.776   8.939 -1.8032  0.9725  1.3063
 5416SOL     OW27883   2.771   0.885  12.266 -0.1481  0.1215 -0.4181
 5416SOL    HW127884   2.696   0.943  12.253 -0.3135 -0.1563 -0.7339
 5416SOL    HW227885   2.726   0.802  12.283 -0.7082  0.3204 -0.9046
 5417SOL     OW27886   2.959   2.111   4.694  0.5476  0.0421  0.1442
 5417SOL    HW127887   2.873   2.146   4.719  0.1321 -1.7672  1.2557
 5417SOL    HW227888   2.961   2.151   4.607 -0.7229  2.6219  1.3028
 5418SOL     OW27889   2.708   1.295  16.086 -0.7712 -0.1381 -0.3971
 5418SOL    HW127890   2.774   1.265  16.024 -1.0385  1.8806 -1.6604
 5418SOL    HW227891   2.646   1.325  16.020 -1.7449 -1.6036 -0.1515
 5419SOL     OW27892   3.407   2.358  11.796  0.3524 -0.2369 -0.3899
 5419SOL    HW127893   3.474   2.405  11.845 -0.2640 -2.7957  2.9332
 5419SOL    HW227894   3.329   2.406  11.826 -0.0743 -1.2373  0.0900
 5420SOL     OW27895   1.500   2.162   1.785  0.3093 -0.5239 -0.5939
 5420SOL    HW127896   1.412   2.130   1.767 -0.0781 -0.6281  1.4826
 5420SOL    HW227897   1.467   2.239   1.832  2.6184 -0.3554  0.7175
 5421SOL     OW27898   2.553   3.805   1.301  0.2017  0.0783  0.2120
 5421SOL    HW127899   2.519   3.873   1.244 -1.9752  0.8720  2.4729
 5421SOL    HW227900   2.532   3.837   1.389  1.4240  0.1283  0.4925
 5422SOL     OW27901   0.003   2.606   6.724  0.2225 -0.2601 -0.1792
 5422SOL    HW127902   4.691   2.645   6.796  1.3130  1.0243 -0.1213
 5422SOL    HW227903   4.725   2.513   6.740 -0.8940 -0.0729 -0.1685
 5423SOL     OW27904   0.478   1.502  17.333 -0.3951  0.2487 -0.2413
 5423SOL    HW127905   0.395   1.475  17.293  1.2892 -3.4365 -1.2511
 5423SOL    HW227906   0.446   1.498  17.423  0.2629  0.9899  0.0249
 5424SOL     OW27907   4.355   1.693   6.304  0.5981  0.1536 -0.3392
 5424SOL    HW127908   4.381   1.628   6.369  1.2460 -0.1862 -0.9374
 5424SOL    HW227909   4.432   1.736   6.267  1.1408 -0.0844  0.5083
 5425SOL     OW27910   0.029   0.754   7.494 -0.6345  0.2567 -0.0007
 5425SOL    HW127911   0.090   0.765   7.422 -0.9566 -0.2347 -0.3499
 5425SOL    HW227912   0.041   0.660   7.506  1.0764  0.3405 -1.0768
 5426SOL     OW27913   0.900   1.327  16.602  0.1273 -0.8769  0.0551
 5426SOL    HW127914   0.882   1.414  16.567 -0.7967 -0.3445  1.8233
 5426SOL    HW227915   0.897   1.278  16.520 -0.2573  0.4089 -0.6976
 5427SOL     OW27916   0.440   0.338   9.033 -0.0509  0.0800 -0.1437
 5427SOL    HW127917   0.371   0.278   9.062  0.0214 -0.8235 -1.8535
 5427SOL    HW227918   0.484   0.363   9.114 -0.4329 -0.0181  0.0962
 5428SOL     OW27919   1.719   0.869   6.546  0.0779  0.4005  0.3789
 5428SOL    HW127920   1.647   0.923   6.580 -1.0994 -1.1430  0.3572
 5428SOL    HW227921   1.706   0.784   6.586 -0.2354  1.0866  1.7430
 5429SOL     OW27922   2.746   1.786   2.707  0.2951 -0.1354 -0.0035
 5429SOL    HW127923   2.727   1.764   2.616  1.1390  1.9717 -0.6908
 5429SOL    HW227924   2.658   1.798   2.743  0.9501 -1.8359  2.1064
 5430SOL     OW27925   1.269   4.518   9.069  0.4729  0.2235  0.0948
 5430SOL    HW127926   1.219   4.509   8.988  2.2642  0.1520 -1.0050
 5430SOL    HW227927   1.265   4.613   9.084  1.2526  0.7068 -2.7549
 5431SOL     OW27928   0.194   2.333   8.490  0.6024 -0.1106  0.3480
 5431SOL    HW127929   0.207   2.254   8.542 -2.5267 -0.8850 -0.0135
 5431SOL    HW227930   0.100   2.346   8.506  0.8969  1.4170  0.8761
 5432SOL     OW27931   2.109   0.839   7.354 -0.6666 -0.3936 -0.1604
 5432SOL    HW127932   2.173   0.773   7.327  0.4598  0.3253  0.7807
 5432SOL    HW227933   2.073   0.806   7.436  0.0230  0.5069  0.5050
 5433SOL     OW27934   1.714   4.043   5.215 -0.5960 -0.2164 -0.5568
 5433SOL    HW127935   1.659   4.101   5.163  0.3495  0.3163 -0.9544
 5433SOL    HW227936   1.660   4.042   5.294  0.4033 -0.4532  0.1119
 5434SOL     OW27937   2.195   0.138   5.204 -0.7523  0.2839  0.1503
 5434SOL    HW127938   2.137   0.185   5.264 -0.2861  0.9807  0.0507
 5434SOL    HW227939   2.148   0.056   5.189  1.5957 -0.6480 -2.1213
 5435SOL     OW27940   2.059   1.191  11.605 -0.1687 -0.0141 -0.6171
 5435SOL    HW127941   2.059   1.156  11.694 -2.8366  0.5929 -0.3896
 5435SOL    HW227942   2.055   1.111  11.553 -1.0367  0.4447 -1.2659
 5436SOL     OW27943   0.647   2.402   8.461 -0.3429  0.0146 -0.1529
 5436SOL    HW127944   0.571   2.453   8.490 -0.2066  1.5296 -2.4522
 5436SOL    HW227945   0.607   2.316   8.449  0.6573 -0.7711  2.2723
 5437SOL     OW27946   3.959   1.596   4.119  0.2153 -0.0605  0.2441
 5437SOL    HW127947   3.969   1.643   4.202 -1.5477 -0.2945  0.5862
 5437SOL    HW227948   4.007   1.514   4.135  0.9322  0.5666  1.3172
 5438SOL     OW27949   3.649   1.922   4.778  0.4268  0.1806 -0.2468
 5438SOL    HW127950   3.572   1.915   4.722 -0.9596 -1.8175  1.8943
 5438SOL    HW227951   3.734   1.902   4.741  0.7529 -0.5667  0.8929
 5439SOL     OW27952   4.480   3.961   4.705  0.0027  0.5601  0.3019
 5439SOL    HW127953   4.525   3.877   4.698 -0.8735  0.1984 -0.8834
 5439SOL    HW227954   4.533   3.999   4.775 -0.3023  1.0296  0.2797
 5440SOL     OW27955   1.425   3.093   5.796 -0.2654 -0.0723 -0.1484
 5440SOL    HW127956   1.389   3.170   5.841 -1.0806 -1.8710  2.2817
 5440SOL    HW227957   1.379   3.095   5.712  0.5298  0.7460 -0.5655
 5441SOL     OW27958   3.831   0.548   5.591 -0.2425  0.0047  0.7889
 5441SOL    HW127959   3.803   0.464   5.555 -0.2212  0.9243 -1.3767
 5441SOL    HW227960   3.757   0.605   5.572  1.1981  1.1594 -1.4659
 5442SOL     OW27961   4.294   4.144   9.710 -0.2928  0.5791  0.2438
 5442SOL    HW127962   4.335   4.066   9.672 -1.0535  0.1769  0.2420
 5442SOL    HW227963   4.226   4.097   9.757 -1.1857 -0.2495 -1.8436
 5443SOL     OW27964   2.136   2.811   9.562  0.7136  0.4408 -0.0823
 5443SOL    HW127965   2.076   2.836   9.491 -0.0254  1.7945  1.0224
 5443SOL    HW227966   2.190   2.751   9.511 -1.6299 -0.5956 -1.3576
 5444SOL     OW27967   0.092   0.328   6.680  0.4258 -0.1711 -0.5771
 5444SOL    HW127968   0.169   0.274   6.661  1.2896  0.5502  0.8788
 5444SOL    HW227969   0.023   0.262   6.683  0.5494 -0.3541 -1.6685
 5445SOL     OW27970   1.994   1.962   4.766  0.1582  0.1559  0.0594
 5445SOL    HW127971   1.999   1.873   4.730 -0.0988  0.7733 -1.5428
 5445SOL    HW227972   1.901   1.982   4.757  0.0952 -0.6400 -1.0387
 5446SOL     OW27973   1.771   1.907  12.720 -0.3281  0.2113 -0.3145
 5446SOL    HW127974   1.688   1.863  12.739 -0.5657 -0.3737 -2.7844
 5446SOL    HW227975   1.768   1.981  12.781  0.1877 -0.9404  1.1009
 5447SOL     OW27976   3.383   4.695   9.318 -0.5256  0.7517  0.0819
 5447SOL    HW127977   3.388   4.630   9.247  2.5754  1.5670 -0.4296
 5447SOL    HW227978   3.296   4.682   9.357 -0.0537 -0.5225  0.7234
 5448SOL     OW27979   3.585   3.010   0.552 -0.4221  0.6481 -0.1682
 5448SOL    HW127980   3.557   3.090   0.508 -1.0649 -0.9109 -2.6046
 5448SOL    HW227981   3.537   3.017   0.635  1.8627  0.2578  1.2029
 5449SOL     OW27982   0.938   3.623   9.758  0.6740 -0.0098  0.0463
 5449SOL    HW127983   0.874   3.559   9.727  0.2475  1.2746 -1.7170
 5449SOL    HW227984   0.885   3.702   9.751  1.6924  0.5409 -1.3328
 5450SOL     OW27985   0.507   2.761   9.709 -0.3420 -0.4027  0.2791
 5450SOL    HW127986   0.506   2.819   9.633  0.1542 -0.1121  0.4928
 5450SOL    HW227987   0.559   2.685   9.682  0.3253  0.1795 -0.0939
 5451SOL     OW27988   1.587   3.357   4.135  0.4481  0.1765 -0.0966
 5451SOL    HW127989   1.549   3.279   4.094 -0.4491  1.8754 -2.5476
 5451SOL    HW227990   1.590   3.425   4.067  1.1602 -2.6211 -2.8446
 5452SOL     OW27991   1.991   3.713   3.765  0.2361  0.3664  0.2629
 5452SOL    HW127992   1.962   3.747   3.681  1.3877 -1.7790 -1.0030
 5452SOL    HW227993   1.924   3.738   3.829  0.5758 -0.9739  1.1525
 5453SOL     OW27994   4.734   1.069   8.067 -0.0752  0.0849  0.0046
 5453SOL    HW127995   4.638   1.058   8.067  0.0856 -1.2629 -2.5463
 5453SOL    HW227996   0.006   1.109   8.153  0.9604  0.2804 -0.2119
 5454SOL     OW27997   0.329   0.390  12.653  0.3702  0.5585 -0.0995
 5454SOL    HW127998   0.304   0.425  12.567  1.2871  2.5272  0.4540
 5454SOL    HW227999   0.268   0.319  12.675  1.4921  0.2331  1.9245
 5455SOL     OW28000   2.689   3.216  13.909 -0.3634  0.3558  0.3276
 5455SOL    HW128001   2.625   3.257  13.851  1.9019  0.0253 -2.3985
 5455SOL    HW228002   2.634   3.195  13.985  0.7661  1.2912  1.4242
 5456SOL     OW28003   1.361   3.999   1.883 -0.0268  0.4187 -0.7560
 5456SOL    HW128004   1.401   3.918   1.851  0.6952  0.8098 -0.8482
 5456SOL    HW228005   1.435   4.028   1.936  0.2733 -3.3499  0.8691
 5457SOL     OW28006   3.010   2.386   4.564  0.5839 -0.3713  0.0554
 5457SOL    HW128007   3.037   2.316   4.505  0.1775 -1.6717  1.4296
 5457SOL    HW228008   3.033   2.461   4.509  0.4986  1.2022  2.1874
 5458SOL     OW28009   1.389   0.991  14.996 -0.1246  0.0607  0.3580
 5458SOL    HW128010   1.483   0.973  15.004 -0.3832 -1.6382 -0.4105
 5458SOL    HW228011   1.356   0.950  14.916 -0.1219 -1.7475  1.2721
 5459SOL     OW28012   1.541   4.559   5.132 -0.0752  0.7316 -0.8666
 5459SOL    HW128013   1.545   4.597   5.044 -1.3994  2.2384 -0.2872
 5459SOL    HW228014   1.467   4.610   5.164 -1.2830 -2.1178  0.9392
 5460SOL     OW28015   1.393   3.702   8.640 -0.7554 -0.4444 -0.5845
 5460SOL    HW128016   1.411   3.795   8.652  0.2593 -0.6288 -0.6880
 5460SOL    HW228017   1.387   3.695   8.545 -1.1162 -1.5903 -0.4795
 5461SOL     OW28018   2.917   4.401   3.758  0.0701  0.2041  0.7768
 5461SOL    HW128019   2.859   4.325   3.750  0.8424 -0.5201  2.1105
 5461SOL    HW228020   2.856   4.468   3.789 -0.5840  0.3210 -0.8033
 5462SOL     OW28021   4.018   2.561   1.779  0.0899  0.5056 -0.4136
 5462SOL    HW128022   4.102   2.521   1.754  0.4934  1.5913 -0.7846
 5462SOL    HW228023   3.980   2.492   1.834 -0.0857  0.0377 -1.1173
 5463SOL     OW28024   4.341   0.188   9.424  0.3090  0.3297  0.0426
 5463SOL    HW128025   4.366   0.107   9.379  0.0410  1.1676 -1.6119
 5463SOL    HW228026   4.355   0.249   9.352 -0.4865  1.2304  0.6433
 5464SOL     OW28027   0.286   2.378   6.463 -0.0838  0.0843  0.2626
 5464SOL    HW128028   0.261   2.457   6.511 -0.8217  1.9978 -3.2636
 5464SOL    HW228029   0.228   2.379   6.387 -1.3437 -1.2040  1.1855
 5465SOL     OW28030   3.047   0.582   2.433 -0.1567  0.3304  0.0115
 5465SOL    HW128031   3.084   0.665   2.402 -1.1547  2.1845  3.8321
 5465SOL    HW228032   3.051   0.524   2.357  1.4389 -3.1979  2.7886
 5466SOL     OW28033   4.146   1.059  10.188  0.2701 -0.5610 -0.6423
 5466SOL    HW128034   4.074   1.025  10.136  0.9798 -0.7171 -1.5165
 5466SOL    HW228035   4.124   1.004  10.263 -0.7533  0.1290 -0.4309
 5467SOL     OW28036   0.393   2.709   1.595  0.1051 -0.4094 -0.4353
 5467SOL    HW128037   0.332   2.771   1.556 -0.1851 -0.5423 -0.1976
 5467SOL    HW228038   0.446   2.761   1.655 -1.2689  1.4878 -0.8756
 5468SOL     OW28039   4.374   4.472   8.652  0.5763  0.5902 -0.4693
 5468SOL    HW128040   4.390   4.414   8.727 -0.8698  0.2637 -0.4082
 5468SOL    HW228041   4.367   4.407   8.582 -1.1187 -0.0576  0.2898
 5469SOL     OW28042   0.213   2.147   5.826  0.0582  0.0318 -0.7742
 5469SOL    HW128043   0.124   2.176   5.840  0.3452  0.0900  0.8975
 5469SOL    HW228044   0.234   2.117   5.915 -0.4011 -1.4498 -1.1567
 5470SOL     OW28045   2.089   4.665  17.670 -0.1735 -0.0430  0.5824
 5470SOL    HW128046   2.004   4.709  17.674  0.1752  0.9678 -3.3241
 5470SOL    HW228047   2.068   4.586  17.720 -0.3580  1.6689  3.1637
 5471SOL     OW28048   4.074   4.220   3.239  0.5546 -0.1827  0.2020
 5471SOL    HW128049   4.065   4.125   3.245  0.1446 -0.0684  1.3010
 5471SOL    HW228050   3.992   4.240   3.193 -1.6060  0.1679  4.2578
 5472SOL     OW28051   4.258   2.409   7.151 -0.0737 -0.4953  0.5031
 5472SOL    HW128052   4.168   2.422   7.183 -0.1271 -0.9002  0.5130
 5472SOL    HW228053   4.246   2.412   7.056 -0.1301 -0.9757  0.4935
 5473SOL     OW28054   4.311   2.827   5.753  0.0230  0.7446  0.2296
 5473SOL    HW128055   4.250   2.811   5.825  0.0306 -1.0003 -0.1633
 5473SOL    HW228056   4.365   2.750   5.764  0.9592  1.2168 -1.0288
 5474SOL     OW28057   2.855   4.723   4.094 -0.0394 -0.4384 -0.2184
 5474SOL    HW128058   2.934   4.735   4.147  1.2587  2.6572 -2.8467
 5474SOL    HW228059   2.780   0.026   4.138  0.0261  1.8935 -2.2025
 5475SOL     OW28060   0.720   0.136  15.737  0.1720 -0.3660 -0.0011
 5475SOL    HW128061   0.735   0.204  15.671 -2.3519 -0.8593 -1.0701
 5475SOL    HW228062   0.797   0.080  15.733  0.6360  0.4854 -3.0432
 5476SOL     OW28063   0.485   1.531   6.461  0.2479 -0.3548 -0.1600
 5476SOL    HW128064   0.423   1.542   6.533  1.1210 -1.4894  0.7580
 5476SOL    HW228065   0.554   1.474   6.496 -1.6350 -0.7454  2.8997
 5477SOL     OW28066   4.306   3.637  13.870  0.1632  1.0118  0.3427
 5477SOL    HW128067   4.374   3.601  13.812 -1.1503  1.2229 -1.3265
 5477SOL    HW228068   4.356   3.709  13.910  1.1315  1.0328 -0.9015
 5478SOL     OW28069   2.431   2.240   4.757 -0.2112 -0.8327  0.4773
 5478SOL    HW128070   2.430   2.203   4.669 -0.1624 -1.2139  0.6333
 5478SOL    HW228071   2.343   2.221   4.790 -0.5202 -0.6334 -0.2405
 5479SOL     OW28072   3.002   4.401   7.851 -1.1021  0.5620 -0.1389
 5479SOL    HW128073   3.066   4.470   7.840  0.2503 -0.4756  1.1498
 5479SOL    HW228074   3.026   4.350   7.774  0.2969  2.5805 -1.0163
 5480SOL     OW28075   3.683   1.125   1.997 -0.2243 -0.1089 -0.0306
 5480SOL    HW128076   3.686   1.075   2.078  0.4496 -0.0803 -0.0432
 5480SOL    HW228077   3.635   1.201   2.029  0.6035  0.5521 -0.3780
 5481SOL     OW28078   3.828   0.375  13.464 -0.0128  0.1573  0.4433
 5481SOL    HW128079   3.847   0.348  13.554  0.8902  1.3854  0.6148
 5481SOL    HW228080   3.752   0.433  13.460  0.0613  0.2123 -0.1932
 5482SOL     OW28081   3.004   3.741   2.911 -0.8126  0.5688 -0.3398
 5482SOL    HW128082   3.095   3.717   2.931 -0.9866 -1.4853 -2.0617
 5482SOL    HW228083   2.950   3.664   2.931 -2.4455  1.3845 -1.6274
 5483SOL     OW28084   3.688   1.255   6.695 -0.2372  0.1652  0.1027
 5483SOL    HW128085   3.703   1.331   6.639  1.3251  0.1073  0.4373
 5483SOL    HW228086   3.592   1.254   6.692 -0.2316  0.0140 -0.0267
 5484SOL     OW28087   3.858   0.505   6.904  0.5766 -0.0606 -0.4071
 5484SOL    HW128088   3.931   0.446   6.922  0.4349  0.4227  1.8319
 5484SOL    HW228089   3.842   0.492   6.811 -0.4912  2.2524 -0.5518
 5485SOL     OW28090   1.593   4.627  12.824 -0.1021 -0.3482 -0.1534
 5485SOL    HW128091   1.613   4.594  12.911  1.1041 -2.1161 -1.0927
 5485SOL    HW228092   1.681   4.638  12.787 -0.6562  0.5805 -1.1963
 5486SOL     OW28093   2.639   3.255   5.971 -0.2609 -0.1811 -0.1436
 5486SOL    HW128094   2.586   3.331   5.994  0.7575 -0.0295  1.7492
 5486SOL    HW228095   2.727   3.290   5.983 -0.4243 -0.0158  0.5814
 5487SOL     OW28096   0.090   4.087  12.393 -0.7474 -0.7262 -0.1431
 5487SOL    HW128097   0.146   4.134  12.456 -0.2751  1.3393 -2.0823
 5487SOL    HW228098   0.011   4.069  12.443 -0.6429 -0.4662  0.1191
 5488SOL     OW28099   3.107   3.423   9.948  0.5457  0.6614 -0.5397
 5488SOL    HW128100   3.194   3.448   9.981  0.2841 -1.0931  1.4464
 5488SOL    HW228101   3.052   3.428  10.026 -0.1682  1.6036 -1.0918
 5489SOL     OW28102   1.902   0.362  12.354 -0.1287 -0.4187 -0.0259
 5489SOL    HW128103   1.923   0.454  12.372 -1.6031  0.5054 -3.0269
 5489SOL    HW228104   1.873   0.366  12.263 -0.0233 -1.7292 -0.1069
 5490SOL     OW28105   1.603   1.050   6.216  0.5590 -0.5408 -0.3377
 5490SOL    HW128106   1.666   1.068   6.286  0.3876 -1.3446  0.0220
 5490SOL    HW228107   1.540   1.006   6.272  0.7033 -1.2624 -0.7391
 5491SOL     OW28108   1.388   0.692   0.821 -0.0459  0.1459  0.1865
 5491SOL    HW128109   1.385   0.733   0.735 -0.8919 -1.7157 -0.6551
 5491SOL    HW228110   1.477   0.714   0.850 -1.0091  0.6960  2.7013
 5492SOL     OW28111   4.603   3.039  10.437 -0.6314 -0.3649 -0.5227
 5492SOL    HW128112   4.510   3.061  10.430 -0.0814  2.1318  0.1934
 5492SOL    HW228113   4.635   3.057  10.348 -0.7470  0.6365 -0.3627
 5493SOL     OW28114   3.972   3.675   2.055  0.3772  0.5889  0.1666
 5493SOL    HW128115   3.897   3.627   2.020  1.0330 -0.9558  0.8873
 5493SOL    HW228116   4.035   3.604   2.063  0.4043  0.5761 -0.1762
 5494SOL     OW28117   0.127   1.351   7.604  0.3977 -0.0057  0.0157
 5494SOL    HW128118   0.095   1.427   7.555  1.7706 -0.3789 -1.4733
 5494SOL    HW228119   0.107   1.281   7.543  0.1315 -0.2765  0.4148
 5495SOL     OW28120   1.657   1.079   0.393 -0.0574  0.2823  0.3896
 5495SOL    HW128121   1.679   1.019   0.464 -0.1642  0.1398  0.3010
 5495SOL    HW228122   1.701   1.151   0.439 -0.5382  1.0872 -0.3999
 5496SOL     OW28123   4.444   0.039   1.458  0.1785 -0.3845 -0.8077
 5496SOL    HW128124   4.395   0.003   1.532  0.4990  1.3292  0.2380
 5496SOL    HW228125   4.374   0.088   1.414 -0.5592 -0.4424  0.2847
 5497SOL     OW28126   2.903   2.516   9.353  0.5288 -0.2469 -0.3433
 5497SOL    HW128127   2.947   2.600   9.367  1.1270 -0.7111  0.5195
 5497SOL    HW228128   2.935   2.457   9.421  0.4795 -2.4964 -2.2769
 5498SOL     OW28129   1.617   3.011   2.772  0.0394  0.0549  0.2444
 5498SOL    HW128130   1.673   3.085   2.750  2.3014 -0.9490  2.7089
 5498SOL    HW228131   1.670   2.969   2.840  1.5773  2.7145  0.7096
 5499SOL     OW28132   4.422   2.321   8.517 -0.3735 -0.5282 -0.3820
 5499SOL    HW128133   4.428   2.226   8.509 -2.0255 -0.8504  2.3166
 5499SOL    HW228134   4.376   2.327   8.601  2.1756  0.1994  0.9391
 5500SOL     OW28135   4.147   4.005   8.413  0.3896 -0.2515  0.2460
 5500SOL    HW128136   4.194   4.003   8.330  0.2019  1.5321  0.0867
 5500SOL    HW228137   4.214   4.009   8.481  1.3002  1.0517 -0.7303
 5501SOL     OW28138   3.447   1.736  17.645 -0.0654 -0.2466  0.5428
 5501SOL    HW128139   3.520   1.781  17.603 -1.4463  1.0158 -0.5089
 5501SOL    HW228140   3.431   1.670  17.577 -1.3167 -0.3880  0.9659
 5502SOL     OW28141   0.467   1.165   4.660  0.2398 -0.2769 -0.7919
 5502SOL    HW128142   0.518   1.110   4.600  1.8761  0.0906  0.2747
 5502SOL    HW228143   0.537   1.175   4.725 -1.5022  1.7974  0.7500
 5503SOL     OW28144   2.573   1.680   6.422  0.4182 -0.0850  0.0146
 5503SOL    HW128145   2.513   1.749   6.451  0.2719  0.2655 -1.1171
 5503SOL    HW228146   2.516   1.659   6.348  2.0259  1.0795 -1.5794
 5504SOL     OW28147   4.658   3.036   4.343  0.4159  0.7541 -0.4035
 5504SOL    HW128148   4.684   2.964   4.285  1.1316  1.0852 -0.4895
 5504SOL    HW228149   4.704   3.019   4.425 -0.7186  0.6098  0.2089
 5505SOL     OW28150   1.150   0.254  11.805 -0.6732  0.4015 -0.3329
 5505SOL    HW128151   1.238   0.221  11.788 -1.8097 -2.7469 -0.1338
 5505SOL    HW228152   1.168   0.345  11.783 -1.9818  0.7038 -0.1433
 5506SOL     OW28153   3.020   1.586   3.551 -0.0650 -0.4390  0.1264
 5506SOL    HW128154   3.001   1.537   3.631 -1.1363 -0.1338  0.0601
 5506SOL    HW228155   2.932   1.622   3.541 -0.1072 -0.7931 -0.7925
 5507SOL     OW28156   0.917   3.880   4.712 -0.7001  0.1173 -0.2973
 5507SOL    HW128157   0.945   3.963   4.750  0.8469 -1.1458  1.3492
 5507SOL    HW228158   0.966   3.878   4.629  0.8564 -1.0966  0.6345
 5508SOL     OW28159   1.850   4.337  15.310  0.8329 -0.3120  0.3203
 5508SOL    HW128160   1.810   4.385  15.382  1.9703 -0.1648  0.8529
 5508SOL    HW228161   1.917   4.287  15.356 -0.8360 -1.6573  1.3152
 5509SOL     OW28162   0.029   3.731   8.504  0.4812  0.3358 -0.1945
 5509SOL    HW128163   0.082   3.692   8.435 -1.0024  0.4491 -1.4112
 5509SOL    HW228164   4.715   3.789   8.447 -1.0829  0.0364  0.9266
 5510SOL     OW28165   2.822   3.381  16.707 -0.2036  0.3258 -0.0595
 5510SOL    HW128166   2.781   3.327  16.775  0.5685 -0.9356 -0.5974
 5510SOL    HW228167   2.794   3.343  16.624 -2.8050  0.6440  0.6775
 5511SOL     OW28168   1.161   2.568  10.586  0.5524 -0.0271 -0.6048
 5511SOL    HW128169   1.129   2.565  10.496  0.4771  0.3432 -0.5879
 5511SOL    HW228170   1.096   2.633  10.613  0.8421  0.8894 -2.1053
 5512SOL     OW28171   3.335   0.342   0.227  0.0992  0.1569  0.1472
 5512SOL    HW128172   3.275   0.338   0.302 -2.5178 -3.7529 -2.1715
 5512SOL    HW228173   3.309   0.264   0.178 -1.0083 -0.2389  1.3450
 5513SOL     OW28174   4.436   1.145   1.030  0.4816  0.1280 -0.0867
 5513SOL    HW128175   4.353   1.101   1.016 -0.8034  2.8875 -1.1124
 5513SOL    HW228176   4.413   1.236   1.011  0.0695 -0.3048 -1.6642
 5514SOL     OW28177   0.076   4.589   3.585 -0.4538 -0.3549  0.0382
 5514SOL    HW128178   0.055   4.529   3.514  3.1891  1.0815 -2.2845
 5514SOL    HW228179   0.131   4.650   3.535 -1.4825  0.8100  0.3233
 5515SOL     OW28180   3.014   1.614   8.212  0.3715  0.3457 -0.2492
 5515SOL    HW128181   2.922   1.638   8.202  0.1713 -0.3703 -0.1077
 5515SOL    HW228182   3.056   1.690   8.252 -1.6124  3.5457 -4.1756
 5516SOL     OW28183   1.162   0.192   8.619 -0.3866  0.1840 -0.3978
 5516SOL    HW128184   1.084   0.139   8.604 -0.7778  0.3015  1.2026
 5516SOL    HW228185   1.218   0.150   8.554 -0.6447 -0.0495 -0.4690
 5517SOL     OW28186   2.560   2.021  17.738  1.1969 -0.4569  0.3735
 5517SOL    HW128187   2.607   2.015   0.072  0.1920 -2.0026  0.8067
 5517SOL    HW228188   2.485   1.962  17.744 -0.5499  1.7509  0.2918
 5518SOL     OW28189   2.170   0.854  15.134  0.3362  0.2388  0.0709
 5518SOL    HW128190   2.115   0.800  15.077  1.1846  0.7021 -1.1829
 5518SOL    HW228191   2.189   0.920  15.068  1.7314 -1.8276 -1.5992
 5519SOL     OW28192   1.250   0.483   6.830  0.2395  0.1707 -0.2051
 5519SOL    HW128193   1.279   0.563   6.874 -0.6584 -0.6964  1.9859
 5519SOL    HW228194   1.216   0.450   6.913  2.3036  0.2017  0.6619
 5520SOL     OW28195   4.645   2.655   5.172  0.3940  0.1730 -0.0955
 5520SOL    HW128196   4.586   2.690   5.238  1.5256 -0.8602  1.4570
 5520SOL    HW228197   4.594   2.662   5.091  0.2374  1.8364  0.1472
 5521SOL     OW28198   4.726   0.389   2.433  0.2313  0.3589  1.0413
 5521SOL    HW128199   4.697   0.381   2.524 -1.5026  0.0802  0.4666
 5521SOL    HW228200   0.072   0.432   2.451  1.4820 -1.5639 -0.2161
 5522SOL     OW28201   3.514   4.094   4.908 -0.0900 -0.7734  0.1598
 5522SOL    HW128202   3.434   4.099   4.856  0.6012  4.8671 -0.3411
 5522SOL    HW228203   3.542   4.186   4.905 -0.0699 -0.8398 -2.1265
 5523SOL     OW28204   4.311   2.677  10.459 -0.3880 -0.1191 -0.3944
 5523SOL    HW128205   4.301   2.763  10.501 -0.6019  0.0935 -0.8893
 5523SOL    HW228206   4.405   2.682  10.438 -0.3261  1.0247  0.1576
 5524SOL     OW28207   3.859   1.239   1.679 -0.0839  0.5569  0.7977
 5524SOL    HW128208   3.905   1.157   1.659 -1.6742  0.0562 -0.8337
 5524SOL    HW228209   3.893   1.268   1.764 -0.1290  1.3422  0.5496
 5525SOL     OW28210   3.953   0.969  10.012 -0.0404 -0.2256  0.5552
 5525SOL    HW128211   3.908   1.007   9.936 -1.3100 -1.2490  0.7983
 5525SOL    HW228212   3.886   0.913  10.051 -0.2934  1.5180  2.6077
 5526SOL     OW28213   1.315   1.826   1.477 -0.0094 -0.0482 -0.0198
 5526SOL    HW128214   1.408   1.844   1.473  0.8450 -3.5916  3.8744
 5526SOL    HW228215   1.304   1.768   1.401 -1.2252 -0.0058  0.1107
 5527SOL     OW28216   3.077   3.765   7.372 -0.0459 -0.0496 -0.1287
 5527SOL    HW128217   3.005   3.743   7.313 -1.0142 -0.6850  1.2969
 5527SOL    HW228218   3.140   3.696   7.354  1.3953  0.8755  1.3932
 5528SOL     OW28219   2.617   0.350  17.384  0.3403  0.4286 -0.1668
 5528SOL    HW128220   2.564   0.282  17.424 -0.5632  0.5731 -1.1313
 5528SOL    HW228221   2.634   0.304  17.302 -1.1622 -1.2763  0.4933
 5529SOL     OW28222   3.442   0.627   0.436  0.6307 -0.2080  0.0193
 5529SOL    HW128223   3.357   0.670   0.425  0.0559 -1.3893 -0.1242
 5529SOL    HW228224   3.444   0.622   0.531 -1.5046 -0.1725  0.0649
 5530SOL     OW28225   2.220   2.298  13.764  0.3804  0.2652 -0.0931
 5530SOL    HW128226   2.137   2.251  13.757 -1.2288  3.0364  0.5471
 5530SOL    HW228227   2.228   2.358  13.690  0.9811 -1.4092 -1.4019
 5531SOL     OW28228   3.203   1.749   6.836 -0.0696  0.3408  0.3822
 5531SOL    HW128229   3.239   1.661   6.841  1.8878  1.1561  0.6019
 5531SOL    HW228230   3.150   1.755   6.757  0.4055 -0.4232  0.0096
 5532SOL     OW28231   2.830   2.406  11.072 -0.2348 -0.5069 -0.3222
 5532SOL    HW128232   2.793   2.494  11.086 -0.5040 -0.8676  1.2418
 5532SOL    HW228233   2.770   2.353  11.124  1.1395  2.0716  3.8634
 5533SOL     OW28234   0.959   2.217  13.532 -0.8122 -0.2369  0.2510
 5533SOL    HW128235   1.022   2.199  13.462 -1.1408  1.0899 -0.3827
 5533SOL    HW228236   0.970   2.310  13.550  0.3069 -0.1549 -0.8711
 5534SOL     OW28237   0.267   1.621   6.607  0.0854  0.2124 -0.1991
 5534SOL    HW128238   0.249   1.710   6.636  2.2135  0.2823  0.8760
 5534SOL    HW228239   0.192   1.613   6.549 -0.6546 -0.2747  0.8170
 5535SOL     OW28240   1.619   0.273   1.633  0.1605  0.3397  0.1946
 5535SOL    HW128241   1.600   0.350   1.686 -0.8917  0.0081  0.2902
 5535SOL    HW228242   1.536   0.232   1.653 -0.1549  1.4728  1.1796
 5536SOL     OW28243   2.847   0.321   7.424  0.3909  0.2301 -0.8948
 5536SOL    HW128244   2.844   0.408   7.464 -0.6236 -0.8486  1.3883
 5536SOL    HW228245   2.872   0.267   7.499 -1.2421  0.2080 -0.3615
 5537SOL     OW28246   3.215   3.457   9.260  0.6520 -0.6334  0.0499
 5537SOL    HW128247   3.140   3.515   9.276 -0.4579 -1.6795 -1.4114
 5537SOL    HW228248   3.284   3.523   9.255 -0.4391  0.5562  0.6793
 5538SOL     OW28249   2.464   4.068  12.421 -0.3123 -0.3505 -0.1338
 5538SOL    HW128250   2.437   4.121  12.496 -0.3808  1.3400 -1.3418
 5538SOL    HW228251   2.477   4.132  12.351 -1.0384 -1.9673 -1.7468
 5539SOL     OW28252   1.577   2.476   5.274  0.6447  0.0823  0.3144
 5539SOL    HW128253   1.616   2.515   5.352 -2.2118 -0.5219  2.0034
 5539SOL    HW228254   1.506   2.423   5.310 -0.2038  1.6630  0.9369
 5540SOL     OW28255   3.785   0.152   6.526 -0.0395 -0.3201 -0.0812
 5540SOL    HW128256   3.741   0.129   6.444 -0.3098 -1.6297  0.4361
 5540SOL    HW228257   3.766   0.087   6.594 -3.9761  0.6887 -0.2286
 5541SOL     OW28258   1.297   1.600   5.809  0.3917  0.5478  1.4204
 5541SOL    HW128259   1.329   1.521   5.765 -2.1858  0.0833  0.3504
 5541SOL    HW228260   1.265   1.653   5.737  1.8352  0.4909  0.7290
 5542SOL     OW28261   2.834   1.330  15.824 -0.1539  0.1038  0.1638
 5542SOL    HW128262   2.793   1.415  15.843 -0.8898 -0.5319  1.4526
 5542SOL    HW228263   2.785   1.309  15.744 -0.5449 -1.2581  0.7610
 5543SOL     OW28264   4.731   2.867   5.482 -0.4692 -0.0127  0.2517
 5543SOL    HW128265   4.655   2.814   5.459 -0.3256  0.7036 -1.9432
 5543SOL    HW228266   0.057   2.832   5.420 -2.4858  0.4198 -2.0919
 5544SOL     OW28267   1.231   1.881   8.068  0.4557  0.2259 -0.0137
 5544SOL    HW128268   1.264   1.820   8.002  1.6478  1.3606 -0.4635
 5544SOL    HW228269   1.213   1.826   8.145 -2.2441  1.7682  0.4552
 5545SOL     OW28270   0.384   0.283   6.334 -0.7112 -0.5407 -0.1669
 5545SOL    HW128271   0.407   0.197   6.368  0.2747 -0.8380 -1.5625
 5545SOL    HW228272   0.340   0.260   6.252  0.1815  0.2221 -0.8550
 5546SOL     OW28273   2.337   0.189   7.291 -0.8718 -0.5886 -0.3099
 5546SOL    HW128274   2.368   0.260   7.236 -2.6617 -0.0365 -0.5883
 5546SOL    HW228275   2.384   0.199   7.374 -0.5294  1.3939 -0.7619
 5547SOL     OW28276   0.654   1.897   1.739  0.0095  0.2696 -0.3959
 5547SOL    HW128277   0.612   1.922   1.822  0.9219  0.6920 -0.0626
 5547SOL    HW228278   0.577   1.865   1.692 -0.0802 -1.0695  0.6536
 5548SOL     OW28279   3.628   0.783   9.236 -0.0043  0.4120 -0.0655
 5548SOL    HW128280   3.700   0.844   9.220 -1.0175  2.2569  2.4759
 5548SOL    HW228281   3.581   0.790   9.153  0.3813  1.5332 -0.1931
 5549SOL     OW28282   0.863   4.422   2.125  0.6582 -0.2295 -0.0856
 5549SOL    HW128283   0.899   4.481   2.191 -0.9567 -2.7221  3.0760
 5549SOL    HW228284   0.938   4.413   2.067 -0.0005 -0.9772 -0.8352
 5550SOL     OW28285   0.414   3.746   7.781  0.3049 -0.3449  0.1915
 5550SOL    HW128286   0.331   3.702   7.762 -0.0735 -1.0595  3.5103
 5550SOL    HW228287   0.384   3.810   7.844 -0.7687 -0.3831 -0.2888
 5551SOL     OW28288   2.178   4.068  16.012 -0.1369 -0.4856  0.0534
 5551SOL    HW128289   2.130   4.031  16.086  1.7915  1.0399  2.0565
 5551SOL    HW228290   2.248   4.117  16.055 -0.0200 -0.4435 -0.1874
 5552SOL     OW28291   2.645   0.045   9.064  0.4559  0.1447 -0.1859
 5552SOL    HW128292   2.558   0.007   9.061  0.9027 -0.9720  0.9436
 5552SOL    HW228293   2.694   4.701   9.075 -0.5544 -0.2787  1.2226
 5553SOL     OW28294   2.990   2.416  13.748 -0.3226  0.7503  1.0183
 5553SOL    HW128295   3.068   2.434  13.802 -0.9563  0.6589  1.9689
 5553SOL    HW228296   2.927   2.370  13.803  0.0970 -1.3327 -0.2285
 5554SOL     OW28297   1.984   0.962   1.492  0.0263 -0.5050  0.3065
 5554SOL    HW128298   1.973   0.920   1.407  0.3351 -3.8071  1.8852
 5554SOL    HW228299   1.904   0.939   1.539 -0.9717  1.3966 -0.4651
 5555SOL     OW28300   3.861   0.979   4.280  0.4700 -0.6163 -0.1127
 5555SOL    HW128301   3.787   0.994   4.221 -1.1583  1.5126  2.4935
 5555SOL    HW228302   3.809   0.943   4.352 -2.2481 -0.1503 -1.8515
 5556SOL     OW28303   4.142   0.193   4.774  0.1738 -0.2391  0.5800
 5556SOL    HW128304   4.148   0.168   4.866 -0.5800  0.8100  0.9161
 5556SOL    HW228305   4.047   0.201   4.765  0.4340  1.5410 -0.5133
 5557SOL     OW28306   2.606   0.688   8.597  0.0401  0.7015 -0.1781
 5557SOL    HW128307   2.680   0.732   8.640  0.5003 -3.3960  3.1240
 5557SOL    HW228308   2.594   0.624   8.666 -0.7532  1.6684  0.5888
 5558SOL     OW28309   3.823   2.719  15.138  0.4376  0.4763 -0.0626
 5558SOL    HW128310   3.811   2.644  15.080 -1.5465  1.1473 -0.5251
 5558SOL    HW228311   3.738   2.763  15.131  0.9182  1.5737  0.9331
 5559SOL     OW28312   0.430   3.040   9.021 -0.5583 -0.1932  0.3836
 5559SOL    HW128313   0.509   3.062   9.070 -0.7588  1.6054 -0.0854
 5559SOL    HW228314   0.414   2.948   9.043 -2.9936  0.2380  0.4392
 5560SOL     OW28315   3.867   1.700   2.951  0.4601  0.2889 -0.1569
 5560SOL    HW128316   3.857   1.650   2.870  0.2844  0.6624 -0.3666
 5560SOL    HW228317   3.856   1.623   3.007 -0.9804 -0.0360 -0.8837
 5561SOL     OW28318   3.205   2.205   7.225 -0.4656  0.7498  0.1781
 5561SOL    HW128319   3.172   2.292   7.205 -1.2412  0.2753 -0.5983
 5561SOL    HW228320   3.178   2.160   7.145 -2.5767 -0.4929  1.5544
 5562SOL     OW28321   1.573   2.741   7.248  0.5059  0.2942 -0.0793
 5562SOL    HW128322   1.666   2.741   7.224  0.1009 -0.2065 -1.6531
 5562SOL    HW228323   1.580   2.806   7.317 -0.8412 -0.1875  0.5139
 5563SOL     OW28324   2.657   0.091   8.134 -0.0982 -0.3831 -0.3200
 5563SOL    HW128325   2.680   0.033   8.061 -1.6543 -0.1326 -1.0238
 5563SOL    HW228326   2.574   0.048   8.155 -1.0177  2.1756  1.3558
 5564SOL     OW28327   2.726   0.075  10.394  0.1345 -0.5421  0.2095
 5564SOL    HW128328   2.694   0.064  10.304  0.5640  1.2778 -0.1529
 5564SOL    HW228329   2.670   0.029  10.456  0.7639 -2.1838 -0.4258
 5565SOL     OW28330   4.567   1.849  12.339  0.2678 -0.1674 -0.6456
 5565SOL    HW128331   4.639   1.908  12.359  0.6794 -1.6364  2.2110
 5565SOL    HW228332   4.510   1.865  12.414  0.9916 -2.0090  0.2966
 5566SOL     OW28333   0.525   3.019   6.653 -0.3402  0.0179 -0.0126
 5566SOL    HW128334   0.578   3.084   6.698 -1.1134  1.3289 -1.0055
 5566SOL    HW228335   0.583   2.943   6.652  1.1947  1.2196 -0.4318
 5567SOL     OW28336   1.357   2.632   2.572 -0.6188 -0.0100 -0.0223
 5567SOL    HW128337   1.399   2.651   2.488 -2.0786  2.8392 -0.0757
 5567SOL    HW228338   1.266   2.635   2.542 -0.2954  0.7858 -0.9360
 5568SOL     OW28339   0.770   1.523   2.201 -0.3186 -0.1827  0.4340
 5568SOL    HW128340   0.807   1.610   2.186  1.2263 -0.4746  2.5915
 5568SOL    HW228341   0.681   1.540   2.169  0.2057  0.4656 -0.6885
 5569SOL     OW28342   0.950   3.598  15.077  0.0609  0.1619  0.3049
 5569SOL    HW128343   0.855   3.591  15.087 -0.1492  0.7406 -1.2015
 5569SOL    HW228344   0.984   3.509  15.083 -0.4205  0.0422  1.2883
 5570SOL     OW28345   0.900   1.344  11.313 -0.1882 -0.1218  1.0021
 5570SOL    HW128346   0.860   1.269  11.355  3.7050 -3.2069 -0.8080
 5570SOL    HW228347   0.961   1.373  11.382  1.0341  1.4666 -0.7290
 5571SOL     OW28348   1.014   3.229   5.754 -0.1009  0.1986  0.1116
 5571SOL    HW128349   0.936   3.282   5.741  0.0918  1.1029  2.7501
 5571SOL    HW228350   1.002   3.152   5.698  2.2492 -0.2666  0.2269
 5572SOL     OW28351   3.358   2.206   4.287 -0.1924 -0.4772  0.6051
 5572SOL    HW128352   3.369   2.280   4.346 -1.0112 -1.0238  1.4407
 5572SOL    HW228353   3.441   2.191   4.242  1.0081  1.1607  2.2813
 5573SOL     OW28354   1.160   1.046  14.475 -0.7839 -0.2816  0.0135
 5573SOL    HW128355   1.233   0.996  14.437 -0.9074 -0.3576 -0.1243
 5573SOL    HW228356   1.096   0.977  14.460 -0.7932 -0.4470  0.8499
 5574SOL     OW28357   4.129   0.831   3.778 -0.4206 -0.4659 -0.0027
 5574SOL    HW128358   4.058   0.773   3.807 -1.0232  0.8763  1.1934
 5574SOL    HW228359   4.111   0.920   3.808  2.9510 -0.7069  2.7315
 5575SOL     OW28360   0.554   2.473   4.494  0.4438  0.4924  0.4218
 5575SOL    HW128361   0.576   2.507   4.581 -1.9151  1.2481  0.7309
 5575SOL    HW228362   0.465   2.508   4.481  0.4369 -0.0868 -1.1216
 5576SOL     OW28363   3.278   3.966   6.791 -0.6702  0.2595  0.3743
 5576SOL    HW128364   3.220   3.898   6.756 -0.4285  1.0058 -1.4332
 5576SOL    HW228365   3.231   3.988   6.872  2.6062  1.9090  1.8545
 5577SOL     OW28366   3.165   3.450   6.326 -0.3828 -0.4679 -0.0017
 5577SOL    HW128367   3.190   3.425   6.237  2.1505 -2.3176  1.2078
 5577SOL    HW228368   3.236   3.412   6.378 -1.8883 -0.6943  1.9053
 5578SOL     OW28369   1.579   1.917   7.132 -0.0841 -0.3529  0.5118
 5578SOL    HW128370   1.592   2.002   7.090  0.1474 -1.2609 -1.2461
 5578SOL    HW228371   1.565   1.860   7.056 -0.7308 -2.0889  1.9289
 5579SOL     OW28372   4.681   2.944   6.054 -0.1886 -0.2974 -0.5776
 5579SOL    HW128373   4.591   2.976   6.049  0.0104  0.1086 -1.6486
 5579SOL    HW228374   4.702   2.948   5.961 -0.7090  2.1620 -0.5877
 5580SOL     OW28375   3.603   0.465   0.303  0.5847  0.1153 -0.2212
 5580SOL    HW128376   3.564   0.378   0.297  0.6637  0.1684 -1.5339
 5580SOL    HW228377   3.541   0.508   0.361  0.4974 -0.8984  0.4178
 5581SOL     OW28378   4.136   1.428   2.992  0.0180 -0.2339 -0.2319
 5581SOL    HW128379   4.226   1.408   3.020  0.0320  1.0662  0.6503
 5581SOL    HW228380   4.122   1.516   3.026  2.1322  0.3503 -0.8588
 5582SOL     OW28381   0.898   1.183   9.929 -0.6296 -0.2491  0.7835
 5582SOL    HW128382   0.986   1.168   9.966  0.3118  1.5139 -0.7429
 5582SOL    HW228383   0.879   1.266   9.972 -1.4863 -1.2166  2.2702
 5583SOL     OW28384   0.569   0.129   3.489 -0.2677  0.2826  0.5155
 5583SOL    HW128385   0.518   0.109   3.567  3.4267 -0.8219  2.6408
 5583SOL    HW228386   0.623   0.050   3.496 -2.5992 -1.1288  2.7681
 5584SOL     OW28387   0.954   2.408  16.442 -0.0772 -0.0472  0.1749
 5584SOL    HW128388   0.997   2.338  16.393  2.3019  1.0308  0.7455
 5584SOL    HW228389   0.882   2.427  16.383 -0.6116 -2.9461 -0.1243
 5585SOL     OW28390   2.004   1.844   2.613 -0.3709  0.2797 -0.0631
 5585SOL    HW128391   1.992   1.796   2.531  1.8163  0.1702 -0.3278
 5585SOL    HW228392   2.047   1.770   2.657 -2.5712 -2.2960 -2.2321
 5586SOL     OW28393   2.617   0.319  16.200 -0.0506  0.2758  0.0892
 5586SOL    HW128394   2.642   0.398  16.249 -1.6865  0.1251  1.1664
 5586SOL    HW228395   2.673   0.250  16.234  0.3818  0.5190 -0.1295
 5587SOL     OW28396   3.663   1.925  10.894  0.8615 -0.0230  0.4139
 5587SOL    HW128397   3.569   1.917  10.911  0.8808 -0.7512  0.1860
 5587SOL    HW228398   3.673   1.854  10.957 -1.3398 -0.5907  0.1428
 5588SOL     OW28399   4.553   2.537   8.406  0.2904  0.5020 -0.1283
 5588SOL    HW128400   4.632   2.551   8.458  1.0319 -2.1020 -0.5478
 5588SOL    HW228401   4.521   2.451   8.436  1.3048  0.4535  0.8200
 5589SOL     OW28402   1.157   3.865   4.978  0.1683 -0.2745 -0.5801
 5589SOL    HW128403   1.146   3.771   4.990 -1.8443  0.4420  3.0216
 5589SOL    HW228404   1.066   3.895   4.975  0.0361 -0.7118 -0.8366
 5590SOL     OW28405   3.290   2.136   4.642  0.3857 -0.0090 -0.2774
 5590SOL    HW128406   3.284   2.157   4.735  0.1585  0.6566 -0.4420
 5590SOL    HW228407   3.202   2.164   4.616 -0.1630 -0.1062  1.5326
 5591SOL     OW28408   3.275   4.230   8.849 -0.2421 -0.4114  0.5537
 5591SOL    HW128409   3.316   4.290   8.786 -1.1741 -0.8851 -0.5195
 5591SOL    HW228410   3.307   4.271   8.929 -0.2085  0.3249  0.1621
 5592SOL     OW28411   1.292   0.568   3.017 -0.5851  0.2078  0.0279
 5592SOL    HW128412   1.230   0.630   3.055 -1.5993 -0.8276  0.0596
 5592SOL    HW228413   1.240   0.489   3.032 -0.8736 -0.4516 -4.6147
 5593SOL     OW28414   4.669   3.311   5.981 -0.3294 -0.6027  0.1969
 5593SOL    HW128415   4.660   3.379   6.047  0.2899 -0.6477  0.3220
 5593SOL    HW228416   4.596   3.250   5.997 -1.1495  0.8017  1.6757
 5594SOL     OW28417   2.689   2.205   2.198  0.1878 -0.0698  0.0814
 5594SOL    HW128418   2.681   2.181   2.106 -0.8942  2.0855 -0.3819
 5594SOL    HW228419   2.756   2.142   2.226 -0.0004 -1.6938 -3.1592
 5595SOL     OW28420   2.034   2.641   9.211 -0.3077  0.1629  0.5516
 5595SOL    HW128421   2.060   2.722   9.256  0.1541 -0.3901  1.2667
 5595SOL    HW228422   2.065   2.576   9.274 -1.7176 -1.0979 -0.0731
 5596SOL     OW28423   4.660   4.617   1.516  0.3238 -0.1138  0.1104
 5596SOL    HW128424   4.594   4.683   1.496 -1.4480 -2.2042 -0.9719
 5596SOL    HW228425   4.673   4.616   1.611 -0.1565  0.3113  0.1818
 5597SOL     OW28426   4.408   4.162   1.165  0.2891 -0.3896  0.4621
 5597SOL    HW128427   4.398   4.089   1.227 -3.4033  0.7179  1.1467
 5597SOL    HW228428   4.467   4.122   1.101  1.4007  1.0588  0.5846
 5598SOL     OW28429   3.606   0.390   3.710  0.2407 -0.2486  0.2079
 5598SOL    HW128430   3.601   0.319   3.646  0.7407 -1.1077  1.1292
 5598SOL    HW228431   3.540   0.373   3.777 -0.0382 -1.0232 -0.2639
 5599SOL     OW28432   2.353   4.032   6.736 -0.0402  0.1935  0.6451
 5599SOL    HW128433   2.391   3.967   6.677 -0.2470  3.4942 -3.0886
 5599SOL    HW228434   2.384   4.008   6.824  1.3437 -1.5572 -0.3052
 5600SOL     OW28435   3.643   3.668   0.434  0.3213 -0.0030 -0.0330
 5600SOL    HW128436   3.736   3.680   0.415 -0.3847 -0.1165 -3.6353
 5600SOL    HW228437   3.593   3.691   0.355  1.8082  0.8890 -0.7202
 5601SOL     OW28438   1.855   4.523  11.782 -0.2720  0.2595  0.1792
 5601SOL    HW128439   1.922   4.566  11.835  0.7328 -0.0909 -0.8104
 5601SOL    HW228440   1.788   4.523  11.851  0.9537 -0.2416  1.3639
 5602SOL     OW28441   0.809   2.982   4.775  0.2476  0.3030  0.2819
 5602SOL    HW128442   0.892   2.958   4.733 -1.3773 -3.8334 -0.5942
 5602SOL    HW228443   0.831   3.005   4.865  0.5419 -3.1541  1.0948
 5603SOL     OW28444   1.018   3.516  14.707  0.1239  0.5328 -0.4058
 5603SOL    HW128445   0.990   3.441  14.656 -1.2030  2.1732 -2.0753
 5603SOL    HW228446   1.079   3.476  14.769 -0.7707 -1.8958 -1.1349
 5604SOL     OW28447   2.185   0.231   6.463 -0.2636 -0.2531 -0.9120
 5604SOL    HW128448   2.155   0.140   6.473  2.8357 -1.2249 -0.3758
 5604SOL    HW228449   2.174   0.231   6.368 -2.5670 -1.6212 -0.6493
 5605SOL     OW28450   3.014   2.881   7.272  0.3138  0.3398  0.1074
 5605SOL    HW128451   2.946   2.911   7.212  0.0060 -1.3255 -0.3714
 5605SOL    HW228452   2.960   2.862   7.349 -0.7057  1.5707 -0.2948
 5606SOL     OW28453   2.891   1.413   2.221 -0.1739  0.9243 -0.1599
 5606SOL    HW128454   2.961   1.438   2.160  0.0491 -0.1474 -0.3333
 5606SOL    HW228455   2.935   1.425   2.305  0.2751 -0.2881 -0.2264
 5607SOL     OW28456   3.848   3.475   5.536  0.1168 -0.1856 -0.6845
 5607SOL    HW128457   3.893   3.391   5.526 -0.4340 -0.5581  0.0349
 5607SOL    HW228458   3.908   3.527   5.482  1.1438 -0.1057  0.5459
 5608SOL     OW28459   2.562   1.839   0.627 -0.5602 -0.0337 -0.3814
 5608SOL    HW128460   2.529   1.826   0.538 -2.0268  1.6175 -0.0912
 5608SOL    HW228461   2.654   1.815   0.625 -0.1891  1.3585 -0.0032
 5609SOL     OW28462   4.094   3.419   3.327 -0.1673  0.3904 -0.2151
 5609SOL    HW128463   4.039   3.366   3.269 -1.8113  2.7147 -0.7550
 5609SOL    HW228464   4.157   3.458   3.265 -0.0536  0.2051 -0.2162
 5610SOL     OW28465   1.768   3.489  16.322  0.1748 -0.4048  0.2405
 5610SOL    HW128466   1.805   3.509  16.236  2.1782 -0.8776  1.0061
 5610SOL    HW228467   1.679   3.463  16.296  0.8170 -1.1276 -1.2359
 5611SOL     OW28468   1.284   0.554   9.624  0.0290  0.0581  0.4074
 5611SOL    HW128469   1.266   0.481   9.683 -0.7304  0.7273  0.9972
 5611SOL    HW228470   1.198   0.567   9.583 -0.6243 -2.7023  0.9145
 5612SOL     OW28471   1.114   2.251   4.135 -0.5481  0.4866 -0.0888
 5612SOL    HW128472   1.139   2.173   4.086 -0.5245  0.4851 -0.0746
 5612SOL    HW228473   1.146   2.321   4.078 -2.2646 -0.5895 -2.3462
 5613SOL     OW28474   2.425   3.490   7.893 -0.3552  0.6462  0.4503
 5613SOL    HW128475   2.452   3.494   7.801  2.7352 -0.1932  1.3131
 5613SOL    HW228476   2.461   3.573   7.924  1.0669 -0.4719  1.7588
 5614SOL     OW28477   3.396   1.657  11.028 -0.0290 -0.0240  0.2752
 5614SOL    HW128478   3.395   1.646  10.933 -0.7698 -1.2341  0.4258
 5614SOL    HW228479   3.309   1.628  11.053  0.9347 -0.4335  3.1122
 5615SOL     OW28480   0.474   3.610   5.031 -0.0647 -0.0968  0.2454
 5615SOL    HW128481   0.534   3.544   4.996  1.7033  3.2174 -3.0448
 5615SOL    HW228482   0.521   3.686   4.995  0.5618 -1.1039 -1.0358
 5616SOL     OW28483   1.906   2.793   4.433  0.4609 -0.5821 -0.1672
 5616SOL    HW128484   1.814   2.819   4.430  1.3338  2.4603 -0.1382
 5616SOL    HW228485   1.932   2.839   4.354  2.5120 -1.5218 -0.0465
 5617SOL     OW28486   2.615   0.863   5.559 -0.0479  0.1038 -0.7010
 5617SOL    HW128487   2.654   0.835   5.642  1.2343 -1.7742 -1.9383
 5617SOL    HW228488   2.583   0.783   5.518 -3.4527  1.1845 -0.2110
 5618SOL     OW28489   2.225   4.293   7.880  0.0242  0.2250 -0.0817
 5618SOL    HW128490   2.305   4.242   7.894 -0.1873 -0.4054 -1.1182
 5618SOL    HW228491   2.241   4.379   7.918  0.7741 -0.1538  0.4575
 5619SOL     OW28492   1.193   2.340   8.435  0.4181  0.2482 -0.6001
 5619SOL    HW128493   1.173   2.381   8.520  1.2306  0.1428 -0.3577
 5619SOL    HW228494   1.115   2.285   8.425  1.5103 -0.8750 -2.7978
 5620SOL     OW28495   4.439   2.425   7.962 -0.4838  0.2738 -0.1978
 5620SOL    HW128496   4.466   2.504   7.915 -1.1686  0.8709  0.4091
 5620SOL    HW228497   4.520   2.374   7.952  0.5845  1.4216  2.6604
 5621SOL     OW28498   1.913   2.260   0.474  0.8836  0.7133 -0.1652
 5621SOL    HW128499   1.888   2.279   0.565 -2.1971 -1.0743 -0.6371
 5621SOL    HW228500   1.828   2.272   0.431  1.9524 -1.1128 -2.7526
 5622SOL     OW28501   0.511   2.482   3.336 -0.1452  0.8763  0.1346
 5622SOL    HW128502   0.448   2.550   3.314 -1.5456 -0.6046 -0.4094
 5622SOL    HW228503   0.479   2.446   3.419 -0.1003 -1.4702 -0.8691
 5623SOL     OW28504   0.591   2.180   6.229  0.2467 -0.1717 -0.1430
 5623SOL    HW128505   0.517   2.232   6.197 -0.9251 -1.1462  1.0034
 5623SOL    HW228506   0.543   2.109   6.270  1.0312 -0.2022  0.7402
 5624SOL     OW28507   0.356   4.007   4.689  0.5107  0.1292 -0.5599
 5624SOL    HW128508   0.307   3.991   4.771  1.9181 -0.5344  0.1552
 5624SOL    HW228509   0.292   4.053   4.634  2.0017  1.5860 -1.0592
 5625SOL     OW28510   4.379   3.935   3.636 -0.4324 -0.7683 -0.0902
 5625SOL    HW128511   4.298   3.884   3.638 -1.0970  0.2561 -0.4731
 5625SOL    HW228512   4.383   3.957   3.542 -1.1494  1.3349  0.3758
 5626SOL     OW28513   3.684   3.445   4.513 -0.0852  0.3401  0.3647
 5626SOL    HW128514   3.698   3.407   4.600  0.9167 -0.4851 -0.1525
 5626SOL    HW228515   3.621   3.389   4.468 -1.2516  0.8845  1.3222
 5627SOL     OW28516   1.239   0.578   9.285  0.2804 -0.4822 -0.0216
 5627SOL    HW128517   1.252   0.672   9.294 -1.7792 -0.3522  1.5218
 5627SOL    HW228518   1.205   0.561   9.372 -0.2618  2.2600  0.3124
 5628SOL     OW28519   2.075   2.802  12.383 -0.2300  0.1322  0.3426
 5628SOL    HW128520   2.060   2.721  12.335 -2.0957  1.1758 -0.8285
 5628SOL    HW228521   1.995   2.810  12.436 -1.3953  0.5798 -1.4957
 5629SOL     OW28522   1.415   1.875   4.382 -0.7519 -0.0943  0.1715
 5629SOL    HW128523   1.378   1.886   4.294  0.0044 -1.7882 -0.3515
 5629SOL    HW228524   1.485   1.939   4.375 -0.3836 -0.4911  0.2415
 5630SOL     OW28525   2.334   2.668   3.842 -0.5597  1.1092  0.0651
 5630SOL    HW128526   2.389   2.685   3.918 -0.9214  1.2822  0.2857
 5630SOL    HW228527   2.397   2.626   3.783 -2.4724  2.3464 -2.8836
 5631SOL     OW28528   4.476   4.063  11.956  0.3383 -0.0440 -0.2675
 5631SOL    HW128529   4.409   4.058  11.888 -1.0772  0.9100  1.0817
 5631SOL    HW228530   4.520   4.142  11.925  0.7942 -0.5022 -0.7980
 5632SOL     OW28531   4.657   3.445   5.335 -0.0729  0.3132 -0.8042
 5632SOL    HW128532   4.695   3.533   5.340  0.2443  0.0809  0.7101
 5632SOL    HW228533   4.714   3.404   5.399  0.1102  1.9746  0.1015
 5633SOL     OW28534   1.147   4.726  14.896  0.0810 -0.3823  0.1246
 5633SOL    HW128535   1.152   4.688  14.984 -1.0972 -0.1417  0.3052
 5633SOL    HW228536   1.052   4.716  14.885 -0.1924 -0.4753  2.4643
 5634SOL     OW28537   1.240   2.555   4.002 -0.0562  0.7579 -0.0745
 5634SOL    HW128538   1.303   2.574   3.932  0.3812  3.8358  1.1338
 5634SOL    HW228539   1.172   2.502   3.962  0.4019 -0.4497  0.7528
 5635SOL     OW28540   0.301   2.254  12.802  0.2918 -0.0659 -0.3099
 5635SOL    HW128541   0.266   2.270  12.715  0.8403 -2.3943 -0.9767
 5635SOL    HW228542   0.231   2.198  12.836  0.5537 -1.0690 -1.4045
 5636SOL     OW28543   1.313   1.357  11.140  0.0141  0.7046  0.3878
 5636SOL    HW128544   1.385   1.310  11.099 -1.4089 -0.9070 -0.2926
 5636SOL    HW228545   1.262   1.390  11.066  0.1839 -0.7073 -0.3573
 5637SOL     OW28546   4.707   3.582   1.898  0.2981  0.2431 -0.1300
 5637SOL    HW128547   0.000   3.665   1.935 -1.0880  0.3204  0.8245
 5637SOL    HW228548   4.736   3.603   1.809  0.3336  0.9945  0.0559
 5638SOL     OW28549   4.266   0.615  11.950 -0.6090  0.4153 -0.2731
 5638SOL    HW128550   4.215   0.695  11.940  1.5594  2.0273  1.5301
 5638SOL    HW228551   4.230   0.580  12.031 -1.8565  0.9795 -0.5817
 5639SOL     OW28552   3.123   3.280   1.566  0.1003  0.3747 -0.0462
 5639SOL    HW128553   3.063   3.311   1.633  0.4691  1.3730 -0.1750
 5639SOL    HW228554   3.064   3.254   1.495 -0.8200  1.1143  0.4530
 5640SOL     OW28555   2.186   0.249   3.230 -0.0767 -0.1382 -0.3983
 5640SOL    HW128556   2.264   0.299   3.253 -1.1116  1.5321 -0.4562
 5640SOL    HW228557   2.123   0.320   3.217  0.8010  1.1058  2.0347
 5641SOL     OW28558   2.618   2.326   3.497  0.3057  0.0693  0.0046
 5641SOL    HW128559   2.699   2.278   3.513  0.4580 -0.0405 -1.0658
 5641SOL    HW228560   2.562   2.260   3.458 -0.3167  0.6584 -0.1045
 5642SOL     OW28561   4.041   3.994   8.810 -0.4368  0.0378 -0.1369
 5642SOL    HW128562   4.034   3.928   8.879 -0.8646 -1.6273 -1.7581
 5642SOL    HW228563   3.948   4.005   8.793 -0.6570  1.1253  1.8784
 5643SOL     OW28564   2.549   0.767  12.397  0.5535 -0.2102  0.1751
 5643SOL    HW128565   2.501   0.815  12.465 -0.4315 -2.0911  0.8078
 5643SOL    HW228566   2.494   0.769  12.320 -0.3623 -1.4645  0.8012
 5644SOL     OW28567   3.243   4.553   0.482 -0.5115  0.5851  0.1808
 5644SOL    HW128568   3.302   4.627   0.467 -1.0911  1.0378  0.1490
 5644SOL    HW228569   3.284   4.509   0.557  1.0634  0.8136 -0.5577
 5645SOL     OW28570   4.234   3.034  16.275 -0.1198 -0.0590  0.5244
 5645SOL    HW128571   4.207   3.104  16.215 -0.7114  0.3915  1.3165
 5645SOL    HW228572   4.147   3.010  16.305 -1.0730  0.7470 -1.5859
 5646SOL     OW28573   3.038   1.963   1.187  0.3841 -0.4750 -0.3644
 5646SOL    HW128574   3.000   2.049   1.205 -0.5768 -0.8184 -0.7541
 5646SOL    HW228575   2.964   1.926   1.139 -0.5906  0.4624  0.4368
 5647SOL     OW28576   2.170   0.122   8.072  0.1756  0.6390  0.4419
 5647SOL    HW128577   2.176   0.176   7.993  0.3230  0.1480  0.1161
 5647SOL    HW228578   2.116   0.174   8.131 -0.2401  1.3463 -0.5627
 5648SOL     OW28579   1.180   4.732  14.432  1.1119 -0.0020 -0.6058
 5648SOL    HW128580   1.162   0.080  14.393  0.1792 -0.0229 -0.2429
 5648SOL    HW228581   1.112   4.682  14.387  1.5502 -0.0926 -1.1639
 5649SOL     OW28582   1.628   4.096   2.881  0.0810 -0.0949  0.3049
 5649SOL    HW128583   1.551   4.108   2.827  0.4376  1.0980  0.0617
 5649SOL    HW228584   1.696   4.072   2.819  0.7033 -0.2042  1.0185
 5650SOL     OW28585   3.884   1.819   2.570  0.0842  0.1545  0.5084
 5650SOL    HW128586   3.858   1.788   2.484 -0.4591 -0.6172  0.9490
 5650SOL    HW228587   3.964   1.779   2.606 -0.7382  0.1675  2.3526
 5651SOL     OW28588   1.263   2.567   2.319 -0.2519  0.3174  0.2032
 5651SOL    HW128589   1.180   2.610   2.299 -0.5519 -1.0015 -1.3558
 5651SOL    HW228590   1.302   2.567   2.232  1.2403  2.0568  0.8904
 5652SOL     OW28591   3.187   3.938   3.257 -0.0513  0.1322 -0.0557
 5652SOL    HW128592   3.213   3.999   3.325  0.0805  1.6152 -1.4298
 5652SOL    HW228593   3.255   3.871   3.262  0.4764  0.7643  1.2421
 5653SOL     OW28594   2.412   0.292   8.187 -0.5428  0.6428  0.5166
 5653SOL    HW128595   2.428   0.265   8.096 -1.7551  1.1267  0.1499
 5653SOL    HW228596   2.468   0.369   8.195  3.3339 -1.6960 -3.7682
 5654SOL     OW28597   3.107   1.613   7.962 -0.3180 -0.4784  0.5710
 5654SOL    HW128598   3.080   1.602   8.053 -1.8131 -0.2948  0.1553
 5654SOL    HW228599   3.140   1.702   7.961 -1.5657 -0.0430 -1.2264
 5655SOL     OW28600   3.635   0.875  16.640 -0.3878  0.1982 -0.3915
 5655SOL    HW128601   3.730   0.869  16.637 -0.6229 -2.7218 -2.7994
 5655SOL    HW228602   3.615   0.940  16.573 -1.0732  0.9901  0.5879
 5656SOL     OW28603   0.448   3.798  10.554  0.3365  0.2519  0.0696
 5656SOL    HW128604   0.438   3.756  10.639 -1.2795 -1.8908 -1.1777
 5656SOL    HW228605   0.535   3.840  10.555  0.8801 -0.8390 -0.8335
 5657SOL     OW28606   1.025   1.942   9.581  0.1134  0.2539 -0.0900
 5657SOL    HW128607   1.078   1.876   9.536 -2.2471 -0.6386 -1.5553
 5657SOL    HW228608   1.069   2.024   9.562  3.1511 -1.3649 -0.1052
 5658SOL     OW28609   0.820   3.558  13.584  0.2486  0.5577  1.0389
 5658SOL    HW128610   0.761   3.534  13.656 -1.4848 -0.2171 -0.6636
 5658SOL    HW228611   0.864   3.480  13.551 -0.3424  1.2070 -1.2341
 5659SOL     OW28612   0.990   2.231   3.346  0.0076  0.4742  0.4661
 5659SOL    HW128613   1.008   2.286   3.270  1.2904  0.4390  0.7434
 5659SOL    HW228614   0.914   2.186   3.309  0.4616 -0.9926  1.2806
 5660SOL     OW28615   0.196   3.306   4.831  0.0211  0.5289  0.5607
 5660SOL    HW128616   0.123   3.260   4.871  1.0545 -0.3142  1.4784
 5660SOL    HW228617   0.256   3.237   4.803  0.0951  0.8010  0.0473
 5661SOL     OW28618   3.594   0.398   4.654  0.6250 -0.3721  0.0338
 5661SOL    HW128619   3.593   0.314   4.608 -0.0569  0.4473 -1.4165
 5661SOL    HW228620   3.684   0.419   4.681  0.7318 -2.2816  1.2165
 5662SOL     OW28621   0.234   2.852   2.328  0.1060  0.5966  0.2527
 5662SOL    HW128622   0.201   2.764   2.347 -0.8692  0.7714 -0.6188
 5662SOL    HW228623   0.311   2.835   2.274 -2.0857 -0.8886 -2.4025
 5663SOL     OW28624   4.055   2.668   8.178 -0.1517 -0.6909  0.1966
 5663SOL    HW128625   4.042   2.754   8.138  0.4126 -1.0312 -0.7006
 5663SOL    HW228626   4.091   2.615   8.107  0.0641 -2.6535  1.7621
 5664SOL     OW28627   3.944   0.937   6.163 -0.3890 -0.0937 -0.3854
 5664SOL    HW128628   3.864   0.903   6.203  0.0664 -1.6729 -0.7894
 5664SOL    HW228629   3.906   0.994   6.096  1.3108  0.2881 -1.0404
 5665SOL     OW28630   2.041   1.499   6.401 -0.7893  1.0749  0.1179
 5665SOL    HW128631   1.959   1.450   6.391  0.3788 -0.6647 -0.9272
 5665SOL    HW228632   2.085   1.438   6.461 -0.1393  0.1341 -1.3228
 5666SOL     OW28633   3.573   4.696   3.721 -0.6975 -0.1388 -0.6752
 5666SOL    HW128634   3.622   0.036   3.694  0.6015 -0.8323 -0.3100
 5666SOL    HW228635   3.626   4.627   3.681  1.1984  0.6157  0.5335
 5667SOL     OW28636   1.485   1.619   4.462 -0.1230  0.0695  1.0437
 5667SOL    HW128637   1.495   1.596   4.369  1.4386 -1.7409  1.6789
 5667SOL    HW228638   1.471   1.713   4.448 -1.4652  0.0419  2.1638
 5668SOL     OW28639   4.491   3.701   2.275 -0.1712  0.5121  0.2041
 5668SOL    HW128640   4.479   3.672   2.365  1.0162 -0.0282  0.1897
 5668SOL    HW228641   4.584   3.677   2.271 -0.5707 -1.1709  0.9845
 5669SOL     OW28642   2.494   0.915  11.926 -0.0236  0.7359  0.0716
 5669SOL    HW128643   2.584   0.930  11.956 -0.0893 -0.8338  1.0773
 5669SOL    HW228644   2.515   0.852  11.857  3.9296  1.6065  0.4480
 5670SOL     OW28645   2.722   4.009  15.690 -0.3909 -0.2228 -0.6407
 5670SOL    HW128646   2.778   3.995  15.613  2.1241  2.8579  0.6421
 5670SOL    HW228647   2.724   3.925  15.736 -1.9161  0.3265  0.3923
 5671SOL     OW28648   2.530   3.853   0.398  0.0851  0.0575  0.0237
 5671SOL    HW128649   2.479   3.782   0.436  2.9561 -1.3942  1.2092
 5671SOL    HW228650   2.465   3.921   0.385  0.2326  0.7821  3.2120
 5672SOL     OW28651   4.481   3.555   2.489 -0.0294 -0.5994  0.3242
 5672SOL    HW128652   4.420   3.486   2.463 -0.3728  0.6900 -2.2355
 5672SOL    HW228653   4.428   3.608   2.549 -1.4981  0.8223 -2.2513
 5673SOL     OW28654   0.093   3.862   3.862  0.3339  0.0583  0.1574
 5673SOL    HW128655   0.172   3.813   3.839 -0.1510  0.2262 -1.9168
 5673SOL    HW228656   0.042   3.866   3.781 -2.9446 -2.2744  2.0994
 5674SOL     OW28657   0.177   4.102   4.970 -0.1489  0.3968 -0.4721
 5674SOL    HW128658   0.151   4.195   4.973 -2.4046 -0.2554  0.1084
 5674SOL    HW228659   0.230   4.107   5.050 -1.0045  2.9192 -0.0559
 5675SOL     OW28660   2.656   0.253   9.999  0.2440  0.2881 -0.2149
 5675SOL    HW128661   2.628   0.313  10.068  0.6143 -1.2131  1.2515
 5675SOL    HW228662   2.665   0.176  10.055  0.5482 -0.1756 -0.8943
 5676SOL     OW28663   0.195   2.970   7.687  0.3129  0.2963  0.0973
 5676SOL    HW128664   0.193   2.907   7.759 -1.8477  0.2040 -0.0598
 5676SOL    HW228665   0.213   2.910   7.614 -2.1943 -0.0787 -0.1965
 5677SOL     OW28666   2.823   4.692   3.204 -0.1116 -0.6106 -0.9122
 5677SOL    HW128667   2.762   0.012   3.251  1.7069  0.5613  0.0671
 5677SOL    HW228668   2.829   4.621   3.268 -1.3209  2.0881  2.2521
 5678SOL     OW28669   0.553   3.966   1.278  0.3918  0.6045  0.2616
 5678SOL    HW128670   0.544   4.029   1.207  0.9134 -1.7272 -1.8727
 5678SOL    HW228671   0.468   3.990   1.314 -0.0107  0.3654 -0.5207
 5679SOL     OW28672   2.178   1.149   3.884 -0.2575  0.2977  0.0267
 5679SOL    HW128673   2.149   1.109   3.966 -0.0050 -0.8629 -0.4532
 5679SOL    HW228674   2.134   1.096   3.818 -0.2434  0.3948 -0.0598
 5680SOL     OW28675   4.296   4.124   7.579 -0.5599 -0.1648  0.3782
 5680SOL    HW128676   4.229   4.056   7.570  1.2209 -2.0185  0.8539
 5680SOL    HW228677   4.349   4.083   7.648  1.1569  0.6541 -0.4718
 5681SOL     OW28678   3.716   3.053  16.380 -0.0156  0.3068 -0.2902
 5681SOL    HW128679   3.706   3.057  16.285 -0.1784  1.3690 -0.2313
 5681SOL    HW228680   3.800   3.009  16.389 -0.3893  0.1778  2.5583
 5682SOL     OW28681   0.880   0.245  16.744 -0.4451 -0.2840  0.2380
 5682SOL    HW128682   0.871   0.265  16.651  2.3066  2.4201  0.5587
 5682SOL    HW228683   0.815   0.175  16.750  0.0484 -0.7782 -0.1829
 5683SOL     OW28684   2.988   3.001   3.323 -0.8448  0.5125  0.0905
 5683SOL    HW128685   2.906   3.040   3.353 -0.3751  3.0948 -2.0459
 5683SOL    HW228686   2.983   2.912   3.359 -2.2599  0.4698 -0.1991
 5684SOL     OW28687   0.888   4.174  13.210 -0.6663 -0.4111  0.0113
 5684SOL    HW128688   0.949   4.127  13.267  0.3193  0.2908 -0.4557
 5684SOL    HW228689   0.833   4.224  13.271 -1.4918 -0.2809 -0.8439
 5685SOL     OW28690   3.535   0.563   0.067 -0.5730  0.3654 -0.0565
 5685SOL    HW128691   3.494   0.494   0.015  0.6704  0.2928 -0.9355
 5685SOL    HW228692   3.558   0.511   0.145 -2.4036 -0.8295 -0.3155
 5686SOL     OW28693   0.096   4.565   7.514  0.1617 -0.0773 -0.0739
 5686SOL    HW128694   0.064   4.491   7.462 -0.5495  0.3465 -0.2376
 5686SOL    HW228695   0.186   4.578   7.484  0.0881 -1.0485 -0.7174
 5687SOL     OW28696   2.870   4.397   3.046 -0.0318 -0.1925  0.0052
 5687SOL    HW128697   2.875   4.410   3.141 -1.6151 -0.9022  0.1866
 5687SOL    HW228698   2.786   4.437   3.025 -0.5557 -1.2013  0.2019
 5688SOL     OW28699   3.580   1.455   7.266 -0.7627  0.0160 -0.1854
 5688SOL    HW128700   3.501   1.483   7.220  1.0671  1.7401 -2.2628
 5688SOL    HW228701   3.649   1.480   7.204 -0.4200 -0.3855  0.0279
 5689SOL     OW28702   0.179   3.410   5.832 -1.1258 -0.7303 -0.0743
 5689SOL    HW128703   0.232   3.334   5.805  0.7722  0.3153  0.7047
 5689SOL    HW228704   0.113   3.373   5.891 -2.6464 -1.9103 -2.5174
 5690SOL     OW28705   4.173   1.817   9.222  0.0076  0.3144  1.2523
 5690SOL    HW128706   4.109   1.747   9.213  0.6815  0.0127 -1.2587
 5690SOL    HW228707   4.236   1.774   9.163 -1.1728 -0.1670  0.3483
 5691SOL     OW28708   0.405   3.196   5.844  0.0606 -0.0260 -0.2263
 5691SOL    HW128709   0.483   3.142   5.834  0.7716  1.0741 -0.6937
 5691SOL    HW228710   0.394   3.173   5.936  0.1290  2.8345  0.5087
 5692SOL     OW28711   4.714   1.119   7.778 -0.5773  0.7939  0.1132
 5692SOL    HW128712   4.620   1.128   7.794 -0.9287 -0.4243 -1.3376
 5692SOL    HW228713   0.009   1.112   7.868  1.2450 -0.2717 -0.6323
 5693SOL     OW28714   1.318   2.280  10.575  0.4617 -0.5714 -0.5115
 5693SOL    HW128715   1.412   2.288  10.593  0.1030  0.2959  0.9889
 5693SOL    HW228716   1.298   2.363  10.618  0.9874 -1.3016  1.1580
 5694SOL     OW28717   3.019   2.622   5.171  0.1595  0.3992 -0.2113
 5694SOL    HW128718   2.964   2.691   5.135 -2.3305 -0.5327  1.8163
 5694SOL    HW228719   3.088   2.611   5.106 -1.5951 -2.6991 -1.5312
 5695SOL     OW28720   4.026   4.595   2.645  0.0798 -0.5495 -0.0369
 5695SOL    HW128721   3.960   4.531   2.672 -0.1897  0.2749  1.2544
 5695SOL    HW228722   3.974   4.652   2.589 -1.3104  1.1623  3.0080
 5696SOL     OW28723   2.238   4.449  15.073 -0.5147  0.4238  0.4319
 5696SOL    HW128724   2.166   4.396  15.107 -2.0536  0.9283 -2.0263
 5696SOL    HW228725   2.189   4.500  15.008  0.1320 -0.7096 -0.9636
 5697SOL     OW28726   1.379   2.923   3.829 -0.3228 -0.3686  0.9727
 5697SOL    HW128727   1.415   2.899   3.744 -0.9258 -0.3494  0.7159
 5697SOL    HW228728   1.458   2.922   3.883  0.1841  0.4452  0.2401
 5698SOL     OW28729   1.177   2.725  17.580 -0.1502  0.0013  0.6077
 5698SOL    HW128730   1.214   2.796  17.633  0.1386 -1.5423  2.4720
 5698SOL    HW228731   1.213   2.661  17.641  1.9154  1.1210  0.5592
 5699SOL     OW28732   1.524   3.277   1.582  0.1778  0.0864  0.3195
 5699SOL    HW128733   1.577   3.357   1.582  0.2552  0.0265  1.1755
 5699SOL    HW228734   1.441   3.318   1.559 -0.1162 -1.1952 -0.9330
 5700SOL     OW28735   1.356   2.280   8.704 -0.8044  0.3663  0.3084
 5700SOL    HW128736   1.266   2.300   8.680  0.2409  2.1284 -2.1924
 5700SOL    HW228737   1.371   2.338   8.778  0.1234 -0.3054  0.6409
 5701SOL     OW28738   2.373   0.930   6.968 -0.1443  0.2294 -0.5090
 5701SOL    HW128739   2.451   0.968   6.926 -1.2121  1.7364 -1.1453
 5701SOL    HW228740   2.422   0.868   7.023 -1.0309 -1.3827 -1.5506
 5702SOL     OW28741   0.747   4.596  12.619 -0.2258  0.0969 -0.2713
 5702SOL    HW128742   0.723   4.607  12.711 -0.9393 -0.8160 -0.3488
 5702SOL    HW228743   0.809   4.665  12.594 -0.7016  0.5558 -0.1761
 5703SOL     OW28744   3.221   4.121  12.404  0.5039  0.1819 -0.2304
 5703SOL    HW128745   3.224   4.109  12.499  1.9703 -1.0770 -0.4315
 5703SOL    HW228746   3.137   4.075  12.393 -0.6695  2.6805 -1.5296
 5704SOL     OW28747   2.812   0.866   4.432  0.6884  0.2084  0.1039
 5704SOL    HW128748   2.811   0.896   4.523  2.8053  1.8941 -0.4217
 5704SOL    HW228749   2.899   0.828   4.435  1.6405  2.6193  2.3613
 5705SOL     OW28750   4.558   3.352   9.907  0.0754  0.2708 -0.1771
 5705SOL    HW128751   4.475   3.343   9.954 -0.1948  2.2545 -0.2735
 5705SOL    HW228752   4.535   3.308   9.825 -1.1523 -1.3810  1.0417
 5706SOL     OW28753   0.228   2.216   1.889 -0.4182  0.1777  0.5232
 5706SOL    HW128754   0.210   2.216   1.795  1.2693 -0.2356  0.2080
 5706SOL    HW228755   0.324   2.218   1.891 -0.4651  0.0490  2.7447
 5707SOL     OW28756   3.160   0.593   3.094  0.0996 -0.2574  0.0244
 5707SOL    HW128757   3.232   0.546   3.052  0.0383  0.6840 -1.1491
 5707SOL    HW228758   3.181   0.620   3.184 -2.4310  2.1068 -0.0795
 5708SOL     OW28759   2.228   0.908  17.333 -0.1834 -0.2009  0.1727
 5708SOL    HW128760   2.306   0.950  17.296  0.6602 -0.7537  1.3541
 5708SOL    HW228761   2.261   0.873  17.415  0.9738  0.5919  0.0420
 5709SOL     OW28762   4.576   1.635   1.411  1.2126 -0.6489  0.2702
 5709SOL    HW128763   4.659   1.592   1.431  1.9956  0.4934 -0.5742
 5709SOL    HW228764   4.523   1.611   1.487 -1.5693  1.9621 -0.8365
 5710SOL     OW28765   3.646   0.717   4.149  0.0129  0.7042  0.6401
 5710SOL    HW128766   3.630   0.784   4.082  0.4677 -1.4049 -1.5558
 5710SOL    HW228767   3.576   0.741   4.209 -2.2828  0.3875 -1.8956
 5711SOL     OW28768   1.643   1.152   3.891 -0.1185 -0.1896 -0.0944
 5711SOL    HW128769   1.645   1.073   3.945 -1.0199 -1.3476 -1.7316
 5711SOL    HW228770   1.661   1.112   3.805 -2.4947 -0.5427 -0.4342
 5712SOL     OW28771   4.172   3.777  12.591 -0.2597  0.1899 -0.5802
 5712SOL    HW128772   4.163   3.808  12.681 -1.6730 -0.3093 -0.5549
 5712SOL    HW228773   4.222   3.847  12.548  1.4616 -0.2511  0.6899
 5713SOL     OW28774   3.610   4.417  11.605  0.0573 -0.1708 -0.0843
 5713SOL    HW128775   3.698   4.416  11.643 -0.6517 -1.9265  1.4824
 5713SOL    HW228776   3.580   4.328  11.620 -2.9180  0.9759  0.6177
 5714SOL     OW28777   3.008   1.291   4.349 -0.1932  0.0674  0.0595
 5714SOL    HW128778   2.918   1.267   4.325 -0.3030  2.1807 -1.6626
 5714SOL    HW228779   3.011   1.266   4.441 -0.9386  3.4153  0.9950
 5715SOL     OW28780   1.083   3.290   6.335 -0.2706  0.1862  0.0760
 5715SOL    HW128781   1.059   3.357   6.270 -1.9133 -0.8955 -0.4442
 5715SOL    HW228782   1.033   3.220   6.293  0.2777  0.2436 -0.6702
 5716SOL     OW28783   1.796   3.350   2.564  0.0462 -0.3210 -0.4113
 5716SOL    HW128784   1.847   3.429   2.581 -2.2271  1.1997 -0.7085
 5716SOL    HW228785   1.740   3.343   2.642  0.4333 -0.0784 -0.1093
 5717SOL     OW28786   3.349   4.457  11.573 -0.3124  0.5722 -0.0533
 5717SOL    HW128787   3.337   4.518  11.500 -0.1509 -1.0813 -1.4590
 5717SOL    HW228788   3.445   4.452  11.576 -0.4296 -0.5412  2.1147
 5718SOL     OW28789   4.364   1.152  12.366 -0.4096  0.0392 -0.5358
 5718SOL    HW128790   4.419   1.195  12.431 -0.5248  1.5151 -1.4141
 5718SOL    HW228791   4.295   1.216  12.348  0.2538  1.2930  1.3931
 5719SOL     OW28792   1.602   2.691   1.495 -0.5404  0.7789  0.6269
 5719SOL    HW128793   1.679   2.737   1.461 -0.1304  1.3616  2.3522
 5719SOL    HW228794   1.562   2.735   1.569  0.7680  0.4556  1.5140
 5720SOL     OW28795   4.361   2.428  17.154  0.1941  0.7709 -0.0589
 5720SOL    HW128796   4.433   2.394  17.207  0.4637  0.3029 -0.7310
 5720SOL    HW228797   4.401   2.462  17.074  0.6562  1.2819  0.3942
 5721SOL     OW28798   3.372   4.383   0.733  0.7789  0.8553  1.1044
 5721SOL    HW128799   3.385   4.380   0.828 -0.4036  0.4732  1.2491
 5721SOL    HW228800   3.297   4.325   0.721  3.8090 -2.4700 -1.7428
 5722SOL     OW28801   2.829   3.542   8.451 -0.7284 -0.0267 -0.5176
 5722SOL    HW128802   2.893   3.487   8.406 -0.9579  1.4960 -2.6886
 5722SOL    HW228803   2.867   3.532   8.539  3.8528 -1.4139 -2.6614
 5723SOL     OW28804   2.372   0.657   4.433  0.3591 -0.1766 -0.8234
 5723SOL    HW128805   2.331   0.704   4.506 -0.1078 -2.1701  0.1971
 5723SOL    HW228806   2.323   0.682   4.355  0.0415 -0.9429 -0.8627
 5724SOL     OW28807   0.363   2.138   3.407  0.3168 -0.6424 -0.4945
 5724SOL    HW128808   0.400   2.051   3.396  0.7219 -0.7651  1.8534
 5724SOL    HW228809   0.354   2.172   3.318 -1.1530  1.8743  0.6130
 5725SOL     OW28810   0.364   3.171  13.420  0.1187 -0.3811 -0.4771
 5725SOL    HW128811   0.327   3.183  13.332  1.5751  3.4042 -0.5554
 5725SOL    HW228812   0.444   3.223  13.415 -0.4193  0.5758  1.0385
 5726SOL     OW28813   3.793   3.692   3.163 -0.2199 -0.3936 -0.2451
 5726SOL    HW128814   3.851   3.716   3.091  0.4831 -1.9024 -0.1778
 5726SOL    HW228815   3.715   3.738   3.131  1.0104  1.2511 -0.8867
 5727SOL     OW28816   3.750   3.075   2.888 -0.1938 -0.1024 -0.6229
 5727SOL    HW128817   3.665   3.037   2.911  0.2174 -0.0662  0.9634
 5727SOL    HW228818   3.772   3.030   2.806  2.7458  0.2878 -0.0372
 5728SOL     OW28819   1.749   3.490  14.865  0.3790 -0.6203  0.0766
 5728SOL    HW128820   1.724   3.581  14.883 -0.8235 -0.9925  0.2811
 5728SOL    HW228821   1.839   3.492  14.833  0.5865  0.4747  0.6995
 5729SOL     OW28822   3.395   3.843  12.797  0.6138 -0.1375 -0.0624
 5729SOL    HW128823   3.418   3.761  12.753 -1.3341  0.0374 -1.3731
 5729SOL    HW228824   3.400   3.902  12.722  1.7564 -1.6293 -1.1690
 5730SOL     OW28825   4.375   3.260   6.506  0.0644 -0.0646  0.5094
 5730SOL    HW128826   4.462   3.264   6.545 -0.1669  0.2283  0.9977
 5730SOL    HW228827   4.379   3.333   6.443  0.5434  0.3666  1.0406
 5731SOL     OW28828   1.964   0.568   4.900  0.7136  0.5075  0.3693
 5731SOL    HW128829   2.049   0.528   4.878  0.4000  0.0405  0.0110
 5731SOL    HW228830   1.983   0.613   4.982  0.8992  0.0948  0.5549
 5732SOL     OW28831   0.655   3.803   2.350  0.0878  0.3537 -0.2560
 5732SOL    HW128832   0.565   3.771   2.343 -0.1752  0.8445  0.7540
 5732SOL    HW228833   0.642   3.898   2.348 -0.6921  0.2125 -1.8547
 5733SOL     OW28834   4.691   3.753  14.240  0.4791  0.0928 -0.0178
 5733SOL    HW128835   4.698   3.830  14.184 -1.8303 -0.1461 -0.6615
 5733SOL    HW228836   4.596   3.737  14.247  0.4016  0.3186 -0.6185
 5734SOL     OW28837   0.943   2.698  16.751  0.8185 -0.3986  0.0789
 5734SOL    HW128838   0.905   2.779  16.783 -0.2725  0.1903 -2.7378
 5734SOL    HW228839   0.905   2.681  16.665  1.8107 -0.3830 -0.3662
 5735SOL     OW28840   4.323   3.253   0.719  0.5053  0.5135  0.3507
 5735SOL    HW128841   4.379   3.254   0.641  2.0615  1.5810  1.4692
 5735SOL    HW228842   4.266   3.178   0.706  2.8208 -1.1291 -0.2933
 5736SOL     OW28843   2.471   0.064  15.460  0.4242  0.1321  0.3579
 5736SOL    HW128844   2.500   0.139  15.410 -0.2183 -0.1624 -0.4553
 5736SOL    HW228845   2.491   0.093  15.549  0.2107  1.3108  0.0215
 5737SOL     OW28846   1.706   4.187   6.847 -0.4882 -0.2432 -0.6816
 5737SOL    HW128847   1.729   4.094   6.841  2.5659  0.5000 -0.7989
 5737SOL    HW228848   1.693   4.186   6.942 -2.2927 -2.5078 -0.9413
 5738SOL     OW28849   2.507   4.234  12.229  0.2222 -0.1612  0.0095
 5738SOL    HW128850   2.579   4.279  12.274 -0.2989 -0.0084  0.6877
 5738SOL    HW228851   2.513   4.266  12.139  1.2067  1.8894  0.7991
 5739SOL     OW28852   3.227   3.579   4.626  0.1784  0.2422 -0.2684
 5739SOL    HW128853   3.161   3.592   4.694  0.0820  2.2387 -0.7425
 5739SOL    HW228854   3.278   3.501   4.648  2.9113  2.6068  1.6471
 5740SOL     OW28855   0.369   2.214   4.181  0.1668 -0.4161  0.0241
 5740SOL    HW128856   0.317   2.137   4.158 -0.9306  0.0315  1.0268
 5740SOL    HW228857   0.439   2.167   4.227  0.1620  0.5449  0.9958
 5741SOL     OW28858   3.408   1.607  11.524  0.1039  0.2383  0.2980
 5741SOL    HW128859   3.436   1.573  11.438  2.1347  2.8818 -0.0922
 5741SOL    HW228860   3.475   1.675  11.530  1.5657 -1.2028  0.3633
 5742SOL     OW28861   1.016   3.207   6.584  0.1670 -0.1420  0.4463
 5742SOL    HW128862   1.027   3.116   6.556  1.1068 -0.1757  0.9454
 5742SOL    HW228863   1.041   3.253   6.504  0.0562  0.0438  0.5201
 5743SOL     OW28864   3.356   3.618   9.527  0.3886 -0.3609  0.0106
 5743SOL    HW128865   3.283   3.646   9.583 -0.7390 -2.0658 -0.5926
 5743SOL    HW228866   3.389   3.533   9.558  2.8609  0.6997  0.2541
 5744SOL     OW28867   4.043   2.768   3.458  0.1792  0.4586 -0.0067
 5744SOL    HW128868   4.063   2.854   3.421 -2.7817  0.1739 -2.2609
 5744SOL    HW228869   3.994   2.732   3.384 -0.3562 -1.0329  1.0853
 5745SOL     OW28870   2.456   1.339  12.751  0.1370 -0.4248 -0.8128
 5745SOL    HW128871   2.443   1.396  12.827 -0.8582 -1.5527 -0.1381
 5745SOL    HW228872   2.371   1.342  12.708  0.2937 -4.0381 -1.3969
 5746SOL     OW28873   4.555   2.673   0.883  0.8113 -0.3190  0.3550
 5746SOL    HW128874   4.481   2.714   0.928 -0.0004 -2.7530  1.2951
 5746SOL    HW228875   4.541   2.697   0.792 -0.6167  0.2552  0.7302
 5747SOL     OW28876   1.106   4.636   1.123  0.2158 -0.1539  0.1972
 5747SOL    HW128877   1.078   4.548   1.100  1.6640 -0.5963  0.1328
 5747SOL    HW228878   1.121   4.674   1.036 -1.5676  0.1397  0.0256
 5748SOL     OW28879   2.066   2.816  13.222 -0.6092  0.1118  0.5978
 5748SOL    HW128880   2.032   2.776  13.302  1.0400 -0.2992  1.0921
 5748SOL    HW228881   1.989   2.805  13.166 -0.5035  0.1239  0.4496
 5749SOL     OW28882   4.661   3.057   9.893  0.2651  0.3402  0.0749
 5749SOL    HW128883   4.724   2.989   9.867 -1.0808 -0.5256 -0.9282
 5749SOL    HW228884   4.702   3.137   9.859  2.9612 -1.9904 -2.2346
 5750SOL     OW28885   2.668   3.240  10.172 -0.1487 -0.4042  0.0695
 5750SOL    HW128886   2.734   3.171  10.172  1.1740  0.8724  0.6975
 5750SOL    HW228887   2.680   3.263  10.080 -0.1797  1.2626  0.4824
 5751SOL     OW28888   2.005   4.624   7.366  0.5719  0.2813  0.4384
 5751SOL    HW128889   2.062   4.642   7.291 -0.0208  1.1746  0.2001
 5751SOL    HW228890   1.999   4.715   7.392 -0.4128 -0.0068  1.1945
 5752SOL     OW28891   4.445   0.939  10.459  0.0098  0.1016 -0.8440
 5752SOL    HW128892   4.430   1.033  10.445 -2.0545  0.1105  1.3449
 5752SOL    HW228893   4.507   0.941  10.532  0.6379  2.0375 -1.4421
 5753SOL     OW28894   4.306   1.080  16.673 -0.7728 -0.1638  0.2942
 5753SOL    HW128895   4.354   1.100  16.753  1.9764  2.3279 -2.0338
 5753SOL    HW228896   4.381   1.076  16.614 -1.2184  0.1642 -0.2911
 5754SOL     OW28897   0.870   3.026   6.123 -0.9066 -0.3006  0.1661
 5754SOL    HW128898   0.889   2.974   6.045  0.6997  1.3185 -0.5322
 5754SOL    HW228899   0.880   3.114   6.087 -1.2643  0.5321  2.0868
 5755SOL     OW28900   4.341   2.871   2.888  0.5143  0.3725  0.0115
 5755SOL    HW128901   4.291   2.791   2.869  0.3874  0.5510 -0.4071
 5755SOL    HW228902   4.376   2.843   2.972 -0.4809 -0.3814  0.1771
 5756SOL     OW28903   2.118   3.826   9.846  0.6254 -0.4530 -0.0032
 5756SOL    HW128904   2.073   3.908   9.825  3.4365  1.3691  1.1395
 5756SOL    HW228905   2.076   3.754   9.799  0.3962 -0.9783  1.0109
 5757SOL     OW28906   3.249   3.816   7.822  0.6044  0.2284  0.4800
 5757SOL    HW128907   3.229   3.849   7.734 -2.1992 -1.3686  0.5089
 5757SOL    HW228908   3.166   3.781   7.856 -0.0645  0.1072 -1.2483
 5758SOL     OW28909   1.877   1.803   2.063 -0.1050 -0.5878 -0.7597
 5758SOL    HW128910   1.830   1.737   2.113 -0.3406  0.5778  0.5596
 5758SOL    HW228911   1.968   1.774   2.061 -0.0207 -0.4807  1.9783
 5759SOL     OW28912   3.504   1.861   4.299 -0.1006 -0.1215 -0.4209
 5759SOL    HW128913   3.563   1.811   4.357  0.5588  1.2265  0.0639
 5759SOL    HW228914   3.547   1.946   4.308 -0.9249  0.3316 -0.8446
 5760SOL     OW28915   0.635   1.014  14.008  0.0296  0.1703 -0.6144
 5760SOL    HW128916   0.589   0.989  13.929 -2.5157 -0.5484  1.0899
 5760SOL    HW228917   0.624   1.109  14.009  1.4051  0.3319 -0.9764
 5761SOL     OW28918   1.517   4.271  10.931  0.3595 -0.5966 -0.1887
 5761SOL    HW128919   1.603   4.237  10.907  0.8570 -0.8419  1.9434
 5761SOL    HW228920   1.445   4.224  10.888 -0.1915 -1.4604  1.6618
 5762SOL     OW28921   0.556   2.756   3.630  0.2679  0.2754  0.0502
 5762SOL    HW128922   0.644   2.784   3.605  0.6990 -1.1061 -0.0010
 5762SOL    HW228923   0.554   2.733   3.722 -0.7010 -0.4867 -0.1604
 5763SOL     OW28924   4.570   1.991   7.453  0.3026 -0.4961 -0.4794
 5763SOL    HW128925   4.642   1.939   7.488  0.7701  1.0835  0.9327
 5763SOL    HW228926   4.551   1.936   7.377  1.8047 -2.1884  0.3626
 5764SOL     OW28927   0.261   1.134   5.882 -0.5528 -1.0299 -0.3412
 5764SOL    HW128928   0.170   1.143   5.855 -0.4475  0.1324 -0.3214
 5764SOL    HW228929   0.255   1.146   5.977  0.6134 -1.1314 -0.2488
 5765SOL     OW28930   3.128   1.814   3.132 -0.1714 -0.2147 -0.3722
 5765SOL    HW128931   3.108   1.852   3.046  2.4074  2.0059  0.0345
 5765SOL    HW228932   3.088   1.727   3.122  1.1050 -0.6924 -1.2072
 5766SOL     OW28933   4.123   3.646   2.386 -0.5783  0.2284  0.3877
 5766SOL    HW128934   4.187   3.713   2.364 -1.1013  0.8823  0.8327
 5766SOL    HW228935   4.040   3.677   2.349  1.1673  2.4256 -1.6788
 5767SOL     OW28936   0.596   2.183   8.865 -0.3604 -0.4605 -0.1657
 5767SOL    HW128937   0.503   2.165   8.869  0.1147 -2.9916 -0.3951
 5767SOL    HW228938   0.636   2.159   8.948 -2.7774 -0.0871  1.0885
 5768SOL     OW28939   2.443   1.747   8.034  0.2155 -0.5662  0.0672
 5768SOL    HW128940   2.459   1.801   8.111  0.7980 -0.5818 -0.0427
 5768SOL    HW228941   2.519   1.764   7.977 -0.5642  0.3323 -0.7076
 5769SOL     OW28942   0.790   0.849  10.879  0.3942  0.0112 -0.2249
 5769SOL    HW128943   0.865   0.844  10.938 -0.0057  0.5677  0.3302
 5769SOL    HW228944   0.769   0.941  10.891 -2.5038 -0.4109 -1.8839
 5770SOL     OW28945   2.703   0.305   7.946  0.3955 -0.7310 -0.2225
 5770SOL    HW128946   2.621   0.310   7.897  1.8704  1.0634 -2.5613
 5770SOL    HW228947   2.678   0.236   8.007 -0.3766 -0.9100 -0.7357
 5771SOL     OW28948   0.423   4.320  15.516 -0.0573  0.6978  0.3455
 5771SOL    HW128949   0.465   4.394  15.473 -0.4310  0.9769  0.4596
 5771SOL    HW228950   0.393   4.258  15.449  1.7603  0.2658 -0.0779
 5772SOL     OW28951   3.192   3.870   4.001  0.2180 -0.0519 -0.1761
 5772SOL    HW128952   3.206   3.793   4.056 -0.5017  0.2326  0.4010
 5772SOL    HW228953   3.105   3.858   3.962  0.2909 -0.8216 -0.0955
 5773SOL     OW28954   3.437   4.048   0.670  0.0029  0.3533  0.5163
 5773SOL    HW128955   3.344   4.070   0.656 -0.0524 -0.1921  0.0116
 5773SOL    HW228956   3.442   3.957   0.642 -2.2629  0.5674 -0.6083
 5774SOL     OW28957   0.749   1.497   8.434  0.1166  0.0220 -0.0968
 5774SOL    HW128958   0.841   1.519   8.445  0.5708 -0.6024 -2.7100
 5774SOL    HW228959   0.726   1.532   8.520  0.3224  0.9884 -0.4465
 5775SOL     OW28960   0.673   1.054   3.848 -0.4468  0.3587  0.7830
 5775SOL    HW128961   0.669   0.964   3.815  0.7916  0.0756  1.4168
 5775SOL    HW228962   0.756   1.079   3.806 -0.2461  0.1850  1.0804
 5776SOL     OW28963   1.391   3.450   5.462  0.5761  0.1930  0.0073
 5776SOL    HW128964   1.461   3.510   5.438 -0.2324  1.1690  0.0707
 5776SOL    HW228965   1.317   3.509   5.449 -1.0935 -1.5017  1.7698
 5777SOL     OW28966   4.453   4.444   2.253 -0.7403 -0.0316 -0.5331
 5777SOL    HW128967   4.464   4.531   2.291 -1.8793 -0.1315  0.0244
 5777SOL    HW228968   4.358   4.441   2.242 -0.4042  0.6002 -3.7570
 5778SOL     OW28969   0.736   2.490   7.406  0.0925 -0.2701 -0.2988
 5778SOL    HW128970   0.704   2.484   7.316 -1.3766  3.0902  0.0093
 5778SOL    HW228971   0.831   2.495   7.393  0.4364  0.9109  2.6146
 5779SOL     OW28972   2.946   2.879   2.688  0.0677 -0.1977  0.1012
 5779SOL    HW128973   2.854   2.897   2.709  0.1724  1.0420 -0.5076
 5779SOL    HW228974   2.972   2.807   2.745 -2.5237 -1.5671 -0.4336
 5780SOL     OW28975   0.434   0.933   2.300  0.0452 -0.1991 -0.4076
 5780SOL    HW128976   0.341   0.922   2.320  0.8421 -0.7822  2.9706
 5780SOL    HW228977   0.433   1.029   2.292 -2.0817 -0.1566  0.4114
 5781SOL     OW28978   0.565   4.433   5.774  0.6029 -0.3153 -0.5787
 5781SOL    HW128979   0.565   4.342   5.804  1.8981 -0.6788 -1.6653
 5781SOL    HW228980   0.561   4.416   5.680  0.0833  2.2138 -1.0338
 5782SOL     OW28981   1.047   0.602   1.427 -0.7565  0.2424 -0.4275
 5782SOL    HW128982   1.019   0.512   1.414 -1.9037  0.2578  1.8843
 5782SOL    HW228983   1.132   0.593   1.470 -0.9181  1.2249  0.1149
 5783SOL     OW28984   0.893   0.549   6.469 -0.0510  0.0436 -0.2894
 5783SOL    HW128985   0.826   0.484   6.448 -0.7717  0.5337  0.5307
 5783SOL    HW228986   0.938   0.517   6.547  0.0919 -2.1121 -1.2674
 5784SOL     OW28987   3.600   2.041   9.611 -0.1641  0.3243 -1.0965
 5784SOL    HW128988   3.632   2.113   9.557 -0.8623  0.5718 -1.1804
 5784SOL    HW228989   3.526   2.012   9.558 -0.8091 -1.4727  0.7946
 5785SOL     OW28990   3.885   0.903  17.648 -0.2782  0.0069  0.2874
 5785SOL    HW128991   3.839   0.954  17.582 -0.9928 -0.1105  0.6935
 5785SOL    HW228992   3.974   0.921  17.617 -0.3291  0.5046  0.4263
 5786SOL     OW28993   1.065   3.864   5.940  0.8343 -0.1724 -0.4435
 5786SOL    HW128994   0.985   3.886   5.987  1.3898  2.4325 -0.7219
 5786SOL    HW228995   1.131   3.920   5.981 -0.6817  0.2941  1.3529
 5787SOL     OW28996   4.183   2.858   3.127 -0.2876  0.4357 -0.2564
 5787SOL    HW128997   4.144   2.905   3.201 -3.0390 -1.5382 -0.4762
 5787SOL    HW228998   4.109   2.845   3.068  0.7028 -0.0663 -1.3904
 5788SOL     OW28999   0.736   4.039   0.641 -0.2245 -0.2616 -0.1424
 5788SOL    HW129000   0.761   4.007   0.554 -0.0881  0.9349 -0.5410
 5788SOL    HW229001   0.778   3.970   0.692  0.1263 -0.0367 -0.1271
 5789SOL     OW29002   2.557   1.918   4.595 -0.4765  0.0972  0.0043
 5789SOL    HW129003   2.555   1.824   4.575 -0.6179 -0.4549  2.5196
 5789SOL    HW229004   2.474   1.944   4.555 -0.8217  1.1770  1.4516
 5790SOL     OW29005   2.104   0.397  16.668 -0.3915 -0.1896  0.6098
 5790SOL    HW129006   2.139   0.311  16.645  0.0133 -0.2692  1.5077
 5790SOL    HW229007   2.179   0.453  16.649  0.0703 -0.2646  2.1940
 5791SOL     OW29008   2.352   0.702  15.241  0.0542  0.1387 -0.3097
 5791SOL    HW129009   2.278   0.754  15.209  0.0513  0.6590  0.5328
 5791SOL    HW229010   2.313   0.659  15.317 -1.3932  1.9663 -0.0141
 5792SOL     OW29011   2.379   3.941  11.052  0.5262 -0.0118 -0.6618
 5792SOL    HW129012   2.420   4.022  11.081 -0.9874 -0.0617  1.6055
 5792SOL    HW229013   2.317   3.933  11.125  2.2622  1.4536  0.9672
 5793SOL     OW29014   3.398   2.809  10.623  0.0718  0.3301 -0.3972
 5793SOL    HW129015   3.327   2.745  10.623 -0.6629  1.1338  1.3770
 5793SOL    HW229016   3.411   2.814  10.718  0.9714  1.3449 -0.5847
 5794SOL     OW29017   0.831   2.373   6.355  0.0371  0.3291 -0.6043
 5794SOL    HW129018   0.735   2.375   6.357  0.0143  2.2412 -3.0217
 5794SOL    HW229019   0.840   2.438   6.425 -1.0723  0.8736 -0.9519
 5795SOL     OW29020   2.397   3.658   4.872 -0.5553 -0.6599  0.0921
 5795SOL    HW129021   2.450   3.639   4.794  0.6783  3.9029 -0.2125
 5795SOL    HW229022   2.322   3.600   4.859 -0.3467 -0.8232 -0.3845
 5796SOL     OW29023   1.208   1.871   2.518  0.1093  0.1078  0.2267
 5796SOL    HW129024   1.207   1.884   2.423 -1.1147  1.5737  0.4315
 5796SOL    HW229025   1.217   1.776   2.523  0.9357  0.2876  2.0759
 5797SOL     OW29026   0.033   4.278   9.890 -0.3536 -0.1087  0.2632
 5797SOL    HW129027   0.081   4.210   9.936 -0.3202  0.7498  1.4785
 5797SOL    HW229028   4.681   4.255   9.917  0.4662 -0.5731  2.5621
 5798SOL     OW29029   0.843   1.390   3.963 -0.3104  0.3820  0.0903
 5798SOL    HW129030   0.768   1.449   3.958 -0.3525  0.5047  2.1368
 5798SOL    HW229031   0.843   1.363   3.871 -2.0176 -0.7870  0.4402
 5799SOL     OW29032   4.239   2.155   7.255 -0.2914  0.4369  0.3751
 5799SOL    HW129033   4.207   2.237   7.215 -0.9059 -0.2728 -0.5881
 5799SOL    HW229034   4.327   2.189   7.273  0.1257 -0.4780  0.0798
 5800SOL     OW29035   4.472   0.468  13.106  0.0197  0.4805  0.1324
 5800SOL    HW129036   4.556   0.481  13.151 -0.9928  0.6235  1.9982
 5800SOL    HW229037   4.493   0.402  13.040 -0.9046 -0.7970  1.1198
 5801SOL     OW29038   1.194   4.727   0.874 -0.2325 -0.4370  0.4906
 5801SOL    HW129039   1.225   0.079   0.860 -0.5259 -0.7958 -2.4764
 5801SOL    HW229040   1.163   4.716   0.785 -0.7763 -0.5372  0.6937
 5802SOL     OW29041   3.556   1.064   0.383  0.0390  0.0385  0.1127
 5802SOL    HW129042   3.492   1.007   0.426  0.8024 -0.2378  0.8807
 5802SOL    HW229043   3.614   1.002   0.340  0.4942  1.3367 -1.1344
 5803SOL     OW29044   1.597   0.560   7.862 -0.3260 -0.2167 -0.1145
 5803SOL    HW129045   1.532   0.625   7.835 -0.0729 -0.4036 -1.1719
 5803SOL    HW229046   1.576   0.554   7.955  0.1946  2.7251  0.1762
 5804SOL     OW29047   3.772   2.105   9.178 -0.1610 -0.2160 -0.1192
 5804SOL    HW129048   3.689   2.114   9.130 -2.3056  1.9678  4.0220
 5804SOL    HW229049   3.834   2.109   9.105  0.4145 -0.8341  0.3436
 5805SOL     OW29050   0.720   1.623  11.442 -0.3504  0.3612  0.3853
 5805SOL    HW129051   0.758   1.594  11.525  1.1798  1.2968 -0.0013
 5805SOL    HW229052   0.626   1.614  11.460  0.0203 -2.9068  0.6528
 5806SOL     OW29053   2.401   0.425   0.195 -0.2065  0.5448  0.2835
 5806SOL    HW129054   2.359   0.387   0.118  1.2799 -3.8818  1.5956
 5806SOL    HW229055   2.349   0.376   0.260  0.7310 -0.8286  0.0072
 5807SOL     OW29056   4.328   4.325   2.708  0.1807  0.0184 -0.0058
 5807SOL    HW129057   4.271   4.353   2.779 -0.8115  0.1037 -0.8298
 5807SOL    HW229058   4.317   4.402   2.652 -0.5882 -1.1141 -1.4241
 5808SOL     OW29059   3.786   4.376   2.701 -0.1863 -0.2089  0.3493
 5808SOL    HW129060   3.816   4.344   2.787  1.6152  0.7835  0.0948
 5808SOL    HW229061   3.691   4.373   2.708 -0.2857  0.5642 -0.6654
 5809SOL     OW29062   0.108   4.354   5.657 -0.0528  0.1507 -0.2189
 5809SOL    HW129063   0.054   4.405   5.596 -2.8530 -0.4663  1.7681
 5809SOL    HW229064   0.041   4.290   5.682  0.2462 -0.0755  0.0040
 5810SOL     OW29065   2.134   2.472   8.769  0.3346  0.4381  0.3731
 5810SOL    HW129066   2.087   2.416   8.707 -1.2219  4.1956 -1.8144
 5810SOL    HW229067   2.069   2.501   8.833  1.2140  2.9238  0.1148
 5811SOL     OW29068   1.058   2.866   2.415 -0.2563 -0.2246 -0.1180
 5811SOL    HW129069   1.061   2.784   2.366 -0.6316 -0.0100 -0.4906
 5811SOL    HW229070   0.968   2.861   2.445  0.0863 -1.8410  0.6470
 5812SOL     OW29071   2.714   2.282   4.215  0.2252 -0.4303 -0.3784
 5812SOL    HW129072   2.660   2.213   4.178 -0.7610  0.3598 -0.3998
 5812SOL    HW229073   2.678   2.310   4.299  1.6757  3.0342 -0.8805
 5813SOL     OW29074   0.825   0.430   6.835  0.0608  0.0391 -0.0822
 5813SOL    HW129075   0.755   0.366   6.824  1.2232 -1.1257 -0.6075
 5813SOL    HW229076   0.791   0.509   6.794 -1.2494  0.0138  0.9494
 5814SOL     OW29077   4.226   0.000   1.624 -0.1583  0.3105  0.3129
 5814SOL    HW129078   4.243   4.722   1.717 -1.8564  2.5663  0.9986
 5814SOL    HW229079   4.174   0.081   1.629 -3.0735 -1.3674 -3.0256
 5815SOL     OW29080   0.627   1.330   4.212  0.0830  0.7633  0.0672
 5815SOL    HW129081   0.533   1.343   4.226 -0.2037 -0.3469 -0.8372
 5815SOL    HW229082   0.642   1.369   4.126  0.6735  0.4795  0.0437
 5816SOL     OW29083   1.799   1.400   9.282  0.1123 -0.3043  0.4250
 5816SOL    HW129084   1.877   1.409   9.227  0.5329 -2.0237  0.7211
 5816SOL    HW229085   1.827   1.440   9.364  1.5150 -0.5206  0.0576
 5817SOL     OW29086   1.851   1.164   6.275 -0.3309 -0.1702 -0.0676
 5817SOL    HW129087   1.803   1.245   6.293 -3.2077 -1.3739 -2.3737
 5817SOL    HW229088   1.907   1.164   6.352 -2.4242  2.0635  1.4639
 5818SOL     OW29089   0.565   0.779   2.104  0.0565 -0.2792  0.3870
 5818SOL    HW129090   0.635   0.832   2.066  0.6274 -0.7928  0.7228
 5818SOL    HW229091   0.532   0.830   2.178 -0.9411  0.9620 -0.9153
 5819SOL     OW29092   0.589   2.679   7.540 -0.4524 -0.2901  0.0949
 5819SOL    HW129093   0.623   2.654   7.454  0.5556  1.6750 -0.0771
 5819SOL    HW229094   0.625   2.620   7.606  0.0727 -0.7005 -0.5506
 5820SOL     OW29095   3.880   0.139   4.771 -0.0124 -0.1525  0.0962
 5820SOL    HW129096   3.823   0.178   4.705  0.2534 -0.0462 -0.0704
 5820SOL    HW229097   3.813   0.080   4.805 -0.0331  0.4045  1.0162
 5821SOL     OW29098   2.878   2.142   2.848  0.0548 -0.6099  0.0881
 5821SOL    HW129099   2.946   2.074   2.839  0.2816 -0.5745  1.4653
 5821SOL    HW229100   2.892   2.184   2.933 -0.9030  0.7971 -0.4622
 5822SOL     OW29101   2.356   4.202   9.055  0.1989  0.1986 -0.4105
 5822SOL    HW129102   2.344   4.126   8.998 -1.1626 -0.3141  0.5804
 5822SOL    HW229103   2.318   4.275   9.007 -0.1877  0.1904 -0.1187
 5823SOL     OW29104   4.239   2.430   4.684  0.1928 -0.0139  0.1847
 5823SOL    HW129105   4.216   2.433   4.591 -3.4816 -1.0115  1.0568
 5823SOL    HW229106   4.331   2.453   4.670  0.3213  0.2242  1.4232
 5824SOL     OW29107   3.858   4.523   5.466  0.0124 -0.4929 -1.1454
 5824SOL    HW129108   3.923   4.561   5.525 -0.6930 -1.3901  0.2228
 5824SOL    HW229109   3.892   4.435   5.450 -0.5998 -0.5608 -2.0541
 5825SOL     OW29110   0.039   4.081  10.223 -0.0781 -0.1432 -0.9015
 5825SOL    HW129111   0.030   4.173  10.248  2.1745  0.4051 -2.0751
 5825SOL    HW229112   0.065   4.039  10.305  0.1604  2.1960  0.2254
 5826SOL     OW29113   3.235   4.117  17.714 -0.1815  0.8342  0.5489
 5826SOL    HW129114   3.274   4.176  17.649  0.4754 -0.3771 -0.1481
 5826SOL    HW229115   3.236   4.176   0.040  0.8702  1.8574 -0.2724
 5827SOL     OW29116   1.992   1.917   0.704 -0.3150  0.6369 -0.1680
 5827SOL    HW129117   2.065   1.978   0.717  1.6484 -2.1674  1.8981
 5827SOL    HW229118   1.968   1.924   0.612 -0.9358  1.0230  0.0231
 5828SOL     OW29119   1.301   0.369   5.388 -0.4513 -0.2057  0.4936
 5828SOL    HW129120   1.288   0.460   5.362  3.6120 -0.4879 -2.5696
 5828SOL    HW229121   1.383   0.344   5.344 -0.4435  0.3420  0.2061
 5829SOL     OW29122   3.319   4.461   4.005  0.2022  0.1544 -0.0590
 5829SOL    HW129123   3.301   4.478   3.913 -0.1987 -1.5141 -0.2945
 5829SOL    HW229124   3.229   4.466   4.037 -0.1825  0.1099 -1.1399
 5830SOL     OW29125   1.223   1.150   7.162 -0.4190 -0.0600 -0.4593
 5830SOL    HW129126   1.241   1.056   7.168  2.4952  0.3532 -2.6407
 5830SOL    HW229127   1.270   1.166   7.080 -1.2195  2.1653 -0.4722
 5831SOL     OW29128   1.330   0.672   4.160  0.0615 -0.1134  0.1145
 5831SOL    HW129129   1.254   0.617   4.178 -1.6231  1.6909 -1.4690
 5831SOL    HW229130   1.282   0.754   4.158 -0.7094 -0.4938  2.8868
 5832SOL     OW29131   4.325   3.185  13.136 -0.3790  0.1157 -0.5224
 5832SOL    HW129132   4.394   3.195  13.202 -0.7430 -0.9166  0.0186
 5832SOL    HW229133   4.257   3.236  13.180  1.4175  1.3359  0.8286
 5833SOL     OW29134   2.131   3.303  16.345  0.1094 -0.1297  0.1678
 5833SOL    HW129135   2.048   3.263  16.372 -0.6756 -0.1603 -2.3193
 5833SOL    HW229136   2.163   3.248  16.273 -1.8426  0.8462 -1.4340
 5834SOL     OW29137   2.584   3.411   5.607 -0.0947 -0.2797 -0.0516
 5834SOL    HW129138   2.619   3.325   5.584 -1.1651 -0.4260 -1.1265
 5834SOL    HW229139   2.602   3.468   5.532 -0.2993  1.6639  1.3959
 5835SOL     OW29140   3.453   3.952  12.533  0.4186  0.1836 -0.4762
 5835SOL    HW129141   3.541   3.914  12.529  0.6615  0.8962 -1.8903
 5835SOL    HW229142   3.408   3.910  12.460  1.5875 -1.3742 -0.2915
 5836SOL     OW29143   4.069   3.019   6.134  0.1360  0.6154 -0.0301
 5836SOL    HW129144   4.116   3.068   6.067 -0.9813  3.8562  1.4944
 5836SOL    HW229145   4.036   3.099   6.177  1.5527  0.8585  0.5964
 5837SOL     OW29146   4.487   2.913  16.186 -0.1252  0.1835  0.0401
 5837SOL    HW129147   4.501   2.958  16.103 -1.8679 -0.3398 -0.5196
 5837SOL    HW229148   4.413   2.963  16.221  0.7202 -0.0293  2.1311
 5838SOL     OW29149   0.616   4.702   0.814  0.3827 -0.1935 -0.1413
 5838SOL    HW129150   0.543   4.643   0.834  0.7626 -0.7231 -0.3403
 5838SOL    HW229151   0.595   0.011   0.733  1.5449  3.2633  1.5607
 5839SOL     OW29152   2.051   4.093   9.800  0.1269  0.0997 -0.1254
 5839SOL    HW129153   2.105   4.101   9.878  0.8958 -0.4148 -0.5962
 5839SOL    HW229154   1.997   4.171   9.813  0.2175 -0.2668  2.4342
 5840SOL     OW29155   3.583   4.250   8.732 -0.5516 -0.2360  0.3341
 5840SOL    HW129156   3.511   4.283   8.679 -1.1762 -0.4840  1.0289
 5840SOL    HW229157   3.648   4.240   8.663  1.3750 -1.1013  2.2540
 5841SOL     OW29158   2.699   0.546   6.514  0.2527  0.5567  0.0227
 5841SOL    HW129159   2.763   0.486   6.552  0.0128  1.3685  1.7267
 5841SOL    HW229160   2.644   0.486   6.463  2.3459  0.6026 -2.2924
 5842SOL     OW29161   3.712   0.119   5.159 -0.1900  0.3591  0.1412
 5842SOL    HW129162   3.750   0.205   5.140 -0.3390  0.6339  1.0837
 5842SOL    HW229163   3.701   0.076   5.074 -0.2674 -1.0607  0.8732
 5843SOL     OW29164   3.067   3.995   6.511  0.1861  0.7627  0.5533
 5843SOL    HW129165   3.089   3.911   6.549 -0.6601  0.2267 -0.1400
 5843SOL    HW229166   3.114   3.999   6.427 -0.8210  0.2843 -0.0398
 5844SOL     OW29167   0.028   0.853  14.674 -0.0549  0.0670 -0.2731
 5844SOL    HW129168   0.068   0.782  14.624  0.6619 -1.1594  2.0217
 5844SOL    HW229169   0.072   0.924  14.628 -1.2390  0.9777  0.0103
 5845SOL     OW29170   1.681   1.645  15.153 -0.1170  0.3241  0.2829
 5845SOL    HW129171   1.693   1.639  15.058  2.1524  0.4268  0.5619
 5845SOL    HW229172   1.761   1.606  15.187  0.1584 -0.0689 -0.8258
 5846SOL     OW29173   0.423   4.053  16.226 -0.3398  0.5155 -0.4007
 5846SOL    HW129174   0.426   3.958  16.217  1.1390  0.5919 -0.7087
 5846SOL    HW229175   0.401   4.069  16.318 -0.0404 -3.1813  0.3067
 5847SOL     OW29176   0.324   0.119   8.128  0.7691 -0.3973  0.1610
 5847SOL    HW129177   0.397   0.171   8.162  0.3936 -0.6919  1.3926
 5847SOL    HW229178   0.385   0.060   8.083  0.4200 -1.2882  0.8668
 5848SOL     OW29179   4.432   3.980   8.879 -0.2465 -0.1949  0.4337
 5848SOL    HW129180   4.363   3.964   8.943  1.1514 -0.5151  1.8623
 5848SOL    HW229181   4.472   3.893   8.875 -0.5063 -0.2693 -0.5584
 5849SOL     OW29182   0.991   4.326  15.884 -0.0904 -0.8977  0.3058
 5849SOL    HW129183   1.008   4.285  15.799  0.8764  3.4173 -1.5676
 5849SOL    HW229184   0.899   4.352  15.874 -0.2654 -1.3361  0.7605
 5850SOL     OW29185   2.969   4.186   3.349 -0.9796  0.2312  0.1048
 5850SOL    HW129186   3.058   4.214   3.370 -1.7599  1.6302  1.5825
 5850SOL    HW229187   2.986   4.096   3.323  0.1678 -0.0624  1.8236
 5851SOL     OW29188   2.136   1.369   4.335  0.1142 -0.3230  0.1909
 5851SOL    HW129189   2.062   1.427   4.354  1.2080  0.0414  3.2374
 5851SOL    HW229190   2.089   1.287   4.352 -0.5317  0.2317  1.0807
 5852SOL     OW29191   3.556   4.010   7.500  0.0214 -0.2013  0.0056
 5852SOL    HW129192   3.621   4.072   7.536 -1.6232  1.0712  0.7843
 5852SOL    HW229193   3.475   4.036   7.543  0.8272 -0.4483  1.7065
 5853SOL     OW29194   3.233   0.075  14.869  0.2843 -0.1996 -0.2152
 5853SOL    HW129195   3.191   0.160  14.880  0.1132  0.1993 -3.7870
 5853SOL    HW229196   3.325   0.096  14.884 -0.2852  0.7405  1.9546
 5854SOL     OW29197   1.404   2.895   2.284 -0.3395  0.2290  0.3197
 5854SOL    HW129198   1.388   2.891   2.189  2.0833  1.6424 -0.1402
 5854SOL    HW229199   1.494   2.863   2.284 -0.2512  0.5065  2.3723
 5855SOL     OW29200   1.321   4.528  17.001  0.2740  0.0577 -0.2031
 5855SOL    HW129201   1.360   4.530  17.089  0.1211  0.2940 -0.1407
 5855SOL    HW229202   1.381   4.468  16.957  0.1570  1.1980 -1.9057
 5856SOL     OW29203   0.598   4.062   2.800  0.8359 -0.4388 -0.5145
 5856SOL    HW129204   0.517   4.056   2.850  0.3433  1.3321 -1.0837
 5856SOL    HW229205   0.639   4.139   2.840  1.4967 -1.4376  0.7028
 5857SOL     OW29206   3.734   3.786   7.151  0.3461 -0.6583  0.5467
 5857SOL    HW129207   3.749   3.846   7.224 -1.6220  0.5998 -0.1032
 5857SOL    HW229208   3.728   3.848   7.078 -1.2639 -0.4078  0.8921
 5858SOL     OW29209   3.935   0.414   5.834 -0.4086 -0.4950 -0.2584
 5858SOL    HW129210   4.029   0.435   5.826 -0.4026 -0.6917 -0.7198
 5858SOL    HW229211   3.902   0.441   5.748 -0.5023 -0.1475 -0.1096
 5859SOL     OW29212   4.213   2.568   9.184 -0.0922 -0.5801 -0.2541
 5859SOL    HW129213   4.163   2.620   9.247  0.6051  1.0326 -1.0356
 5859SOL    HW229214   4.286   2.629   9.188  0.2024 -0.9111 -0.5777
 5860SOL     OW29215   3.198   4.336   0.138 -0.4081  0.1171  0.6539
 5860SOL    HW129216   3.242   4.316   0.221 -1.5653  0.3227  1.3252
 5860SOL    HW229217   3.107   4.328   0.167 -0.1433  0.8966  1.6865
 5861SOL     OW29218   2.207   2.072   0.780 -0.4797  0.6714  0.8140
 5861SOL    HW129219   2.271   2.001   0.789  1.7978  2.6395  0.0970
 5861SOL    HW229220   2.272   2.138   0.755 -0.2537  0.7673  1.6755
 5862SOL     OW29221   1.116   1.986  16.336 -0.0613 -0.2476  0.1564
 5862SOL    HW129222   1.108   2.078  16.314  3.6986 -0.1213 -0.7465
 5862SOL    HW229223   1.168   1.948  16.265  0.5909 -0.1743  0.5886
 5863SOL     OW29224   3.534   2.674  14.855 -0.4690 -0.7488 -0.1790
 5863SOL    HW129225   3.595   2.622  14.908  1.5879  0.7953 -1.0205
 5863SOL    HW229226   3.597   2.730  14.810  0.5290  1.3753  3.9373
 5864SOL     OW29227   2.740   2.540   4.059  0.4130 -0.3520 -0.2335
 5864SOL    HW129228   2.733   2.455   4.100  1.2361  0.0591  0.7642
 5864SOL    HW229229   2.733   2.524   3.965 -2.2995 -0.0404 -0.0842
 5865SOL     OW29230   1.875   0.195  11.970  0.4682  0.7633 -0.1495
 5865SOL    HW129231   1.908   0.110  11.999 -0.4057  0.3975 -0.2281
 5865SOL    HW229232   1.796   0.189  12.024 -0.1586 -1.3633 -1.2936
 5866SOL     OW29233   0.488   4.075   0.172 -0.5186  0.3087  0.5355
 5866SOL    HW129234   0.506   4.128   0.249  0.9689  1.6882 -0.7391
 5866SOL    HW229235   0.422   4.016   0.207 -2.4924  3.4231  2.0641
 5867SOL     OW29236   3.766   3.034   8.103  0.1021  0.3367  0.5987
 5867SOL    HW129237   3.677   3.005   8.083  0.4946  1.0111 -2.0479
 5867SOL    HW229238   3.788   3.108   8.046 -0.1853  0.0299  0.0908
 5868SOL     OW29239   3.476   1.799  15.952  0.0165  0.0280  0.4234
 5868SOL    HW129240   3.406   1.809  16.017  2.4675  1.4278  2.8265
 5868SOL    HW229241   3.509   1.710  15.966 -0.6131 -0.3667 -0.5631
 5869SOL     OW29242   3.608   1.844  11.807  0.6359 -0.0486 -0.5635
 5869SOL    HW129243   3.524   1.798  11.806  0.9910 -0.7328  1.5552
 5869SOL    HW229244   3.654   1.775  11.856  1.7719  1.6228  0.7217
 5870SOL     OW29245   4.183   1.468   7.815 -0.4887 -0.3482  0.0487
 5870SOL    HW129246   4.174   1.373   7.809 -0.4761 -0.2501 -1.6983
 5870SOL    HW229247   4.099   1.492   7.777 -1.0811 -0.4297  1.3235
 5871SOL     OW29248   2.720   0.032  16.264  0.3933  0.0607  0.4154
 5871SOL    HW129249   2.651   0.035  16.198 -0.5950 -2.3873  1.3263
 5871SOL    HW229250   2.782   4.715  16.216 -0.6302 -0.4408 -0.3275
 5872SOL     OW29251   0.631   1.090   7.338 -0.3434 -0.3898  0.3908
 5872SOL    HW129252   0.539   1.114   7.322 -0.1076 -0.1232 -0.5382
 5872SOL    HW229253   0.668   1.162   7.286 -1.1715 -0.2624 -0.0238
 5873SOL     OW29254   2.198   0.908   3.274 -0.1549 -0.5057  0.1965
 5873SOL    HW129255   2.176   0.853   3.199 -0.8178 -1.2808  0.9576
 5873SOL    HW229256   2.255   0.975   3.237  1.1655 -1.0172  1.3186
 5874SOL     OW29257   1.657   3.790   8.013 -0.3061  0.2966 -0.2357
 5874SOL    HW129258   1.683   3.843   7.937 -0.3229  1.2407  0.4239
 5874SOL    HW229259   1.625   3.716   7.962  1.2416 -1.5225  1.4331
 5875SOL     OW29260   1.749   3.536  10.886  0.4042 -0.0178  0.2159
 5875SOL    HW129261   1.690   3.569  10.818  0.4481 -2.0592 -0.8167
 5875SOL    HW229262   1.692   3.535  10.963 -0.7271  1.4654 -0.6071
 5876SOL     OW29263   3.536   0.127   3.957 -0.0548 -0.3467  0.2392
 5876SOL    HW129264   3.597   0.106   4.029 -1.5777 -0.8169  1.3987
 5876SOL    HW229265   3.584   0.078   3.890  0.8734 -0.9026  1.2939
 5877SOL     OW29266   4.523   1.407   7.373 -0.2312 -0.0604 -0.2934
 5877SOL    HW129267   4.466   1.378   7.445 -0.2558 -2.3488 -1.2580
 5877SOL    HW229268   4.470   1.379   7.299  0.5459  0.4002 -1.0179
 5878SOL     OW29269   0.045   3.590  14.940  0.3638 -0.3672  0.2481
 5878SOL    HW129270   0.070   3.616  14.851  0.5737  0.5095  0.5611
 5878SOL    HW229271   4.687   3.592  14.936  0.2427 -3.2982  2.3084
 5879SOL     OW29272   1.140   3.256   3.575 -0.1514 -0.8400  0.4407
 5879SOL    HW129273   1.183   3.335   3.607 -2.5109  0.9296 -0.7125
 5879SOL    HW229274   1.131   3.264   3.480 -1.3295 -0.1201  0.6107
 5880SOL     OW29275   1.102   0.676   2.305  0.4919  0.0814 -0.0796
 5880SOL    HW129276   1.170   0.709   2.364 -1.1125  3.1018  0.1144
 5880SOL    HW229277   1.148   0.605   2.261  1.4457  1.1829 -0.8556
 5881SOL     OW29278   1.779   4.691  12.599  0.5041  0.1700  0.0205
 5881SOL    HW129279   1.781   4.599  12.575  1.5099  0.4069 -0.8018
 5881SOL    HW229280   1.829   4.731  12.528 -0.2640  0.4366 -0.3800
 5882SOL     OW29281   3.259   3.339   3.754 -0.5676  0.5036  0.0182
 5882SOL    HW129282   3.234   3.303   3.669  0.4753  0.6046 -0.3324
 5882SOL    HW229283   3.198   3.288   3.807 -1.1299  0.2830 -0.8520
 5883SOL     OW29284   3.988   3.520  11.270 -0.1237 -0.4903  0.6360
 5883SOL    HW129285   3.972   3.585  11.202  0.1845 -0.2355  0.8046
 5883SOL    HW229286   4.074   3.487  11.241  0.8677  0.7094  2.2016
 5884SOL     OW29287   3.335   3.000  12.335 -0.3107  0.4649  0.2040
 5884SOL    HW129288   3.423   2.992  12.372 -0.4912  0.8113  0.7060
 5884SOL    HW229289   3.281   2.970  12.408  0.3194  1.7077  1.1740
 5885SOL     OW29290   4.633   4.176   5.731  0.0693 -0.2332  0.0305
 5885SOL    HW129291   4.581   4.242   5.685  0.5198 -0.1646 -0.3749
 5885SOL    HW229292   4.558   4.117   5.734 -1.0569  1.2116  0.4709
 5886SOL     OW29293   4.463   2.762  12.436 -0.7328 -0.2418 -0.1086
 5886SOL    HW129294   4.557   2.748  12.445 -1.3666 -2.7286  2.6724
 5886SOL    HW229295   4.456   2.839  12.379 -2.0001 -1.7194 -1.9277
 5887SOL     OW29296   0.884   1.484   4.235  0.5437  0.0895 -0.1173
 5887SOL    HW129297   0.850   1.436   4.160 -3.9620  1.0100  1.2868
 5887SOL    HW229298   0.803   1.508   4.281  1.9789 -1.5715  3.2575
 5888SOL     OW29299   1.473   2.853  10.769 -0.0216  0.8846  0.0700
 5888SOL    HW129300   1.462   2.759  10.780  0.2697  0.5387 -2.5873
 5888SOL    HW229301   1.551   2.862  10.823 -0.0980  0.4795  0.2466
 5889SOL     OW29302   3.931   1.133  12.234 -0.1446  0.1529  0.5916
 5889SOL    HW129303   3.932   1.074  12.309  0.3382 -0.8686 -0.2173
 5889SOL    HW229304   3.894   1.210  12.276  0.0477 -0.8071  2.5430
 5890SOL     OW29305   2.935   3.647   6.570  0.1124  0.1431 -0.0136
 5890SOL    HW129306   2.903   3.662   6.481  2.9302  0.6143 -0.9447
 5890SOL    HW229307   2.849   3.628   6.606 -0.0014 -0.2599 -0.4901
 5891SOL     OW29308   3.814   3.301   3.812  0.0199 -0.0279  0.7897
 5891SOL    HW129309   3.761   3.357   3.869 -0.2104  0.8799 -0.3017
 5891SOL    HW229310   3.872   3.372   3.781  0.1004 -1.1755 -1.6562
 5892SOL     OW29311   1.101   4.647   3.246 -0.0943  0.0321  0.0428
 5892SOL    HW129312   1.056   4.725   3.278 -0.7925  0.4379 -1.9698
 5892SOL    HW229313   1.192   4.678   3.254 -0.1182 -0.7344  3.3914
 5893SOL     OW29314   1.955   1.045   1.832 -0.8363  0.2730 -0.0922
 5893SOL    HW129315   1.915   1.109   1.774  0.2042  1.5310  0.5706
 5893SOL    HW229316   1.873   1.023   1.875 -2.2501  0.2201 -2.8261
 5894SOL     OW29317   3.371   4.392   7.279 -0.2415 -0.3108  0.3440
 5894SOL    HW129318   3.306   4.459   7.257 -0.2814 -0.4941 -0.0875
 5894SOL    HW229319   3.359   4.337   7.202 -2.0246 -0.4564  0.7072
 5895SOL     OW29320   2.794   2.917   2.967 -0.3287  0.0962  0.3720
 5895SOL    HW129321   2.739   2.846   2.933 -0.4592  1.3617 -2.0637
 5895SOL    HW229322   2.724   2.977   2.991 -0.0006  1.0804 -1.1098
 5896SOL     OW29323   1.012   1.416   3.519  0.8484 -0.1396  0.9375
 5896SOL    HW129324   1.076   1.346   3.508  1.3737 -0.1307  3.8613
 5896SOL    HW229325   0.967   1.404   3.435 -0.7918  1.3126  1.6159
 5897SOL     OW29326   2.847   3.989   7.045 -0.2970 -0.6246  0.3681
 5897SOL    HW129327   2.777   3.932   7.077 -2.3053  2.6691  1.8107
 5897SOL    HW229328   2.819   4.070   7.087  2.7877 -0.1757  1.5443
 5898SOL     OW29329   4.287   1.598  12.430 -0.4986 -0.3098 -0.8191
 5898SOL    HW129330   4.301   1.684  12.469 -1.8542 -1.8768  3.1474
 5898SOL    HW229331   4.374   1.566  12.455 -1.3665  0.0123  2.5528
 5899SOL     OW29332   2.836   2.679  11.193  0.0738 -0.0203 -0.1339
 5899SOL    HW129333   2.888   2.655  11.270 -1.3141 -2.5988 -0.0057
 5899SOL    HW229334   2.764   2.734  11.224  1.1641  0.9121  0.7620
 5900SOL     OW29335   1.090   1.022   3.930 -0.1922  0.1600 -0.3513
 5900SOL    HW129336   1.152   0.978   3.871  1.1221  0.9462  0.4575
 5900SOL    HW229337   1.022   1.040   3.865 -0.7774  0.9724  0.4923
 5901SOL     OW29338   1.915   1.224   3.038  0.1399  0.1028 -0.3668
 5901SOL    HW129339   1.916   1.129   3.053  0.2983 -0.1117 -1.7393
 5901SOL    HW229340   1.921   1.256   3.128 -0.1182  2.4764 -1.1930
 5902SOL     OW29341   1.626   4.121   6.128  0.2392  0.2860  0.4830
 5902SOL    HW129342   1.716   4.151   6.144  0.7324 -0.6413 -0.5854
 5902SOL    HW229343   1.584   4.163   6.203 -0.8670  0.9668 -0.5232
 5903SOL     OW29344   0.881   0.312   1.892 -0.2008 -0.0008  0.3401
 5903SOL    HW129345   0.852   0.258   1.966  0.5463 -1.2725 -0.3005
 5903SOL    HW229346   0.819   0.289   1.822  0.5843 -3.2486  0.7204
 5904SOL     OW29347   2.878   1.082   3.419 -0.0423  0.2078  0.1443
 5904SOL    HW129348   2.924   1.087   3.503 -0.5966 -0.3424  0.4785
 5904SOL    HW229349   2.790   1.068   3.454 -1.7526  1.5245 -3.5636
 5905SOL     OW29350   3.136   1.133   7.452  0.3165  0.4218 -0.1258
 5905SOL    HW129351   3.230   1.121   7.445  0.4191  0.6238  1.0050
 5905SOL    HW229352   3.111   1.065   7.515 -0.2846  0.0912 -0.7137
 5906SOL     OW29353   4.603   4.267  15.941  0.1992 -0.6652  0.0386
 5906SOL    HW129354   4.509   4.260  15.956 -0.2584 -1.1117 -2.9639
 5906SOL    HW229355   4.621   4.353  15.979 -2.7957  0.9211 -2.0445
 5907SOL     OW29356   0.381   3.661   9.270  0.4942 -0.3482  0.3738
 5907SOL    HW129357   0.377   3.572   9.234 -2.7381  0.0092 -0.1586
 5907SOL    HW229358   0.296   3.658   9.314  0.3350 -3.8293 -0.1560
 5908SOL     OW29359   1.500   3.779   9.596  0.1232  0.3618  0.4903
 5908SOL    HW129360   1.466   3.690   9.611 -1.3219  0.7809 -0.3366
 5908SOL    HW229361   1.593   3.756   9.600  0.5863  1.7519 -2.5069
 5909SOL     OW29362   0.814   2.026   2.673 -0.0861  0.0747  0.2659
 5909SOL    HW129363   0.740   2.019   2.613 -0.2768 -0.2685  0.5464
 5909SOL    HW229364   0.891   2.033   2.617  0.2805 -1.1830  0.6214
 5910SOL     OW29365   1.697   4.226   7.157  0.1540 -0.4323  0.0828
 5910SOL    HW129366   1.612   4.248   7.194  0.1072  1.6506 -1.2894
 5910SOL    HW229367   1.698   4.130   7.167 -1.5092 -0.6182 -1.4771
 5911SOL     OW29368   4.698   3.145   3.732  0.2603 -0.0437  0.0580
 5911SOL    HW129369   4.712   3.052   3.713  2.8435  0.5395 -0.9055
 5911SOL    HW229370   4.684   3.186   3.647 -2.1955  0.9129  0.9570
 5912SOL     OW29371   0.986   3.398   6.094 -0.4255 -0.1634  0.1142
 5912SOL    HW129372   0.944   3.484   6.098 -1.3864 -0.5623 -1.5515
 5912SOL    HW229373   0.926   3.355   6.033  0.6773 -2.3807  0.5982
 5913SOL     OW29374   2.337   2.476   8.070 -0.5684  0.0545 -0.1278
 5913SOL    HW129375   2.323   2.523   7.988 -0.7337  2.0816  1.0481
 5913SOL    HW229376   2.374   2.535   8.136  1.1692 -0.4173 -0.6827
 5914SOL     OW29377   0.771   3.014   9.424 -0.1640  0.0512  0.3117
 5914SOL    HW129378   0.789   2.971   9.508  1.0671  2.1485  1.1376
 5914SOL    HW229379   0.810   3.098   9.449  4.8784 -2.1804 -0.1733
 5915SOL     OW29380   3.400   0.011  15.595  0.3495 -0.3563  0.0296
 5915SOL    HW129381   3.334   4.695  15.639 -0.3485 -0.3313 -1.0011
 5915SOL    HW229382   3.336   0.035  15.529  0.4633  0.3945  0.1920
 5916SOL     OW29383   2.409   1.730   6.800 -0.1143 -0.1782  0.1162
 5916SOL    HW129384   2.470   1.803   6.810  0.8266 -0.9327 -0.1092
 5916SOL    HW229385   2.342   1.768   6.744  1.4890  0.7606 -1.1514
 5917SOL     OW29386   3.650   2.997  17.421  0.1911 -0.2530  0.1495
 5917SOL    HW129387   3.669   2.908  17.390 -0.1305  0.1341 -1.1491
 5917SOL    HW229388   3.728   3.042  17.390  0.6696 -1.8791 -0.9951
 5918SOL     OW29389   0.035   3.599  13.589 -0.4652 -0.2718 -0.2688
 5918SOL    HW129390   0.108   3.537  13.582 -0.3243  0.0627 -1.8040
 5918SOL    HW229391   0.092   3.675  13.581 -0.2171 -0.5191 -0.8987
 5919SOL     OW29392   1.514   1.586   7.651 -0.6415  0.1277 -0.2070
 5919SOL    HW129393   1.604   1.601   7.621 -0.4266  1.8477  1.3256
 5919SOL    HW229394   1.480   1.673   7.633  1.1890  1.1712  1.4185
 5920SOL     OW29395   2.281   1.865   7.389  0.2747 -0.4214  0.1726
 5920SOL    HW129396   2.252   1.826   7.472 -0.1598 -0.2447  0.1060
 5920SOL    HW229397   2.313   1.948   7.424  0.5379 -1.1000  1.5289
 5921SOL     OW29398   2.045   0.905  12.453 -0.5419 -0.1620  0.0738
 5921SOL    HW129399   2.054   0.869  12.541  0.7516 -1.2505 -0.5054
 5921SOL    HW229400   2.099   0.844  12.405 -2.4651  0.6051 -3.0803
 5922SOL     OW29401   4.334   4.300   4.341 -0.6151 -0.7928 -0.3808
 5922SOL    HW129402   4.313   4.217   4.385  1.4478 -2.5997 -2.7743
 5922SOL    HW229403   4.245   4.331   4.329 -0.2606  0.4038  0.0885
 5923SOL     OW29404   4.046   2.859   7.806 -0.4584  0.2566  0.6532
 5923SOL    HW129405   4.004   2.929   7.756 -1.0483  0.1082  0.9441
 5923SOL    HW229406   4.074   2.799   7.736 -0.6056  1.1284 -0.1542
 5924SOL     OW29407   0.619   1.402   8.068 -0.4634 -0.6078  0.1353
 5924SOL    HW129408   0.653   1.338   8.131  0.4293  0.4179  0.7082
 5924SOL    HW229409   0.578   1.459   8.133  1.3917 -2.2857  2.7737
 5925SOL     OW29410   0.849   0.661   3.249 -0.0707  0.0629 -0.3365
 5925SOL    HW129411   0.783   0.670   3.179  1.1330  0.7709 -1.3791
 5925SOL    HW229412   0.841   0.568   3.267 -0.7195  0.1627 -0.1196
 5926SOL     OW29413   0.407   2.510   8.482  0.0095  0.5216 -0.1009
 5926SOL    HW129414   0.368   2.544   8.562  0.9841  0.2348  0.5030
 5926SOL    HW229415   0.352   2.432   8.476  0.9658 -0.1059 -0.7646
 5927SOL     OW29416   3.426   4.143   2.791 -0.0202 -0.1928 -0.1446
 5927SOL    HW129417   3.517   4.144   2.762  0.5098 -2.9598  1.4829
 5927SOL    HW229418   3.441   4.108   2.879 -1.9316 -0.4948  0.0633
 5928SOL     OW29419   3.956   2.617   6.741  0.3263  0.6953 -0.5799
 5928SOL    HW129420   3.995   2.539   6.782 -0.6602  1.2413  1.3681
 5928SOL    HW229421   3.992   2.601   6.653  1.1502  0.7326 -0.2537
 5929SOL     OW29422   0.583   2.679   3.902  0.8324  0.2751 -0.4288
 5929SOL    HW129423   0.674   2.704   3.917  0.4959  0.4729  1.2453
 5929SOL    HW229424   0.560   2.630   3.981 -0.3702  0.8648 -0.4100
 5930SOL     OW29425   3.483   3.135   6.490  0.7245 -0.1430 -0.3512
 5930SOL    HW129426   3.449   3.051   6.459  0.5654  0.6401 -2.3074
 5930SOL    HW229427   3.575   3.116   6.509  1.2765  1.4890 -1.3758
 5931SOL     OW29428   2.092   2.778   3.163  0.3350  0.3703  0.0467
 5931SOL    HW129429   2.037   2.758   3.087 -0.0528 -1.0857  0.7250
 5931SOL    HW229430   2.153   2.847   3.135  1.8971 -1.3100 -0.6715
 5932SOL     OW29431   1.765   4.449   6.327  0.8663 -0.0324  0.0196
 5932SOL    HW129432   1.723   4.490   6.403 -0.8055 -1.8472  0.0524
 5932SOL    HW229433   1.816   4.516   6.281  2.2371 -0.9234  0.2392
 5933SOL     OW29434   1.230   0.870   7.159  0.6477 -0.4826  0.5946
 5933SOL    HW129435   1.162   0.803   7.154 -0.8703  1.1108  0.1268
 5933SOL    HW229436   1.292   0.838   7.225  0.5593  0.6400  1.2148
 5934SOL     OW29437   3.690   1.998   2.909  0.3972  0.2191 -0.0527
 5934SOL    HW129438   3.745   1.919   2.905 -2.9519 -2.1706  1.1186
 5934SOL    HW229439   3.741   2.056   2.966  1.6548  0.1868 -1.1418
 5935SOL     OW29440   2.976   0.138   9.121 -0.5277 -0.1204 -0.2090
 5935SOL    HW129441   2.940   0.130   9.209 -0.0039  2.6609  0.2787
 5935SOL    HW229442   3.067   0.155   9.143 -1.3715  2.2912  1.4840
 5936SOL     OW29443   3.154   3.307   8.760 -0.3205  0.0343 -0.0284
 5936SOL    HW129444   3.070   3.340   8.729 -0.6656  0.6441  1.5446
 5936SOL    HW229445   3.201   3.379   8.802  0.2163 -0.1829 -0.2526
 5937SOL     OW29446   2.658   1.938   4.861 -0.4730 -0.1260 -0.7521
 5937SOL    HW129447   2.673   2.012   4.803 -0.6359  0.4787 -0.0149
 5937SOL    HW229448   2.576   1.909   4.819  0.4536 -0.0963 -2.5932
 5938SOL     OW29449   2.352   0.027  17.687 -0.2075 -0.4012  0.0744
 5938SOL    HW129450   2.390   0.044  17.601  0.3044  1.6322  0.7059
 5938SOL    HW229451   2.265   4.736  17.659 -0.0982  0.6944 -1.4120
 5939SOL     OW29452   0.644   1.703  10.359 -0.0558 -0.6355  0.3678
 5939SOL    HW129453   0.666   1.737  10.272  0.0069  1.0815  1.0582
 5939SOL    HW229454   0.605   1.785  10.389 -0.7942 -0.8082 -0.1032
 5940SOL     OW29455   4.636   1.666   3.781 -0.2229  0.1219 -0.4939
 5940SOL    HW129456   4.565   1.655   3.845  1.0883  0.5806  1.0496
 5940SOL    HW229457   4.629   1.584   3.732 -0.6627  0.0778 -0.3629
 5941SOL     OW29458   0.679   1.412   6.592 -0.1283  0.1070  0.7689
 5941SOL    HW129459   0.646   1.405   6.682  0.8887 -2.4606  0.9353
 5941SOL    HW229460   0.758   1.465   6.605 -0.4221  0.6188  0.4724
 5942SOL     OW29461   1.338   0.866  14.418  0.0061  0.0408  0.5059
 5942SOL    HW129462   1.402   0.866  14.489 -1.0202  0.5051  1.4417
 5942SOL    HW229463   1.365   0.789  14.368 -1.2396  1.4100 -2.2209
 5943SOL     OW29464   0.457   4.646   7.341  0.4311 -0.2283  0.0755
 5943SOL    HW129465   0.513   4.648   7.263 -0.6663  1.8067 -0.6578
 5943SOL    HW229466   0.377   4.684   7.305 -0.1122  0.1223  1.6566
 5944SOL     OW29467   0.462   1.507   1.537 -0.3692  0.8482 -0.0744
 5944SOL    HW129468   0.557   1.491   1.543  0.1102  3.6998  0.2691
 5944SOL    HW229469   0.465   1.599   1.511  0.1558  1.3804  1.8683
 5945SOL     OW29470   0.196   1.088  12.987  0.1570 -0.0873 -0.8392
 5945SOL    HW129471   0.251   1.033  12.931 -1.5264 -1.3655 -1.2611
 5945SOL    HW229472   0.223   1.060  13.075  0.6023 -0.9891 -1.2628
 5946SOL     OW29473   4.129   3.783   3.721 -0.0433  0.0740  0.2164
 5946SOL    HW129474   4.138   3.693   3.691  1.6873 -0.2971  1.8724
 5946SOL    HW229475   4.101   3.765   3.811  1.2541 -1.3085  0.3359
 5947SOL     OW29476   1.621   0.116   3.472  0.3513 -0.5399  0.6272
 5947SOL    HW129477   1.614   0.073   3.387 -0.9872 -0.1849  0.5614
 5947SOL    HW229478   1.714   0.136   3.464 -0.1782  1.9128  0.5282
 5948SOL     OW29479   0.603   4.093  10.780 -0.1901  0.4499  0.2396
 5948SOL    HW129480   0.651   4.013  10.759  1.0394  0.8911  1.3498
 5948SOL    HW229481   0.543   4.099  10.706 -0.0155  0.8679  0.1301
 5949SOL     OW29482   1.383   3.720   7.473  0.2165  0.1840  0.4505
 5949SOL    HW129483   1.363   3.782   7.543  0.4852  1.3961 -0.5503
 5949SOL    HW229484   1.411   3.643   7.524  0.3753 -0.0162  0.0561
 5950SOL     OW29485   2.593   1.456   8.848 -0.0005 -0.3018 -0.4921
 5950SOL    HW129486   2.532   1.451   8.922 -1.0346 -1.5689 -1.4194
 5950SOL    HW229487   2.675   1.438   8.893 -0.6275 -0.7058  0.5010
 5951SOL     OW29488   4.365   0.857   9.205  0.2057  0.2164  0.5403
 5951SOL    HW129489   4.412   0.798   9.264  0.2610  0.6935  0.9789
 5951SOL    HW229490   4.313   0.899   9.274  1.9932 -0.6273  2.4149
 5952SOL     OW29491   2.540   0.595   3.879 -0.2250 -0.4025 -0.5540
 5952SOL    HW129492   2.512   0.603   3.788  0.0986 -1.7891 -0.7777
 5952SOL    HW229493   2.550   0.681   3.919 -2.4444 -0.2603 -0.2981
 5953SOL     OW29494   1.533   2.655   7.547 -0.3253  0.2615 -0.8465
 5953SOL    HW129495   1.580   2.593   7.604 -2.0229 -0.7151 -0.5159
 5953SOL    HW229496   1.597   2.723   7.525  1.1998 -0.9213 -0.1189
 5954SOL     OW29497   3.394   4.727   7.147 -0.2805 -0.0618 -1.2180
 5954SOL    HW129498   3.331   4.657   7.131 -0.2088 -0.3281 -0.3429
 5954SOL    HW229499   3.413   0.020   7.059  0.3597 -0.2760 -1.1504
 5955SOL     OW29500   1.239   4.136   0.098  0.1210 -0.1765  0.0171
 5955SOL    HW129501   1.243   4.214   0.042 -1.2658 -0.2983 -0.2513
 5955SOL    HW229502   1.177   4.163   0.165  0.7560 -2.1477  1.3710
 5956SOL     OW29503   0.404   4.432   0.983 -0.2293  0.2296 -0.3454
 5956SOL    HW129504   0.402   4.489   1.059  0.7359 -0.4314  0.1724
 5956SOL    HW229505   0.368   4.488   0.915 -1.4340  0.2355  0.3005
 5957SOL     OW29506   3.639   4.211   9.007  0.0865  0.0701  0.1821
 5957SOL    HW129507   3.637   4.116   9.003 -1.5351  0.1181 -0.3159
 5957SOL    HW229508   3.642   4.231   8.913  0.4477 -0.4069  0.0908
 5958SOL     OW29509   0.927   0.713   9.294  0.9218 -0.1929 -0.3991
 5958SOL    HW129510   0.847   0.760   9.270  0.2550 -0.0017  2.2757
 5958SOL    HW229511   0.978   0.735   9.216  0.2896  0.0697 -0.7372
 5959SOL     OW29512   0.081   2.015   4.535  0.7238 -0.1852 -0.4466
 5959SOL    HW129513   0.124   1.932   4.513  1.6749  0.1742  0.0289
 5959SOL    HW229514   0.046   1.993   4.621  2.9805  1.2807  0.8492
 5960SOL     OW29515   1.667   2.355   7.610  0.2199  0.5564 -0.0850
 5960SOL    HW129516   1.736   2.392   7.665  0.2016  0.2728  0.1284
 5960SOL    HW229517   1.645   2.269   7.647  3.6105  0.6395  2.1330
 5961SOL     OW29518   4.085   0.706  12.871  0.2354  0.0776 -0.3933
 5961SOL    HW129519   4.177   0.716  12.849  0.8815  1.1170  2.8222
 5961SOL    HW229520   4.083   0.643  12.944  0.0916  1.0297  0.4311
 5962SOL     OW29521   0.226   1.693   2.662 -0.0613 -0.1104  0.0533
 5962SOL    HW129522   0.178   1.776   2.662 -0.4488 -0.3308  1.7838
 5962SOL    HW229523   0.217   1.666   2.754 -2.3421 -0.5740 -0.3051
 5963SOL     OW29524   3.718   2.612   4.390 -0.4899  0.2416 -0.3515
 5963SOL    HW129525   3.680   2.697   4.371  0.7614  0.6182 -1.1540
 5963SOL    HW229526   3.786   2.615   4.323  0.7704 -1.8257  0.8234
 5964SOL     OW29527   2.193   3.091   8.382  0.3583  0.8057 -0.5476
 5964SOL    HW129528   2.281   3.054   8.373 -0.8219 -1.6691 -1.9039
 5964SOL    HW229529   2.142   3.023   8.338 -0.5424  0.5566  0.8597
 5965SOL     OW29530   1.256   2.376  12.935  0.3471 -0.0068  0.5442
 5965SOL    HW129531   1.306   2.308  12.889  0.6231 -0.7782  1.9740
 5965SOL    HW229532   1.175   2.383  12.885  0.3856 -1.1026  0.3321
 5966SOL     OW29533   3.918   1.033   4.662  0.1698  0.6146  0.3679
 5966SOL    HW129534   3.860   0.993   4.727 -0.1816  0.2079 -0.1930
 5966SOL    HW229535   3.937   0.958   4.605 -3.5591 -1.7083  2.1751
 5967SOL     OW29536   3.007   4.472   4.569 -0.6895 -0.0912 -0.0849
 5967SOL    HW129537   2.953   4.500   4.643 -1.2526  1.3392 -1.0396
 5967SOL    HW229538   2.954   4.516   4.503 -2.3364 -0.1291  1.1965
 5968SOL     OW29539   1.767   0.491   3.394 -0.4837 -0.2403  1.3196
 5968SOL    HW129540   1.682   0.448   3.405  0.2182 -1.8765  0.3060
 5968SOL    HW229541   1.804   0.458   3.312  1.4735  2.0416  1.2659
 5969SOL     OW29542   4.522   4.453   6.596  0.1196  0.2374 -0.0254
 5969SOL    HW129543   4.488   4.466   6.507  0.8862  2.9971  0.0673
 5969SOL    HW229544   4.494   4.363   6.610  0.4430 -0.1173 -1.5690
 5970SOL     OW29545   4.249   2.673  16.111  0.4635  0.3030 -0.1264
 5970SOL    HW129546   4.237   2.701  16.202  0.0490 -0.2157 -0.0265
 5970SOL    HW229547   4.171   2.713  16.074 -1.3842 -2.0564  1.2672
 5971SOL     OW29548   2.101   1.473   4.041 -0.9229 -0.2581 -0.0645
 5971SOL    HW129549   2.168   1.445   3.978 -0.7600  0.7244 -0.3167
 5971SOL    HW229550   2.153   1.456   4.120 -0.7057  1.9079  0.2602
 5972SOL     OW29551   4.249   1.776   3.690  0.1230  0.2529 -0.0342
 5972SOL    HW129552   4.249   1.700   3.632  0.2859  1.1646 -1.2195
 5972SOL    HW229553   4.158   1.779   3.721  0.2269  0.4563  0.2552
 5973SOL     OW29554   4.427   2.911  13.967 -0.1214  0.1083 -0.4786
 5973SOL    HW129555   4.428   2.820  13.935 -1.8496  0.5418 -1.7589
 5973SOL    HW229556   4.333   2.931  13.974 -0.2418 -0.3673 -0.6955
 5974SOL     OW29557   3.718   1.011   8.354  0.1884  0.2748  0.7084
 5974SOL    HW129558   3.710   1.082   8.418 -0.8071 -0.5181  1.4690
 5974SOL    HW229559   3.715   1.064   8.275  0.5188 -0.5684  0.1363
 5975SOL     OW29560   3.535   1.719   5.036  0.5354 -1.1112 -0.3510
 5975SOL    HW129561   3.569   1.645   4.986  3.1978  1.3548 -2.2539
 5975SOL    HW229562   3.577   1.796   4.997  1.3439 -0.2693  2.1740
 5976SOL     OW29563   4.633   1.163   3.723 -0.4431 -0.2410  0.3715
 5976SOL    HW129564   4.720   1.146   3.686  0.2037 -0.9766  2.2475
 5976SOL    HW229565   4.650   1.104   3.796 -1.5910 -0.5439  0.3980
 5977SOL     OW29566   0.001   2.882   3.353 -0.1289 -0.3277 -0.5749
 5977SOL    HW129567   0.009   2.897   3.447  0.2582 -0.8908 -0.5173
 5977SOL    HW229568   0.092   2.906   3.336 -0.3741 -0.7369 -2.4703
 5978SOL     OW29569   0.112   3.763  10.050  0.4938 -0.2074  0.6550
 5978SOL    HW129570   0.113   3.732  10.140 -1.9571 -0.7666  0.4931
 5978SOL    HW229571   0.125   3.680  10.003 -1.7247 -0.5774  0.6926
 5979SOL     OW29572   3.353   1.263  12.073 -0.0038 -0.3670 -0.9365
 5979SOL    HW129573   3.390   1.258  11.985  0.0085  0.5818 -0.9899
 5979SOL    HW229574   3.346   1.170  12.093  0.3117 -0.1122  0.3412
 5980SOL     OW29575   0.579   0.506  12.817  0.4102 -0.7052  0.1945
 5980SOL    HW129576   0.561   0.441  12.749  1.8606 -0.4353 -0.4350
 5980SOL    HW229577   0.659   0.547  12.787  0.0987 -0.3792 -0.1961
 5981SOL     OW29578   0.326   3.528   6.107  0.1416 -0.2036 -0.0134
 5981SOL    HW129579   0.309   3.437   6.128 -0.7484  0.1046  0.6022
 5981SOL    HW229580   0.294   3.582   6.179  0.9810  2.5440 -1.6763
 5982SOL     OW29581   0.648   2.102  15.917 -0.2420  0.2427  0.3020
 5982SOL    HW129582   0.563   2.132  15.884  0.0102  3.3968  2.4713
 5982SOL    HW229583   0.709   2.143  15.856 -0.8655 -0.5671 -0.8584
 5983SOL     OW29584   3.643   2.810   4.936  0.1099 -0.4226 -0.3112
 5983SOL    HW129585   3.576   2.757   4.979  0.1301  2.1012  2.8454
 5983SOL    HW229586   3.651   2.771   4.849 -2.5420  0.3240 -0.8834
 5984SOL     OW29587   0.137   2.681   8.099 -0.4087  0.3977  0.4090
 5984SOL    HW129588   0.202   2.738   8.141  1.7220 -0.1188 -2.2252
 5984SOL    HW229589   0.133   2.595   8.140 -3.4276 -0.5805 -1.9441
 5985SOL     OW29590   3.141   4.255   5.327 -0.6957 -0.1152 -0.0283
 5985SOL    HW129591   3.115   4.338   5.285 -1.9211 -1.2069 -1.4373
 5985SOL    HW229592   3.069   4.200   5.296  0.4941 -2.5265  1.5476
 5986SOL     OW29593   0.543   0.974   8.435 -0.3147  0.1378 -0.0577
 5986SOL    HW129594   0.542   1.069   8.425 -0.2931  0.0553 -0.8303
 5986SOL    HW229595   0.570   0.969   8.527 -0.2588 -0.3971 -0.1023
 5987SOL     OW29596   0.624   3.146   9.975  0.3154 -0.2437  0.8633
 5987SOL    HW129597   0.615   3.055   9.948  0.4994  0.0213 -0.0884
 5987SOL    HW229598   0.607   3.146  10.070 -0.0578 -1.4087  0.7946
 5988SOL     OW29599   0.639   4.128   1.075  0.2073  0.1737 -0.3290
 5988SOL    HW129600   0.726   4.103   1.107  0.2106  0.4197 -0.1519
 5988SOL    HW229601   0.658   4.199   1.013  1.3445 -1.6304 -2.0463
 5989SOL     OW29602   3.275   4.543   7.837  0.3930  0.3743 -0.1180
 5989SOL    HW129603   3.370   4.547   7.824  0.2167 -0.7223 -1.7815
 5989SOL    HW229604   3.269   4.448   7.848 -2.3478  0.6256  0.5755
 5990SOL     OW29605   0.466   4.355   3.221  0.2883  0.0829  0.4951
 5990SOL    HW129606   0.535   4.293   3.246  2.4117  2.0565 -0.5449
 5990SOL    HW229607   0.400   4.285   3.226 -0.9406  1.1987 -0.1021
 5991SOL     OW29608   1.656   3.276   9.175 -0.6014  0.3144  0.5030
 5991SOL    HW129609   1.575   3.227   9.161 -1.4014  1.9704 -0.7017
 5991SOL    HW229610   1.630   3.351   9.121  0.3385  0.5241  0.3367
 5992SOL     OW29611   0.962   3.607   6.449 -0.0004 -0.1739 -0.0493
 5992SOL    HW129612   1.054   3.581   6.457  0.2402  0.0275 -2.1374
 5992SOL    HW229613   0.947   3.661   6.526 -2.6111  0.5937 -1.1028
 5993SOL     OW29614   3.881   1.440   3.305  0.1862 -0.0725  0.1246
 5993SOL    HW129615   3.882   1.535   3.313  1.2846  0.0692 -1.9152
 5993SOL    HW229616   3.820   1.404   3.370 -1.4644 -0.6159 -1.7247
 5994SOL     OW29617   4.260   1.882   8.374 -0.5306  0.0746 -0.0646
 5994SOL    HW129618   4.292   1.848   8.291  0.9361 -0.6238  0.7840
 5994SOL    HW229619   4.166   1.899   8.370 -0.3311  0.8710 -1.3279
 5995SOL     OW29620   3.507   3.757   8.493 -0.0437  0.1524 -0.2634
 5995SOL    HW129621   3.563   3.820   8.447  0.2890  0.4090  0.4833
 5995SOL    HW229622   3.553   3.756   8.577 -1.1373 -1.1204  0.3014
 5996SOL     OW29623   4.595   1.834   8.355  0.2511  0.5592 -0.2090
 5996SOL    HW129624   4.593   1.742   8.383 -2.7838  0.3349 -1.1374
 5996SOL    HW229625   4.598   1.818   8.260 -1.4627  0.0683 -0.1823
 5997SOL     OW29626   2.824   2.630  17.383 -0.2299  0.0572 -0.0574
 5997SOL    HW129627   2.854   2.666  17.467 -0.9637  0.4069  0.0574
 5997SOL    HW229628   2.891   2.565  17.361  0.9085  0.5190  1.9734
 5998SOL     OW29629   4.349   1.506   1.605  0.4900 -0.3102  0.1979
 5998SOL    HW129630   4.410   1.433   1.619  0.2766 -0.4150  0.5979
 5998SOL    HW229631   4.272   1.452   1.586  1.1081 -1.5852  1.3237
 5999SOL     OW29632   2.652   4.142   3.209 -0.3204  0.1222  0.0032
 5999SOL    HW129633   2.724   4.136   3.146  0.7244  1.2357  1.0993
 5999SOL    HW229634   2.670   4.064   3.261  0.0279 -0.5643 -1.1415
 6000SOL     OW29635   1.632   3.175  11.766  0.6059  0.2394 -0.4463
 6000SOL    HW129636   1.646   3.161  11.860 -0.7179 -0.2918 -0.3243
 6000SOL    HW229637   1.643   3.270  11.763  0.2800  0.2454 -1.3248
 6001SOL     OW29638   0.394   2.024   6.369 -0.2545  0.4460 -0.3689
 6001SOL    HW129639   0.401   1.929   6.357 -0.6492  0.3530  0.1784
 6001SOL    HW229640   0.431   2.020   6.457  0.6901  1.7498 -0.7109
 6002SOL     OW29641   3.507   0.856  14.756  0.2841 -0.4220 -0.0110
 6002SOL    HW129642   3.587   0.803  14.765  0.1685 -0.5590  0.2165
 6002SOL    HW229643   3.511   0.901  14.840 -3.3383  0.4012 -0.3133
 6003SOL     OW29644   0.827   0.937  11.292  0.9657  0.8651  0.1076
 6003SOL    HW129645   0.767   0.993  11.243  2.2862  1.6474 -0.6371
 6003SOL    HW229646   0.820   0.993  11.369  0.9105  1.6104 -0.4270
 6004SOL     OW29647   1.548   4.161   3.743 -0.0708 -0.2429 -0.1858
 6004SOL    HW129648   1.634   4.120   3.748 -0.2417 -0.3295  1.8162
 6004SOL    HW229649   1.560   4.224   3.814  2.1541 -2.1763  1.1179
 6005SOL     OW29650   1.171   1.824   7.759 -0.0265 -0.4203 -0.1884
 6005SOL    HW129651   1.186   1.889   7.690  0.7490  0.0471  0.4202
 6005SOL    HW229652   1.260   1.790   7.760 -0.0634 -0.5142 -0.1877
 6006SOL     OW29653   2.884   3.103   5.403 -0.4102 -0.5836 -0.0092
 6006SOL    HW129654   2.879   3.017   5.444  0.2149 -0.4786  0.2820
 6006SOL    HW229655   2.813   3.105   5.338  1.5197 -0.7998 -2.1144
 6007SOL     OW29656   4.301   4.564   2.603 -0.2664 -0.1221 -0.3582
 6007SOL    HW129657   4.214   4.588   2.635 -0.5991 -1.8525  0.0319
 6007SOL    HW229658   4.295   4.595   2.512 -3.0854  1.5017  0.3889
 6008SOL     OW29659   3.007   2.622   3.792  0.1818 -0.3137  0.6459
 6008SOL    HW129660   2.921   2.611   3.754  0.2184  2.3713 -0.1918
 6008SOL    HW229661   3.004   2.542   3.846  2.8898  0.8570  2.5809
 6009SOL     OW29662   3.682   0.439   4.131 -0.3711  0.3869 -0.1904
 6009SOL    HW129663   3.727   0.452   4.048 -0.0308  2.3030  0.2880
 6009SOL    HW229664   3.656   0.529   4.153 -1.2081 -0.4726  2.3253
 6010SOL     OW29665   3.936   3.378   7.293  0.4316  0.3057  0.0669
 6010SOL    HW129666   3.887   3.429   7.358  1.7060 -0.1308  1.3764
 6010SOL    HW229667   3.904   3.421   7.214 -1.1640 -2.2556 -0.6977
 6011SOL     OW29668   0.282   2.056   7.273 -0.4312 -0.4784 -0.1114
 6011SOL    HW129669   0.305   2.024   7.360  0.4240  1.5780  0.3988
 6011SOL    HW229670   0.237   1.973   7.254 -0.6804 -0.2410 -0.5504
 6012SOL     OW29671   0.196   0.878   7.963 -0.3254 -0.2362  0.0873
 6012SOL    HW129672   0.134   0.939   8.004 -1.2288  0.4623 -2.3229
 6012SOL    HW229673   0.277   0.928   7.959  2.2435 -4.3717 -0.1648
 6013SOL     OW29674   4.179   1.326  10.106 -0.0263  0.5733  0.2978
 6013SOL    HW129675   4.250   1.354  10.164 -1.6418  0.7903  2.1931
 6013SOL    HW229676   4.175   1.233  10.127  1.3645 -0.2791 -3.2154
 6014SOL     OW29677   0.126   0.016   2.486  0.6640 -0.7380 -0.0290
 6014SOL    HW129678   0.104   4.706   2.566  0.9413 -0.5002  0.1937
 6014SOL    HW229679   0.044   0.044   2.446  1.6560  2.9954  0.4755
 6015SOL     OW29680   4.220   0.880  14.636  0.4113  0.1413 -0.0933
 6015SOL    HW129681   4.282   0.906  14.705 -0.0153  0.7735  0.0472
 6015SOL    HW229682   4.188   0.965  14.606 -1.4797 -1.0021 -1.2922
 6016SOL     OW29683   0.493   4.219   3.771 -0.4373 -0.2273 -0.2480
 6016SOL    HW129684   0.583   4.193   3.790 -1.3404 -3.0990  0.0885
 6016SOL    HW229685   0.459   4.229   3.860  0.0974  0.0902 -0.0801
 6017SOL     OW29686   3.704   4.233   7.752  0.3137 -0.2356  0.3607
 6017SOL    HW129687   3.746   4.269   7.829 -0.2622 -1.5936  1.3026
 6017SOL    HW229688   3.675   4.153   7.796 -1.3965  0.5438  0.6629
 6018SOL     OW29689   4.509   2.846   1.407 -0.5048  0.0925 -0.2085
 6018SOL    HW129690   4.523   2.886   1.322 -1.5293  2.8595  0.9271
 6018SOL    HW229691   4.588   2.792   1.412 -1.3930 -1.1108  1.1010
 6019SOL     OW29692   1.169   1.954  13.024 -1.0016  0.1023 -0.6965
 6019SOL    HW129693   1.145   1.987  12.937 -1.9835 -1.9255 -1.1830
 6019SOL    HW229694   1.107   2.001  13.079 -0.1828 -0.6653  0.8682
 6020SOL     OW29695   4.510   0.887   8.224 -0.5661 -0.1894 -0.4652
 6020SOL    HW129696   4.466   0.971   8.235 -0.1780 -0.3568  2.5018
 6020SOL    HW229697   4.592   0.899   8.271  0.5718 -1.1821 -2.2174
 6021SOL     OW29698   1.062   3.875   8.839 -0.2669 -0.6038 -0.0809
 6021SOL    HW129699   1.009   3.816   8.892 -0.3440 -0.5331 -0.0789
 6021SOL    HW229700   1.050   3.842   8.750  0.3228  0.2689 -0.4856
 6022SOL     OW29701   3.620   0.270   5.708  0.5680  0.0321  0.8686
 6022SOL    HW129702   3.643   0.187   5.750 -1.2487  0.0228  1.8671
 6022SOL    HW229703   3.550   0.304   5.765 -1.5244 -1.7712 -0.6273
 6023SOL     OW29704   1.864   0.281   0.299 -0.2661  0.0283 -0.0847
 6023SOL    HW129705   1.790   0.227   0.271 -1.0497  1.7646 -1.3445
 6023SOL    HW229706   1.918   0.283   0.221 -1.2851 -0.7372 -0.8175
 6024SOL     OW29707   1.469   2.860  11.152  0.0713  0.4012 -0.3254
 6024SOL    HW129708   1.392   2.805  11.168  2.3149 -2.6041  0.0760
 6024SOL    HW229709   1.429   2.926  11.095  1.1608 -0.4455 -2.1012
 6025SOL     OW29710   4.681   2.747   9.179 -0.1259  0.4919  0.6417
 6025SOL    HW129711   4.655   2.750   9.087 -1.0982  0.0547  0.8998
 6025SOL    HW229712   4.595   2.730   9.218  0.2770 -1.8860  0.4745
 6026SOL     OW29713   0.838   3.870  17.192  0.0466  0.4183 -0.0202
 6026SOL    HW129714   0.861   3.963  17.192 -3.8715  1.3864  0.1225
 6026SOL    HW229715   0.865   3.841  17.104  1.3243  0.3532  0.3915
 6027SOL     OW29716   3.746   4.618  12.726  0.0431  0.2319  0.2232
 6027SOL    HW129717   3.665   4.584  12.688  0.5767 -0.7826 -0.0049
 6027SOL    HW229718   3.810   4.565  12.679 -0.9652 -0.0284 -0.8641
 6028SOL     OW29719   3.340   2.885  13.972  0.3147 -0.1669 -0.5109
 6028SOL    HW129720   3.259   2.891  13.922 -0.7899 -2.3410  1.0481
 6028SOL    HW229721   3.313   2.905  14.061  1.4274  3.2427 -0.9124
 6029SOL     OW29722   2.907   1.098   2.003 -0.2894  0.5737 -0.3697
 6029SOL    HW129723   2.840   1.165   1.989  1.0140  2.1311  0.8725
 6029SOL    HW229724   2.866   1.033   2.060  3.0680 -1.2622 -0.0593
 6030SOL     OW29725   1.612   3.643   5.368 -0.2855  0.1929 -0.5444
 6030SOL    HW129726   1.676   3.693   5.418 -2.0645  2.1219 -0.2254
 6030SOL    HW229727   1.591   3.702   5.295 -0.4365  1.9108  0.9058
 6031SOL     OW29728   2.739   0.404   5.704  0.4673 -0.6196  0.3817
 6031SOL    HW129729   2.828   0.423   5.734  0.6049 -1.1059  0.2873
 6031SOL    HW229730   2.681   0.476   5.728  1.9326  0.6814 -0.0245
 6032SOL     OW29731   0.943   3.775   6.666 -0.0423 -0.4079 -0.1430
 6032SOL    HW129732   0.853   3.807   6.661 -0.2774 -1.2606 -1.2839
 6032SOL    HW229733   0.985   3.841   6.612  1.6717 -1.7576 -0.4584
 6033SOL     OW29734   2.608   3.352   0.930  0.5523  0.3445 -0.2345
 6033SOL    HW129735   2.520   3.355   0.892 -0.1999  0.1645  1.5116
 6033SOL    HW229736   2.620   3.431   0.983  2.4720  0.2368 -0.4893
 6034SOL     OW29737   0.056   0.934   5.500  0.3888  0.0435  0.5617
 6034SOL    HW129738   0.086   0.904   5.586 -1.2728  1.6455  1.7070
 6034SOL    HW229739   0.022   1.020   5.523 -0.2163 -0.3377  1.1057
 6035SOL     OW29740   1.020   1.003   5.584 -0.0252 -0.2612 -0.0245
 6035SOL    HW129741   1.075   0.929   5.611  2.3655  1.3802 -0.3644
 6035SOL    HW229742   1.009   1.054   5.665 -1.4262 -0.2480 -0.2363
 6036SOL     OW29743   0.520   4.017   7.042  0.0993 -0.5271 -0.0186
 6036SOL    HW129744   0.513   3.982   6.953 -0.5626 -0.1150 -0.1324
 6036SOL    HW229745   0.435   4.061   7.047  0.4495  0.1029  0.2990
 6037SOL     OW29746   0.910   4.102   9.399 -0.5073  0.3222  0.0795
 6037SOL    HW129747   0.891   4.194   9.418  0.2960  0.8616 -1.6792
 6037SOL    HW229748   1.005   4.103   9.390 -0.4663 -1.3161  0.3560
 6038SOL     OW29749   3.732   0.123   2.884 -0.3760  0.1143 -0.3785
 6038SOL    HW129750   3.810   0.172   2.855  0.1547 -0.7088 -0.3573
 6038SOL    HW229751   3.660   0.186   2.889  0.4077  0.8737  1.4943
 6039SOL     OW29752   0.171   0.515   2.800  0.4742 -0.2787  0.4320
 6039SOL    HW129753   0.223   0.560   2.734  1.3695 -1.2671  0.4681
 6039SOL    HW229754   0.171   0.565   2.882  0.2096  0.0769  0.2185
 6040SOL     OW29755   4.688   0.305   3.351  0.0140  0.2268 -0.0442
 6040SOL    HW129756   4.703   0.398   3.333  0.0723  0.0788 -0.7699
 6040SOL    HW229757   4.726   0.289   3.437 -0.7573  0.7598  0.3891
 6041SOL     OW29758   3.229   0.917   8.173 -0.1986 -0.0324  0.2930
 6041SOL    HW129759   3.311   0.869   8.161  0.6818  1.8558 -1.2454
 6041SOL    HW229760   3.229   0.974   8.096  0.7391  0.2013  0.4694
 6042SOL     OW29761   2.257   0.623  16.628  0.5900  0.4374  0.4989
 6042SOL    HW129762   2.286   0.676  16.702  1.5969 -0.0516  0.4596
 6042SOL    HW229763   2.227   0.691  16.568  0.9677  1.2425  1.2216
 6043SOL     OW29764   3.202   0.306   0.661 -0.6915  0.1189 -0.3547
 6043SOL    HW129765   3.250   0.279   0.582  1.2870  0.8143  0.6313
 6043SOL    HW229766   3.152   0.381   0.628 -1.8897  0.0599  1.3645
 6044SOL     OW29767   0.600   1.628   8.248 -0.1297  0.2268  0.0033
 6044SOL    HW129768   0.655   1.640   8.171 -0.1798 -2.1503 -0.4019
 6044SOL    HW229769   0.656   1.584   8.312  1.2032  2.0493  0.0950
 6045SOL     OW29770   4.054   2.718   9.384 -0.2710 -0.2810 -0.0821
 6045SOL    HW129771   4.005   2.709   9.465  0.7581  0.5748  0.6512
 6045SOL    HW229772   4.004   2.790   9.345 -0.3494  0.0326  0.5838
 6046SOL     OW29773   1.151   4.524  10.257 -0.3135 -0.1515  0.4182
 6046SOL    HW129774   1.128   4.551  10.168  1.0840 -4.0175 -1.1206
 6046SOL    HW229775   1.101   4.586  10.310 -3.1503 -1.0993 -1.1850
 6047SOL     OW29776   3.950   0.095   2.217  0.3151  0.0141  0.4260
 6047SOL    HW129777   4.012   0.099   2.144 -1.5888  2.0340 -1.0716
 6047SOL    HW229778   4.005   0.034   2.266  1.3109  1.0974  0.6584
 6048SOL     OW29779   4.486   1.114   6.253  0.3117 -0.0751  0.4868
 6048SOL    HW129780   4.463   1.033   6.208  0.0236  0.8122 -0.9497
 6048SOL    HW229781   4.466   1.177   6.184  1.7836  1.2358  1.2586
 6049SOL     OW29782   0.733   1.158  13.432  0.2177  0.2040  0.1180
 6049SOL    HW129783   0.805   1.220  13.422 -0.3508  0.2956 -3.5002
 6049SOL    HW229784   0.775   1.076  13.458 -3.1248 -0.9617  1.9096
 6050SOL     OW29785   0.148   3.209   9.424  0.4296 -0.4761  0.0292
 6050SOL    HW129786   0.226   3.255   9.456 -0.1365  2.0474 -2.2489
 6050SOL    HW229787   0.191   3.143   9.368  0.6923  1.4008 -1.9669
 6051SOL     OW29788   3.361   1.301   2.391  0.1882 -0.3842 -0.1409
 6051SOL    HW129789   3.393   1.219   2.354  1.9964  0.4207 -0.3679
 6051SOL    HW229790   3.441   1.353   2.404 -1.3614  1.7847  0.7213
 6052SOL     OW29791   1.840   2.715   9.519  0.1229  0.5235  0.7158
 6052SOL    HW129792   1.891   2.795   9.529 -1.3789  1.7571 -1.4319
 6052SOL    HW229793   1.909   2.648   9.518  0.8916  1.3330 -1.2672
 6053SOL     OW29794   0.678   1.403   0.437  0.5076 -0.5779 -0.3217
 6053SOL    HW129795   0.609   1.340   0.457 -0.7791  0.9846  0.1861
 6053SOL    HW229796   0.702   1.385   0.347  1.6414  0.0892 -0.1451
 6054SOL     OW29797   2.336   0.757   5.155 -0.0726 -0.3253 -0.7408
 6054SOL    HW129798   2.341   0.664   5.174 -0.2603 -0.1380  0.2239
 6054SOL    HW229799   2.427   0.784   5.143 -0.1453 -0.3934 -1.4257
 6055SOL     OW29800   2.581   3.667   7.458  0.2803 -0.6146  0.2507
 6055SOL    HW129801   2.551   3.657   7.549 -2.5221 -0.4722 -0.6693
 6055SOL    HW229802   2.531   3.601   7.411 -1.2259  0.4135  0.4088
 6056SOL     OW29803   2.899   3.625   3.394  0.1127 -0.6625 -0.6608
 6056SOL    HW129804   2.898   3.672   3.477  3.4404 -1.1656 -0.3061
 6056SOL    HW229805   2.938   3.543   3.424  2.3791  0.9335  0.8131
 6057SOL     OW29806   3.296   3.091  10.556  0.4231  0.1945  0.0189
 6057SOL    HW129807   3.231   3.038  10.508 -0.8965  1.4307  0.4512
 6057SOL    HW229808   3.344   3.031  10.613  1.2600 -0.6353 -1.5420
 6058SOL     OW29809   0.919   2.595   6.487 -0.2539  0.2816 -0.3485
 6058SOL    HW129810   0.930   2.654   6.561  0.1170  0.4088 -0.5048
 6058SOL    HW229811   0.890   2.650   6.415  2.5212  0.5424 -1.2729
 6059SOL     OW29812   1.987   2.753   2.917 -0.1867  0.4230  0.3983
 6059SOL    HW129813   1.980   2.786   2.828 -0.6636 -0.5134  0.0872
 6059SOL    HW229814   2.000   2.658   2.915 -2.2856  0.1187  0.3229
 6060SOL     OW29815   1.551   2.854   6.617 -0.6944  0.3440  0.2897
 6060SOL    HW129816   1.625   2.793   6.612 -1.4695 -0.7338  1.8510
 6060SOL    HW229817   1.560   2.908   6.539  1.1088 -1.6497 -0.8760
 6061SOL     OW29818   0.286   0.624   4.331  0.2179 -0.1330 -0.8009
 6061SOL    HW129819   0.242   0.546   4.298  1.8097 -1.7965  0.9839
 6061SOL    HW229820   0.375   0.595   4.312  0.7343  0.7214  0.3237
 6062SOL     OW29821   1.128   3.887  16.997  0.6116 -0.5630  0.4111
 6062SOL    HW129822   1.084   3.958  17.044  0.4980  2.2673 -4.0063
 6062SOL    HW229823   1.215   3.925  16.985 -1.0400  2.5278 -1.8723
 6063SOL     OW29824   3.091   1.376   8.897  0.0279 -0.3451 -0.5500
 6063SOL    HW129825   3.095   1.372   8.993  0.4272  1.4289 -0.4975
 6063SOL    HW229826   3.044   1.298   8.866 -0.0755 -0.1822 -0.8063
 6064SOL     OW29827   4.710   0.873   5.103 -0.4879 -0.0030 -0.2042
 6064SOL    HW129828   4.621   0.840   5.121 -1.0164  2.5231  1.6921
 6064SOL    HW229829   0.024   0.797   5.077 -0.9789  0.3294 -2.1515
 6065SOL     OW29830   2.335   2.156   5.099 -0.0051  0.1191  0.0109
 6065SOL    HW129831   2.395   2.091   5.061  1.4861  1.8665 -0.6338
 6065SOL    HW229832   2.406   2.217   5.120 -1.1145  1.6236 -0.6537
 6066SOL     OW29833   4.305   2.561  12.367 -0.6819 -0.6319 -0.7653
 6066SOL    HW129834   4.284   2.507  12.443 -1.0974  0.2954 -0.2307
 6066SOL    HW229835   4.333   2.640  12.413 -0.7376 -1.0805  0.0243
 6067SOL     OW29836   1.801   4.060  10.016 -0.1057  0.3829  0.2860
 6067SOL    HW129837   1.887   4.093  10.044  0.3555 -0.5847  0.0316
 6067SOL    HW229838   1.744   4.116  10.068  0.2928  0.5344  0.5643
 6068SOL     OW29839   4.290   3.657   7.475 -0.4369  0.0890 -0.0907
 6068SOL    HW129840   4.287   3.574   7.522  2.5230  0.1357  0.1827
 6068SOL    HW229841   4.355   3.625   7.412 -1.6782  0.0835 -1.3641
 6069SOL     OW29842   3.879   2.980   1.260  0.0422 -0.4313 -0.5939
 6069SOL    HW129843   3.784   2.975   1.274 -0.1357  0.4779 -1.5073
 6069SOL    HW229844   3.914   2.979   1.349 -0.6450  1.2813 -0.3096
 6070SOL     OW29845   1.628   0.307  14.878 -0.1910  0.0377 -0.7886
 6070SOL    HW129846   1.571   0.230  14.871 -0.0133 -0.0386 -1.3603
 6070SOL    HW229847   1.693   0.284  14.944  0.4735 -3.1843 -2.6047
 6071SOL     OW29848   3.616   4.460   7.375  0.2453 -0.4547  1.0348
 6071SOL    HW129849   3.527   4.457   7.340 -0.2716 -0.3612  2.3399
 6071SOL    HW229850   3.585   4.466   7.465 -0.6457  0.6037  0.6561
 6072SOL     OW29851   3.564   2.043  16.529  0.0577  0.0767 -0.2081
 6072SOL    HW129852   3.620   2.101  16.478 -2.1145  1.4153 -1.1017
 6072SOL    HW229853   3.620   2.012  16.600 -0.8693  1.3583  1.0969
 6073SOL     OW29854   0.424   4.518   3.550 -0.7055 -0.2959 -0.3646
 6073SOL    HW129855   0.420   4.531   3.455  2.0960  0.0246 -0.4565
 6073SOL    HW229856   0.511   4.557   3.558 -0.7705 -0.2242 -0.0136
 6074SOL     OW29857   4.514   4.169   4.080 -0.0412  0.8661  0.0981
 6074SOL    HW129858   4.550   4.091   4.038 -0.2913  1.1052 -0.5585
 6074SOL    HW229859   4.426   4.137   4.101  1.7100 -2.8115  1.8884
 6075SOL     OW29860   1.558   3.003   6.390 -0.2948 -0.4374 -0.2397
 6075SOL    HW129861   1.524   3.026   6.304  2.2149  2.5069 -0.4306
 6075SOL    HW229862   1.601   3.081   6.427  0.5722 -0.9743 -0.1117
 6076SOL     OW29863   2.580   3.945   7.468  0.0058  0.3663 -0.8977
 6076SOL    HW129864   2.606   3.854   7.451  0.9137  0.2351  1.1847
 6076SOL    HW229865   2.510   3.948   7.403  0.3906 -0.5184 -1.3539
 6077SOL     OW29866   2.325   3.570   2.085 -0.3088 -0.5074  0.7300
 6077SOL    HW129867   2.232   3.573   2.105 -0.3190  1.7256  0.4093
 6077SOL    HW229868   2.367   3.603   2.165  1.1984  1.5223 -0.9014
 6078SOL     OW29869   4.188   3.501   7.068 -0.5864 -0.1749 -0.0911
 6078SOL    HW129870   4.129   3.561   7.114 -0.1420  0.7815 -0.7758
 6078SOL    HW229871   4.121   3.473   7.006 -0.9115 -0.0109  0.1856
 6079SOL     OW29872   2.240   3.908   8.651 -0.0473  0.2771  0.0283
 6079SOL    HW129873   2.185   3.862   8.715 -1.8155  1.6346 -0.5024
 6079SOL    HW229874   2.243   3.860   8.568 -2.2661 -0.5267  0.3973
 6080SOL     OW29875   2.382   1.993   9.330  0.1311 -0.3738 -0.0009
 6080SOL    HW129876   2.387   1.898   9.325 -1.8523 -0.5887  1.8340
 6080SOL    HW229877   2.309   2.004   9.391 -0.9278  0.5619 -1.4564
 6081SOL     OW29878   3.118   4.309   6.862  0.2405 -0.6856  0.3366
 6081SOL    HW129879   3.049   4.276   6.804  1.2853 -0.4176 -1.0620
 6081SOL    HW229880   3.126   4.224   6.905  1.1824 -1.6719 -1.7984
 6082SOL     OW29881   3.286   0.878   7.841 -0.2679  0.2299 -0.0458
 6082SOL    HW129882   3.370   0.833   7.844 -0.3004  0.1767  0.0423
 6082SOL    HW229883   3.220   0.809   7.842 -0.8232  0.8378  3.0011
 6083SOL     OW29884   2.297   1.474   8.429  0.3156 -0.2952 -0.2946
 6083SOL    HW129885   2.308   1.425   8.348  1.4925 -0.8365  0.1964
 6083SOL    HW229886   2.217   1.432   8.463  0.5981 -0.7032 -0.1356
 6084SOL     OW29887   1.545   1.228  13.739 -0.5081 -0.0313 -0.5201
 6084SOL    HW129888   1.590   1.264  13.815 -2.7900 -0.3132  0.9434
 6084SOL    HW229889   1.550   1.301  13.676 -1.4895  1.1693  0.7802
 6085SOL     OW29890   4.135   1.188   7.781 -0.5483 -0.6271 -0.5081
 6085SOL    HW129891   4.091   1.149   7.705  0.0444 -0.4594 -0.9306
 6085SOL    HW229892   4.216   1.137   7.773 -0.8811 -1.0767 -1.0327
 6086SOL     OW29893   1.129   3.959   2.185 -0.0530  0.0740  0.0938
 6086SOL    HW129894   1.037   3.941   2.164  0.0360 -0.1150 -0.1312
 6086SOL    HW229895   1.108   4.014   2.261  1.7709  0.0891  0.5955
 6087SOL     OW29896   2.409   1.359   7.561  0.1840 -0.2154  0.3962
 6087SOL    HW129897   2.427   1.437   7.614 -0.1446  0.5121 -0.5886
 6087SOL    HW229898   2.490   1.310   7.578 -0.4859 -1.4826 -0.0696
 6088SOL     OW29899   4.033   0.919  11.650  0.5357 -0.2287 -0.5388
 6088SOL    HW129900   4.043   0.838  11.600 -1.9723 -0.5223 -0.5428
 6088SOL    HW229901   4.068   0.979  11.585 -1.8325  0.5608 -1.0722
 6089SOL     OW29902   1.665   0.025   0.554 -0.3425  0.1099 -0.3948
 6089SOL    HW129903   1.644   0.005   0.645  2.2923 -1.2668 -0.1005
 6089SOL    HW229904   1.580   0.062   0.531 -0.8594 -0.9163 -0.1547
 6090SOL     OW29905   3.306   0.020  13.880  0.3843 -0.2296 -0.5504
 6090SOL    HW129906   3.357   4.722  13.953 -0.8570 -1.7382 -0.4019
 6090SOL    HW229907   3.371   0.048  13.817  0.6087 -1.0196 -0.6692
 6091SOL     OW29908   2.082   0.617   7.511 -0.0758  0.1906 -0.1739
 6091SOL    HW129909   2.106   0.568   7.433 -1.5032  1.9864 -1.7350
 6091SOL    HW229910   2.164   0.635   7.557 -0.8159 -0.9212  1.6251
 6092SOL     OW29911   3.223   4.037   1.979  0.3488 -0.6325 -0.1738
 6092SOL    HW129912   3.211   4.008   1.889 -0.6082 -1.5419  0.2534
 6092SOL    HW229913   3.218   3.954   2.026 -1.8150  0.3116  1.2564
 6093SOL     OW29914   1.050   2.735   3.287  0.7051 -0.2197 -0.8363
 6093SOL    HW129915   1.135   2.762   3.252 -0.0961  4.2821  0.7142
 6093SOL    HW229916   1.069   2.710   3.377 -1.0780 -1.4549 -0.8263
 6094SOL     OW29917   4.403   3.981  11.357  0.0865 -0.3172 -0.0722
 6094SOL    HW129918   4.409   4.043  11.284 -0.5159  1.5985  1.4855
 6094SOL    HW229919   4.479   3.997  11.414 -0.1090 -0.5051  0.2422
 6095SOL     OW29920   0.764   0.432   2.325  0.0400  0.1563  0.0319
 6095SOL    HW129921   0.733   0.441   2.235  0.6171  1.8591 -0.0122
 6095SOL    HW229922   0.684   0.460   2.369  0.1413  0.0445  0.2857
 6096SOL     OW29923   0.472   2.545   6.641  0.5131 -0.0517  0.1267
 6096SOL    HW129924   0.410   2.495   6.694  0.4300  0.4554  0.5182
 6096SOL    HW229925   0.419   2.612   6.599 -0.5575 -0.1666  1.3013
 6097SOL     OW29926   0.431   3.162   7.745 -0.4422  0.5406  0.1645
 6097SOL    HW129927   0.341   3.135   7.731 -0.6503  0.4785  1.6819
 6097SOL    HW229928   0.478   3.079   7.733 -1.7480 -0.0396 -0.9369
 6098SOL     OW29929   3.404   3.120   7.152  0.6277  0.4283 -0.6745
 6098SOL    HW129930   3.334   3.122   7.085  0.2962  1.4955 -0.2962
 6098SOL    HW229931   3.470   3.066   7.110  0.8481 -0.1287  0.4158
 6099SOL     OW29932   1.317   1.726  15.296 -0.4355  0.4979  0.0685
 6099SOL    HW129933   1.289   1.644  15.255  2.6383  0.1566 -1.3398
 6099SOL    HW229934   1.233   1.753  15.334 -0.9001  0.6256 -1.0670
 6100SOL     OW29935   0.836   4.730   8.055  0.0523  0.3729 -0.3699
 6100SOL    HW129936   0.925   0.028   8.048  0.1599  0.2250  0.3042
 6100SOL    HW229937   0.820   0.021   8.145  1.9392  0.6785 -0.1380
 6101SOL     OW29938   0.262   3.404   3.053  0.1088 -0.3362  0.7705
 6101SOL    HW129939   0.331   3.354   3.009  1.5461 -0.6506  3.3294
 6101SOL    HW229940   0.183   3.359   3.025  0.0500  1.3723 -1.8080
 6102SOL     OW29941   1.057   4.264  10.257 -0.0750  0.0397 -0.1439
 6102SOL    HW129942   1.117   4.233  10.324 -2.0787 -0.3750  1.4609
 6102SOL    HW229943   1.084   4.356  10.256 -0.8136  0.2621  0.6556
 6103SOL     OW29944   1.760   1.176  15.740  0.0012 -0.7253 -0.2911
 6103SOL    HW129945   1.730   1.246  15.683 -0.9449 -0.7571  0.1818
 6103SOL    HW229946   1.835   1.220  15.780  0.4109 -3.5006  1.9567
 6104SOL     OW29947   0.730   0.378  15.604 -0.0210  0.2289  0.3070
 6104SOL    HW129948   0.798   0.438  15.573 -2.1144  1.0127 -2.8482
 6104SOL    HW229949   0.729   0.401  15.697 -0.1788 -0.2528  0.4200
 6105SOL     OW29950   0.184   3.054  10.557  0.1093  0.4402  0.0460
 6105SOL    HW129951   0.138   3.135  10.536 -0.2918  0.6396  1.7683
 6105SOL    HW229952   0.242   3.089  10.624  0.6989 -1.0563  0.3064
 6106SOL     OW29953   0.265   1.195   6.969 -0.2956 -0.0623  0.2145
 6106SOL    HW129954   0.239   1.272   6.918  0.1300 -0.4272 -0.5593
 6106SOL    HW229955   0.315   1.139   6.910 -0.4330 -0.1044  0.1381
 6107SOL     OW29956   3.590   3.466  11.821  0.0225 -0.0327 -0.5639
 6107SOL    HW129957   3.599   3.560  11.834 -0.7272  0.0546 -0.6775
 6107SOL    HW229958   3.662   3.433  11.876  0.5843 -1.5481 -2.2108
 6108SOL     OW29959   4.262   0.569  16.588 -0.2624  0.0997  0.2519
 6108SOL    HW129960   4.207   0.504  16.633 -1.1941  1.1740  0.6899
 6108SOL    HW229961   4.248   0.655  16.628  1.2527  0.7840 -0.6881
 6109SOL     OW29962   0.552   1.609   2.031  0.5709 -0.0305 -0.1071
 6109SOL    HW129963   0.494   1.568   1.967 -0.1747  1.0257 -0.1109
 6109SOL    HW229964   0.625   1.646   1.981  1.2356 -0.8502  0.2520
 6110SOL     OW29965   3.203   4.317   3.409 -0.4567 -0.2366 -0.5431
 6110SOL    HW129966   3.158   4.375   3.470  2.4589  0.4212  0.9489
 6110SOL    HW229967   3.246   4.376   3.348 -0.5093 -0.6366 -0.9680
 6111SOL     OW29968   0.818   0.378   4.030 -0.4801  0.6374  0.4015
 6111SOL    HW129969   0.761   0.320   4.081  0.1271  0.1551  0.5318
 6111SOL    HW229970   0.894   0.321   4.019 -0.8494  0.1138  0.6110
 6112SOL     OW29971   3.938   0.825   7.585  0.1425 -0.0556 -0.1922
 6112SOL    HW129972   3.889   0.752   7.546  1.5820 -1.4680  0.6832
 6112SOL    HW229973   3.938   0.801   7.677  2.1419  2.0046  0.3256
 6113SOL     OW29974   3.275   0.741   7.413  0.1491 -0.4282  0.2819
 6113SOL    HW129975   3.296   0.657   7.454  3.3915 -0.4910 -1.5313
 6113SOL    HW229976   3.361   0.773   7.386 -0.2374 -0.6205 -1.1466
 6114SOL     OW29977   2.355   1.034   6.610 -0.0958  0.4526  0.1076
 6114SOL    HW129978   2.320   0.996   6.690  0.7351  0.0605  0.2850
 6114SOL    HW229979   2.300   0.996   6.541  0.0411  0.3206  0.0688
 6115SOL     OW29980   4.149   2.139   4.574 -0.3244  0.4179  0.1667
 6115SOL    HW129981   4.240   2.114   4.557  0.1817  2.6886 -0.5360
 6115SOL    HW229982   4.106   2.065   4.532  0.1653 -0.0386  0.4821
 6116SOL     OW29983   2.113   0.863   8.299 -0.2685  0.0340  0.1243
 6116SOL    HW129984   2.089   0.862   8.392 -0.5470  0.6019  0.0564
 6116SOL    HW229985   2.092   0.772   8.276  0.8101  0.5849 -2.9933
 6117SOL     OW29986   2.303   1.897   6.062  0.1187 -0.0541 -0.2390
 6117SOL    HW129987   2.210   1.891   6.039  0.1667  0.0036 -0.4523
 6117SOL    HW229988   2.341   1.810   6.061 -2.8303 -1.3419 -1.9691
 6118SOL     OW29989   4.642   4.146   5.355  0.8649  0.0183  0.4065
 6118SOL    HW129990   4.678   4.087   5.289 -1.5021 -0.1657 -0.7257
 6118SOL    HW229991   4.636   4.230   5.311  4.8475  1.2151  2.1142
 6119SOL     OW29992   0.689   0.546   5.331  0.1041 -0.3098  0.2403
 6119SOL    HW129993   0.771   0.520   5.372  0.5214  0.7640  0.1007
 6119SOL    HW229994   0.629   0.509   5.396 -0.8494 -0.7445 -0.8892
 6120SOL     OW29995   1.828   3.405   4.286 -0.1478  0.3862  0.2252
 6120SOL    HW129996   1.742   3.388   4.248 -0.3102  3.2548 -0.6339
 6120SOL    HW229997   1.873   3.463   4.225 -3.2694  1.5971 -0.8696
 6121SOL     OW29998   1.036   0.441   6.674  0.4291  0.1816 -0.4460
 6121SOL    HW129999   0.969   0.427   6.741  0.0454  1.5065 -0.5729
 6121SOL    HW230000   1.105   0.486   6.723  1.1377  0.2418 -1.5014
 6122SOL     OW30001   2.825   2.186   0.283 -0.2007  0.5058 -0.1319
 6122SOL    HW130002   2.795   2.103   0.247  0.6790  0.1347 -0.0143
 6122SOL    HW230003   2.818   2.173   0.378  0.8199  3.7576  0.3899
 6123SOL     OW30004   0.530   1.752  17.346 -0.2536 -0.6963 -0.3104
 6123SOL    HW130005   0.541   1.657  17.338 -2.4488 -0.9873  0.1225
 6123SOL    HW230006   0.569   1.781  17.264  0.9868 -2.2553 -0.2582
 6124SOL     OW30007   0.224   1.227  11.919 -0.0749  0.2426 -0.1032
 6124SOL    HW130008   0.266   1.150  11.882 -0.2830  0.3008 -0.4621
 6124SOL    HW230009   0.193   1.199  12.005  1.3726 -1.9975 -0.3263
 6125SOL     OW30010   1.007   3.392  10.654 -0.0947  0.2158 -0.0877
 6125SOL    HW130011   0.914   3.373  10.651 -0.4458  1.6512  1.7891
 6125SOL    HW230012   1.024   3.410  10.746  0.8264 -1.2107  0.0195
 6126SOL     OW30013   3.491   1.199  11.823  0.1627 -0.5301 -0.2916
 6126SOL    HW130014   3.439   1.222  11.745 -2.6214 -0.5741  1.5499
 6126SOL    HW230015   3.538   1.126  11.784 -0.0293 -1.4091  1.1317
 6127SOL     OW30016   0.377   2.452   1.696 -0.0817  0.0426 -0.4633
 6127SOL    HW130017   0.437   2.524   1.676 -0.1214  0.0565 -0.5304
 6127SOL    HW230018   0.364   2.424   1.606 -2.1270 -0.8618  0.1157
 6128SOL     OW30019   1.077   2.974   9.868  0.4574  0.1915  0.9183
 6128SOL    HW130020   1.082   2.893   9.920 -1.1072 -0.1105  0.5917
 6128SOL    HW230021   1.002   3.020   9.904 -0.7715 -0.9924 -0.1085
 6129SOL     OW30022   0.983   0.801   4.794 -0.7923 -0.4235 -0.2231
 6129SOL    HW130023   1.062   0.842   4.760  0.1533 -0.7873  1.5655
 6129SOL    HW230024   0.966   0.870   4.859  3.1147 -1.0766  1.4655
 6130SOL     OW30025   4.146   1.416   5.425  0.1817 -0.0426 -0.3316
 6130SOL    HW130026   4.156   1.324   5.400 -0.2947  0.1267 -1.1747
 6130SOL    HW230027   4.060   1.419   5.468 -0.5019 -1.1575 -1.6295
 6131SOL     OW30028   3.566   3.521   3.476 -0.5531 -0.0841  0.2624
 6131SOL    HW130029   3.589   3.468   3.552 -1.4711  0.6218  1.0430
 6131SOL    HW230030   3.608   3.475   3.404 -0.7219 -1.5643  1.1216
 6132SOL     OW30031   3.059   4.668   4.951 -0.1513 -0.2879  0.0702
 6132SOL    HW130032   2.984   4.627   4.908 -0.0915 -1.7137  1.3180
 6132SOL    HW230033   3.051   0.012   4.901 -0.6534 -0.1039  0.4408
 6133SOL     OW30034   3.223   3.772   7.038  0.0783 -0.0027  0.0481
 6133SOL    HW130035   3.133   3.745   7.021  0.2401 -1.3925  1.4211
 6133SOL    HW230036   3.226   3.765   7.134 -1.7269 -1.2203  0.0050
 6134SOL     OW30037   3.930   0.422   9.292  0.1377  0.1602  0.1273
 6134SOL    HW130038   4.019   0.445   9.316 -0.4130  0.9929  1.4030
 6134SOL    HW230039   3.886   0.502   9.320  0.3345  0.0189  0.8474
 6135SOL     OW30040   1.574   3.524  12.195 -0.3689 -0.2018  0.1568
 6135SOL    HW130041   1.645   3.517  12.260 -0.6977  0.8284  0.6280
 6135SOL    HW230042   1.512   3.460  12.230 -1.5266  0.6882 -0.2662
 6136SOL     OW30043   0.646   4.154   9.891 -0.1389 -0.3554 -0.0508
 6136SOL    HW130044   0.675   4.172   9.802 -1.0799  1.5153  0.0142
 6136SOL    HW230045   0.555   4.181   9.873  0.8900  2.8994 -0.4463
 6137SOL     OW30046   3.420   4.349   4.815  1.0009  0.3343 -0.2676
 6137SOL    HW130047   3.338   4.302   4.803  0.0630  1.9914 -0.3526
 6137SOL    HW230048   3.404   4.408   4.889  1.6035  0.5317 -0.2929
 6138SOL     OW30049   1.562   2.805   7.886 -0.0231  0.1540 -0.2397
 6138SOL    HW130050   1.579   2.841   7.973 -3.3400  1.5091 -0.1811
 6138SOL    HW230051   1.508   2.729   7.906 -0.1859 -0.0115 -1.2738
 6139SOL     OW30052   4.103   0.473   2.997 -0.2516 -0.2696 -0.0554
 6139SOL    HW130053   4.072   0.484   3.087 -1.4059 -2.2071 -0.2114
 6139SOL    HW230054   4.195   0.448   3.007  0.2413  1.5900 -0.0234
 6140SOL     OW30055   1.912   1.513   7.093 -0.0346  0.7183 -0.5809
 6140SOL    HW130056   1.976   1.563   7.143 -1.6943  0.0703  2.1825
 6140SOL    HW230057   1.978   1.449   7.063 -0.5999 -1.0569  1.9434
 6141SOL     OW30058   2.661   1.571   4.797 -0.0410 -1.1084  0.3615
 6141SOL    HW130059   2.636   1.580   4.889  1.9910  2.5486  0.5719
 6141SOL    HW230060   2.677   1.477   4.791 -1.2246 -1.2221 -0.7992
 6142SOL     OW30061   0.274   2.640  17.060 -0.2119  0.2474  0.0835
 6142SOL    HW130062   0.193   2.604  17.096 -1.1643  0.9387 -1.3789
 6142SOL    HW230063   0.296   2.571  16.998  0.5338  3.0161 -2.7610
 6143SOL     OW30064   0.638   4.064   1.920  1.1188  0.1235  0.5006
 6143SOL    HW130065   0.626   4.114   2.001 -1.8234  1.8732 -0.9803
 6143SOL    HW230066   0.546   4.055   1.895  1.2286 -3.0439  1.2816
 6144SOL     OW30067   1.065   4.214   2.911  0.1797  0.2196 -0.2083
 6144SOL    HW130068   1.009   4.212   2.989 -0.7331 -0.0668 -0.8705
 6144SOL    HW230069   1.116   4.291   2.939 -1.9821  1.3791  0.5291
 6145SOL     OW30070   4.304   1.544   8.409 -0.6199 -0.2914 -0.6334
 6145SOL    HW130071   4.227   1.507   8.366  0.2984 -0.6597 -1.9635
 6145SOL    HW230072   4.337   1.592   8.333 -1.3124  0.2740 -0.5793
 6146SOL     OW30073   2.553   2.355   0.986 -0.0051 -0.7643  0.0099
 6146SOL    HW130074   2.469   2.367   0.943 -0.2687  2.0898  1.3017
 6146SOL    HW230075   2.559   2.436   1.038  0.1123 -0.7254 -0.0646
 6147SOL     OW30076   0.289   3.891   0.246 -0.1272  0.3191  0.4186
 6147SOL    HW130077   0.257   3.904   0.335  2.1079  0.0377  1.2546
 6147SOL    HW230078   0.327   3.804   0.262 -2.1696 -0.5897  0.2980
 6148SOL     OW30079   1.490   3.272   6.783 -0.0833  0.2059 -0.1836
 6148SOL    HW130080   1.429   3.329   6.735  0.8486  2.2264  1.0355
 6148SOL    HW230081   1.427   3.242   6.848  0.8740 -0.5118  0.4051
 6149SOL     OW30082   4.397   1.551   9.344 -0.7905  0.2699  0.3020
 6149SOL    HW130083   4.305   1.560   9.370 -0.7123  0.8177  0.3776
 6149SOL    HW230084   4.399   1.609   9.268  0.8737  1.3930  1.2185
 6150SOL     OW30085   2.494   3.915  15.509 -0.0342 -1.0473  0.1320
 6150SOL    HW130086   2.469   3.967  15.433 -0.0450  0.7582  1.3664
 6150SOL    HW230087   2.480   3.984  15.574  0.1303 -0.0130 -0.9452
 6151SOL     OW30088   3.430   2.792   6.801  0.0812 -0.1391 -0.1094
 6151SOL    HW130089   3.418   2.758   6.890 -0.1109  1.3331  0.4270
 6151SOL    HW230090   3.426   2.886   6.820 -1.1997 -0.3516  0.6608
 6152SOL     OW30091   3.994   1.192   5.642  0.0736 -0.4316  0.8113
 6152SOL    HW130092   3.927   1.246   5.598 -0.1139 -2.1156 -0.9867
 6152SOL    HW230093   4.043   1.157   5.567 -0.6318 -1.3530  0.7739
 6153SOL     OW30094   4.353   0.057  16.873  0.5617  0.0529  0.2059
 6153SOL    HW130095   4.323   4.705  16.884  4.4364 -1.3605 -0.8431
 6153SOL    HW230096   4.366   0.086  16.964 -0.4518 -1.7015  0.9113
 6154SOL     OW30097   0.682   2.559   7.802  0.3486 -0.0107  0.5597
 6154SOL    HW130098   0.645   2.557   7.891  0.4849  1.3885  0.6567
 6154SOL    HW230099   0.777   2.569   7.810  0.2661  1.0805  0.2100
 6155SOL     OW30100   1.192   3.651   2.234  0.1797  0.3355 -0.3377
 6155SOL    HW130101   1.167   3.741   2.257  0.2955 -0.2268  1.9595
 6155SOL    HW230102   1.286   3.665   2.220  0.3378  0.0805  0.4847
 6156SOL     OW30103   2.269   2.095  10.190  0.2817  0.0870 -0.0569
 6156SOL    HW130104   2.184   2.054  10.208 -0.3560  0.9159 -1.2143
 6156SOL    HW230105   2.324   2.017  10.202  1.0204  0.6982  0.5687
 6157SOL     OW30106   0.157   4.022   2.625  0.2756  0.0244  0.1626
 6157SOL    HW130107   0.167   4.086   2.554 -0.0951  0.7039  0.7252
 6157SOL    HW230108   0.224   3.959   2.599 -1.1798 -3.4215  4.7588
 6158SOL     OW30109   1.699   3.993  12.302  0.0789  0.0349 -0.1695
 6158SOL    HW130110   1.669   3.994  12.212 -0.4474  3.1326  0.0426
 6158SOL    HW230111   1.786   4.034  12.300  0.1797 -0.1052  1.1293
 6159SOL     OW30112   4.484   1.748   2.056  0.1638  0.1670 -0.2773
 6159SOL    HW130113   4.529   1.701   1.985  1.0796 -0.7448  0.9121
 6159SOL    HW230114   4.469   1.679   2.120  0.2276 -0.2590 -0.7219
 6160SOL     OW30115   1.755   3.751   9.596 -0.0879 -0.6056  0.6678
 6160SOL    HW130116   1.786   3.791   9.515 -2.5141 -0.6526 -0.2710
 6160SOL    HW230117   1.833   3.725   9.645 -1.0634 -0.9534  2.0283
 6161SOL     OW30118   0.179   2.513   9.452  0.6952  0.1277  0.1092
 6161SOL    HW130119   0.167   2.439   9.512 -0.8948  0.9340  0.7904
 6161SOL    HW230120   0.110   2.568   9.488  3.1642  1.2339  3.1428
 6162SOL     OW30121   2.331   4.642   6.383  0.7100  0.1040  0.5514
 6162SOL    HW130122   2.249   4.688   6.404  0.2105 -0.0121 -1.1274
 6162SOL    HW230123   2.329   4.584   6.459 -0.8941 -0.1118  0.3492
 6163SOL     OW30124   0.934   2.103   5.503 -0.3213  0.4347 -0.6004
 6163SOL    HW130125   0.855   2.141   5.542 -1.0657 -1.8762  0.1388
 6163SOL    HW230126   0.914   2.010   5.492 -1.8770  0.8433 -1.3082
 6164SOL     OW30127   0.987   3.221   7.297 -0.1666  0.3559 -0.0906
 6164SOL    HW130128   1.068   3.201   7.345 -0.5227  0.9362  0.7501
 6164SOL    HW230129   0.993   3.315   7.283 -0.8053  0.6574  1.6406
 6165SOL     OW30130   3.946   4.155  17.287  0.6657 -0.5337 -0.6407
 6165SOL    HW130131   3.933   4.112  17.202 -4.2265 -0.1929 -0.0752
 6165SOL    HW230132   3.946   4.081  17.347 -0.4844  2.0500  2.5324
 6166SOL     OW30133   4.182   0.639  11.038  0.0919  0.1920  0.2393
 6166SOL    HW130134   4.234   0.587  11.099 -0.3305  0.9472  1.2316
 6166SOL    HW230135   4.182   0.720  11.088 -0.4749  0.7887 -0.7326
 6167SOL     OW30136   1.040   0.674  16.036 -0.2233 -0.6330 -0.2025
 6167SOL    HW130137   0.956   0.718  16.020 -0.3325 -1.4620 -1.9749
 6167SOL    HW230138   1.107   0.721  15.986  0.9037 -1.1493  0.8360
 6168SOL     OW30139   1.795   0.616   8.207 -0.3472  0.0427 -0.0310
 6168SOL    HW130140   1.814   0.659   8.124 -2.1658 -3.0561 -2.0611
 6168SOL    HW230141   1.818   0.525   8.186 -2.3551 -0.3593 -0.5424
 6169SOL     OW30142   3.924   3.070   8.355 -0.4678 -0.0528 -0.1383
 6169SOL    HW130143   3.855   3.073   8.289  1.7253 -0.0233 -2.4215
 6169SOL    HW230144   3.987   3.136   8.325 -0.8416  0.4495  0.1889
 6170SOL     OW30145   3.475   2.443  16.367  0.8659 -0.1847 -0.5104
 6170SOL    HW130146   3.524   2.520  16.338 -0.6680  0.9259 -0.1126
 6170SOL    HW230147   3.383   2.463  16.349  1.0890  1.7938  0.5459
 6171SOL     OW30148   3.769   1.278   6.968 -0.4779 -0.1550  0.6746
 6171SOL    HW130149   3.765   1.273   6.872 -0.8701  0.4222  0.6601
 6171SOL    HW230150   3.753   1.185   6.984  1.1149 -0.4505  0.5719
 6172SOL     OW30151   3.916   0.099   2.545 -0.4363  0.4822 -0.5658
 6172SOL    HW130152   3.913   0.113   2.450  1.1759 -1.3151 -0.8811
 6172SOL    HW230153   3.913   0.190   2.577 -2.1599 -0.1241  0.9846
 6173SOL     OW30154   1.045   1.441   6.174  0.1332  0.2059  0.2593
 6173SOL    HW130155   1.134   1.407   6.169 -0.5766 -1.2258 -2.3206
 6173SOL    HW230156   1.004   1.363   6.136  1.0766 -1.5647  2.8290
 6174SOL     OW30157   0.291   4.633  10.854  0.3761 -0.1828 -0.0766
 6174SOL    HW130158   0.349   4.560  10.873  0.8368 -0.5446 -2.8960
 6174SOL    HW230159   0.327   4.703  10.908 -2.4950  1.5635 -0.4383
 6175SOL     OW30160   1.658   1.083   8.829  0.1628 -0.2605  0.5986
 6175SOL    HW130161   1.673   1.087   8.735 -1.4651 -0.4551  0.3319
 6175SOL    HW230162   1.683   1.172   8.856  4.3094 -1.6015  1.2618
 6176SOL     OW30163   3.636   4.318   6.028  0.2293  0.1581  0.0860
 6176SOL    HW130164   3.671   4.340   5.941 -0.8114  1.7284  0.0690
 6176SOL    HW230165   3.577   4.391   6.045  0.8044  0.5118  0.5445
 6177SOL     OW30166   1.727   1.179  10.472  0.2643 -0.4626  0.7338
 6177SOL    HW130167   1.772   1.244  10.418 -1.1028  0.4908  0.7386
 6177SOL    HW230168   1.758   1.094  10.439 -0.4726 -0.4975  0.1219
 6178SOL     OW30169   4.406   0.248  14.475 -0.0307  0.0722  0.0268
 6178SOL    HW130170   4.413   0.177  14.411  1.0915 -0.4839  0.7717
 6178SOL    HW230171   4.318   0.284  14.471 -0.6171 -1.3510  0.2167
 6179SOL     OW30172   1.720   0.507   5.995 -0.2326  0.0124  0.2163
 6179SOL    HW130173   1.699   0.574   6.060 -1.7120  0.9794 -1.2468
 6179SOL    HW230174   1.723   0.555   5.913  0.3811 -0.1719  0.1307
 6180SOL     OW30175   1.110   1.420  11.526  0.1534  0.3923 -0.0488
 6180SOL    HW130176   1.152   1.449  11.445  2.2023  1.3404  1.3358
 6180SOL    HW230177   1.179   1.455  11.583  1.8801 -1.5642 -0.9147
 6181SOL     OW30178   0.490   1.055   4.070  0.2308 -0.2430  0.5054
 6181SOL    HW130179   0.440   1.029   3.993 -0.6061  2.6291  0.0593
 6181SOL    HW230180   0.578   1.075   4.039  0.5107 -0.8787  0.8858
 6182SOL     OW30181   1.597   3.941   2.056 -0.6210 -0.3841 -0.1797
 6182SOL    HW130182   1.671   3.881   2.048  0.0170  0.3041  0.5841
 6182SOL    HW230183   1.642   4.025   2.053 -0.8435 -0.2962 -1.0744
 6183SOL     OW30184   2.330   4.624  17.237  0.5819 -0.2162 -0.1832
 6183SOL    HW130185   2.290   4.659  17.157 -0.4306  0.4847  0.6223
 6183SOL    HW230186   2.255   4.634  17.296 -0.7079  0.3916 -1.9353
 6184SOL     OW30187   2.772   0.291  10.705  0.0353 -0.5037 -0.8615
 6184SOL    HW130188   2.703   0.357  10.712 -0.0787 -0.9198  1.9848
 6184SOL    HW230189   2.818   0.298  10.789  2.0829  0.6896 -2.0834
 6185SOL     OW30190   3.684   0.953   4.012 -0.2303 -0.6050  0.3694
 6185SOL    HW130191   3.749   0.957   3.941  0.8162 -0.6054  1.3224
 6185SOL    HW230192   3.627   1.024   3.983  1.6840  1.6895  2.2073
 6186SOL     OW30193   1.356   1.538   2.449 -0.2494  0.1512 -0.7774
 6186SOL    HW130194   1.431   1.582   2.489  0.6783 -1.6817 -0.5077
 6186SOL    HW230195   1.377   1.564   2.360 -1.4228  0.7030 -0.8953
 6187SOL     OW30196   1.624   4.552   3.490 -0.3382  0.3722 -0.2041
 6187SOL    HW130197   1.595   4.579   3.403 -2.2434 -0.1795  0.2762
 6187SOL    HW230198   1.707   4.514   3.459  0.8333  1.7370  1.2946
 6188SOL     OW30199   1.662   2.215   7.055  0.6209 -0.5573  0.1706
 6188SOL    HW130200   1.628   2.184   7.139 -0.7138 -0.4697 -0.3417
 6188SOL    HW230201   1.672   2.303   7.090  0.6511  0.2626 -1.9294
 6189SOL     OW30202   2.673   4.415   0.633  0.2301 -0.3443 -0.2048
 6189SOL    HW130203   2.622   4.359   0.693  1.8437 -0.3475  1.1732
 6189SOL    HW230204   2.611   4.481   0.604 -0.1435 -0.4685  0.2986
 6190SOL     OW30205   2.699   1.799   8.857 -0.2810 -0.3099 -0.2361
 6190SOL    HW130206   2.729   1.745   8.930  1.1038  0.4783 -0.2274
 6190SOL    HW230207   2.608   1.810   8.884 -0.7663 -1.4328 -1.3958
 6191SOL     OW30208   1.743   3.743   6.173 -0.3797 -0.8150  0.0566
 6191SOL    HW130209   1.723   3.662   6.124 -1.9835 -0.3463 -0.0759
 6191SOL    HW230210   1.761   3.705   6.259  0.7863  2.9248  1.4285
 6192SOL     OW30211   0.107   1.987   2.038  0.1317  0.4927  0.3141
 6192SOL    HW130212   0.144   1.911   1.993  0.9041  1.6967 -1.0977
 6192SOL    HW230213   0.152   2.062   1.998 -1.3702  0.7373 -0.9397
 6193SOL     OW30214   4.521   3.616  13.718 -0.2596 -0.5932 -0.6472
 6193SOL    HW130215   4.478   3.539  13.682  0.6445 -1.7533  0.7583
 6193SOL    HW230216   4.606   3.613  13.674 -1.2676 -1.6426 -2.5112
 6194SOL     OW30217   1.227   1.162   0.701  0.1812 -0.3458  0.5271
 6194SOL    HW130218   1.305   1.213   0.680 -0.1933  0.3956  0.9435
 6194SOL    HW230219   1.235   1.124   0.789  2.9367 -0.2548  0.3149
 6195SOL     OW30220   2.347   2.647   9.001  0.2960 -0.4580 -0.5973
 6195SOL    HW130221   2.309   2.711   9.062 -0.2154 -1.1195 -0.2267
 6195SOL    HW230222   2.392   2.597   9.069  1.6284  2.4745  0.6859
 6196SOL     OW30223   4.226   1.672  17.406  0.1756  0.3013  0.7075
 6196SOL    HW130224   4.256   1.731  17.475 -0.0067  0.4747  0.6390
 6196SOL    HW230225   4.289   1.600  17.415  1.7108  1.2382 -2.4767
 6197SOL     OW30226   3.080   0.871   8.401  0.4137  0.4851 -0.2535
 6197SOL    HW130227   3.132   0.896   8.324  0.6831 -0.9539 -0.5300
 6197SOL    HW230228   3.145   0.847   8.467  0.2691 -0.3711 -0.4270
 6198SOL     OW30229   1.673   4.238   8.908  0.5186  0.2112  0.2151
 6198SOL    HW130230   1.583   4.214   8.932  0.5783 -0.2245  0.0030
 6198SOL    HW230231   1.711   4.152   8.892 -1.8477 -1.1057  1.5599
 6199SOL     OW30232   2.563   1.034   8.857 -0.0333 -0.6451 -0.4861
 6199SOL    HW130233   2.541   0.941   8.848 -0.8237 -0.6038  1.0362
 6199SOL    HW230234   2.590   1.026   8.948 -0.0419  1.6457 -0.2789
 6200SOL     OW30235   2.406   0.409   7.092  0.4751 -0.6745  0.6207
 6200SOL    HW130236   2.401   0.474   7.022  0.0615 -1.7903 -0.3840
 6200SOL    HW230237   2.491   0.431   7.132  1.0123 -1.1634 -0.2680
 6201SOL     OW30238   3.027   2.432   2.568 -0.3552 -0.1979  0.5748
 6201SOL    HW130239   2.989   2.345   2.558  0.3583 -0.3677 -0.7030
 6201SOL    HW230240   3.067   2.421   2.654  2.4193  1.5232 -0.5131
 6202SOL     OW30241   4.113   1.616   7.491 -0.1317  0.6397 -0.0531
 6202SOL    HW130242   4.100   1.690   7.550 -3.6133 -0.3224  0.4012
 6202SOL    HW230243   4.207   1.613   7.474 -0.2911  0.2765 -0.8830
 6203SOL     OW30244   3.152   2.583   9.086 -0.5112 -0.2074  0.3043
 6203SOL    HW130245   3.090   2.650   9.058 -1.1855 -0.5315  0.9968
 6203SOL    HW230246   3.091   2.508   9.086 -0.0526 -0.5449 -3.0081
 6204SOL     OW30247   0.293   0.993   3.186  0.2973  0.1654  0.6459
 6204SOL    HW130248   0.294   1.015   3.280  2.1469 -2.0635  1.1340
 6204SOL    HW230249   0.205   1.010   3.153  0.8736  0.6972 -0.6105
 6205SOL     OW30250   2.461   4.539   0.092 -0.2692 -0.6937 -0.0639
 6205SOL    HW130251   2.460   4.610   0.027 -0.4678 -0.1028  0.5841
 6205SOL    HW230252   2.381   4.489   0.077  1.1788 -3.4437  1.4297
 6206SOL     OW30253   3.967   2.849   2.971 -0.4060 -0.0312 -0.4772
 6206SOL    HW130254   3.881   2.807   2.980 -0.9992  1.4903  0.8694
 6206SOL    HW230255   3.939   2.913   2.905  1.2592  0.9140 -0.2528
 6207SOL     OW30256   0.485   1.354   5.671 -0.6887 -0.5148 -0.0445
 6207SOL    HW130257   0.523   1.434   5.706  0.0121 -1.3174  1.0762
 6207SOL    HW230258   0.473   1.305   5.753 -1.5572 -0.1375  0.0553
 6208SOL     OW30259   1.802   2.523  10.789  0.5749  0.4359 -0.2026
 6208SOL    HW130260   1.798   2.611  10.827  1.4304  1.3400 -2.1909
 6208SOL    HW230261   1.897   2.525  10.777  0.6099  1.4237  0.2608
 6209SOL     OW30262   2.129   3.197   5.257  0.2663  0.2827 -0.3643
 6209SOL    HW130263   2.196   3.259   5.287 -0.0340  0.6091 -0.3710
 6209SOL    HW230264   2.116   3.147   5.338 -1.7499  1.4576  0.0292
 6210SOL     OW30265   1.066   2.402   3.899 -0.3997 -0.1174 -0.3603
 6210SOL    HW130266   1.096   2.335   3.838  0.0485 -1.6924  1.5997
 6210SOL    HW230267   0.971   2.391   3.898 -0.3723 -0.4501  0.1880
 6211SOL     OW30268   1.531   2.266  17.263  0.2982 -0.3112  0.2869
 6211SOL    HW130269   1.466   2.199  17.287 -1.0105  1.2576  1.0955
 6211SOL    HW230270   1.557   2.297  17.350  2.8135 -1.7637  0.0625
 6212SOL     OW30271   1.029   1.444  14.490  0.6294 -0.1020 -0.1096
 6212SOL    HW130272   0.940   1.414  14.473  0.4862  0.1105  0.2518
 6212SOL    HW230273   1.078   1.390  14.428 -0.7956  0.8217 -2.0186
 6213SOL     OW30274   4.655   0.446   3.805  0.3464 -0.1960 -0.0079
 6213SOL    HW130275   4.607   0.434   3.887  0.3148  0.3942  0.0576
 6213SOL    HW230276   4.658   0.540   3.789  1.1103  0.1325  2.0623
 6214SOL     OW30277   0.261   0.670   5.528  0.1879 -0.1738  0.5449
 6214SOL    HW130278   0.267   0.750   5.581  0.0683  0.9895 -1.1809
 6214SOL    HW230279   0.191   0.622   5.572 -1.6546  0.0038 -2.2173
 6215SOL     OW30280   2.199   2.403   6.323 -0.3110 -0.1435  0.3181
 6215SOL    HW130281   2.209   2.354   6.242  0.2722  1.1160 -0.3688
 6215SOL    HW230282   2.104   2.409   6.316 -0.4372 -1.1841  1.1605
 6216SOL     OW30283   1.654   2.186  11.927  0.2419  0.3127  0.0722
 6216SOL    HW130284   1.638   2.207  11.835  0.7760 -1.6035 -0.4638
 6216SOL    HW230285   1.643   2.091  11.936 -4.4228  0.6996 -1.6611
 6217SOL     OW30286   1.169   0.642   5.576  0.2613  0.2843  0.1252
 6217SOL    HW130287   1.155   0.665   5.668 -0.9661 -2.0354  0.5133
 6217SOL    HW230288   1.242   0.581   5.587  1.1398  1.6274  1.7245
 6218SOL     OW30289   3.510   3.050   6.820 -0.0490 -0.3744 -0.4157
 6218SOL    HW130290   3.598   3.028   6.790 -0.7081 -1.5016 -1.5375
 6218SOL    HW230291   3.517   3.145   6.810 -1.3075 -0.4377 -1.9731
 6219SOL     OW30292   0.816   0.637  12.835  0.3739  0.1469 -0.4283
 6219SOL    HW130293   0.870   0.590  12.899  2.6971  0.6939 -1.9868
 6219SOL    HW230294   0.891   0.667  12.783  1.3725 -0.7836  0.4635
 6220SOL     OW30295   0.588   4.547   8.301 -0.0647  0.1684  0.1995
 6220SOL    HW130296   0.589   4.643   8.292  1.0459  0.2832  1.6414
 6220SOL    HW230297   0.563   4.536   8.209 -3.6598  0.8401  1.0921
 6221SOL     OW30298   4.696   2.878   7.233 -0.0040 -0.1352  0.0581
 6221SOL    HW130299   4.604   2.858   7.217 -0.5444 -0.5034  3.5513
 6221SOL    HW230300   4.702   2.964   7.274  0.4375  0.4953 -1.3383
 6222SOL     OW30301   0.022   4.249  15.448 -0.5922 -0.5066 -0.2248
 6222SOL    HW130302   0.011   4.276  15.540 -1.0100 -0.7690 -0.1953
 6222SOL    HW230303   0.053   4.159  15.463 -0.4159  0.0607  2.9779
 6223SOL     OW30304   1.165   3.633  16.367  0.3311  0.4715 -0.1281
 6223SOL    HW130305   1.146   3.604  16.456  0.4627 -0.9233 -0.5436
 6223SOL    HW230306   1.077   3.655  16.338 -0.0737 -0.3283  0.4994
 6224SOL     OW30307   2.954   1.929   2.442 -0.1029 -0.5676  0.0747
 6224SOL    HW130308   2.915   1.842   2.447  0.1705 -0.7499 -0.9718
 6224SOL    HW230309   2.918   1.971   2.364  1.2200  0.8737  0.2395
 6225SOL     OW30310   2.512   3.061   7.694 -0.1997  0.0909 -0.0973
 6225SOL    HW130311   2.526   3.135   7.634  0.5625  0.3548  0.4066
 6225SOL    HW230312   2.483   3.120   7.763  0.7945  0.4314  0.0276
 6226SOL     OW30313   2.326   4.381   7.268 -0.1344 -0.1925  0.2882
 6226SOL    HW130314   2.348   4.474   7.280  0.5107 -0.2239 -0.6758
 6226SOL    HW230315   2.259   4.367   7.335  1.6245  0.2255  2.1423
 6227SOL     OW30316   1.117   2.444   8.674  0.2107  0.1333  0.2254
 6227SOL    HW130317   1.159   2.497   8.742  0.1838  2.1449 -1.3329
 6227SOL    HW230318   1.031   2.484   8.663  0.6708  1.3407  0.9982
 6228SOL     OW30319   2.428   2.772   7.356  0.1010  0.0140  0.1788
 6228SOL    HW130320   2.510   2.822   7.353  0.0005  0.1580 -0.1849
 6228SOL    HW230321   2.394   2.824   7.428 -0.5033 -1.3482  0.8669
 6229SOL     OW30322   0.065   0.630   5.813  0.0381  0.4960  0.2708
 6229SOL    HW130323   0.078   0.569   5.740 -2.0416 -0.6155  0.8009
 6229SOL    HW230324   0.122   0.600   5.884 -1.0515 -0.2809  0.8183
 6230SOL     OW30325   4.263   0.521   6.815 -0.2690 -0.1765 -0.3979
 6230SOL    HW130326   4.205   0.461   6.768 -0.1014 -0.3805 -0.3459
 6230SOL    HW230327   4.199   0.591   6.826 -0.1495 -0.2003  0.4520
 6231SOL     OW30328   2.686   0.212   5.938 -0.2737  0.2292 -0.3665
 6231SOL    HW130329   2.648   0.126   5.921 -0.6135 -0.0731  1.8716
 6231SOL    HW230330   2.775   0.197   5.968 -0.3131 -0.3512 -0.5471
 6232SOL     OW30331   4.510   3.911   4.311  0.4835 -0.1050 -0.4997
 6232SOL    HW130332   4.455   3.834   4.301 -2.8520  2.0293  1.2136
 6232SOL    HW230333   4.558   3.909   4.229  0.1925 -0.9304 -0.6449
 6233SOL     OW30334   3.162   1.368   7.569  0.2998  0.4235  0.2420
 6233SOL    HW130335   3.242   1.345   7.615 -0.5848 -0.5591  1.2825
 6233SOL    HW230336   3.147   1.286   7.522 -0.5325  0.6134  0.1709
 6234SOL     OW30337   0.309   2.552   9.855 -0.1851 -0.4068  0.2277
 6234SOL    HW130338   0.300   2.585   9.766 -1.5379  3.1874  1.6953
 6234SOL    HW230339   0.264   2.621   9.903  1.0412  1.2223 -1.0032
 6235SOL     OW30340   0.574   3.850  17.244  0.5818 -0.4715 -0.1518
 6235SOL    HW130341   0.664   3.841  17.211  1.2587  0.2975  1.4783
 6235SOL    HW230342   0.591   3.821  17.334 -0.3746  3.3216  1.2498
 6236SOL     OW30343   3.503   2.977   2.856 -0.2366  0.1867  0.3582
 6236SOL    HW130344   3.408   2.971   2.849 -0.4267  1.6156  1.6364
 6236SOL    HW230345   3.530   2.934   2.775  1.9639 -0.5063  1.4544
 6237SOL     OW30346   0.114   1.824  10.115  0.0415  0.1037 -0.5188
 6237SOL    HW130347   0.209   1.840  10.120  0.0294 -0.0367  0.1015
 6237SOL    HW230348   0.105   1.861  10.027 -0.0472  0.7261 -0.2526
 6238SOL     OW30349   0.339   2.957   8.475  0.0257  0.3930  0.5481
 6238SOL    HW130350   0.416   2.912   8.511  0.9527  0.1381 -1.7631
 6238SOL    HW230351   0.306   2.961   8.565 -0.2064 -0.9890  0.5279
 6239SOL     OW30352   1.275   0.437  17.702 -0.1438 -0.0235 -0.4471
 6239SOL    HW130353   1.329   0.380   0.007  2.1890  1.5272 -1.1564
 6239SOL    HW230354   1.272   0.401  17.613 -0.3886 -0.5010 -0.2475
 6240SOL     OW30355   2.182   1.404   3.655 -0.1602 -0.2487  0.3669
 6240SOL    HW130356   2.166   1.350   3.733  2.2256 -3.7121 -1.5746
 6240SOL    HW230357   2.175   1.342   3.582 -2.3650  1.1502 -0.6046
 6241SOL     OW30358   0.185   0.957   2.719 -0.3062 -0.5499 -0.0355
 6241SOL    HW130359   0.228   1.013   2.783 -1.3669  0.8015 -0.4903
 6241SOL    HW230360   0.106   0.928   2.765 -0.3421  0.7160  0.6949
 6242SOL     OW30361   4.175   4.576   2.919 -0.2503  0.1383 -0.4849
 6242SOL    HW130362   4.141   4.618   2.840  1.6830  0.2381 -1.2816
 6242SOL    HW230363   4.223   4.647   2.962  2.1241 -0.4399 -2.1697
 6243SOL     OW30364   0.444   1.441   8.625  0.0152  0.2991 -0.5677
 6243SOL    HW130365   0.411   1.370   8.680  1.6719  1.4446  1.9138
 6243SOL    HW230366   0.449   1.511   8.690  2.0654  0.0046 -0.3943
 6244SOL     OW30367   3.204   2.030   5.726 -0.7547  0.3579 -0.3432
 6244SOL    HW130368   3.149   1.985   5.791 -1.8952  2.0323 -0.1605
 6244SOL    HW230369   3.173   1.981   5.650 -2.4282 -0.2634  0.7465
 6245SOL     OW30370   0.800   3.954   8.485  0.0085 -0.2726 -0.0862
 6245SOL    HW130371   0.711   3.967   8.518  0.3578 -0.1099  0.8057
 6245SOL    HW230372   0.838   4.042   8.490  0.0834 -0.3603  0.8561
 6246SOL     OW30373   0.089   0.281   2.704  0.0018 -0.1468 -0.0666
 6246SOL    HW130374   0.136   0.268   2.622 -0.1664  0.7499 -0.3026
 6246SOL    HW230375   0.144   0.346   2.749  0.1721 -0.3962  0.0868
 6247SOL     OW30376   1.807   2.721   1.941 -0.0160  0.0497 -0.0794
 6247SOL    HW130377   1.869   2.783   1.979  1.5218 -1.2962 -0.3673
 6247SOL    HW230378   1.834   2.647   1.996  1.5836  0.0296 -0.8937
 6248SOL     OW30379   2.678   3.976   3.459  0.0492 -0.8698 -0.2774
 6248SOL    HW130380   2.620   3.924   3.515 -0.3208 -0.4632 -0.2762
 6248SOL    HW230381   2.756   3.922   3.458  0.8882  0.3686 -2.4135
 6249SOL     OW30382   4.224   4.365   7.869 -0.3917 -0.1782 -0.7657
 6249SOL    HW130383   4.304   4.418   7.863  0.2710 -1.2256 -1.1858
 6249SOL    HW230384   4.203   4.334   7.781 -1.7244 -1.8246  0.1274
 6250SOL     OW30385   1.023   3.572   5.029 -0.1958 -0.4787  0.1496
 6250SOL    HW130386   0.957   3.588   4.962 -1.0479  0.0628  1.1245
 6250SOL    HW230387   0.968   3.578   5.107 -1.5090  1.2165 -0.9206
 6251SOL     OW30388   3.546   4.455   9.139  0.1974 -0.3236 -0.3796
 6251SOL    HW130389   3.543   4.380   9.080 -1.8225 -1.8110  1.6292
 6251SOL    HW230390   3.549   4.537   9.089 -0.7135 -0.5903 -0.8704
 6252SOL     OW30391   2.998   2.265   3.079 -0.0259 -0.5596  0.6238
 6252SOL    HW130392   2.957   2.191   3.123 -0.9836 -0.0864  0.5377
 6252SOL    HW230393   2.990   2.334   3.145 -0.6191  0.4131 -0.4593
 6253SOL     OW30394   3.819   2.469   9.363 -0.0421  0.3604 -0.0332
 6253SOL    HW130395   3.904   2.441   9.396 -0.1014 -1.2002 -1.2022
 6253SOL    HW230396   3.815   2.559   9.396 -1.8734  0.3151 -0.1474
 6254SOL     OW30397   0.201   3.320   7.507 -0.6482  0.6546  0.2858
 6254SOL    HW130398   0.203   3.400   7.453 -0.1236  1.2377  1.1710
 6254SOL    HW230399   0.286   3.286   7.478 -1.2776 -1.3630  0.8352
 6255SOL     OW30400   4.013   1.284   6.007 -0.0926 -0.3297 -0.1578
 6255SOL    HW130401   4.069   1.207   6.003 -2.2056 -1.9029  0.0025
 6255SOL    HW230402   3.947   1.252   6.068 -0.3487 -1.3451 -0.9744
 6256SOL     OW30403   4.032   1.297  11.905  0.5737  0.8976 -0.0037
 6256SOL    HW130404   4.015   1.382  11.944  3.0358  1.3044  0.1679
 6256SOL    HW230405   4.060   1.250  11.983 -0.3300 -1.5061 -1.1198
 6257SOL     OW30406   4.134   3.475   8.097  0.1109 -0.1912 -0.1404
 6257SOL    HW130407   4.153   3.526   8.018 -2.4666 -0.7340 -1.0952
 6257SOL    HW230408   4.076   3.534   8.144 -0.8007 -0.5436 -0.8335
 6258SOL     OW30409   0.755   2.872   8.038  0.1892 -0.8240 -0.5634
 6258SOL    HW130410   0.835   2.833   8.074 -0.9598 -0.9679  1.8080
 6258SOL    HW230411   0.711   2.885   8.122  1.0736 -2.1959  0.1347
 6259SOL     OW30412   4.428   3.489  16.794 -0.3152 -0.7492 -0.7582
 6259SOL    HW130413   4.427   3.542  16.873  1.6081  1.7292 -2.3864
 6259SOL    HW230414   4.333   3.475  16.787 -0.9180  3.0248  0.1309
 6260SOL     OW30415   4.007   4.518   7.423 -0.3859  0.8451 -0.8256
 6260SOL    HW130416   4.023   4.457   7.351 -1.4771 -0.6959  0.2493
 6260SOL    HW230417   4.079   4.578   7.402 -0.3751  0.9700 -0.4443
 6261SOL     OW30418   4.668   3.552   6.108  0.1000 -0.7759  0.0826
 6261SOL    HW130419   0.013   3.529   6.152  0.3585  0.7565  0.4324
 6261SOL    HW230420   4.614   3.567   6.186 -1.7378 -1.2531 -1.1283
 6262SOL     OW30421   0.750   0.044   8.325 -0.3043  0.1935 -0.4641
 6262SOL    HW130422   0.708   0.123   8.291 -1.6565  0.0479  0.8646
 6262SOL    HW230423   0.812   0.077   8.390  0.6849  0.0236 -1.3349
 6263SOL     OW30424   3.292   1.780  14.720 -0.1260 -0.2171  0.5149
 6263SOL    HW130425   3.296   1.707  14.782  3.0675 -0.5392 -0.0726
 6263SOL    HW230426   3.234   1.839  14.767  1.0646  0.6960  0.8398
 6264SOL     OW30427   2.399   4.713   3.683 -0.9155 -0.2396 -1.1399
 6264SOL    HW130428   2.400   0.040   3.754 -0.2844  0.8214 -2.1125
 6264SOL    HW230429   2.490   4.683   3.676 -0.3807  0.9942  0.3777
 6265SOL     OW30430   3.860   3.897   4.280 -0.0778 -0.1146  0.5482
 6265SOL    HW130431   3.840   3.852   4.362 -0.2779  1.1247  1.1723
 6265SOL    HW230432   3.952   3.924   4.283 -0.0255 -0.2293 -0.1131
 6266SOL     OW30433   2.609   2.277   7.679 -0.3309 -0.0871 -0.4531
 6266SOL    HW130434   2.696   2.238   7.682 -1.0695 -1.5332  1.8337
 6266SOL    HW230435   2.582   2.292   7.770 -0.0330  1.8790 -0.6799
 6267SOL     OW30436   4.350   2.715   8.404  0.4607  0.2468  0.3755
 6267SOL    HW130437   4.382   2.624   8.400  0.0989  0.2260 -2.2405
 6267SOL    HW230438   4.431   2.765   8.416  0.3889  0.9088 -1.8340
 6268SOL     OW30439   0.728   1.992   3.834  0.1980  0.0010  0.4687
 6268SOL    HW130440   0.712   1.919   3.774  1.8667  0.2506 -0.2685
 6268SOL    HW230441   0.818   2.014   3.810  0.8460 -2.7512  0.3649
 6269SOL     OW30442   0.242   3.598   0.858  0.3519  0.0173 -0.3805
 6269SOL    HW130443   0.266   3.507   0.870  0.7903  0.2880  0.7758
 6269SOL    HW230444   0.206   3.576   0.772  0.4303 -1.9401  0.0993
 6270SOL     OW30445   0.299   1.890   7.897 -0.1998  0.8010 -0.5756
 6270SOL    HW130446   0.381   1.867   7.940 -0.4513  0.4319 -0.2960
 6270SOL    HW230447   0.244   1.926   7.967 -1.7937 -0.5905 -1.1264
 6271SOL     OW30448   2.856   1.563   7.336  0.6544 -0.7179  0.1520
 6271SOL    HW130449   2.815   1.538   7.419  1.2157  0.4565  0.7846
 6271SOL    HW230450   2.907   1.488   7.306 -0.2400 -1.3902  0.2957
 6272SOL     OW30451   3.052   3.568   4.364 -0.3481  1.0226  0.2546
 6272SOL    HW130452   2.977   3.512   4.386  0.8372 -0.4544  0.5248
 6272SOL    HW230453   3.110   3.569   4.440 -2.1140  2.3742  1.6029
 6273SOL     OW30454   4.160   1.810   9.482 -0.5015  0.5680  0.1703
 6273SOL    HW130455   4.175   1.832   9.390 -0.8457 -0.8950 -0.2307
 6273SOL    HW230456   4.134   1.719   9.473 -0.4147  0.7937 -2.2628
 6274SOL     OW30457   1.209   0.211   1.996  0.5104  0.8240  0.0263
 6274SOL    HW130458   1.157   0.186   1.920 -2.1431  1.4757  1.6192
 6274SOL    HW230459   1.160   0.173   2.069  0.7413  1.4906  0.5360
 6275SOL     OW30460   0.577   1.588   9.019 -0.9950 -0.3274  0.3582
 6275SOL    HW130461   0.661   1.543   9.013  0.3690  2.2419  0.2844
 6275SOL    HW230462   0.578   1.612   9.112 -0.7359  1.4140 -0.1014
 6276SOL     OW30463   0.644   3.216   8.391  0.5676 -0.7038 -0.1763
 6276SOL    HW130464   0.670   3.297   8.434 -0.5486 -1.5295  2.0198
 6276SOL    HW230465   0.549   3.222   8.397  0.5534  0.1354 -1.1547
 6277SOL     OW30466   2.205   1.204   3.472  0.3301 -0.2131  0.3978
 6277SOL    HW130467   2.113   1.184   3.455  0.0906 -0.4030  1.8900
 6277SOL    HW230468   2.247   1.203   3.387 -2.3141  1.5365 -0.9290
 6278SOL     OW30469   4.470   1.308  10.204 -0.1923 -0.0904  0.0897
 6278SOL    HW130470   4.560   1.309  10.237  0.4179  0.1811 -1.6188
 6278SOL    HW230471   4.425   1.282  10.285 -1.0384  0.7676 -0.1069
 6279SOL     OW30472   1.066   4.687   0.626 -0.5409  0.2469 -0.0128
 6279SOL    HW130473   0.994   4.639   0.666  0.0335 -0.8054 -0.2415
 6279SOL    HW230474   1.122   4.615   0.598  0.5266  0.6437  1.0623
 6280SOL     OW30475   1.925   4.357   7.149 -0.0264  0.0145 -0.2370
 6280SOL    HW130476   1.916   4.451   7.133  1.1534 -0.4196 -3.4788
 6280SOL    HW230477   1.839   4.321   7.127 -0.2157  0.3375 -0.0196
 6281SOL     OW30478   4.013   4.633   5.145 -0.1715  0.0623  0.0698
 6281SOL    HW130479   4.062   4.564   5.191  0.7227 -0.2946 -1.4444
 6281SOL    HW230480   3.928   4.627   5.189 -0.6894 -0.4921 -1.0116
 6282SOL     OW30481   0.780   2.455   2.353  0.1307  0.0705  0.0959
 6282SOL    HW130482   0.776   2.378   2.410 -2.3142 -0.4416 -0.8080
 6282SOL    HW230483   0.775   2.429   2.262  0.6403  0.8892 -0.1713
 6283SOL     OW30484   1.577   2.789   9.441  0.2491 -0.1103 -0.1313
 6283SOL    HW130485   1.650   2.736   9.471 -0.5526 -0.7525  0.6954
 6283SOL    HW230486   1.551   2.836   9.520 -0.4772 -0.0751 -0.3885
 6284SOL     OW30487   1.047   3.987   7.018  0.7476  0.0368  0.6207
 6284SOL    HW130488   1.022   3.986   7.111 -2.3037  0.8316 -0.2118
 6284SOL    HW230489   0.978   3.927   6.990  0.8295  0.5380 -0.6048
 6285SOL     OW30490   2.604   1.664   4.545  0.3418  0.0399  0.1123
 6285SOL    HW130491   2.649   1.654   4.629 -1.4208 -1.7034  0.8528
 6285SOL    HW230492   2.626   1.577   4.512 -0.6073 -0.4641  0.7910
 6286SOL     OW30493   1.978   3.845   9.428 -0.8094  0.2338 -0.1732
 6286SOL    HW130494   1.985   3.887   9.513 -2.1153 -1.3743  0.7443
 6286SOL    HW230495   1.908   3.900   9.394  0.4235  0.7390 -1.9297
 6287SOL     OW30496   1.819   1.363  12.704  0.2681 -0.8959  0.5082
 6287SOL    HW130497   1.885   1.294  12.702 -1.0429 -2.1595  0.6580
 6287SOL    HW230498   1.847   1.413  12.781 -0.5249  0.8675 -0.3498
 6288SOL     OW30499   4.232   4.652   7.362 -0.4877 -0.3290 -0.0114
 6288SOL    HW130500   4.303   4.695   7.410  0.5093 -0.4720 -1.3735
 6288SOL    HW230501   4.281   4.646   7.280 -0.0770  0.1281  0.2026
 6289SOL     OW30502   0.584   3.607   7.648 -0.0754 -0.1028  0.0119
 6289SOL    HW130503   0.656   3.648   7.695  1.3184  1.3452 -3.4000
 6289SOL    HW230504   0.511   3.658   7.682 -1.1224 -0.5535 -1.5482
 6290SOL     OW30505   3.885   4.533   8.513 -0.0133 -0.5134  0.4753
 6290SOL    HW130506   3.890   4.555   8.606 -1.7367 -0.9908  0.6739
 6290SOL    HW230507   3.955   4.590   8.479 -0.5444  0.6591  1.3420
 6291SOL     OW30508   1.826   2.401   5.192  0.2313 -0.0577  0.4718
 6291SOL    HW130509   1.870   2.472   5.237 -0.2435  1.5417 -1.6085
 6291SOL    HW230510   1.733   2.423   5.195 -0.2564 -2.0325  0.3997
 6292SOL     OW30511   2.720   0.628   8.960 -0.2316 -0.0252 -0.1571
 6292SOL    HW130512   2.727   0.574   9.038 -2.2850  0.5567  0.4428
 6292SOL    HW230513   2.651   0.580   8.915 -0.1455 -1.6825  1.4788
 6293SOL     OW30514   2.759   4.176   3.722  0.4818 -0.3858 -0.5701
 6293SOL    HW130515   2.707   4.098   3.741 -0.8652  0.6302 -0.0927
 6293SOL    HW230516   2.738   4.199   3.631 -1.6691  0.8986  0.2501
 6294SOL     OW30517   1.152   3.296   4.942  0.0756  0.1021  0.0133
 6294SOL    HW130518   1.121   3.283   5.032  1.4396  2.2136  0.7983
 6294SOL    HW230519   1.068   3.278   4.901 -0.3211  1.9328  0.0093
 6295SOL     OW30520   1.743   2.954  13.682  0.0970  0.4895 -0.1758
 6295SOL    HW130521   1.787   3.034  13.710  2.6911 -0.1318 -2.5423
 6295SOL    HW230522   1.668   2.959  13.742 -0.2453  2.3049 -0.7625
 6296SOL     OW30523   3.748   1.856   6.038  0.3189 -0.0047  0.1540
 6296SOL    HW130524   3.817   1.920   6.056 -0.8310  1.6593 -1.4337
 6296SOL    HW230525   3.790   1.818   5.961  1.0889  1.3992 -0.1130
 6297SOL     OW30526   4.054   1.228  13.066  0.1462 -0.2121  0.1859
 6297SOL    HW130527   3.981   1.270  13.112 -0.6221 -0.3431 -0.9230
 6297SOL    HW230528   4.009   1.150  13.032 -1.4675  0.0918  1.5835
 6298SOL     OW30529   4.090   2.421   6.153 -0.4573 -0.6000 -0.2775
 6298SOL    HW130530   4.010   2.459   6.119  0.4806  2.7581  1.2670
 6298SOL    HW230531   4.151   2.461   6.091  2.7304 -0.0897  3.1361
 6299SOL     OW30532   4.456   4.719   5.273 -0.1304 -0.0167  0.0228
 6299SOL    HW130533   4.550   4.731   5.258 -0.1752  2.0514  1.3535
 6299SOL    HW230534   4.434   4.647   5.214 -0.9007 -0.7424  1.1924
 6300SOL     OW30535   2.623   1.889   6.731 -0.1758 -0.0920  0.6924
 6300SOL    HW130536   2.677   1.811   6.725  3.2034  2.2017  1.0439
 6300SOL    HW230537   2.694   1.952   6.720  0.9366 -1.4399  0.3259
 6301SOL     OW30538   0.780   4.620   3.239  0.6121  0.1618  0.0380
 6301SOL    HW130539   0.815   4.586   3.321 -2.1419  0.6294  1.4350
 6301SOL    HW230540   0.865   4.634   3.198  0.7574 -0.6193  0.0791
 6302SOL     OW30541   3.262   2.502   5.546  0.0974 -0.1285 -0.6966
 6302SOL    HW130542   3.301   2.419   5.573  1.0464 -0.0478 -1.8278
 6302SOL    HW230543   3.252   2.539   5.633 -1.8843  1.5326 -1.6216
 6303SOL     OW30544   0.223   4.604  14.931  0.1833 -0.2414  0.1497
 6303SOL    HW130545   0.248   4.662  14.859  0.1403 -1.6729 -1.0210
 6303SOL    HW230546   0.273   4.648  15.000  0.7562 -1.3380  0.4278
 6304SOL     OW30547   1.319   3.521   2.636 -0.3402  0.3219  0.3178
 6304SOL    HW130548   1.334   3.481   2.550 -0.1837 -0.1186  0.5489
 6304SOL    HW230549   1.365   3.460   2.694  1.0926 -1.0369 -2.2362
 6305SOL     OW30550   2.170   2.636   1.146  0.5290  0.0403 -0.7630
 6305SOL    HW130551   2.114   2.609   1.073 -1.1532 -0.3687  0.6773
 6305SOL    HW230552   2.194   2.555   1.189  1.9153  0.4918 -0.6900
 6306SOL     OW30553   2.141   0.731   7.039  0.8084 -0.0522 -0.3193
 6306SOL    HW130554   2.185   0.741   7.123  1.4333  1.4470 -0.8385
 6306SOL    HW230555   2.176   0.644   7.018  0.7497  0.0803 -0.9868
 6307SOL     OW30556   2.745   2.025  11.049  0.5928 -0.1686  0.3487
 6307SOL    HW130557   2.838   2.046  11.049  0.2976  1.1099  1.3510
 6307SOL    HW230558   2.715   2.084  11.118 -1.1482 -0.9486  0.2583
 6308SOL     OW30559   1.567   3.939   4.020  0.2454  0.4632 -1.1483
 6308SOL    HW130560   1.546   3.902   3.935  0.3472  0.6381 -1.2486
 6308SOL    HW230561   1.533   3.862   4.067  1.6191  1.0883  0.8877
 6309SOL     OW30562   1.282   2.064   3.937  0.1298  0.2988 -0.0038
 6309SOL    HW130563   1.287   2.030   3.847 -0.9749 -2.7339  1.1012
 6309SOL    HW230564   1.366   2.111   3.938  0.1278  0.3170 -0.4757
 6310SOL     OW30565   2.971   2.940   6.578  1.0952  0.5407  0.1696
 6310SOL    HW130566   2.922   2.859   6.589 -1.2739  1.7627 -1.4416
 6310SOL    HW230567   2.903   3.006   6.569  0.9532  0.4511  0.5845
 6311SOL     OW30568   2.961   3.900   5.903  0.0394  0.0602 -0.2166
 6311SOL    HW130569   2.938   3.977   5.956 -1.5853 -1.7215  1.6956
 6311SOL    HW230570   3.052   3.885   5.929 -0.4035 -0.4887  1.0234
 6312SOL     OW30571   2.135   1.688  10.621 -0.1438 -0.0669 -0.2750
 6312SOL    HW130572   2.128   1.623  10.551  0.3650 -0.4583  0.0352
 6312SOL    HW230573   2.045   1.694  10.655  0.4946  1.4467  1.1309
 6313SOL     OW30574   3.183   0.044   1.536  0.6094  0.3347  0.6135
 6313SOL    HW130575   3.241   4.723   1.487 -0.9259 -0.5261 -0.1529
 6313SOL    HW230576   3.126   4.709   1.560  0.6718  0.6849  1.8456
 6314SOL     OW30577   2.826   3.772  15.858 -0.0880 -0.6605 -0.0060
 6314SOL    HW130578   2.771   3.695  15.863  0.1295 -0.7859  0.4461
 6314SOL    HW230579   2.873   3.744  15.780 -2.3441  1.5186 -2.1530
 6315SOL     OW30580   0.117   0.176   4.474 -0.2485  0.2391 -0.1948
 6315SOL    HW130581   0.063   0.239   4.523  1.3742  0.5271  1.2236
 6315SOL    HW230582   0.061   0.099   4.463 -0.2765  0.2523 -0.1459
 6316SOL     OW30583   0.741   2.233   1.549 -0.3259 -0.3722 -0.4761
 6316SOL    HW130584   0.789   2.255   1.469 -2.1058  0.1328 -1.4046
 6316SOL    HW230585   0.746   2.138   1.538 -4.0523 -0.6704  0.5329
 6317SOL     OW30586   2.297   2.665   6.524  0.1142 -0.1581 -0.6693
 6317SOL    HW130587   2.257   2.709   6.449 -0.1232 -0.8201 -0.9307
 6317SOL    HW230588   2.213   2.659   6.569 -0.1846  1.9892 -0.9305
 6318SOL     OW30589   2.337   0.785  14.182  0.5725 -0.2818 -0.0019
 6318SOL    HW130590   2.374   0.700  14.156  2.7170 -0.0788  2.3409
 6318SOL    HW230591   2.357   0.837  14.104 -1.2794  0.8158  0.2856
 6319SOL     OW30592   4.134   1.023   5.992  0.8620 -0.6064  0.0772
 6319SOL    HW130593   4.084   0.962   6.047  0.1075  1.5707  1.8201
 6319SOL    HW230594   4.221   0.985   5.998  0.6651 -0.7218  2.2082
 6320SOL     OW30595   0.744   4.601   5.119  0.3298  0.5028 -0.1077
 6320SOL    HW130596   0.662   4.643   5.146 -0.6883 -0.6280 -1.3927
 6320SOL    HW230597   0.795   4.681   5.126  0.1103  0.5854  0.6124
 6321SOL     OW30598   1.247   1.042   8.021 -0.0789  0.2246  0.0661
 6321SOL    HW130599   1.279   1.119   8.067  0.6989  2.3773 -4.1030
 6321SOL    HW230600   1.161   1.077   8.000  0.3485 -0.4570 -2.8052
 6322SOL     OW30601   3.935   0.296   5.025  0.3467  0.2744 -0.0244
 6322SOL    HW130602   3.984   0.353   5.085  1.9336  0.8381 -1.8519
 6322SOL    HW230603   3.992   0.220   5.013 -0.5327 -0.3919  0.1211
 6323SOL     OW30604   1.831   4.380   3.802 -1.0154 -0.2606  0.6514
 6323SOL    HW130605   1.912   4.381   3.854 -0.5654 -1.9684 -0.0237
 6323SOL    HW230606   1.813   4.286   3.802 -3.0425  0.1462  1.9795
 6324SOL     OW30607   3.930   2.892   2.107 -0.3223  0.5191  0.4274
 6324SOL    HW130608   4.002   2.905   2.045 -0.4701 -1.1108 -0.0883
 6324SOL    HW230609   3.951   2.800   2.126  2.4570  1.0096 -0.1453
 6325SOL     OW30610   2.980   3.528   8.686  0.2967 -0.4819 -0.9379
 6325SOL    HW130611   2.925   3.581   8.745 -1.0316 -0.6738 -2.0108
 6325SOL    HW230612   3.068   3.553   8.716  0.0397 -3.4627  2.2630
 6326SOL     OW30613   4.551   2.211   6.976 -0.4363 -0.5600 -0.0979
 6326SOL    HW130614   4.510   2.214   7.063  0.1366 -1.4147  0.2006
 6326SOL    HW230615   4.643   2.219   7.000 -0.4532  0.2807 -0.3444
 6327SOL     OW30616   2.453   2.065   7.538 -0.1170 -0.2318  0.3863
 6327SOL    HW130617   2.518   1.995   7.531  1.5441  1.2978  0.6169
 6327SOL    HW230618   2.500   2.122   7.598 -2.0666  2.9190 -1.0895
 6328SOL     OW30619   4.576   3.285   8.310  0.4306 -0.7620 -0.7706
 6328SOL    HW130620   4.554   3.377   8.296  0.1303 -0.5384  1.2108
 6328SOL    HW230621   4.486   3.256   8.325 -0.1126  0.5487 -1.4892
 6329SOL     OW30622   2.057   0.789  14.243  0.5859 -0.6883 -0.1883
 6329SOL    HW130623   2.147   0.788  14.211 -0.2339  0.1074 -2.5365
 6329SOL    HW230624   2.063   0.880  14.274 -0.6217 -0.8915  0.6821
 6330SOL     OW30625   2.938   3.379   6.643  0.6584 -0.0460  0.0667
 6330SOL    HW130626   2.973   3.353   6.558  3.7615 -1.2449  1.6884
 6330SOL    HW230627   2.980   3.465   6.650  1.0349 -0.2265 -0.0045
 6331SOL     OW30628   3.973   2.804   1.743 -0.0905  0.3733 -0.1253
 6331SOL    HW130629   4.053   2.817   1.794  1.3669  1.7486 -2.7054
 6331SOL    HW230630   3.967   2.708   1.746  0.5438  0.3332 -0.0776
 6332SOL     OW30631   1.777   2.218   5.448  0.0255 -0.0567  0.3026
 6332SOL    HW130632   1.781   2.128   5.414  1.4795 -0.3139  1.1792
 6332SOL    HW230633   1.786   2.269   5.368  2.4905 -0.4200  0.3725
 6333SOL     OW30634   2.078   1.581  13.945 -0.3700  0.6025  0.1796
 6333SOL    HW130635   2.092   1.594  13.851 -1.5705 -0.6897 -0.1899
 6333SOL    HW230636   2.152   1.536  13.985 -0.9320  1.4106  2.1398
 6334SOL     OW30637   1.663   3.484   3.861 -0.7855 -0.4814  0.0004
 6334SOL    HW130638   1.686   3.475   3.769 -0.5646 -1.0364  0.1112
 6334SOL    HW230639   1.574   3.450   3.856 -0.9659 -0.1071  0.6918
 6335SOL     OW30640   1.717   1.312  12.307  0.0880 -0.2286  0.4041
 6335SOL    HW130641   1.800   1.266  12.316 -0.9116 -2.2260 -0.6259
 6335SOL    HW230642   1.705   1.290  12.214  0.1932 -3.3306  1.1462
 6336SOL     OW30643   4.473   0.699   4.279  0.2154 -0.7609 -0.0965
 6336SOL    HW130644   4.395   0.646   4.294  0.0447 -0.0618  1.4338
 6336SOL    HW230645   4.548   0.640   4.285  0.5540 -0.3710 -0.5089
 6337SOL     OW30646   2.321   0.917   8.119  0.1643  0.3264 -0.1382
 6337SOL    HW130647   2.386   0.879   8.178  0.0612  1.1548  0.5128
 6337SOL    HW230648   2.237   0.890   8.156  0.5506 -1.9288 -0.9036
 6338SOL     OW30649   0.833   4.296   8.116  0.4146 -0.1502  0.3339
 6338SOL    HW130650   0.741   4.285   8.140 -0.7747 -1.5139 -4.6394
 6338SOL    HW230651   0.871   4.241   8.184 -1.7925  0.9845  2.4788
 6339SOL     OW30652   2.216   1.700   3.725  0.0676 -0.1428 -0.2579
 6339SOL    HW130653   2.207   1.623   3.670  0.3765  1.3700 -2.4286
 6339SOL    HW230654   2.267   1.660   3.796 -2.1857  1.4968  2.3232
 6340SOL     OW30655   1.263   1.737   7.015 -0.4044  0.4694  0.1753
 6340SOL    HW130656   1.282   1.794   7.089  2.7062  1.3286 -1.2818
 6340SOL    HW230657   1.316   1.657   7.026  1.0664  1.6108  1.4492
 6341SOL     OW30658   2.511   2.099   3.357 -0.2905  0.3437 -0.4798
 6341SOL    HW130659   2.575   2.030   3.374  0.3956  1.0263 -0.3255
 6341SOL    HW230660   2.437   2.039   3.345  0.3349 -0.7128  0.8565
 6342SOL     OW30661   0.996   0.125   2.180 -0.0667 -0.0066  0.3053
 6342SOL    HW130662   0.912   0.098   2.217  0.9677  0.1392  2.7512
 6342SOL    HW230663   1.045   0.059   2.229 -0.8602  0.3992  1.6518
 6343SOL     OW30664   0.772   0.645   2.832 -0.7970  0.3290 -0.0988
 6343SOL    HW130665   0.690   0.693   2.822 -1.6428 -1.1688 -0.3099
 6343SOL    HW230666   0.843   0.706   2.810 -1.9557  1.8160  0.2785
 6344SOL     OW30667   2.968   2.787   9.020 -0.1230 -0.1897 -0.3415
 6344SOL    HW130668   2.898   2.847   9.045 -1.9473 -1.6956 -1.9112
 6344SOL    HW230669   3.039   2.851   9.008 -1.8032  1.5002 -1.3390
 6345SOL     OW30670   2.513   4.304   2.578  0.3377  0.1900  0.0102
 6345SOL    HW130671   2.476   4.257   2.653 -0.7736 -1.3843 -1.5127
 6345SOL    HW230672   2.511   4.390   2.620 -0.6810  0.2952 -0.2304
 6346SOL     OW30673   4.328   1.855  11.279 -0.7988 -0.2283 -0.5441
 6346SOL    HW130674   4.266   1.879  11.347 -0.5776 -1.3118  0.0513
 6346SOL    HW230675   4.374   1.782  11.321  0.7326  2.2039  2.0255
 6347SOL     OW30676   2.837   3.815   6.279 -0.3006  0.3105  0.1480
 6347SOL    HW130677   2.932   3.809   6.273 -0.1721 -0.2279  3.0253
 6347SOL    HW230678   2.812   3.742   6.221  1.2714  0.4373 -0.6753
 6348SOL     OW30679   0.391   1.520   8.375  0.0543 -0.1251 -0.0910
 6348SOL    HW130680   0.477   1.553   8.351 -0.3782 -0.0303 -1.5014
 6348SOL    HW230681   0.420   1.482   8.457 -0.7379  1.0350  0.7374
 6349SOL     OW30682   2.333   2.248   5.746 -0.3738  0.0388  0.3920
 6349SOL    HW130683   2.296   2.330   5.713 -1.4772 -0.4359  0.4460
 6349SOL    HW230684   2.255   2.193   5.737 -0.4725  0.3416 -0.6332
 6350SOL     OW30685   2.298   3.692  16.496 -0.0183 -0.2913 -0.3670
 6350SOL    HW130686   2.329   3.607  16.464  2.6942  1.1292 -1.5247
 6350SOL    HW230687   2.213   3.682  16.539  1.0450  2.4742  2.3168
 6351SOL     OW30688   0.877   3.610   1.842 -0.1201  0.5811  0.2749
 6351SOL    HW130689   0.795   3.605   1.890  0.3418  2.4600  1.2644
 6351SOL    HW230690   0.885   3.703   1.823  1.0008  0.4692  0.1871
 6352SOL     OW30691   3.415   2.345   9.482  0.8821  0.5048  0.4038
 6352SOL    HW130692   3.485   2.287   9.452  0.0645 -0.3313  0.0993
 6352SOL    HW230693   3.341   2.309   9.432  1.4235 -1.0550  0.7072
 6353SOL     OW30694   0.168   1.944   5.311  0.5419 -0.0097  0.5121
 6353SOL    HW130695   0.190   1.864   5.263 -1.1485  1.0650 -2.0743
 6353SOL    HW230696   0.159   2.005   5.237  0.0072  1.3548  1.7169
 6354SOL     OW30697   3.814   0.295   6.149  0.1969 -0.4492  0.3935
 6354SOL    HW130698   3.867   0.243   6.088 -1.0876 -0.6151 -0.6088
 6354SOL    HW230699   3.732   0.304   6.100 -0.4289 -1.4124  1.2702
 6355SOL     OW30700   0.484   3.694   4.257 -0.1552 -0.0803  0.0898
 6355SOL    HW130701   0.563   3.643   4.275 -1.9263 -2.3308  1.6038
 6355SOL    HW230702   0.496   3.750   4.334  0.1117  0.1427 -0.1178
 6356SOL     OW30703   3.797   2.072   4.471 -0.6934  0.0639 -0.7377
 6356SOL    HW130704   3.820   2.149   4.419  2.5616  0.2327  0.9754
 6356SOL    HW230705   3.729   2.114   4.523  1.1116  2.7859 -0.5639
 6357SOL     OW30706   3.835   1.472   5.886  0.0714 -0.0472 -0.2464
 6357SOL    HW130707   3.890   1.405   5.928  0.1249 -0.8215 -1.5573
 6357SOL    HW230708   3.758   1.458   5.941 -0.1653 -0.8088 -0.7738
 6358SOL     OW30709   1.656   4.520  17.693  0.3635  0.3042  0.3725
 6358SOL    HW130710   1.659   4.444  17.635  1.1538  0.8448 -0.2956
 6358SOL    HW230711   1.600   4.497   0.018  0.7021  0.1375  0.5790
 6359SOL     OW30712   3.536   4.477   7.822  0.3961  0.4166  0.2570
 6359SOL    HW130713   3.496   4.396   7.791 -0.1515  0.1930  1.5514
 6359SOL    HW230714   3.626   4.452   7.843  0.3496  0.4144  0.4555
 6360SOL     OW30715   1.891   4.032  16.887 -0.0231  0.2134  0.3664
 6360SOL    HW130716   1.952   4.070  16.824 -1.6929 -0.5045 -1.6899
 6360SOL    HW230717   1.945   3.976  16.942  3.0843  0.6077 -2.3254
 6361SOL     OW30718   0.186   1.237   6.439  0.0884  0.0091 -0.4943
 6361SOL    HW130719   0.163   1.319   6.396  0.9241  1.2648  1.4501
 6361SOL    HW230720   0.101   1.193   6.443 -0.0759  0.6732  3.3103
 6362SOL     OW30721   0.886   0.987   8.781 -0.0287 -0.4774  0.2426
 6362SOL    HW130722   0.860   0.908   8.829 -0.5256 -0.7375 -0.4436
 6362SOL    HW230723   0.919   1.041   8.852 -0.2198 -0.5010  0.3484
 6363SOL     OW30724   1.945   4.669   6.819  0.1035  0.1013  0.3330
 6363SOL    HW130725   1.874   4.624   6.865 -0.4502  0.4331 -0.1994
 6363SOL    HW230726   1.964   4.603   6.753  1.9611 -0.4512  1.4150
 6364SOL     OW30727   2.576   3.353   3.904  0.0038 -0.2168 -0.0758
 6364SOL    HW130728   2.485   3.329   3.887 -0.5197  0.6144  1.5598
 6364SOL    HW230729   2.563   3.412   3.979  1.0642 -0.2625  0.1367
 6365SOL     OW30730   2.443   0.265   7.857  0.8264  0.1237  0.0978
 6365SOL    HW130731   2.353   0.289   7.832  0.0326 -2.2678  0.6050
 6365SOL    HW230732   2.453   0.195   7.792 -3.7438 -1.1899  0.7415
 6366SOL     OW30733   0.951   0.046  11.179 -0.9020  0.0591 -0.0035
 6366SOL    HW130734   0.940   4.718  11.249 -1.6893 -1.6622 -1.7528
 6366SOL    HW230735   0.981   0.114  11.239 -1.7791 -1.2312  1.9161
 6367SOL     OW30736   4.402   3.085   3.597  0.2385  0.1577  0.1733
 6367SOL    HW130737   4.430   2.999   3.566 -0.1397 -0.1826  0.7985
 6367SOL    HW230738   4.382   3.058   3.686  0.8661  0.5829  0.4378
 6368SOL     OW30739   1.949   3.930  15.438  0.3558  0.3341  0.3944
 6368SOL    HW130740   1.884   3.974  15.494  0.9564  0.2029  1.1987
 6368SOL    HW230741   1.889   3.916  15.365 -0.3597 -1.5456  1.3500
 6369SOL     OW30742   3.636   1.274   8.435  0.2931 -0.4820 -0.4715
 6369SOL    HW130743   3.706   1.257   8.372  1.4228  2.4555  0.0111
 6369SOL    HW230744   3.677   1.242   8.516 -1.5659  2.4709  1.6132
 6370SOL     OW30745   2.065   0.724   5.100 -0.2180  0.8863  0.0441
 6370SOL    HW130746   2.047   0.795   5.038 -1.9067  0.1604 -0.2902
 6370SOL    HW230747   2.155   0.735   5.129 -0.2559 -1.8048  1.1749
 6371SOL     OW30748   2.883   3.445   2.950  0.0975  0.3827 -0.4117
 6371SOL    HW130749   2.899   3.413   2.861 -0.3011 -1.6972  0.2709
 6371SOL    HW230750   2.970   3.435   2.988 -0.7728  0.3124  1.5467
 6372SOL     OW30751   1.657   0.848   4.355 -0.1511 -0.1076  0.4445
 6372SOL    HW130752   1.651   0.799   4.273 -1.1277  0.1174  0.3839
 6372SOL    HW230753   1.620   0.931   4.324 -0.4743  0.0630  1.2920
 6373SOL     OW30754   4.372   1.991   3.556 -0.3670 -0.1806 -0.0403
 6373SOL    HW130755   4.449   2.030   3.597 -0.2462 -1.1287  0.6239
 6373SOL    HW230756   4.343   1.917   3.609  0.5007 -1.1539 -0.9411
 6374SOL     OW30757   1.823   2.035  13.799  0.1765  0.1767  0.2539
 6374SOL    HW130758   1.755   1.976  13.766  0.9001 -1.4334  1.6573
 6374SOL    HW230759   1.896   2.005  13.745 -0.4913 -2.1524  0.6310
 6375SOL     OW30760   2.033   2.419  17.193 -0.6013  0.3649  0.0456
 6375SOL    HW130761   2.089   2.496  17.182 -0.2041 -0.0338 -0.6790
 6375SOL    HW230762   2.091   2.346  17.175  1.0312  1.5897  0.3940
 6376SOL     OW30763   0.433   4.416  15.873 -0.7101 -0.0948 -0.4091
 6376SOL    HW130764   0.460   4.354  15.941 -0.2153  1.2268  0.5998
 6376SOL    HW230765   0.390   4.356  15.812  0.9673 -0.8363 -0.8787
 6377SOL     OW30766   0.025   1.455   4.495  0.3619 -0.7822 -0.0007
 6377SOL    HW130767   0.107   1.412   4.472  0.6248 -0.4071  0.2367
 6377SOL    HW230768   4.716   1.427   4.416 -0.2627 -1.2196  0.5257
 6378SOL     OW30769   0.021   2.509   7.075 -0.0964  0.2192 -0.0776
 6378SOL    HW130770   0.040   2.527   7.168  0.8404  0.7025 -0.3619
 6378SOL    HW230771   0.002   2.416   7.084  0.5828  0.2040  1.3038
 6379SOL     OW30772   0.499   1.290   6.188 -0.1481 -0.3624  0.2772
 6379SOL    HW130773   0.436   1.225   6.221 -1.0383 -0.3285 -1.3512
 6379SOL    HW230774   0.562   1.300   6.259 -0.9349 -1.7271  1.1731
 6380SOL     OW30775   1.268   0.266   0.835 -0.1474 -0.6484 -0.0667
 6380SOL    HW130776   1.231   0.347   0.871  0.6763  0.1351 -0.9559
 6380SOL    HW230777   1.363   0.268   0.844  0.0089  2.3204 -2.3745
 6381SOL     OW30778   2.012   2.153   2.035 -0.4125 -0.7430 -0.2536
 6381SOL    HW130779   1.967   2.072   2.012 -1.3233 -0.2831 -0.1111
 6381SOL    HW230780   2.068   2.172   1.960 -0.9457  0.7063 -0.2810
 6382SOL     OW30781   0.903   1.918   2.402 -0.0384  0.3375 -0.1306
 6382SOL    HW130782   0.894   1.864   2.324  0.4846  1.3292 -0.8777
 6382SOL    HW230783   0.970   1.978   2.371 -0.5357 -0.1837 -2.1896
 6383SOL     OW30784   2.004   0.781   5.479 -0.3404 -0.1683  0.1702
 6383SOL    HW130785   2.095   0.753   5.470  0.4123  2.9776 -1.8785
 6383SOL    HW230786   2.017   0.826   5.563 -0.1566  2.0166 -1.0145
 6384SOL     OW30787   4.439   0.006   3.589  0.1157  0.7931  0.6379
 6384SOL    HW130788   4.423   0.077   3.651 -0.5922  0.5373  0.7550
 6384SOL    HW230789   4.527   0.035   3.565  1.0370 -3.9495 -1.6981
 6385SOL     OW30790   0.663   4.312   6.082 -0.5664  0.9500  0.2169
 6385SOL    HW130791   0.699   4.242   6.137 -0.2338  1.1305  0.2250
 6385SOL    HW230792   0.598   4.267   6.028  2.0830 -0.4072 -1.8550
 6386SOL     OW30793   4.478   0.728   3.194  0.1540  0.0640 -0.1478
 6386SOL    HW130794   4.495   0.822   3.187  1.4763 -0.2747 -1.4552
 6386SOL    HW230795   4.392   0.730   3.236  0.6371  0.8545  0.7843
 6387SOL     OW30796   2.952   3.733  14.622  0.3275  0.1546  0.4077
 6387SOL    HW130797   3.007   3.776  14.688 -0.2108  3.2039 -1.1242
 6387SOL    HW230798   3.010   3.728  14.546  0.6488 -0.2835  0.6863
 6388SOL     OW30799   4.693   0.082   6.842  0.5476  0.1653 -0.5959
 6388SOL    HW130800   4.720   4.734   6.809  0.5513 -0.2677  0.5356
 6388SOL    HW230801   4.599   0.061   6.847 -0.1454  2.6613 -3.3347
 6389SOL     OW30802   1.501   4.308   8.372  0.1237 -0.2627 -0.0946
 6389SOL    HW130803   1.434   4.324   8.439 -1.0118 -0.6208 -1.1306
 6389SOL    HW230804   1.575   4.277   8.424 -0.4795  3.4986  3.0060
 6390SOL     OW30805   3.624   4.440   8.469  0.1783  0.7526 -0.0604
 6390SOL    HW130806   3.625   4.519   8.415 -0.2276  2.2835  2.1599
 6390SOL    HW230807   3.712   4.437   8.509  0.0822 -2.0504 -0.1013
 6391SOL     OW30808   1.772   3.503   4.961  0.1775  0.3686 -0.0161
 6391SOL    HW130809   1.815   3.449   5.028  2.2122  2.2176  0.1670
 6391SOL    HW230810   1.681   3.504   4.992 -0.3930  0.5743 -1.7126
 6392SOL     OW30811   1.368   0.144   6.204  0.9826 -0.2888  0.2776
 6392SOL    HW130812   1.398   0.104   6.123 -1.5739  0.2685 -0.9458
 6392SOL    HW230813   1.439   0.117   6.262  2.0546  0.0450 -0.8827
 6393SOL     OW30814   1.786   2.478  16.098  0.0172  0.2221  0.0572
 6393SOL    HW130815   1.754   2.535  16.168  0.0381  1.2487 -0.7825
 6393SOL    HW230816   1.791   2.400  16.153  0.7624  1.8284  2.2490
 6394SOL     OW30817   0.870   3.736  16.561  0.0923  0.1064  0.0285
 6394SOL    HW130818   0.793   3.710  16.612 -0.6290  2.1467 -0.0092
 6394SOL    HW230819   0.850   3.828  16.576  0.7737  0.2377  0.1421
 6395SOL     OW30820   4.368   1.674   9.075 -0.1439 -0.9744 -0.4511
 6395SOL    HW130821   4.340   1.584   9.056 -1.0873 -0.4443 -1.5367
 6395SOL    HW230822   4.435   1.687   9.009  0.6468  2.7305  1.0770
 6396SOL     OW30823   3.791   0.471   3.882  0.0711  0.3767  0.0986
 6396SOL    HW130824   3.865   0.411   3.869 -1.7141 -1.3344 -2.0549
 6396SOL    HW230825   3.733   0.445   3.811  0.2295  3.5578 -1.2071
 6397SOL     OW30826   1.434   1.685   6.528 -0.5144 -1.3126  0.1953
 6397SOL    HW130827   1.341   1.691   6.550 -0.6777  0.9300 -1.0866
 6397SOL    HW230828   1.466   1.755   6.586 -2.4383 -0.9198  0.7808
 6398SOL     OW30829   1.655   0.173   6.206 -0.4108 -0.1553 -0.1231
 6398SOL    HW130830   1.715   0.224   6.152 -1.0744  0.0698 -0.6529
 6398SOL    HW230831   1.638   0.115   6.131  0.9729 -1.5075  0.6005
 6399SOL     OW30832   1.738   2.914  11.150  0.0889 -0.3764 -0.3852
 6399SOL    HW130833   1.773   2.932  11.237 -1.0630 -0.0839  0.0148
 6399SOL    HW230834   1.647   2.901  11.177  0.4794 -0.2459  0.9703
 6400SOL     OW30835   4.011   0.582   0.602  0.2265  0.7076  0.4490
 6400SOL    HW130836   4.077   0.648   0.580  1.8475 -1.0869 -0.1250
 6400SOL    HW230837   3.955   0.586   0.525 -3.0843 -1.7189  2.7488
 6401SOL     OW30838   2.475   3.755   6.022  0.6583  0.3220 -0.0163
 6401SOL    HW130839   2.558   3.802   6.018  0.0495  1.3557 -0.4810
 6401SOL    HW230840   2.414   3.824   5.996 -1.4858 -2.1230 -1.4107
 6402SOL     OW30841   1.950   1.546   4.385 -0.1366 -0.5085  0.2744
 6402SOL    HW130842   1.891   1.544   4.460 -0.6021 -1.4333 -0.1218
 6402SOL    HW230843   1.899   1.572   4.308  1.3769 -0.0753 -0.5944
 6403SOL     OW30844   3.347   3.379   7.733  0.4117 -0.1620  0.1054
 6403SOL    HW130845   3.308   3.349   7.651 -0.0045  1.1881 -0.1974
 6403SOL    HW230846   3.265   3.384   7.782  0.2876 -3.7186  0.2677
 6404SOL     OW30847   2.992   3.793   2.475 -0.2723  0.3998 -0.5979
 6404SOL    HW130848   2.909   3.745   2.475 -0.7244  1.1731 -0.4116
 6404SOL    HW230849   3.052   3.724   2.501  0.9091  1.1389 -1.3476
 6405SOL     OW30850   3.920   3.032  10.667  0.7010 -0.0520  0.0155
 6405SOL    HW130851   3.847   2.979  10.699  2.0896 -1.2703  1.1970
 6405SOL    HW230852   3.925   3.109  10.724  0.5805  0.0300 -0.0865
 6406SOL     OW30853   1.649   3.567   0.324  0.2389  0.3801 -0.5654
 6406SOL    HW130854   1.743   3.557   0.341  0.5158  0.1071 -2.2721
 6406SOL    HW230855   1.623   3.640   0.380 -1.0956 -1.1475  0.7963
 6407SOL     OW30856   0.421   4.353   2.762 -0.0553 -0.5148 -0.1228
 6407SOL    HW130857   0.449   4.425   2.818 -0.4860 -2.1334  2.1639
 6407SOL    HW230858   0.405   4.281   2.823 -0.4417  1.1906  1.7838
 6408SOL     OW30859   3.611   0.698   5.548 -0.5608 -0.2005 -0.6245
 6408SOL    HW130860   3.656   0.780   5.527 -0.4999 -0.1182 -0.1591
 6408SOL    HW230861   3.544   0.735   5.606 -2.0679 -0.0297 -2.4723
 6409SOL     OW30862   2.642   0.459   7.252 -0.7101 -0.5848  0.1258
 6409SOL    HW130863   2.723   0.445   7.301  0.0912  2.0115 -0.4429
 6409SOL    HW230864   2.682   0.494   7.173  1.4404 -0.9703  1.0429
 6410SOL     OW30865   2.783   1.638   6.641 -0.2016 -0.4471  0.1679
 6410SOL    HW130866   2.755   1.587   6.717  4.0953 -0.4901  1.7303
 6410SOL    HW230867   2.717   1.607   6.580 -2.6667  2.3554  1.3908
 6411SOL     OW30868   0.679   0.101   7.429 -0.1908 -0.5799  0.1739
 6411SOL    HW130869   0.596   0.108   7.381 -0.6281 -2.3109  0.6424
 6411SOL    HW230870   0.673   0.184   7.475  0.1621 -0.7000  0.4343
 6412SOL     OW30871   0.256   1.294   2.448  0.4858  0.0595  0.0784
 6412SOL    HW130872   0.311   1.372   2.444 -0.6207  0.8090 -0.4382
 6412SOL    HW230873   0.202   1.304   2.369  1.3470 -3.3837 -0.9523
 6413SOL     OW30874   2.641   4.315   4.615  0.6776  0.3066  0.4438
 6413SOL    HW130875   2.660   4.234   4.567 -2.4398 -0.1680  0.0582
 6413SOL    HW230876   2.686   4.304   4.699  1.2556  0.5482  0.1689
 6414SOL     OW30877   0.470   3.074   6.095  0.2336  0.2868 -0.0803
 6414SOL    HW130878   0.521   3.068   6.176  2.7121  2.1093 -1.5219
 6414SOL    HW230879   0.470   2.983   6.063 -2.4041  0.3845 -0.3583
 6415SOL     OW30880   3.055   3.177   8.493  0.4457 -0.0166 -0.0322
 6415SOL    HW130881   3.111   3.101   8.477 -0.6132 -0.6260 -0.8206
 6415SOL    HW230882   3.088   3.214   8.575 -0.2811  0.2576  0.1357
 6416SOL     OW30883   0.855   3.904   2.040 -0.1020 -0.8450  0.0332
 6416SOL    HW130884   0.781   3.941   1.993 -1.2688 -1.0051  1.7415
 6416SOL    HW230885   0.923   3.954   1.994 -0.1542 -1.3995 -0.6493
 6417SOL     OW30886   4.521   0.784  14.610  0.2340  0.6237  0.5477
 6417SOL    HW130887   4.470   0.837  14.671  0.1237  2.0545 -0.7861
 6417SOL    HW230888   4.611   0.799  14.639 -0.2610  0.1814  2.2909
 6418SOL     OW30889   3.885   3.658   4.844 -0.2046  0.0632  0.1720
 6418SOL    HW130890   3.915   3.599   4.774 -0.2507 -1.7853  1.6993
 6418SOL    HW230891   3.858   3.737   4.798  0.8858  1.1262  1.3354
 6419SOL     OW30892   3.759   2.129   7.728  0.3517 -0.0234  0.0053
 6419SOL    HW130893   3.851   2.118   7.755  0.0160 -1.8248  0.4677
 6419SOL    HW230894   3.758   2.158   7.637 -1.9323  0.9625  0.3608
 6420SOL     OW30895   0.640   3.409   4.995  0.3314 -0.1023  0.0078
 6420SOL    HW130896   0.723   3.385   4.955  1.2055  1.2450  1.0033
 6420SOL    HW230897   0.641   3.336   5.056  0.3211 -0.8599 -0.8955
 6421SOL     OW30898   2.334   1.483   4.533 -0.1725 -0.0098  0.1483
 6421SOL    HW130899   2.265   1.477   4.467 -1.2410 -0.8174  1.3410
 6421SOL    HW230900   2.389   1.554   4.500  1.7414 -2.1021 -1.2112
 6422SOL     OW30901   2.751   2.069   8.866  0.4904 -0.4059 -0.2616
 6422SOL    HW130902   2.846   2.075   8.868  0.3244  1.8673  0.0473
 6422SOL    HW230903   2.730   1.979   8.891  0.9848 -0.0289  1.5019
 6423SOL     OW30904   0.326   2.358   9.049 -0.2684 -0.1700  1.6370
 6423SOL    HW130905   0.259   2.379   9.115 -0.7722 -1.2526  1.4643
 6423SOL    HW230906   0.339   2.268   9.079 -1.1587 -1.1268 -0.8625
 6424SOL     OW30907   4.194   0.511  12.206 -0.2080  0.3806  0.9046
 6424SOL    HW130908   4.259   0.552  12.263  1.7133  0.8298 -1.5761
 6424SOL    HW230909   4.115   0.538  12.252 -1.1551 -0.5313 -0.1777
 6425SOL     OW30910   4.651   0.360  15.136 -0.1339  0.3180 -0.8345
 6425SOL    HW130911   4.678   0.375  15.045  0.0124 -0.4166 -0.9096
 6425SOL    HW230912   4.625   0.268  15.141 -1.2538  0.7115  0.7000
 6426SOL     OW30913   0.330   4.173   7.632  0.7538  0.3369  0.2730
 6426SOL    HW130914   0.245   4.176   7.676  0.9479  0.6533  0.6247
 6426SOL    HW230915   0.393   4.138   7.695 -0.7921 -2.6361  0.1464
 6427SOL     OW30916   3.587   3.539   2.928  0.4670  0.1098 -0.0177
 6427SOL    HW130917   3.594   3.469   2.863 -0.1466 -0.4606  0.5365
 6427SOL    HW230918   3.534   3.490   2.990 -0.0443 -0.5551 -0.9811
 6428SOL     OW30919   2.301   1.486  14.073 -0.0701  0.0018 -0.1204
 6428SOL    HW130920   2.337   1.496  14.161 -0.8915 -1.3590  0.3772
 6428SOL    HW230921   2.371   1.516  14.016  0.1498  1.8862  1.1559
 6429SOL     OW30922   2.651   4.366   6.969  0.1385  0.5474 -0.3752
 6429SOL    HW130923   2.654   4.317   6.887 -0.3580 -1.1234  0.5955
 6429SOL    HW230924   2.600   4.443   6.943  1.5075  0.8725 -2.0054
 6430SOL     OW30925   0.942   4.215   2.680 -0.2792 -0.2566 -0.4974
 6430SOL    HW130926   1.006   4.213   2.751  0.5204 -2.7433 -1.2801
 6430SOL    HW230927   0.864   4.211   2.736  2.1051  0.2174  2.8476
 6431SOL     OW30928   0.101   4.397  10.274 -0.4971 -0.5925  0.3338
 6431SOL    HW130929   0.008   4.382  10.291 -0.5966  0.9951  1.2494
 6431SOL    HW230930   0.144   4.357  10.350  1.0542 -1.0911 -0.8139
 6432SOL     OW30931   1.594   1.781   8.766 -0.5004 -0.1942  0.1826
 6432SOL    HW130932   1.530   1.829   8.714  0.7505  0.0726 -1.1077
 6432SOL    HW230933   1.590   1.833   8.847 -1.4513  0.9692 -0.6061
 6433SOL     OW30934   2.770   2.143   8.264 -0.4943 -0.0783  0.3089
 6433SOL    HW130935   2.778   2.150   8.359 -1.7248 -1.2097  0.5008
 6433SOL    HW230936   2.787   2.048   8.266  1.3709  0.2401 -0.3255
 6434SOL     OW30937   1.583   4.153  15.354 -0.3881 -0.3295  0.3894
 6434SOL    HW130938   1.664   4.141  15.403 -1.5152 -0.3450  2.2436
 6434SOL    HW230939   1.594   4.101  15.274  0.9405 -0.4184  0.6374
 6435SOL     OW30940   1.434   2.955  15.148 -0.0265  0.6149 -0.1617
 6435SOL    HW130941   1.504   2.968  15.212  1.3041 -1.8462 -1.1037
 6435SOL    HW230942   1.400   2.872  15.182  2.1425 -0.0415  0.3774
 6436SOL     OW30943   4.733   0.815  16.409 -0.6656  0.4175 -0.8210
 6436SOL    HW130944   4.720   0.748  16.342  0.5243 -1.7733  1.1139
 6436SOL    HW230945   4.707   0.773  16.491 -2.4608 -1.5063 -2.3914
 6437SOL     OW30946   3.357   1.435   5.438  0.5917 -0.0033  0.2751
 6437SOL    HW130947   3.430   1.375   5.450  1.1823  0.4012 -1.2745
 6437SOL    HW230948   3.301   1.413   5.513 -0.9618  0.2435 -0.8133
 6438SOL     OW30949   2.909   1.841   5.347  0.5077  0.2696 -0.2234
 6438SOL    HW130950   2.902   1.886   5.263  1.7408 -0.6367 -0.8187
 6438SOL    HW230951   2.827   1.795   5.331  0.2933  0.7575 -0.5126
 6439SOL     OW30952   0.173   4.164   6.494  0.1917 -0.0058  0.1902
 6439SOL    HW130953   0.189   4.077   6.530 -2.5491 -0.4229  0.3592
 6439SOL    HW230954   0.242   4.214   6.538  1.8754 -2.2992  0.1515
 6440SOL     OW30955   1.013   3.157   9.219 -1.1999 -0.3938 -0.1543
 6440SOL    HW130956   1.106   3.175   9.233 -1.0002 -2.3023  1.1188
 6440SOL    HW230957   0.977   3.242   9.246  0.0915 -0.2060  0.9669
 6441SOL     OW30958   1.965   0.091   2.108 -0.4224 -0.0083  0.1209
 6441SOL    HW130959   1.910   0.144   2.166  0.3575 -0.0333  0.8793
 6441SOL    HW230960   2.040   0.097   2.166  0.4936  2.8644 -1.3150
 6442SOL     OW30961   1.971   2.665  11.538 -0.8363 -0.4961 -0.0061
 6442SOL    HW130962   2.013   2.579  11.532 -1.0443 -0.6167  0.2810
 6442SOL    HW230963   2.049   2.718  11.524 -0.7819 -1.1635 -2.1802
 6443SOL     OW30964   1.595   2.918   3.987  0.1485 -0.4816 -0.1014
 6443SOL    HW130965   1.607   2.901   4.080 -2.0847  0.7988  0.4159
 6443SOL    HW230966   1.684   2.942   3.962 -0.4437  0.6717 -1.1067
 6444SOL     OW30967   4.232   2.405  13.270 -0.4131  0.2361 -0.3226
 6444SOL    HW130968   4.293   2.402  13.197 -0.4215 -1.1441 -0.2771
 6444SOL    HW230969   4.146   2.384  13.233  0.1304  1.0504 -2.0213
 6445SOL     OW30970   3.384   0.047   7.918 -0.0891 -0.2895  0.1599
 6445SOL    HW130971   3.313   0.012   7.865 -2.1490 -0.0410  2.7718
 6445SOL    HW230972   3.433   0.099   7.854  0.1281 -0.5544  0.1129
 6446SOL     OW30973   1.621   4.479   8.159  0.7283 -0.3723  0.4470
 6446SOL    HW130974   1.657   4.448   8.242  1.0331 -0.9045  0.1181
 6446SOL    HW230975   1.530   4.465   8.187  0.2397 -0.0643 -0.9805
 6447SOL     OW30976   3.944   0.732   5.872 -0.0105 -0.4710 -0.2366
 6447SOL    HW130977   3.946   0.660   5.809  2.7240 -1.9765  1.6345
 6447SOL    HW230978   3.854   0.719   5.902  1.0531 -3.0659  1.7268
 6448SOL     OW30979   0.256   2.796   1.939  0.7129 -0.9221  0.3099
 6448SOL    HW130980   0.207   2.725   1.897  0.1798 -1.3045  1.5950
 6448SOL    HW230981   0.324   2.826   1.878  1.0926 -2.5041 -0.0479
 6449SOL     OW30982   0.227   0.844  10.328 -0.1117  0.1415  0.7062
 6449SOL    HW130983   0.270   0.920  10.289 -0.2170 -0.7066 -1.0571
 6449SOL    HW230984   0.145   0.883  10.360  0.2312  0.3670  1.3124
 6450SOL     OW30985   4.541   1.273   7.924 -0.4073 -0.0327 -0.3462
 6450SOL    HW130986   4.448   1.277   7.945 -0.2655  3.9341 -0.4483
 6450SOL    HW230987   4.544   1.358   7.881  0.5512 -0.4593 -1.1402
 6451SOL     OW30988   1.081   3.391  13.781  0.2594  0.2633 -0.4836
 6451SOL    HW130989   1.082   3.368  13.688  1.5197  0.8789 -0.6209
 6451SOL    HW230990   1.007   3.337  13.807  0.4420  0.0624 -0.3752
 6452SOL     OW30991   2.987   2.241   6.340  0.1649 -0.4915  0.3176
 6452SOL    HW130992   3.029   2.326   6.349 -0.3306 -0.1987 -0.1399
 6452SOL    HW230993   2.978   2.246   6.244  2.6028 -2.6433 -0.0124
 6453SOL     OW30994   3.962   2.874   4.396  0.1659 -0.2418 -0.1774
 6453SOL    HW130995   4.009   2.792   4.411 -0.9161 -0.4785  1.9823
 6453SOL    HW230996   3.898   2.833   4.338  0.1165 -0.3600 -0.0390
 6454SOL     OW30997   2.171   3.027   3.041 -1.0681  0.5777 -0.0212
 6454SOL    HW130998   2.229   3.073   2.981 -1.1044  0.4563 -0.1482
 6454SOL    HW230999   2.221   3.027   3.123  1.0326 -2.2613 -1.2993
 6455SOL     OW31000   0.418   2.373   3.565  0.0749 -0.6338  0.0399
 6455SOL    HW131001   0.407   2.291   3.517 -0.3717 -0.0088 -0.9174
 6455SOL    HW231002   0.480   2.346   3.634  0.3320 -2.6392 -0.9866
 6456SOL     OW31003   4.206   0.847  16.961  0.3638 -0.0177  0.2718
 6456SOL    HW131004   4.271   0.906  17.001  0.1931 -0.1072  0.6865
 6456SOL    HW231005   4.203   0.773  17.022 -0.2122  0.5618  0.9472
 6457SOL     OW31006   0.319   3.464  14.895  0.0259 -0.1727 -0.3508
 6457SOL    HW131007   0.413   3.448  14.886 -0.4209 -2.3347 -1.0368
 6457SOL    HW231008   0.312   3.446  14.989 -2.0682  2.5832  0.0453
 6458SOL     OW31009   1.531   3.718   9.869 -0.1531  0.2282  0.5033
 6458SOL    HW131010   1.478   3.646   9.904 -1.6496  0.8236 -0.5624
 6458SOL    HW231011   1.469   3.780   9.829  1.2767  1.1080 -0.3442
 6459SOL     OW31012   1.448   0.407   8.566 -0.0749  0.0440 -0.1546
 6459SOL    HW131013   1.479   0.316   8.564  0.2540  0.2245 -3.4280
 6459SOL    HW231014   1.420   0.413   8.475 -0.9630 -2.5165 -0.0440
 6460SOL     OW31015   1.017   3.969   7.648  0.2933  0.2230  0.0488
 6460SOL    HW131016   0.963   3.979   7.727  1.0719 -0.3027  0.6504
 6460SOL    HW231017   1.025   4.063   7.629  0.2240  0.2497  0.1506
 6461SOL     OW31018   4.561   1.319  11.796 -0.0834 -0.1641 -0.7415
 6461SOL    HW131019   4.640   1.368  11.774 -0.2198  0.0201 -0.8256
 6461SOL    HW231020   4.508   1.338  11.719 -0.1719  3.4516  0.1759
 6462SOL     OW31021   1.160   1.563  16.007 -0.6272  0.1253 -0.2534
 6462SOL    HW131022   1.076   1.605  16.024  0.1140  1.3816  0.3359
 6462SOL    HW231023   1.200   1.635  15.958  0.8352  1.7366  3.2689
 6463SOL     OW31024   0.192   3.811   1.469 -0.1109 -0.1356 -0.4794
 6463SOL    HW131025   0.165   3.723   1.443 -3.0276  0.7156 -0.3270
 6463SOL    HW231026   0.237   3.824   1.385  2.3150  0.0068  0.8255
 6464SOL     OW31027   0.652   0.906  12.837 -0.0559  0.1367  0.2643
 6464SOL    HW131028   0.730   0.850  12.840 -0.3951 -0.4583 -1.7664
 6464SOL    HW231029   0.668   0.943  12.750  0.4035 -0.6814 -0.0006
 6465SOL     OW31030   4.165   3.388  16.223 -0.1906  0.1332  0.1468
 6465SOL    HW131031   4.191   3.465  16.173 -0.6344 -0.7129 -1.4123
 6465SOL    HW231032   4.149   3.331  16.147  0.3034 -1.0642  0.9404
 6466SOL     OW31033   4.486   2.711   4.450  0.1462  0.5146  0.0346
 6466SOL    HW131034   4.418   2.760   4.496  1.8216  1.6363  1.3137
 6466SOL    HW231035   4.555   2.761   4.494  1.1395 -0.5255 -0.3282
 6467SOL     OW31036   2.130   1.219   7.623 -0.4367  0.4266  0.3813
 6467SOL    HW131037   2.140   1.271   7.543  0.3431 -0.4838 -0.1125
 6467SOL    HW231038   2.088   1.284   7.679 -0.3470  1.2027 -0.4555
 6468SOL     OW31039   0.960   1.351   2.195 -0.4256  0.1467  0.1914
 6468SOL    HW131040   1.025   1.403   2.147 -1.9872  2.8397  1.0249
 6468SOL    HW231041   0.887   1.412   2.193 -0.0663  0.5745 -0.0678
 6469SOL     OW31042   2.343   4.729   3.393  0.1537 -0.3120  0.2768
 6469SOL    HW131043   2.316   4.703   3.481 -0.7127  2.1735  0.7298
 6469SOL    HW231044   2.254   4.732   3.358  0.3534  0.5120 -0.1449
 6470SOL     OW31045   3.121   0.909   6.644  0.2499 -0.1218 -0.4406
 6470SOL    HW131046   3.089   0.978   6.587  0.8651  2.4213  2.3000
 6470SOL    HW231047   3.073   0.937   6.722  0.0415 -0.6510 -0.3744
 6471SOL     OW31048   3.940   3.315   2.061  0.4570 -0.1487 -0.2958
 6471SOL    HW131049   3.992   3.324   1.981 -1.6968 -1.2339 -1.8102
 6471SOL    HW231050   3.859   3.356   2.032  0.8903  1.5264  0.8400
 6472SOL     OW31051   4.430   2.244   5.183  0.6460 -0.1011  0.4866
 6472SOL    HW131052   4.418   2.167   5.129 -1.5651  1.0561 -0.6852
 6472SOL    HW231053   4.344   2.285   5.193 -0.0444 -1.2830 -0.7684
 6473SOL     OW31054   0.949   2.096   3.666  0.5334  0.3120 -0.2216
 6473SOL    HW131055   1.007   2.053   3.604 -0.0048 -1.0220  0.2113
 6473SOL    HW231056   0.958   2.188   3.639  0.0283  0.3602 -0.2214
 6474SOL     OW31057   2.959   0.969   2.696  0.0998 -0.0496 -0.1434
 6474SOL    HW131058   3.039   0.922   2.674  0.6448  0.9604 -0.3237
 6474SOL    HW231059   2.981   1.060   2.674 -0.7443 -0.5868 -3.2044
 6475SOL     OW31060   1.624   4.692   3.708 -0.3871  0.8020 -0.1685
 6475SOL    HW131061   1.637   0.030   3.651  0.9189  0.5010 -0.2697
 6475SOL    HW231062   1.623   4.635   3.631  1.1050 -0.5042  0.7597
 6476SOL     OW31063   1.873   0.697  17.422  0.5775  0.1342  0.0046
 6476SOL    HW131064   1.856   0.757  17.494  0.5116 -0.2626  0.3239
 6476SOL    HW231065   1.785   0.690  17.383  0.3246 -1.2860  0.8307
 6477SOL     OW31066   2.063   4.708   6.397 -0.1407 -0.2096  0.1424
 6477SOL    HW131067   2.037   4.672   6.482  2.0353 -1.7553  0.1666
 6477SOL    HW231068   1.993   4.679   6.340 -0.6014  0.2292  0.4831
 6478SOL     OW31069   2.297   4.347   5.013  0.1980  0.1213  0.0484
 6478SOL    HW131070   2.318   4.426   4.964 -2.6785  0.7799 -0.1155
 6478SOL    HW231071   2.374   4.318   5.064  0.2529  0.6561  0.2657
 6479SOL     OW31072   1.658   2.086   0.535 -0.0410 -0.3113  0.0568
 6479SOL    HW131073   1.577   2.052   0.572  0.4769 -1.6569 -0.0394
 6479SOL    HW231074   1.638   2.112   0.445  4.5217 -0.9657 -1.1392
 6480SOL     OW31075   3.176   4.562   7.074 -0.1472  0.6807 -0.1335
 6480SOL    HW131076   3.144   4.471   7.069 -0.6270  0.7878  1.1211
 6480SOL    HW231077   3.154   4.590   6.985 -0.3142  1.6461  0.2202
 6481SOL     OW31078   0.843   2.743  14.913 -0.5080 -0.0195  0.0070
 6481SOL    HW131079   0.900   2.673  14.881  1.3680  1.6470 -0.3274
 6481SOL    HW231080   0.904   2.813  14.937  0.0868 -0.4587 -0.2350
 6482SOL     OW31081   1.515   4.608   2.015 -0.5961 -0.0756 -0.2458
 6482SOL    HW131082   1.536   4.521   2.050  0.7282  0.6446  0.7440
 6482SOL    HW231083   1.420   4.604   2.012 -0.6052  1.4552 -2.2114
 6483SOL     OW31084   0.264   1.439   0.606 -0.1698 -0.1261  0.2928
 6483SOL    HW131085   0.315   1.486   0.672  2.0614 -2.1189 -0.0412
 6483SOL    HW231086   0.261   1.349   0.640  2.3560 -0.6273 -0.8509
 6484SOL     OW31087   3.896   2.701   9.620  0.6375 -0.5188 -0.1545
 6484SOL    HW131088   3.821   2.733   9.669  0.2272 -1.3381 -0.2504
 6484SOL    HW231089   3.924   2.624   9.670  0.2879  0.1356  1.0237
 6485SOL     OW31090   4.488   0.971   4.687  0.4177 -0.3847  0.1281
 6485SOL    HW131091   4.536   0.907   4.634 -0.9267 -1.0670 -0.2605
 6485SOL    HW231092   4.528   1.052   4.654 -0.5767  0.0688  0.0457
 6486SOL     OW31093   4.698   2.403   2.043  0.1614 -0.9557 -0.5111
 6486SOL    HW131094   0.045   2.371   2.013  0.5602 -0.1903 -0.2076
 6486SOL    HW231095   4.717   2.496   2.055  0.2225 -1.2050  1.3989
 6487SOL     OW31096   2.816   2.815   3.664  0.1515 -0.2709  0.2464
 6487SOL    HW131097   2.722   2.834   3.662  1.0195  3.8149 -0.3358
 6487SOL    HW231098   2.857   2.884   3.716 -0.8345  0.6970 -0.2732
 6488SOL     OW31099   4.625   2.435   5.612 -0.1167 -0.9245  0.1548
 6488SOL    HW131100   4.715   2.436   5.579  0.3012  0.5980  1.3497
 6488SOL    HW231101   4.591   2.377   5.543 -1.6245 -0.5240  0.5710
 6489SOL     OW31102   3.372   3.455   6.029  0.3079 -0.5627 -0.0427
 6489SOL    HW131103   3.405   3.397   6.098  1.0251 -2.3742 -1.9037
 6489SOL    HW231104   3.449   3.444   5.972 -0.5592  1.3138 -1.5842
 6490SOL     OW31105   1.575   3.674   1.833 -0.2115  0.1775 -0.0219
 6490SOL    HW131106   1.481   3.685   1.818 -0.2351  1.0353  0.7925
 6490SOL    HW231107   1.590   3.580   1.822  1.9874  0.2968  1.8852
 6491SOL     OW31108   0.685   3.320   2.074  0.5566  0.9360 -0.2384
 6491SOL    HW131109   0.758   3.260   2.086  2.2881  2.4158 -3.3401
 6491SOL    HW231110   0.685   3.385   2.144 -0.3414  1.2701 -0.5405
 6492SOL     OW31111   0.470   3.240  10.529 -0.4774 -0.5152  0.5848
 6492SOL    HW131112   0.431   3.177  10.469  1.5474 -1.2923  0.1075
 6492SOL    HW231113   0.447   3.328  10.501 -1.7788 -0.6468  1.2249
 6493SOL     OW31114   0.498   0.803   3.460  0.2532 -0.3580 -0.1410
 6493SOL    HW131115   0.593   0.794   3.467 -0.0676 -2.4683  1.3987
 6493SOL    HW231116   0.466   0.714   3.445 -1.0972 -0.4539  3.3920
 6494SOL     OW31117   3.649   2.727   7.875  0.2318  0.5382 -0.6508
 6494SOL    HW131118   3.609   2.782   7.942  0.8509  0.3205 -0.1107
 6494SOL    HW231119   3.671   2.793   7.810 -0.0220 -0.7474 -2.0508
 6495SOL     OW31120   1.955   2.003   6.866 -0.1397  0.0501 -0.0065
 6495SOL    HW131121   1.929   2.062   6.936  1.6421 -0.5318  1.1555
 6495SOL    HW231122   2.045   1.986   6.896  0.1844 -0.3884 -1.2048
 6496SOL     OW31123   1.237   0.898   6.106 -0.1306 -0.6218 -0.0991
 6496SOL    HW131124   1.302   0.911   6.175 -0.0776 -0.1298 -0.2487
 6496SOL    HW231125   1.163   0.937   6.153 -0.7276  0.1600 -1.6948
 6497SOL     OW31126   0.257   3.467   3.350  0.1336  0.0565  0.4297
 6497SOL    HW131127   0.174   3.512   3.363  0.3077  0.4610  0.1514
 6497SOL    HW231128   0.240   3.430   3.263 -0.8501 -1.1657  1.1479
 6498SOL     OW31129   2.940   3.074   9.803 -0.3643  0.2311  0.0080
 6498SOL    HW131130   2.992   3.144   9.763 -0.3374  1.0872  1.5233
 6498SOL    HW231131   2.855   3.096   9.765  0.5998  2.8188 -0.6950
 6499SOL     OW31132   0.560   2.391   6.432  0.1200 -0.4664 -0.3135
 6499SOL    HW131133   0.484   2.336   6.412  0.0274 -0.7873  0.9026
 6499SOL    HW231134   0.533   2.447   6.504 -0.3761 -0.6459 -0.3569
 6500SOL     OW31135   1.038   1.966   3.435  0.3505 -0.4574 -0.5418
 6500SOL    HW131136   1.001   1.923   3.357  2.4656  0.2967 -1.9455
 6500SOL    HW231137   1.021   2.058   3.412  1.0406  0.2490  1.8048
 6501SOL     OW31138   2.564   2.828   2.324 -0.1975 -0.0644 -0.5776
 6501SOL    HW131139   2.511   2.809   2.246  0.6068  0.4000 -1.2351
 6501SOL    HW231140   2.491   2.826   2.386  0.8922 -1.9255  0.6614
 6502SOL     OW31141   1.151   4.242   1.426  0.3929 -0.3951  0.1706
 6502SOL    HW131142   1.142   4.281   1.339 -0.7816 -0.2964  0.3317
 6502SOL    HW231143   1.186   4.155   1.409  0.8963 -0.3064  0.7457
 6503SOL     OW31144   3.239   3.870   5.984  0.0402 -0.7513  0.3808
 6503SOL    HW131145   3.305   3.939   5.977 -0.3818 -0.1289  2.5347
 6503SOL    HW231146   3.286   3.801   6.031 -1.0740 -1.1903  0.8571
 6504SOL     OW31147   4.719   0.662   4.874 -0.5788  0.2104 -0.1709
 6504SOL    HW131148   0.066   0.639   4.910  0.8188 -0.1132 -3.7061
 6504SOL    HW231149   4.722   0.752   4.840  1.1370  0.2377  0.0555
 6505SOL     OW31150   2.257   3.348   6.663 -0.4475  0.3878  0.1551
 6505SOL    HW131151   2.191   3.290   6.701 -1.7317  1.4370 -0.4754
 6505SOL    HW231152   2.222   3.358   6.575 -1.4820 -1.8028  0.3122
 6506SOL     OW31153   2.306   0.249   8.885  0.2892  0.1885 -0.3245
 6506SOL    HW131154   2.238   0.287   8.829  0.1364 -2.8941 -2.2669
 6506SOL    HW231155   2.304   0.297   8.968 -0.0417  0.9787 -0.7906
 6507SOL     OW31156   3.532   3.750   6.400 -0.0437 -0.6192  0.7680
 6507SOL    HW131157   3.553   3.776   6.490  0.0371  3.5694 -0.4734
 6507SOL    HW231158   3.577   3.821   6.355 -1.5813 -0.3870 -0.3799
 6508SOL     OW31159   3.048   3.822   4.278  0.2183 -0.4645 -0.3208
 6508SOL    HW131160   3.046   3.744   4.333  3.1533  0.2577  0.7651
 6508SOL    HW231161   3.142   3.833   4.287  0.2168 -0.3575 -0.4289
 6509SOL     OW31162   0.425   1.891   4.941 -0.0757  0.3762 -0.5066
 6509SOL    HW131163   0.410   1.944   4.863 -0.6117  1.7676  0.5446
 6509SOL    HW231164   0.512   1.856   4.922  1.5375  2.4096  2.9914
 6510SOL     OW31165   3.442   2.092   2.836  1.0390 -0.2110 -0.6477
 6510SOL    HW131166   3.432   2.033   2.762 -3.9076  0.5966 -0.6271
 6510SOL    HW231167   3.531   2.069   2.862  0.3409 -0.5133  1.5414
 6511SOL     OW31168   4.485   2.221   4.793  0.2919  0.0042  0.5353
 6511SOL    HW131169   4.417   2.266   4.742  0.0402 -0.4297  0.4897
 6511SOL    HW231170   4.433   2.143   4.815  3.2712 -2.4896 -1.3073
 6512SOL     OW31171   0.268   1.364  16.037 -0.7509 -0.0833  0.1706
 6512SOL    HW131172   0.323   1.324  15.970 -2.6026  1.9873 -2.5870
 6512SOL    HW231173   0.262   1.455  16.009 -0.8656 -0.6457 -1.6375
 6513SOL     OW31174   3.257   2.917   2.890  0.0302  0.3709  0.0747
 6513SOL    HW131175   3.179   2.950   2.936  0.5132 -0.9712  1.8868
 6513SOL    HW231176   3.220   2.839   2.850 -0.1296  2.0967 -3.0978
 6514SOL     OW31177   2.873   0.520   3.092  0.8491  0.4885 -0.1635
 6514SOL    HW131178   2.958   0.563   3.103  0.8144  0.8450 -1.2880
 6514SOL    HW231179   2.896   0.447   3.035 -0.9699 -0.4629  0.3515
 6515SOL     OW31180   3.025   1.749   6.593 -0.1673 -0.5573 -0.3462
 6515SOL    HW131181   2.994   1.825   6.543 -0.1932 -1.3463 -1.5125
 6515SOL    HW231182   2.945   1.712   6.630 -0.6890  1.0640  0.1390
 6516SOL     OW31183   1.394   3.856   3.495  0.3655 -0.4947  0.0837
 6516SOL    HW131184   1.389   3.950   3.511  2.9410 -0.3346 -0.0645
 6516SOL    HW231185   1.303   3.836   3.472  0.3064 -1.1425  0.9083
 6517SOL     OW31186   2.320   1.487   6.500  0.3260 -0.2158 -0.1816
 6517SOL    HW131187   2.316   1.455   6.410 -0.4995  1.3371 -0.6953
 6517SOL    HW231188   2.256   1.558   6.495  0.5285 -0.2500 -3.3858
 6518SOL     OW31189   4.627   3.582   9.676 -0.3006  0.0231 -0.6316
 6518SOL    HW131190   4.539   3.619   9.663 -0.1504  0.5140 -0.2558
 6518SOL    HW231191   4.665   3.669   9.661  2.6397 -0.7591  2.5045
 6519SOL     OW31192   3.007   4.520  15.317  0.1403 -0.2352 -0.0625
 6519SOL    HW131193   2.952   4.572  15.375  1.0943 -0.4524  1.0293
 6519SOL    HW231194   2.938   4.513  15.250  0.0446 -1.5675  0.1888
 6520SOL     OW31195   0.322   1.585   4.367 -0.1196 -0.1060  0.4938
 6520SOL    HW131196   0.332   1.502   4.319 -1.2920 -1.2339  2.1756
 6520SOL    HW231197   0.230   1.580   4.393 -0.6346  1.2909 -1.0516
 6521SOL     OW31198   0.698   1.744   6.197  0.6960  0.3797  0.1521
 6521SOL    HW131199   0.708   1.679   6.127  1.4474  0.7081 -0.0533
 6521SOL    HW231200   0.644   1.705   6.266 -1.3483  1.5142 -0.8412
 6522SOL     OW31201   0.529   3.260  10.948 -0.2451  0.1370  0.0074
 6522SOL    HW131202   0.609   3.256  11.000 -1.9730 -0.1197  2.6522
 6522SOL    HW231203   0.499   3.350  10.959 -0.7107  0.2272 -1.9481
 6523SOL     OW31204   1.321   0.777   8.954 -0.4272  0.0777 -0.0098
 6523SOL    HW131205   1.372   0.702   8.983 -0.1083  1.1788  2.2736
 6523SOL    HW231206   1.353   0.855   9.000  1.1157  0.1570 -1.2320
 6524SOL     OW31207   2.923   3.141   5.783 -0.6551  0.9326  0.4541
 6524SOL    HW131208   2.896   3.226   5.749  0.6797  1.6599  1.2370
 6524SOL    HW231209   2.844   3.091   5.760  0.4026  0.1531 -1.4600
 6525SOL     OW31210   2.980   1.804   0.275  0.0916 -0.0933 -0.5519
 6525SOL    HW131211   3.031   1.861   0.333 -0.5589 -1.7398  1.6367
 6525SOL    HW231212   3.047   1.773   0.214 -1.1171 -0.6674 -1.5918
 6526SOL     OW31213   0.624   3.614  11.073 -0.2044 -0.1760 -0.8983
 6526SOL    HW131214   0.544   3.632  11.123 -0.8627 -0.3379 -1.8921
 6526SOL    HW231215   0.676   3.559  11.132 -0.2698  2.3879  1.5802
 6527SOL     OW31216   0.090   1.448  16.237 -0.1388  0.6462 -0.6056
 6527SOL    HW131217   0.140   1.415  16.162  2.7069 -0.2072  1.6735
 6527SOL    HW231218   0.102   1.543  16.236  0.0189  0.6400  1.3302
 6528SOL     OW31219   3.930   0.579   4.398 -0.1114  0.6102 -0.7329
 6528SOL    HW131220   3.930   0.484   4.398  1.3091  0.6075 -1.0775
 6528SOL    HW231221   3.925   0.599   4.305  0.9489 -2.0434 -1.3586
 6529SOL     OW31222   1.857   2.204  10.266 -0.0072  0.0227  0.6033
 6529SOL    HW131223   1.903   2.275  10.311  0.6964  1.8154 -2.9824
 6529SOL    HW231224   1.914   2.127  10.274  1.1539  0.6686 -1.6702
 6530SOL     OW31225   0.030   4.366   5.016 -0.1328 -0.0607 -0.1092
 6530SOL    HW131226   4.732   4.454   5.024  1.3372  0.7136 -1.8463
 6530SOL    HW231227   4.688   4.315   5.028 -0.7814  0.4606 -2.1240
 6531SOL     OW31228   3.961   2.542   8.872 -0.4309 -0.3881 -0.2627
 6531SOL    HW131229   4.022   2.610   8.900 -0.4344 -0.7065  0.5077
 6531SOL    HW231230   3.988   2.465   8.921 -1.5108 -1.3812 -1.2101
 6532SOL     OW31231   1.478   3.357   3.575  0.6113 -0.4714 -0.3171
 6532SOL    HW131232   1.518   3.280   3.615 -0.2149 -0.8978 -0.3062
 6532SOL    HW231233   1.454   3.412   3.650  0.2178 -0.5403 -0.3938
 6533SOL     OW31234   1.399   2.063   7.944  0.6279  0.0176 -0.2743
 6533SOL    HW131235   1.336   2.006   7.988  0.5875 -0.5332 -1.0518
 6533SOL    HW231236   1.474   2.031   7.995  1.7777  3.0910 -0.0476
 6534SOL     OW31237   1.408   4.429   2.402  0.4396 -0.1944  0.2627
 6534SOL    HW131238   1.371   4.399   2.319  1.5505  1.6521 -0.9066
 6534SOL    HW231239   1.351   4.381   2.462  0.3492 -1.0195 -0.4858
 6535SOL     OW31240   0.162   1.801  11.124 -0.3749  0.4749  0.0651
 6535SOL    HW131241   0.195   1.884  11.089 -2.1971  0.4716 -1.6385
 6535SOL    HW231242   0.227   1.788  11.194 -0.9547 -4.0671 -0.1886
 6536SOL     OW31243   2.043   3.371   9.483 -0.5325 -0.5331  0.1599
 6536SOL    HW131244   1.950   3.370   9.459  0.2928  2.2365 -3.2207
 6536SOL    HW231245   2.046   3.364   9.578 -0.0876 -0.9908  0.1129
 6537SOL     OW31246   2.624   1.194   8.375  0.3293 -0.1313  0.0707
 6537SOL    HW131247   2.530   1.201   8.360  0.4015  3.8727  1.7123
 6537SOL    HW231248   2.625   1.212   8.469  1.9584  1.3540 -0.2478
 6538SOL     OW31249   1.835   2.204   6.276 -0.2750  0.3186 -0.0349
 6538SOL    HW131250   1.798   2.156   6.351 -0.0121  1.1162  0.6074
 6538SOL    HW231251   1.892   2.138   6.238  2.2339  1.8394  1.1084
 6539SOL     OW31252   3.466   3.685   5.456 -0.0651  0.3301  0.3540
 6539SOL    HW131253   3.518   3.640   5.390 -1.9419  0.4055 -1.1908
 6539SOL    HW231254   3.458   3.770   5.412 -3.1369  0.3243  0.8667
 6540SOL     OW31255   2.600   3.868   5.748  0.0184 -0.1610  0.2159
 6540SOL    HW131256   2.530   3.932   5.738 -0.0637 -0.1398  0.8717
 6540SOL    HW231257   2.641   3.910   5.824 -1.5776 -0.1429  1.0656
 6541SOL     OW31258   3.087   1.312   7.914 -0.1643 -0.4624  0.3204
 6541SOL    HW131259   3.166   1.259   7.904 -0.6232 -0.6619 -2.1714
 6541SOL    HW231260   3.120   1.399   7.895  1.2613 -0.9002  0.7449
 6542SOL     OW31261   3.574   3.820   4.307  0.5385 -0.3043  0.3284
 6542SOL    HW131262   3.627   3.771   4.370 -0.1844 -1.7756 -0.1944
 6542SOL    HW231263   3.501   3.758   4.299  0.7661 -1.0958  4.1763
 6543SOL     OW31264   1.096   2.942  13.606  0.3127  0.2134  0.2557
 6543SOL    HW131265   1.153   3.001  13.557  0.4063 -1.0015 -1.0778
 6543SOL    HW231266   1.144   2.861  13.588  0.0399 -0.4930  2.6472
 6544SOL     OW31267   0.699   2.423   2.097  0.3129  0.5562 -0.2119
 6544SOL    HW131268   0.731   2.494   2.041 -1.2792 -0.0686 -1.9365
 6544SOL    HW231269   0.754   2.352   2.063 -0.7087 -0.3045 -0.0503
 6545SOL     OW31270   2.152   0.289   7.846  0.3170  0.2544 -0.0987
 6545SOL    HW131271   2.085   0.247   7.792  1.8157 -1.1448 -0.8601
 6545SOL    HW231272   2.108   0.369   7.877  0.0215  0.4369 -0.9996
 6546SOL     OW31273   2.925   0.681  14.866  0.3796  0.5256 -0.2381
 6546SOL    HW131274   2.914   0.748  14.798  2.3414  1.5850  0.5082
 6546SOL    HW231275   2.857   0.619  14.837  0.0303  1.0760 -0.5944
 6547SOL     OW31276   3.782   3.017   6.881  0.0168  0.4144  0.2590
 6547SOL    HW131277   3.744   2.949   6.936  1.6133 -0.3476  0.4259
 6547SOL    HW231278   3.768   3.096   6.932 -0.7509  1.2594 -1.2369
 6548SOL     OW31279   3.669   2.974  10.787  0.3807  0.3563  0.7415
 6548SOL    HW131280   3.657   3.036  10.715 -1.1218 -1.5856 -0.7055
 6548SOL    HW231281   3.597   2.913  10.770  0.4672  0.3881  0.2417
 6549SOL     OW31282   0.412   0.608   7.643 -0.4318  0.4661 -0.5533
 6549SOL    HW131283   0.469   0.618   7.719  2.3182 -1.5536 -2.3172
 6549SOL    HW231284   0.334   0.626   7.695 -0.3145  1.4370 -0.7183
 6550SOL     OW31285   2.416   1.698   3.195  0.2382  0.1721 -0.0974
 6550SOL    HW131286   2.375   1.636   3.254  1.9740 -0.5193  0.3894
 6550SOL    HW231287   2.382   1.786   3.210 -0.1009 -0.3825  2.3750
 6551SOL     OW31288   3.230   4.677   2.201  0.3927 -0.0029 -0.2481
 6551SOL    HW131289   3.284   4.670   2.123  0.2822 -0.5901 -0.2703
 6551SOL    HW231290   3.294   4.713   2.262 -1.4823  0.0063  1.7348
 6552SOL     OW31291   0.426   1.899   8.973  0.5584  0.1777 -0.0144
 6552SOL    HW131292   0.500   1.867   8.922  0.2606 -3.2600  1.7229
 6552SOL    HW231293   0.357   1.900   8.906  0.8339 -0.5350 -0.3041
 6553SOL     OW31294   1.394   2.578  17.302  0.1937 -0.5148  0.0724
 6553SOL    HW131295   1.465   2.574  17.365 -0.6477 -0.9823  0.9795
 6553SOL    HW231296   1.378   2.672  17.300  0.5951 -0.4373  0.7037
 6554SOL     OW31297   4.660   1.486   8.359 -0.7316 -0.0717 -0.0202
 6554SOL    HW131298   4.657   1.399   8.399  1.3927  0.9428  2.3647
 6554SOL    HW231299   4.670   1.466   8.266 -1.4623  1.4800 -0.4406
 6555SOL     OW31300   0.578   2.834   8.546 -0.3422 -0.0902 -0.1944
 6555SOL    HW131301   0.587   2.891   8.623  1.1060 -1.4027  0.6082
 6555SOL    HW231302   0.548   2.753   8.588  1.1463 -1.1673 -1.2006
 6556SOL     OW31303   3.879   3.779   0.318 -0.3108 -0.5291 -0.0372
 6556SOL    HW131304   3.865   3.810   0.407 -1.4448 -1.1614  0.0030
 6556SOL    HW231305   3.904   3.856   0.267 -0.4530 -1.6864 -1.8488
 6557SOL     OW31306   1.383   3.974  15.413 -0.2268  0.4105 -0.6855
 6557SOL    HW131307   1.439   3.898  15.397 -0.3634  0.2283 -0.2860
 6557SOL    HW231308   1.439   4.032  15.465 -0.3994 -0.7409  0.7590
 6558SOL     OW31309   0.280   0.830   8.901 -0.1572  0.2132  0.3724
 6558SOL    HW131310   0.231   0.912   8.898 -1.3967 -0.5689 -0.6416
 6558SOL    HW231311   0.318   0.831   8.989  2.5508 -0.8509 -0.7693
 6559SOL     OW31312   3.934   3.199  10.446 -0.0845 -0.3534  0.1843
 6559SOL    HW131313   3.933   3.148  10.527 -2.9288 -1.4149 -0.5425
 6559SOL    HW231314   3.846   3.235  10.456  1.5069  3.8078 -0.5634
 6560SOL     OW31315   3.970   1.824   6.567 -0.3594  0.1195 -0.0212
 6560SOL    HW131316   3.980   1.890   6.499 -0.2951 -1.0442 -1.1520
 6560SOL    HW231317   3.902   1.866   6.620  0.7845 -0.2252  1.6898
 6561SOL     OW31318   4.394   0.554  14.883  0.1523  0.0326 -0.0155
 6561SOL    HW131319   4.438   0.627  14.839 -0.0123  0.9848  1.4046
 6561SOL    HW231320   4.348   0.515  14.809 -0.5803  2.6242 -0.9149
 6562SOL     OW31321   4.043   0.906   5.328  0.0652  0.6315 -0.7042
 6562SOL    HW131322   3.991   0.826   5.333  1.1229  0.0426  0.8463
 6562SOL    HW231323   4.070   0.913   5.237  1.0042  1.5896 -0.3516
 6563SOL     OW31324   0.025   2.135   7.697  0.4470 -0.3810 -0.0839
 6563SOL    HW131325   0.113   2.124   7.734 -0.0954  1.9894  1.8754
 6563SOL    HW231326   4.705   2.148   7.772 -1.9544 -1.3327 -1.7455
 6564SOL     OW31327   3.887   2.632   3.905  0.5793  0.4858 -0.6922
 6564SOL    HW131328   3.899   2.723   3.932 -2.5525  0.5324  0.5353
 6564SOL    HW231329   3.853   2.644   3.816 -2.4475  1.8183  0.6364
 6565SOL     OW31330   0.387   1.449   6.799  0.0805 -0.3721  0.3895
 6565SOL    HW131331   0.313   1.399   6.763 -0.7777  0.9866  0.2656
 6565SOL    HW231332   0.361   1.540   6.783 -0.1307 -0.4849  0.0777
 6566SOL     OW31333   4.110   1.124   8.344 -0.1781 -0.0954  0.7751
 6566SOL    HW131334   4.168   1.135   8.419  1.1459 -0.3720 -0.2292
 6566SOL    HW231335   4.069   1.208   8.323 -1.2882 -0.3407  1.8694
 6567SOL     OW31336   1.925   2.744   7.983  0.7792 -0.0589 -0.4647
 6567SOL    HW131337   1.930   2.821   8.040  1.0260  1.1843 -2.1567
 6567SOL    HW231338   1.960   2.665   8.024  1.0957  0.0426 -0.5425
 6568SOL     OW31339   1.067   2.788   8.210 -0.9925  0.1399 -0.1266
 6568SOL    HW131340   1.139   2.830   8.163 -0.3680 -1.9145 -1.0006
 6568SOL    HW231341   1.076   2.821   8.299 -0.3790  1.0057 -0.5089
 6569SOL     OW31342   3.436   0.621   6.582  0.6502  0.1434 -0.1467
 6569SOL    HW131343   3.356   0.630   6.530  1.0731  0.0784 -0.8112
 6569SOL    HW231344   3.439   0.712   6.612  2.3801 -0.5968  1.9218
 6570SOL     OW31345   2.954   0.373   3.327  0.2697 -0.2118  0.4371
 6570SOL    HW131346   2.912   0.413   3.251 -1.1124  0.3427  1.4904
 6570SOL    HW231347   3.019   0.317   3.285  2.7320  3.6618 -0.9095
 6571SOL     OW31348   4.452   1.264   1.688 -0.3654 -0.4386  0.0775
 6571SOL    HW131349   4.499   1.189   1.651 -0.0298 -0.7932  1.2358
 6571SOL    HW231350   4.427   1.224   1.771 -1.8425  0.7459  0.2006
 6572SOL     OW31351   1.157   2.412   7.891 -0.2452 -0.3933  0.6875
 6572SOL    HW131352   1.185   2.389   7.980  0.3859  2.2710  1.1940
 6572SOL    HW231353   1.073   2.365   7.891 -1.0066  0.9545  0.4406
 6573SOL     OW31354   3.309   2.917  14.258  0.1769 -0.7136  0.3201
 6573SOL    HW131355   3.346   2.960  14.336 -1.0647  2.7874 -1.0371
 6573SOL    HW231356   3.263   2.849  14.307  1.0580 -1.5320  0.0100
 6574SOL     OW31357   0.777   3.078   6.379  0.3740 -0.0252 -0.6661
 6574SOL    HW131358   0.849   3.037   6.427  0.9794 -0.8065 -2.2568
 6574SOL    HW231359   0.812   3.051   6.295 -0.4929 -0.9688 -0.7308
 6575SOL     OW31360   1.301   0.739   2.784 -0.1989  0.3098 -0.1720
 6575SOL    HW131361   1.207   0.756   2.792  0.2331  3.1850 -1.3333
 6575SOL    HW231362   1.318   0.684   2.861  0.3982  0.1073 -0.4522
 6576SOL     OW31363   4.718   1.423   8.099  0.1660 -0.5837  0.3129
 6576SOL    HW131364   0.018   1.455   8.017  2.4243 -0.3824  1.4419
 6576SOL    HW231365   4.668   1.349   8.066  0.0709 -1.0516  1.5003
 6577SOL     OW31366   3.420   0.959   2.325  0.0616  0.4490 -0.2207
 6577SOL    HW131367   3.462   0.874   2.342  0.8786  0.3079 -2.9799
 6577SOL    HW231368   3.349   0.946   2.387  0.4778 -0.3590  0.0974
 6578SOL     OW31369   2.421   4.289   6.633 -0.0056  0.2917 -0.6131
 6578SOL    HW131370   2.508   4.252   6.620 -0.0580 -0.2564  0.6412
 6578SOL    HW231371   2.373   4.212   6.662 -0.3011  0.5266 -0.4672
 6579SOL     OW31372   2.934   0.906   3.748  0.1636 -0.7783 -0.4734
 6579SOL    HW131373   2.931   0.926   3.841  0.6782 -1.8248 -0.2216
 6579SOL    HW231374   3.030   0.906   3.738  0.4592 -0.8838  2.2745
 6580SOL     OW31375   3.423   1.150   7.133 -0.3059 -1.1595  0.1950
 6580SOL    HW131376   3.405   1.130   7.225  0.5699 -1.6875  0.2500
 6580SOL    HW231377   3.514   1.121   7.129  0.3147  0.5225  2.1270
 6581SOL     OW31378   3.346   2.313   2.704 -0.0129 -0.4970 -0.0132
 6581SOL    HW131379   3.317   2.258   2.632 -1.0182 -1.0097  0.7834
 6581SOL    HW231380   3.375   2.244   2.764 -2.5406 -1.8373 -0.3309
 6582SOL     OW31381   0.338   1.101   7.436  0.4701  0.6827 -0.1400
 6582SOL    HW131382   0.255   1.074   7.474  0.0758 -1.5720 -2.6038
 6582SOL    HW231383   0.404   1.062   7.494  1.6442  2.0845 -0.5389
 6583SOL     OW31384   3.680   3.874   2.080 -0.5688 -0.2913  0.0534
 6583SOL    HW131385   3.722   3.890   2.165 -0.0893 -0.8569 -0.0838
 6583SOL    HW231386   3.591   3.877   2.115  0.0004  2.2336  1.2897
 6584SOL     OW31387   2.979   4.235   8.052 -0.1506  0.3162  0.2721
 6584SOL    HW131388   2.930   4.282   8.120  0.0419 -0.9135  1.2553
 6584SOL    HW231389   2.987   4.299   7.981 -0.6015  0.2900  0.1989
 6585SOL     OW31390   0.107   4.255  13.330 -0.9025 -0.1490  0.1476
 6585SOL    HW131391   0.200   4.261  13.307 -1.3954 -0.1312 -1.9107
 6585SOL    HW231392   0.107   4.301  13.414  2.7082 -0.3669  0.2958
 6586SOL     OW31393   1.389   2.038   2.865  0.7190  0.1366  0.2231
 6586SOL    HW131394   1.433   2.081   2.791 -0.6755  0.7159 -0.2621
 6586SOL    HW231395   1.417   2.094   2.938 -0.1461  0.6346  0.1730
 6587SOL     OW31396   1.632   0.277  13.343  0.1068  0.0444 -0.3135
 6587SOL    HW131397   1.549   0.268  13.389  0.5242 -0.3633  0.3485
 6587SOL    HW231398   1.618   0.249  13.252  0.6351 -0.8606 -0.1163
 6588SOL     OW31399   1.078   1.327   7.382 -0.1397 -0.0386 -0.7333
 6588SOL    HW131400   1.023   1.302   7.457  2.0754 -0.7979  0.6256
 6588SOL    HW231401   1.059   1.255   7.322  1.9898 -1.6275  0.5273
 6589SOL     OW31402   0.600   3.639   8.651  0.2275 -0.7888 -0.3624
 6589SOL    HW131403   0.625   3.661   8.561 -0.4657  2.8949  0.3568
 6589SOL    HW231404   0.506   3.652   8.658 -0.0483 -1.7538 -2.2217
 6590SOL     OW31405   0.607   4.135   7.925  0.1395 -0.0557  0.4387
 6590SOL    HW131406   0.591   4.062   7.866 -0.4363  0.3872  0.0379
 6590SOL    HW231407   0.645   4.198   7.863 -1.0386 -0.0601 -0.2902
 6591SOL     OW31408   3.166   2.996   5.223 -0.0376  0.0694 -0.1068
 6591SOL    HW131409   3.166   3.012   5.317  0.0916 -1.3348  0.1294
 6591SOL    HW231410   3.076   2.977   5.196  0.2029 -1.1226 -0.0779
 6592SOL     OW31411   1.645   2.901   5.273  0.0724 -0.4763 -0.0086
 6592SOL    HW131412   1.616   2.891   5.364  0.0047  0.6410  0.1007
 6592SOL    HW231413   1.738   2.918   5.284 -0.3321  0.4014  2.2276
 6593SOL     OW31414   0.613   3.812   3.987  0.5124  0.2988  0.7426
 6593SOL    HW131415   0.618   3.868   4.064 -1.7047  0.9664  0.4018
 6593SOL    HW231416   0.707   3.802   3.970  0.1235  0.0327 -1.2495
 6594SOL     OW31417   4.140   2.252   4.854  0.1824  0.8692 -0.3802
 6594SOL    HW131418   4.179   2.329   4.814  1.1467 -0.1712 -1.4314
 6594SOL    HW231419   4.098   2.209   4.780 -0.6259  0.6475  0.1970
 6595SOL     OW31420   0.452   0.211  15.768  0.1428 -0.1676 -0.4973
 6595SOL    HW131421   0.422   0.257  15.690 -1.2787  0.2896  0.3226
 6595SOL    HW231422   0.544   0.192  15.750  0.3666 -0.8792  1.3837
 6596SOL     OW31423   3.689   4.625   4.657  0.0452 -0.7272  0.2777
 6596SOL    HW131424   3.771   4.578   4.644 -0.0311 -1.3205  2.0259
 6596SOL    HW231425   3.623   4.563   4.625 -1.9102  1.7321 -0.4341
 6597SOL     OW31426   2.719   0.244   6.393 -0.0679  0.7690  0.5451
 6597SOL    HW131427   2.763   0.258   6.476  1.0878 -2.0516  0.4146
 6597SOL    HW231428   2.663   0.169   6.412 -0.8750  1.0173 -0.8647
 6598SOL     OW31429   1.133   3.494  14.347 -0.0138  0.1009 -1.2544
 6598SOL    HW131430   1.102   3.534  14.266  1.0114 -0.0763 -1.7253
 6598SOL    HW231431   1.172   3.567  14.396  1.3141 -2.6213  1.7301
 6599SOL     OW31432   1.437   3.673   5.835  0.0962 -0.3719  0.4240
 6599SOL    HW131433   1.501   3.609   5.864 -0.0242  0.0069  1.5254
 6599SOL    HW231434   1.467   3.755   5.874 -0.0279  0.0209 -0.3183
 6600SOL     OW31435   3.850   4.549  17.203  0.4541 -0.3165 -0.1077
 6600SOL    HW131436   3.879   4.611  17.136 -0.3397 -0.1711 -0.3131
 6600SOL    HW231437   3.925   4.489  17.198  1.5053  0.7659  2.9768
 6601SOL     OW31438   2.882   3.919   1.914 -0.7276  0.1585  0.0100
 6601SOL    HW131439   2.852   3.828   1.907 -3.5825  0.7502  4.8374
 6601SOL    HW231440   2.933   3.915   1.995 -1.0246  0.8897  0.2274
 6602SOL     OW31441   1.306   2.278   8.084  0.5136  0.6168  0.1582
 6602SOL    HW131442   1.377   2.327   8.126  0.1585  0.6596  0.7094
 6602SOL    HW231443   1.363   2.222   8.031 -0.4933  1.5566 -1.9127
 6603SOL     OW31444   2.831   3.625   8.889 -0.1827 -0.1021 -0.0144
 6603SOL    HW131445   2.830   3.699   8.950  0.8097  1.7874 -2.3275
 6603SOL    HW231446   2.781   3.564   8.943  1.1739  1.4789  3.0270
 6604SOL     OW31447   1.246   4.301  12.650 -0.1017  0.2993  0.6424
 6604SOL    HW131448   1.238   4.331  12.559  0.2883 -1.5489 -0.0112
 6604SOL    HW231449   1.310   4.365  12.683  0.2167 -0.0928  0.7922
 6605SOL     OW31450   3.372   0.453   3.896  0.3050 -0.0675  0.1679
 6605SOL    HW131451   3.388   0.444   3.990 -0.6281  1.3565  0.4709
 6605SOL    HW231452   3.357   0.548   3.890 -2.4027 -0.4581  0.5277
 6606SOL     OW31453   1.251   2.003   7.537  0.0901  0.1663  0.1279
 6606SOL    HW131454   1.223   2.084   7.580  1.2901 -0.5091  2.1838
 6606SOL    HW231455   1.201   2.011   7.456 -0.4507  1.9057  0.6380
 6607SOL     OW31456   1.420   0.343  10.656  0.0485  0.3033  0.1981
 6607SOL    HW131457   1.504   0.306  10.684  0.2532  2.0764  1.8613
 6607SOL    HW231458   1.397   0.393  10.734 -2.5793 -0.4706 -0.0587
 6608SOL     OW31459   3.632   2.244   9.376 -0.3173  0.1897  0.3277
 6608SOL    HW131460   3.677   2.326   9.354  0.0275  0.2536  1.2749
 6608SOL    HW231461   3.683   2.189   9.317 -2.9094  1.4487 -3.1187
 6609SOL     OW31462   4.710   3.463  13.286  0.0325  0.2053  0.7859
 6609SOL    HW131463   0.034   3.452  13.214  0.0487  0.4578  0.7609
 6609SOL    HW231464   0.033   3.511  13.343 -1.9016  2.1519  1.2004
 6610SOL     OW31465   3.559   4.311   3.957  0.2608  0.3571  0.2565
 6610SOL    HW131466   3.518   4.229   3.930 -0.8432  0.8670  0.4029
 6610SOL    HW231467   3.486   4.371   3.971 -0.5877 -0.6169 -0.0986
 6611SOL     OW31468   1.512   2.090   3.465  0.2636 -0.4314 -0.7988
 6611SOL    HW131469   1.606   2.080   3.479  0.5530  1.2458 -1.5162
 6611SOL    HW231470   1.505   2.185   3.478 -2.6534 -0.6698 -0.7262
 6612SOL     OW31471   3.772   3.715   4.479  0.0827  0.4207 -0.2100
 6612SOL    HW131472   3.749   3.624   4.499  1.8102  0.2109  0.7432
 6612SOL    HW231473   3.781   3.757   4.564 -0.6310  1.9594 -0.8920
 6613SOL     OW31474   0.247   3.821   5.040  0.0589  0.0441  0.0751
 6613SOL    HW131475   0.198   3.879   4.982  2.4774  0.0591 -1.9586
 6613SOL    HW231476   0.258   3.741   4.987 -0.9973 -1.6458  2.4177
 6614SOL     OW31477   0.067   1.544   8.790 -0.4562  0.0051 -0.2232
 6614SOL    HW131478   0.096   1.555   8.699  2.7669 -4.4688  0.2756
 6614SOL    HW231479   0.046   1.451   8.787 -0.3394 -0.0470  0.5667
 6615SOL     OW31480   0.454   2.340   7.989  0.5428  0.6232  0.0015
 6615SOL    HW131481   0.538   2.331   8.035  1.0918  1.6784 -0.7927
 6615SOL    HW231482   0.460   2.435   7.976  2.7519  0.2589 -1.6806
 6616SOL     OW31483   0.493   3.472  15.362 -0.3252 -0.3423  0.3209
 6616SOL    HW131484   0.429   3.431  15.421  0.7008  1.3005  2.6010
 6616SOL    HW231485   0.488   3.556  15.408 -0.7983  1.0952 -2.3638
 6617SOL     OW31486   1.633   1.346  13.954 -0.2160  0.2741 -0.2801
 6617SOL    HW131487   1.706   1.400  13.985  0.0910 -0.9588  1.1434
 6617SOL    HW231488   1.556   1.399  13.976  0.6254  1.8836 -1.1924
 6618SOL     OW31489   2.655   2.443  12.331  0.2538  0.5809 -0.1002
 6618SOL    HW131490   2.627   2.535  12.338 -0.6498  0.1023  2.3819
 6618SOL    HW231491   2.712   2.438  12.407  1.3081  1.0266 -0.8518
 6619SOL     OW31492   1.186   4.440  11.043 -0.1420  0.0486  0.4662
 6619SOL    HW131493   1.206   4.438  11.137 -0.3229  0.6414  0.5170
 6619SOL    HW231494   1.106   4.387  11.050 -0.2798  0.2874  0.6967
 6620SOL     OW31495   0.812   1.279   6.143 -0.6677  0.3451 -0.6538
 6620SOL    HW131496   0.797   1.200   6.194  0.3737  0.3975 -0.2610
 6620SOL    HW231497   0.823   1.341   6.216 -0.2996 -0.2014 -0.2462
 6621SOL     OW31498   1.964   3.474   3.264 -0.1807  0.2355 -0.4187
 6621SOL    HW131499   2.005   3.517   3.338  0.0120  1.9111 -1.4964
 6621SOL    HW231500   1.881   3.522   3.273  0.2164  0.2549  3.1484
 6622SOL     OW31501   1.694   0.210   9.295  1.0327 -0.1226  0.1448
 6622SOL    HW131502   1.632   0.214   9.222 -1.1434  2.0594  2.0776
 6622SOL    HW231503   1.670   0.137   9.351 -4.1487  2.2950  1.0887
 6623SOL     OW31504   3.190   2.328   6.694 -0.1533  0.5871  0.1276
 6623SOL    HW131505   3.120   2.391   6.681  0.3704  1.4681  1.4986
 6623SOL    HW231506   3.166   2.260   6.632 -0.5457  0.6989  0.1587
 6624SOL     OW31507   3.723   1.861   7.535  0.1245 -0.2328 -0.0263
 6624SOL    HW131508   3.639   1.819   7.520 -0.3903  1.7610 -2.8005
 6624SOL    HW231509   3.740   1.887   7.444  0.1592  1.5331  0.4749
 6625SOL     OW31510   3.240   4.033   3.012 -0.3757 -0.1725  0.0149
 6625SOL    HW131511   3.213   3.978   3.086  0.2458  0.9419  1.0808
 6625SOL    HW231512   3.320   4.074   3.046 -0.5949 -0.4786  0.9044
 6626SOL     OW31513   4.553   2.368   0.627 -0.5160 -0.4316 -0.2004
 6626SOL    HW131514   4.519   2.352   0.715  1.9584  0.3252  0.8896
 6626SOL    HW231515   4.506   2.447   0.600 -1.9110 -0.6181  1.7256
 6627SOL     OW31516   2.227   2.505   5.364  0.3647  0.6002 -0.1741
 6627SOL    HW131517   2.213   2.459   5.281 -1.0943  1.6439 -0.5127
 6627SOL    HW231518   2.163   2.457   5.417  0.4923  1.6802  0.9406
 6628SOL     OW31519   0.381   2.254   3.135 -0.0959  0.4101  0.3945
 6628SOL    HW131520   0.360   2.346   3.117 -0.4675  0.9969  3.8257
 6628SOL    HW231521   0.442   2.250   3.061 -0.8765 -0.4733 -0.1871
 6629SOL     OW31522   1.503   1.209   0.218  0.1307 -0.1677  0.5098
 6629SOL    HW131523   1.568   1.146   0.249 -1.0203 -1.9099 -0.5938
 6629SOL    HW231524   1.497   1.273   0.289  4.2450  1.1734 -0.3388
 6630SOL     OW31525   0.134   3.890   5.632  0.5425 -0.3169 -0.1683
 6630SOL    HW131526   0.120   3.904   5.726 -0.2309 -0.2039 -0.2976
 6630SOL    HW231527   0.111   3.798   5.627  1.7176 -0.4821 -2.6798
 6631SOL     OW31528   3.689   3.052  15.657 -0.6084  0.9318 -0.2797
 6631SOL    HW131529   3.784   3.065  15.655 -0.4417 -0.3609 -0.5890
 6631SOL    HW231530   3.678   2.958  15.670  0.4658  0.5855 -1.8121
 6632SOL     OW31531   0.868   2.252   7.113  0.4044 -0.1800  0.0584
 6632SOL    HW131532   0.814   2.329   7.134  1.8725  0.8275  0.1606
 6632SOL    HW231533   0.882   2.265   7.019 -1.2412  2.1839  0.1364
 6633SOL     OW31534   1.166   2.063  12.348  0.0608 -0.3347  0.7188
 6633SOL    HW131535   1.195   2.032  12.434  2.9950  0.0210 -0.1168
 6633SOL    HW231536   1.082   2.097  12.378 -0.3809 -0.2894 -0.5921
 6634SOL     OW31537   2.458   0.364   9.809 -0.0042 -0.2168 -0.2409
 6634SOL    HW131538   2.543   0.326   9.829 -0.7206 -2.3849 -1.2828
 6634SOL    HW231539   2.475   0.400   9.722  0.4286 -0.6697 -0.3419
 6635SOL     OW31540   3.885   3.968   6.481  0.2981 -0.3713  0.2910
 6635SOL    HW131541   3.971   3.972   6.440  0.6085 -0.0279  0.9786
 6635SOL    HW231542   3.842   4.042   6.437 -0.1587  0.9519  2.9758
 6636SOL     OW31543   0.645   4.623  12.869  0.2392 -0.5041  0.2145
 6636SOL    HW131544   0.587   4.548  12.858  0.6026 -1.1639  2.8196
 6636SOL    HW231545   0.591   4.671  12.932  0.3923 -0.1279  0.0608
 6637SOL     OW31546   1.350   3.938   8.915  0.2935  0.0712  0.3410
 6637SOL    HW131547   1.343   3.868   8.980 -0.8732 -0.8830 -0.8031
 6637SOL    HW231548   1.259   3.943   8.884  0.0493  0.0309  1.0625
 6638SOL     OW31549   4.175   3.547   4.286  0.0572  0.0579  0.7730
 6638SOL    HW131550   4.091   3.503   4.269  0.7386 -1.8204  2.2084
 6638SOL    HW231551   4.226   3.478   4.328  2.2650  0.8659 -0.5948
 6639SOL     OW31552   3.231   1.833   7.904  0.5585  0.2804 -0.3235
 6639SOL    HW131553   3.322   1.802   7.905 -0.2113 -1.8959  1.2500
 6639SOL    HW231554   3.230   1.861   7.812  0.8365 -0.2157 -0.4747
 6640SOL     OW31555   4.431   1.874   5.366  0.2329  0.4300 -0.1205
 6640SOL    HW131556   4.376   1.827   5.428 -0.4005 -0.0804 -1.0668
 6640SOL    HW231557   4.508   1.899   5.418  1.8824  2.1309 -3.3698
 6641SOL     OW31558   2.936   0.609   3.648 -0.1850  0.1672 -0.0221
 6641SOL    HW131559   2.909   0.635   3.737  1.2733 -2.2015  1.1120
 6641SOL    HW231560   2.907   0.687   3.601  1.4727  0.4932 -0.4831
 6642SOL     OW31561   4.282   0.704  16.292  0.0128  0.4055 -0.4360
 6642SOL    HW131562   4.205   0.751  16.326 -1.4692 -1.4438 -1.2146
 6642SOL    HW231563   4.292   0.629  16.351  0.1292 -0.7351 -1.9307
 6643SOL     OW31564   4.456   4.342  13.507 -0.2676 -0.3369  0.4297
 6643SOL    HW131565   4.430   4.419  13.556  2.1790  0.6374  0.2163
 6643SOL    HW231566   4.499   4.296  13.579 -1.4448 -1.4095  0.4385
 6644SOL     OW31567   2.629   2.122   5.243  0.1786  0.1740 -0.3042
 6644SOL    HW131568   2.669   2.122   5.330  0.7560  0.5526 -0.5653
 6644SOL    HW231569   2.543   2.155   5.268 -0.1334 -1.4851  0.8127
 6645SOL     OW31570   3.178   2.351   1.469 -0.3724  0.1315  1.2336
 6645SOL    HW131571   3.127   2.301   1.405  1.4725  1.2541 -1.0672
 6645SOL    HW231572   3.138   2.331   1.554 -0.6152  1.8063  1.5251
 6646SOL     OW31573   4.033   3.619   6.781 -0.4127  0.3195 -0.4392
 6646SOL    HW131574   4.018   3.528   6.806  1.0726 -0.1081 -1.1516
 6646SOL    HW231575   4.078   3.613   6.697  0.3369  0.8676 -0.0724
 6647SOL     OW31576   3.137   1.701   7.266  0.0689 -0.0560 -0.0907
 6647SOL    HW131577   3.154   1.795   7.278  2.0272 -0.2872 -0.9515
 6647SOL    HW231578   3.043   1.688   7.278  0.1324 -0.6111 -0.1937
 6648SOL     OW31579   2.442   1.063  17.265  0.3961 -0.7118 -0.3314
 6648SOL    HW131580   2.527   1.030  17.293  0.0986 -0.8602  0.4109
 6648SOL    HW231581   2.458   1.122  17.191 -3.0088  0.0017 -0.5082
 6649SOL     OW31582   4.129   1.138   7.328 -0.1536  0.2359 -0.3037
 6649SOL    HW131583   4.120   1.065   7.268 -1.8480  0.1937  0.0058
 6649SOL    HW231584   4.054   1.196   7.313 -0.2030  0.3554  0.3959
 6650SOL     OW31585   1.508   2.878   5.970  0.4347  0.2829 -0.4308
 6650SOL    HW131586   1.500   2.924   5.886 -2.1463  1.3535  0.4184
 6650SOL    HW231587   1.507   2.787   5.941  0.6444 -0.4686  1.9089
 6651SOL     OW31588   2.540   0.242   1.721 -0.3030 -0.0748 -0.1929
 6651SOL    HW131589   2.588   0.202   1.794 -2.1865  0.1607  1.1449
 6651SOL    HW231590   2.540   0.335   1.741  0.3208 -0.0590 -0.2403
 6652SOL     OW31591   1.771   1.874   5.788 -0.4558  0.1817 -0.5298
 6652SOL    HW131592   1.749   1.967   5.778  0.9552  0.2049 -3.5574
 6652SOL    HW231593   1.690   1.828   5.766 -1.8115  1.4383  1.9227
 6653SOL     OW31594   2.469   1.411   7.261  0.4224  0.5664  0.5377
 6653SOL    HW131595   2.411   1.407   7.338  0.4775  2.1920  0.6629
 6653SOL    HW231596   2.468   1.507   7.255 -1.9408  0.5007 -0.2282
 6654SOL     OW31597   3.061   0.130   1.842  0.4883 -0.5472 -0.2745
 6654SOL    HW131598   3.002   0.079   1.787  1.2307 -1.3263 -0.3629
 6654SOL    HW231599   3.143   0.109   1.796 -1.1216 -1.6334 -2.6446
 6655SOL     OW31600   1.848   4.597   8.725 -0.6745 -0.1675 -0.0015
 6655SOL    HW131601   1.852   4.501   8.722 -1.1217 -0.2545  2.5881
 6655SOL    HW231602   1.754   4.610   8.739 -0.8737 -1.7202  0.1578
 6656SOL     OW31603   0.339   2.868  10.412 -0.3465 -0.3956  0.8004
 6656SOL    HW131604   0.277   2.926  10.456 -0.5568 -1.3827  1.7973
 6656SOL    HW231605   0.404   2.854  10.481  2.1817 -1.8241 -1.8845
 6657SOL     OW31606   3.771   4.168   4.097 -0.0081 -0.4885  0.4914
 6657SOL    HW131607   3.761   4.123   4.180 -0.7437  0.4207  0.9013
 6657SOL    HW231608   3.694   4.138   4.050  0.6846  0.0519 -0.9915
 6658SOL     OW31609   3.649   4.322  10.411 -0.1814  0.1674 -0.2457
 6658SOL    HW131610   3.702   4.280  10.343 -0.9989 -0.5274 -0.4455
 6658SOL    HW231611   3.563   4.304  10.373  0.1260  1.6993 -1.6708
 6659SOL     OW31612   1.454   3.055  17.475  0.5708 -0.1234 -0.1866
 6659SOL    HW131613   1.507   3.092  17.404 -1.3301 -0.9986 -2.0469
 6659SOL    HW231614   1.371   3.052  17.427 -0.3170  0.1210  1.3224
 6660SOL     OW31615   2.811   3.205   3.923 -0.4569  0.3336 -0.2304
 6660SOL    HW131616   2.755   3.278   3.895 -1.6248 -0.6443 -0.4798
 6660SOL    HW231617   2.773   3.190   4.010  0.4667 -0.4345  0.0391
 6661SOL     OW31618   1.757   0.532   8.899 -0.2598  0.1921  0.0550
 6661SOL    HW131619   1.787   0.441   8.904 -1.2215  0.0010  2.5388
 6661SOL    HW231620   1.668   0.521   8.933  0.4378 -0.0823  1.8114
 6662SOL     OW31621   1.066   2.721   9.052 -0.0070  0.3278  0.4095
 6662SOL    HW131622   1.072   2.799   9.107  0.8448  1.2480 -1.0062
 6662SOL    HW231623   0.976   2.724   9.020  1.0265 -0.6328 -2.5944
 6663SOL     OW31624   4.515   4.478   3.571  0.8913 -0.5215  0.5981
 6663SOL    HW131625   4.493   4.568   3.599  1.1124 -0.0716 -0.7078
 6663SOL    HW231626   4.434   4.429   3.585  1.0853 -0.4461  2.0174
 6664SOL     OW31627   4.334   4.575   6.390  0.0376  0.5053 -0.2438
 6664SOL    HW131628   4.274   4.503   6.368  0.3294 -0.3069  1.5988
 6664SOL    HW231629   4.288   4.605   6.468 -3.0490 -0.5287 -1.6541
 6665SOL     OW31630   0.911   3.138  17.252  0.5006 -0.3261 -0.1799
 6665SOL    HW131631   0.840   3.120  17.189  1.7113 -0.5210 -1.4787
 6665SOL    HW231632   0.926   3.231  17.239  2.1508 -0.2988  2.0255
 6666SOL     OW31633   3.841   0.624   9.462 -0.6756 -0.6345  0.5181
 6666SOL    HW131634   3.810   0.710   9.434  1.3037 -0.7970 -2.2762
 6666SOL    HW231635   3.924   0.643   9.506 -0.0671  3.0609 -2.1596
 6667SOL     OW31636   1.366   2.580  10.790 -0.1461  0.0916 -0.0783
 6667SOL    HW131637   1.293   2.597  10.730  1.1133  2.4467 -0.9150
 6667SOL    HW231638   1.299   2.572  10.858 -0.2138  1.7267  0.0438
 6668SOL     OW31639   0.926   0.588   2.498 -0.4391 -0.2290 -0.1580
 6668SOL    HW131640   0.875   0.533   2.437  3.7240 -1.6308 -2.4238
 6668SOL    HW231641   1.002   0.591   2.441 -0.0939 -1.0786  0.2602
 6669SOL     OW31642   3.817   3.924   0.553 -0.5102 -0.0080  0.2302
 6669SOL    HW131643   3.828   3.876   0.635 -1.0111  3.3986  2.2945
 6669SOL    HW231644   3.848   4.015   0.559  1.2339 -0.5718 -0.3950
 6670SOL     OW31645   0.643   0.963   0.543  0.2542 -0.1886 -0.3713
 6670SOL    HW131646   0.684   0.918   0.469  0.5368 -0.3023 -0.1457
 6670SOL    HW231647   0.719   1.013   0.573 -0.0762  0.1628 -0.1169
 6671SOL     OW31648   0.471   2.486  12.930 -0.1172  0.6861 -0.1831
 6671SOL    HW131649   0.426   2.475  13.013 -0.2285 -1.3620 -0.5063
 6671SOL    HW231650   0.434   2.409  12.885  1.0619  0.3173 -0.5323
 6672SOL     OW31651   1.757   1.866   7.327  0.5413  0.2600  0.3313
 6672SOL    HW131652   1.706   1.858   7.246  3.2989 -2.9411 -1.1118
 6672SOL    HW231653   1.705   1.935   7.367 -0.5855  0.0500 -0.7818
 6673SOL     OW31654   0.092   2.857   4.245  0.1307 -0.1996  0.2610
 6673SOL    HW131655   0.115   2.822   4.159 -1.2460 -2.1693  0.6989
 6673SOL    HW231656   0.128   2.783   4.294  0.6322  0.3010  0.6525
 6674SOL     OW31657   4.357   1.978   4.884 -0.5426  0.2915  0.2619
 6674SOL    HW131658   4.394   1.894   4.910 -3.2285 -2.0800 -3.4503
 6674SOL    HW231659   4.313   1.989   4.968  0.4995  0.3266  0.7931
 6675SOL     OW31660   1.179   1.545   5.140 -0.4894  0.3311  0.2079
 6675SOL    HW131661   1.218   1.559   5.054 -0.6715 -0.0484  0.0664
 6675SOL    HW231662   1.116   1.479   5.114  0.0108  0.3265 -0.9727
 6676SOL     OW31663   4.638   4.186   2.449 -0.5343  0.0649 -0.1712
 6676SOL    HW131664   4.692   4.251   2.493 -0.9591  0.7757 -0.7105
 6676SOL    HW231665   4.583   4.238   2.391  0.4287  1.2763  0.0055
 6677SOL     OW31666   1.849   0.470   1.995 -0.4470  0.2414  0.3328
 6677SOL    HW131667   1.860   0.564   2.011  0.1121  0.5430 -1.8103
 6677SOL    HW231668   1.939   0.442   2.004 -0.5192  0.2476  1.0203
 6678SOL     OW31669   0.206   1.134   4.754 -0.6719  0.0096  0.0679
 6678SOL    HW131670   0.292   1.147   4.716 -0.2965 -1.2298  0.4795
 6678SOL    HW231671   0.219   1.118   4.847  0.1187  1.7825  0.2560
 6679SOL     OW31672   2.940   3.734  10.541  0.0604 -0.4979  0.1084
 6679SOL    HW131673   2.979   3.647  10.535  0.2666 -0.4398  0.6150
 6679SOL    HW231674   2.855   3.701  10.569  0.4551 -3.0413 -1.7532
 6680SOL     OW31675   3.721   4.025   4.699 -0.1596  0.1203  0.3326
 6680SOL    HW131676   3.796   3.970   4.722  1.3582  0.9033 -2.7811
 6680SOL    HW231677   3.668   4.017   4.778 -1.0629 -1.1363 -0.3876
 6681SOL     OW31678   3.411   1.686  10.738 -0.2327 -0.9795 -0.3251
 6681SOL    HW131679   3.326   1.651  10.712 -2.4142  2.3846  2.3178
 6681SOL    HW231680   3.465   1.648  10.669  1.2338 -0.1110  0.3389
 6682SOL     OW31681   0.369   1.868  17.554  0.0998  0.1992  0.2646
 6682SOL    HW131682   0.401   1.856  17.644 -0.6276 -0.4252  0.4411
 6682SOL    HW231683   0.416   1.807  17.497 -0.9441  0.0258 -0.4169
 6683SOL     OW31684   3.505   0.294   2.851  0.1484 -1.1507 -0.1974
 6683SOL    HW131685   3.487   0.351   2.926 -3.8791 -2.2614 -0.3098
 6683SOL    HW231686   3.420   0.286   2.808  0.8572 -1.8761 -1.4357
 6684SOL     OW31687   2.610   2.103   2.882 -0.6041  0.4019 -0.0366
 6684SOL    HW131688   2.698   2.136   2.862 -0.6514 -0.6887 -2.0618
 6684SOL    HW231689   2.592   2.156   2.960  1.1130 -1.9285  1.9422
 6685SOL     OW31690   3.407   0.929   6.937 -0.3359 -0.1284  0.0448
 6685SOL    HW131691   3.424   1.018   6.970 -1.7978  0.1903 -0.0811
 6685SOL    HW231692   3.394   0.875   7.015 -0.2400 -0.8526 -0.4473
 6686SOL     OW31693   3.774   2.400   4.107  0.1997  0.1393 -0.2902
 6686SOL    HW131694   3.758   2.486   4.067  1.0643  0.1426 -0.6201
 6686SOL    HW231695   3.811   2.360   4.029  2.0427  0.0220  0.6507
 6687SOL     OW31696   0.472   2.045   1.051 -0.2513  0.2279  0.2406
 6687SOL    HW131697   0.483   2.124   1.104  2.1557 -1.2820  1.9975
 6687SOL    HW231698   0.517   2.070   0.970 -0.5613 -0.2027 -0.0643
 6688SOL     OW31699   1.582   0.350   9.715  0.1450 -0.2551  0.5204
 6688SOL    HW131700   1.557   0.258   9.709  1.5180 -0.6341  0.6587
 6688SOL    HW231701   1.591   0.365   9.809 -2.0067  0.3477  0.6132
 6689SOL     OW31702   4.255   3.866   3.089 -0.0226 -0.8716 -0.2805
 6689SOL    HW131703   4.165   3.891   3.072 -0.5563 -0.7030  2.7663
 6689SOL    HW231704   4.294   3.931   3.030  0.0959 -1.0226 -0.3716
 6690SOL     OW31705   0.349   3.189  10.769 -0.4427  0.5123  0.1999
 6690SOL    HW131706   0.416   3.204  10.835 -0.1471  1.2751 -0.2682
 6690SOL    HW231707   0.402   3.206  10.691 -0.8825 -0.1766 -0.2405
 6691SOL     OW31708   0.066   4.185  11.513 -0.1961  0.0224  0.3134
 6691SOL    HW131709   0.099   4.110  11.564  0.4737 -1.5074 -2.4033
 6691SOL    HW231710   0.015   4.230  11.580  0.4209  0.0141  0.7907
 6692SOL     OW31711   1.346   0.552   2.518 -0.4463  0.6134  0.4262
 6692SOL    HW131712   1.435   0.551   2.483 -0.7052  0.5337 -0.2254
 6692SOL    HW231713   1.318   0.643   2.518 -1.5425  0.2785 -1.3072
 6693SOL     OW31714   2.898   3.355   6.034  0.7187 -0.2353  0.1389
 6693SOL    HW131715   2.960   3.427   6.020  0.5051  0.0825  0.8337
 6693SOL    HW231716   2.960   3.284   6.050  0.9995 -0.1309 -0.4730
 6694SOL     OW31717   3.562   1.614   1.800 -0.1802  0.0249  0.0023
 6694SOL    HW131718   3.473   1.642   1.777 -0.4041  0.4817  1.4146
 6694SOL    HW231719   3.548   1.519   1.804  1.1998 -0.1215  1.2375
 6695SOL     OW31720   0.017   2.745  12.465  0.0197 -0.2313 -0.3510
 6695SOL    HW131721   0.088   2.696  12.506 -1.4303 -2.8915 -1.0337
 6695SOL    HW231722   0.006   2.818  12.526 -1.3757 -0.1802 -0.6678
 6696SOL     OW31723   2.408   4.704   8.133  0.0609  0.4296  0.1348
 6696SOL    HW131724   2.335   0.026   8.118  0.2795  0.4233 -0.9607
 6696SOL    HW231725   2.364   4.624   8.102  0.1810 -0.4911  2.3521
 6697SOL     OW31726   3.655   4.116   6.403  0.4854 -0.3462  0.3547
 6697SOL    HW131727   3.615   4.178   6.464 -1.4017  1.9805 -3.1943
 6697SOL    HW231728   3.583   4.075   6.355 -1.4692  1.3821  1.8170
 6698SOL     OW31729   2.633   3.453   9.008 -0.5345 -0.7073  0.9118
 6698SOL    HW131730   2.612   3.410   8.925 -1.2070  5.2618 -2.0029
 6698SOL    HW231731   2.551   3.495   9.035 -1.0558 -2.1335  1.5233
 6699SOL     OW31732   4.624   3.632   3.125  0.8385 -0.2433  0.6625
 6699SOL    HW131733   4.616   3.720   3.160 -1.1930  0.9047 -2.7528
 6699SOL    HW231734   4.572   3.594   3.196  2.1249  1.0566  2.3056
 6700SOL     OW31735   3.854   1.017   3.811  0.4511 -0.4955 -1.0060
 6700SOL    HW131736   3.924   1.035   3.874  0.6515 -1.4252 -0.9496
 6700SOL    HW231737   3.851   1.100   3.764  1.1964 -0.2960 -0.6945
 6701SOL     OW31738   2.848   3.934   0.747  0.5688 -0.2485  0.1422
 6701SOL    HW131739   2.806   3.993   0.809 -0.5317 -0.8442 -0.0404
 6701SOL    HW231740   2.832   3.986   0.668 -1.0849  0.0326  0.6791
 6702SOL     OW31741   1.349   2.048  14.258  0.1078  0.4006  0.2540
 6702SOL    HW131742   1.408   2.036  14.333 -0.6331 -1.5406  0.5070
 6702SOL    HW231743   1.278   1.986  14.273 -1.8736  2.3238 -1.1997
 6703SOL     OW31744   1.600   1.785   4.722 -0.5639  0.4454 -0.0371
 6703SOL    HW131745   1.595   1.770   4.816  0.6806  0.6805  0.0598
 6703SOL    HW231746   1.518   1.750   4.685 -0.6876  1.7477 -1.0288
 6704SOL     OW31747   4.382   4.691   9.231 -0.3717 -0.6702  0.3227
 6704SOL    HW131748   4.469   4.690   9.273  0.3435  0.9627 -1.0999
 6704SOL    HW231749   4.392   0.014   9.157  2.0600  0.2224  1.3784
 6705SOL     OW31750   3.760   1.971   3.776 -0.2532  0.5242  0.2864
 6705SOL    HW131751   3.665   1.974   3.767 -0.2765  1.5090  0.8096
 6705SOL    HW231752   3.766   2.064   3.795  0.5056  0.4663  0.3249
 6706SOL     OW31753   3.721   0.867   3.552 -0.4952  0.2612 -0.7166
 6706SOL    HW131754   3.647   0.807   3.553  0.9155 -1.5316 -2.8424
 6706SOL    HW231755   3.721   0.887   3.646 -0.5577 -0.2444 -0.6066
 6707SOL     OW31756   1.575   3.586  15.479  0.0682  0.1830  0.5991
 6707SOL    HW131757   1.503   3.527  15.461  0.1630  0.5236 -0.9296
 6707SOL    HW231758   1.612   3.553  15.561 -0.8296 -0.8375  0.5777
 6708SOL     OW31759   2.388   3.639   3.192  0.0023 -0.0282  0.4774
 6708SOL    HW131760   2.398   3.734   3.185  0.1375 -0.1797 -1.3183
 6708SOL    HW231761   2.476   3.602   3.190 -0.6902 -1.7694  2.3251
 6709SOL     OW31762   3.571   1.366   2.815 -0.6065 -0.7279 -0.4409
 6709SOL    HW131763   3.653   1.326   2.786 -0.1283 -0.3056  0.3355
 6709SOL    HW231764   3.550   1.300   2.882  0.0806 -2.7060 -2.2006
 6710SOL     OW31765   1.137   3.090   2.273 -0.4024 -0.1527  0.4925
 6710SOL    HW131766   1.136   3.018   2.336  2.0729 -0.0815  0.5927
 6710SOL    HW231767   1.213   3.062   2.222 -0.6511 -1.4472  0.8323
 6711SOL     OW31768   3.678   4.492   2.290  0.2270 -0.0603  0.7645
 6711SOL    HW131769   3.658   4.570   2.239 -0.3957  0.1452  1.3115
 6711SOL    HW231770   3.631   4.424   2.242 -0.2575  0.9892 -0.2429
 6712SOL     OW31771   2.961   1.338   6.971 -0.8141 -0.9000  0.3842
 6712SOL    HW131772   3.043   1.321   7.017 -0.7889  0.3801  0.7861
 6712SOL    HW231773   2.893   1.320   7.036 -1.3796 -0.5519 -0.1068
 6713SOL     OW31774   2.930   2.459  17.009 -0.7061  0.3180 -0.0403
 6713SOL    HW131775   2.987   2.532  17.035 -1.4829  0.8309  0.2338
 6713SOL    HW231776   2.926   2.405  17.088  0.3421  0.1760 -0.0835
 6714SOL     OW31777   0.585   2.013   3.079 -0.8832 -0.2370 -0.0161
 6714SOL    HW131778   0.592   2.105   3.105 -1.0395 -0.0085 -0.7950
 6714SOL    HW231779   0.544   1.973   3.156  0.7960  0.3762  1.1941
 6715SOL     OW31780   3.840   4.623  11.394 -0.3287  0.0157  0.0707
 6715SOL    HW131781   3.861   4.691  11.458  1.5363 -0.0455 -0.4628
 6715SOL    HW231782   3.844   4.543  11.446 -1.9678 -1.4391 -2.0384
 6716SOL     OW31783   1.912   4.590   1.907 -0.2069 -0.2057  0.1342
 6716SOL    HW131784   1.837   4.597   1.849  0.0221 -0.1329 -0.1510
 6716SOL    HW231785   1.917   4.674   1.954  0.6475 -0.8813  1.2831
 6717SOL     OW31786   3.163   3.693  14.441  0.3143  0.1688 -0.3066
 6717SOL    HW131787   3.186   3.731  14.356  0.6465  2.8430  0.9456
 6717SOL    HW231788   3.229   3.735  14.497 -0.8153  0.1316  1.0713
 6718SOL     OW31789   1.402   0.886   2.269 -0.5873  0.4727 -0.6398
 6718SOL    HW131790   1.489   0.910   2.237  1.0067 -0.1515  3.2772
 6718SOL    HW231791   1.381   0.820   2.202 -0.8996  0.1524 -0.2291
 6719SOL     OW31792   1.798   0.012   3.926 -0.3656 -0.0271 -0.0754
 6719SOL    HW131793   1.762   0.098   3.947 -1.0133 -0.3941  0.3062
 6719SOL    HW231794   1.729   4.710   3.873 -0.9085  0.9047 -0.0739
 6720SOL     OW31795   0.670   1.878   8.893  0.1118 -0.7452 -0.2675
 6720SOL    HW131796   0.726   1.952   8.916 -0.5243  0.2509 -1.9870
 6720SOL    HW231797   0.704   1.815   8.957  0.0650 -0.6030 -0.1014
 6721SOL     OW31798   4.718   1.484   1.616 -0.7993  0.3093 -0.3206
 6721SOL    HW131799   4.671   1.482   1.699 -0.6843  0.6444 -0.2452
 6721SOL    HW231800   0.013   1.395   1.624 -1.1887  0.3883  2.0766
 6722SOL     OW31801   0.487   2.433  12.558  0.2709 -0.7957 -0.1975
 6722SOL    HW131802   0.493   2.515  12.608 -2.6646 -1.6909  1.6680
 6722SOL    HW231803   0.581   2.417  12.551  0.5479  1.3263 -1.4777
 6723SOL     OW31804   1.133   0.295   9.228 -0.1781 -0.9045  0.1407
 6723SOL    HW131805   1.066   0.363   9.219  1.9340  1.1607  0.1269
 6723SOL    HW231806   1.210   0.349   9.210  0.6363 -2.1770 -0.1163
 6724SOL     OW31807   1.777   1.551   4.599  0.6095 -0.9452 -0.0259
 6724SOL    HW131808   1.698   1.555   4.546  0.9219 -0.3321 -0.4540
 6724SOL    HW231809   1.741   1.599   4.673  1.8051 -0.6678  0.3892
 6725SOL     OW31810   2.588   0.644  13.849  0.1992 -0.4308  0.1241
 6725SOL    HW131811   2.508   0.625  13.800 -0.6288  1.0710  0.8803
 6725SOL    HW231812   2.557   0.633  13.939  2.3559  0.9373  1.0422
 6726SOL     OW31813   4.614   4.636  12.217 -0.0884 -0.6624  1.2828
 6726SOL    HW131814   4.690   4.608  12.267  2.3707  0.0374 -2.0366
 6726SOL    HW231815   4.622   4.585  12.136 -0.2811  0.3452  0.6248
 6727SOL     OW31816   0.047   2.162   5.188  0.7152  0.9775 -0.7847
 6727SOL    HW131817   0.095   2.220   5.130 -0.5983  1.1944 -1.6595
 6727SOL    HW231818   4.735   2.222   5.244 -2.4893  0.3679 -2.9498
 6728SOL     OW31819   1.198   2.964   5.045 -0.0820 -0.1986 -0.0394
 6728SOL    HW131820   1.290   2.941   5.059 -0.0231  1.4594  2.1890
 6728SOL    HW231821   1.209   3.058   5.037 -0.9086  0.2358  3.8913
 6729SOL     OW31822   2.094   0.427   7.007 -0.4742 -0.6459  0.0799
 6729SOL    HW131823   2.107   0.390   6.920 -0.3795 -0.4947  0.0295
 6729SOL    HW231824   2.000   0.441   7.008 -0.2780  0.6379  1.0620
 6730SOL     OW31825   1.173   4.222   9.073  0.0237  0.4946 -0.1373
 6730SOL    HW131826   1.094   4.198   9.023  0.4795  0.3022 -0.7682
 6730SOL    HW231827   1.176   4.316   9.059 -3.0313  0.3881 -1.6363
 6731SOL     OW31828   1.474   1.010   9.028 -0.3643  0.3365  0.2778
 6731SOL    HW131829   1.532   1.019   8.952 -1.3237 -2.3814 -0.7768
 6731SOL    HW231830   1.526   1.050   9.098 -0.3883  1.5696 -0.3938
 6732SOL     OW31831   1.812   4.449  13.273 -1.1033 -0.1010  0.2701
 6732SOL    HW131832   1.800   4.362  13.310 -0.4788 -1.2694 -2.2950
 6732SOL    HW231833   1.802   4.506  13.349  0.3406  0.8924 -0.2960
 6733SOL     OW31834   0.048   3.355   5.530  0.4861  0.3062  0.2472
 6733SOL    HW131835   4.734   3.302   5.590 -0.3962 -0.5261 -1.2478
 6733SOL    HW231836   0.136   3.319   5.543  0.7227  0.0149 -2.1345
 6734SOL     OW31837   1.431   1.032   2.999 -0.0500 -0.0342 -0.3414
 6734SOL    HW131838   1.356   1.009   2.944  0.1034  0.8711 -0.9266
 6734SOL    HW231839   1.386   1.107   3.037 -0.6796 -2.1126  2.9829
 6735SOL     OW31840   4.445   2.766   3.581 -0.6657  0.2696 -0.0844
 6735SOL    HW131841   4.406   2.680   3.562  1.3836 -0.4156 -1.1154
 6735SOL    HW231842   4.443   2.809   3.495 -1.2252  1.1457  0.3714
 6736SOL     OW31843   3.775   2.101   7.042  0.4812 -0.1889 -0.5147
 6736SOL    HW131844   3.738   2.166   6.983  0.0213 -1.2458 -1.3764
 6736SOL    HW231845   3.831   2.048   6.986  1.1988 -1.5401  1.4654
 6737SOL     OW31846   2.987   1.192   5.800  0.5925  0.7070 -0.0634
 6737SOL    HW131847   2.902   1.233   5.814  0.0173 -0.3651 -0.3692
 6737SOL    HW231848   2.953   1.103   5.791 -0.7815  1.0518  1.7024
 6738SOL     OW31849   3.846   2.946   0.472 -0.0384  0.2537 -0.4739
 6738SOL    HW131850   3.759   2.928   0.436 -1.6179 -0.7980  3.8357
 6738SOL    HW231851   3.883   2.864   0.441  1.7604  0.7630  0.3261
 6739SOL     OW31852   4.481   4.554   0.486  0.2873  0.2027  0.1916
 6739SOL    HW131853   4.549   4.578   0.424  0.2418  1.3309  0.5783
 6739SOL    HW231854   4.440   4.639   0.498 -1.0400 -0.8496  3.2657
 6740SOL     OW31855   1.715   3.269   2.817  1.0640  0.1358 -0.3451
 6740SOL    HW131856   1.804   3.240   2.801  1.7795  0.7137  2.4547
 6740SOL    HW231857   1.723   3.295   2.909  0.9962 -2.8150  0.5167
 6741SOL     OW31858   1.512   1.284   4.668  0.4451  0.0350 -0.0692
 6741SOL    HW131859   1.577   1.317   4.607  1.8511  0.7767  1.8221
 6741SOL    HW231860   1.444   1.351   4.668  1.4069  0.9932 -1.4796
 6742SOL     OW31861   3.939   0.743  16.922 -0.3470  0.1674  0.3863
 6742SOL    HW131862   3.915   0.710  17.009 -1.2347  0.9297  0.4384
 6742SOL    HW231863   4.028   0.773  16.940  0.5101 -1.0346 -2.0279
 6743SOL     OW31864   4.627   0.694   2.458 -0.0747 -0.2739  0.2282
 6743SOL    HW131865   4.670   0.631   2.400 -1.5854 -0.6214 -0.5121
 6743SOL    HW231866   4.536   0.669   2.446 -0.3188  1.1411 -0.8661
 6744SOL     OW31867   1.217   0.352   7.701  0.0305  0.1542  0.8072
 6744SOL    HW131868   1.258   0.292   7.638 -1.7591  0.6102 -0.7949
 6744SOL    HW231869   1.283   0.420   7.717 -0.4426  0.4529  1.4907
 6745SOL     OW31870   1.070   1.488   4.858  0.0610  0.0807  0.0209
 6745SOL    HW131871   1.069   1.556   4.791 -2.6178 -2.0390 -2.0774
 6745SOL    HW231872   0.978   1.463   4.853  0.6761 -1.8885 -1.4761
 6746SOL     OW31873   4.441   2.335   3.013  0.3741 -0.2346 -0.1826
 6746SOL    HW131874   4.496   2.349   3.090 -2.7878  0.8000  1.8970
 6746SOL    HW231875   4.474   2.248   2.990  2.1310  0.3523  0.1215
 6747SOL     OW31876   2.746   1.189  13.391  0.0499 -0.4991 -0.9950
 6747SOL    HW131877   2.809   1.199  13.462 -1.0742 -0.4012 -0.0109
 6747SOL    HW231878   2.743   1.093  13.393  1.3147 -0.5186  0.2444
 6748SOL     OW31879   2.240   3.955  16.448  0.2698 -0.5154 -0.1829
 6748SOL    HW131880   2.192   3.954  16.531  1.9591  3.7517  0.8360
 6748SOL    HW231881   2.278   3.869  16.467 -2.5446 -1.9505 -1.1042
 6749SOL     OW31882   3.976   2.440   7.536  0.1523  0.7847  0.5182
 6749SOL    HW131883   3.899   2.461   7.589  0.8182 -0.1503  1.8527
 6749SOL    HW231884   4.034   2.516   7.545  0.2455  0.5988  1.4633
 6750SOL     OW31885   4.189   0.201   5.294 -0.1743 -0.5808 -0.1664
 6750SOL    HW131886   4.267   0.144   5.294  0.2923  0.0549 -0.5983
 6750SOL    HW231887   4.161   0.206   5.202  1.6076  0.3075 -0.6564
 6751SOL     OW31888   4.175   1.961   8.019 -0.4125  0.1654  0.4791
 6751SOL    HW131889   4.200   2.016   7.945 -0.2695  1.1375  1.2454
 6751SOL    HW231890   4.183   1.873   7.981 -3.6413  0.7787 -1.5943
 6752SOL     OW31891   1.752   2.835   8.930  0.4992 -0.0244 -0.2280
 6752SOL    HW131892   1.757   2.835   9.025 -2.0460  1.0529 -0.0895
 6752SOL    HW231893   1.766   2.928   8.915 -0.5868  0.3658  1.2161
 6753SOL     OW31894   0.444   1.805   4.393 -0.1304 -0.2630 -0.6679
 6753SOL    HW131895   0.398   1.723   4.372 -0.8395  0.1410 -0.6846
 6753SOL    HW231896   0.475   1.781   4.481  0.8736 -0.3145 -1.0399
 6754SOL     OW31897   4.178   2.996  14.021  0.6406 -0.2967  0.7274
 6754SOL    HW131898   4.108   2.932  14.012 -0.2195  0.1834  4.2849
 6754SOL    HW231899   4.173   3.033  14.109 -0.4539  5.1328 -1.6438
 6755SOL     OW31900   0.370   1.416   3.877 -0.0861 -0.3260  0.4259
 6755SOL    HW131901   0.386   1.497   3.829 -0.2790 -0.3015  0.4016
 6755SOL    HW231902   0.447   1.363   3.855  1.6199  1.9549  0.9025
 6756SOL     OW31903   3.025   0.766   5.307  0.3514  0.3388 -0.1554
 6756SOL    HW131904   3.002   0.814   5.227 -1.2064  1.7477  1.1326
 6756SOL    HW231905   2.984   0.820   5.374 -0.7174  0.5968 -1.0262
 6757SOL     OW31906   3.724   1.924  16.761  0.5949  0.7275 -0.6678
 6757SOL    HW131907   3.806   1.913  16.712  0.3184 -2.5625 -0.3720
 6757SOL    HW231908   3.762   1.903  16.846 -0.2889 -1.0214 -0.6974
 6758SOL     OW31909   4.445   3.493  10.959  0.3419  0.2517  0.5983
 6758SOL    HW131910   4.501   3.567  10.939  1.0286 -1.2451 -2.9645
 6758SOL    HW231911   4.398   3.532  11.033  3.1228  0.4780  2.2648
 6759SOL     OW31912   2.124   3.895   3.539 -0.2555 -0.4987 -0.0441
 6759SOL    HW131913   2.205   3.946   3.526  0.3668 -0.9182  2.0445
 6759SOL    HW231914   2.114   3.908   3.634 -0.8081 -1.0603 -0.0302
 6760SOL     OW31915   3.951   3.194  17.611  0.2815 -0.8318  0.3001
 6760SOL    HW131916   3.940   3.103  17.638 -1.1421 -0.3754  1.3250
 6760SOL    HW231917   3.927   3.197  17.519 -1.8425  1.0584  0.9053
 6761SOL     OW31918   2.906   2.394   8.701  0.8003  0.3459 -0.0761
 6761SOL    HW131919   2.870   2.339   8.771  1.8287 -1.5420 -1.0430
 6761SOL    HW231920   2.834   2.420   8.643  1.6977  0.6006 -1.0610
 6762SOL     OW31921   1.531   3.629  13.871 -0.0338  0.2657  0.9542
 6762SOL    HW131922   1.532   3.639  13.966  0.8946 -1.7391  1.1439
 6762SOL    HW231923   1.458   3.568  13.862 -0.4578  0.6867  1.5112
 6763SOL     OW31924   1.936   1.156  12.354 -0.4394  0.1742 -0.3639
 6763SOL    HW131925   2.016   1.206  12.336 -0.3826 -0.5403 -2.0940
 6763SOL    HW231926   1.987   1.077  12.374  1.6771  2.0944  1.8195
 6764SOL     OW31927   3.299   2.201  17.301 -0.3809  0.0539 -0.5441
 6764SOL    HW131928   3.279   2.114  17.335  2.4394 -0.3835  0.0373
 6764SOL    HW231929   3.223   2.212  17.244 -1.9564  1.6876  1.8720
 6765SOL     OW31930   3.187   4.177   0.869  0.1376  0.2837 -0.2662
 6765SOL    HW131931   3.123   4.185   0.940  1.3103 -3.1396  1.1795
 6765SOL    HW231932   3.249   4.118   0.911 -0.6960 -0.8610 -0.6359
 6766SOL     OW31933   0.048   4.122  11.970 -0.4750  0.1542  0.0085
 6766SOL    HW131934   0.084   4.182  12.035  1.1226  0.1384 -0.8483
 6766SOL    HW231935   4.722   4.179  11.928 -0.1888  0.1385 -0.4552
 6767SOL     OW31936   1.547   4.319   1.674  0.1193 -0.0497  0.0870
 6767SOL    HW131937   1.602   4.317   1.752  1.0952  0.4184 -0.5862
 6767SOL    HW231938   1.619   4.286   1.619  0.5370  0.5960  0.2538
 6768SOL     OW31939   1.763   0.056   5.850 -0.2386  0.3583  0.0124
 6768SOL    HW131940   1.719   0.142   5.848 -1.1015 -0.1073 -1.0481
 6768SOL    HW231941   1.712   0.022   5.924  0.9092 -1.7313 -0.1683
 6769SOL     OW31942   3.348   3.188   8.009 -0.3589 -0.2014 -0.0256
 6769SOL    HW131943   3.306   3.228   8.086 -0.4237  0.9271 -0.6603
 6769SOL    HW231944   3.414   3.255   7.994  0.3683 -1.3079 -1.6824
 6770SOL     OW31945   0.536   3.199   1.877 -0.0186  0.4221  0.3029
 6770SOL    HW131946   0.605   3.247   1.923  0.2929 -1.1959  1.5300
 6770SOL    HW231947   0.491   3.163   1.953  0.4132 -0.6900  0.0248
 6771SOL     OW31948   3.714   4.236   8.302  0.5966 -0.0343  0.0461
 6771SOL    HW131949   3.706   4.286   8.384  0.9355 -1.5147  0.9709
 6771SOL    HW231950   3.683   4.305   8.244  0.1673  0.3877  0.7646
 6772SOL     OW31951   3.529   1.100  13.250  0.1232  0.1616  0.3493
 6772SOL    HW131952   3.601   1.121  13.309 -0.1577 -1.0034  1.0983
 6772SOL    HW231953   3.460   1.064  13.306 -0.4467 -0.6978 -0.8952
 6773SOL     OW31954   1.473   1.257   4.991 -0.2678 -0.0555  0.1451
 6773SOL    HW131955   1.433   1.213   5.065  1.3917  0.0594  1.1197
 6773SOL    HW231956   1.551   1.202   4.980 -0.2933  0.1496 -1.1101
 6774SOL     OW31957   0.716   0.114  11.043  0.6447 -0.2952 -0.0106
 6774SOL    HW131958   0.730   0.207  11.024  1.2276 -0.2582  0.6195
 6774SOL    HW231959   0.784   0.105  11.109  0.6539 -2.9921 -0.3825
 6775SOL     OW31960   2.293   1.336   6.751  0.1491 -0.1838  0.9840
 6775SOL    HW131961   2.292   1.383   6.668  4.2683 -2.6398 -0.4872
 6775SOL    HW231962   2.201   1.339   6.775 -0.4399 -0.7730 -1.1402
 6776SOL     OW31963   0.131   4.274  15.710  0.1490  0.0685  0.2624
 6776SOL    HW131964   0.161   4.229  15.789  1.9314  0.1486 -0.3825
 6776SOL    HW231965   0.145   4.366  15.733  3.2575 -0.5461  0.8193
 6777SOL     OW31966   2.326   0.445  14.317 -0.1255 -0.0380  0.3214
 6777SOL    HW131967   2.234   0.447  14.292  0.1204 -1.0956 -0.6603
 6777SOL    HW231968   2.314   0.508  14.388 -0.3738 -0.8926  1.0476
 6778SOL     OW31969   4.184   0.141   2.645  0.6682  0.6502  0.2029
 6778SOL    HW131970   4.109   0.094   2.609 -0.9838  3.0895  0.4539
 6778SOL    HW231971   4.162   0.190   2.724  0.6377 -1.0697  1.2477
 6779SOL     OW31972   1.988   3.671  16.356 -0.0216  0.4972  0.1228
 6779SOL    HW131973   1.902   3.633  16.336  0.3251 -0.0570 -0.3365
 6779SOL    HW231974   1.983   3.690  16.450  2.2280 -2.0100  0.7778
 6780SOL     OW31975   4.647   2.970  14.100  0.1730  0.4172 -0.0509
 6780SOL    HW131976   4.563   2.957  14.056  0.5866  0.9301 -0.9878
 6780SOL    HW231977   4.622   3.038  14.163  2.4414  3.8679 -2.8707
 6781SOL     OW31978   2.493   4.485   6.240 -0.1247  0.5758 -0.0211
 6781SOL    HW131979   2.481   4.420   6.310 -1.9512 -0.3372 -1.1770
 6781SOL    HW231980   2.450   4.556   6.286 -2.2254 -0.8877  0.2806
 6782SOL     OW31981   2.702   3.635   9.241 -0.1171 -0.5143  0.1902
 6782SOL    HW131982   2.630   3.685   9.201  1.2224  0.2594 -1.2614
 6782SOL    HW231983   2.680   3.551   9.201 -1.1830 -0.1034 -0.0963
 6783SOL     OW31984   4.305   3.849  12.157  0.0438 -0.3410 -0.2504
 6783SOL    HW131985   4.395   3.875  12.137 -0.4003  0.5532 -1.0606
 6783SOL    HW231986   4.291   3.870  12.249 -3.0937 -1.8326 -0.3631
 6784SOL     OW31987   3.434   2.013   8.437 -0.1058 -0.3687 -0.2551
 6784SOL    HW131988   3.436   2.055   8.351  0.5229  3.8403  1.8108
 6784SOL    HW231989   3.449   1.923   8.409  1.0437  0.3739 -2.1085
 6785SOL     OW31990   4.208   3.484   5.305 -0.0970 -0.4428 -0.1028
 6785SOL    HW131991   4.119   3.519   5.301  0.1245  0.2049  0.5621
 6785SOL    HW231992   4.194   3.395   5.273 -1.6622 -0.3237  0.2465
 6786SOL     OW31993   3.221   1.167   9.652 -0.0531 -0.0687  0.4351
 6786SOL    HW131994   3.235   1.091   9.596  1.1260  0.0530  0.5814
 6786SOL    HW231995   3.234   1.239   9.591 -1.4740 -0.8928 -0.8415
 6787SOL     OW31996   3.786   1.594   8.556 -0.8726  0.3426  0.1504
 6787SOL    HW131997   3.806   1.509   8.595 -2.0343  0.5107  1.1341
 6787SOL    HW231998   3.845   1.648   8.609 -0.9995 -2.2454  2.9068
 6788SOL     OW31999   3.462   2.294   5.277 -0.2360  0.5466 -0.0509
 6788SOL    HW132000   3.389   2.255   5.324 -2.9893  1.8097 -3.2822
 6788SOL    HW232001   3.425   2.382   5.276  0.5659  0.8905  0.3441
 6789SOL     OW32002   1.197   2.849  13.929 -0.0576 -0.1250  0.3408
 6789SOL    HW132003   1.137   2.777  13.911  1.8899 -1.5814 -0.3017
 6789SOL    HW232004   1.148   2.925  13.899 -1.4900 -1.1098  0.2220
 6790SOL     OW32005   2.246   3.741  15.944  0.3575 -0.3686 -0.3749
 6790SOL    HW132006   2.228   3.827  15.979  0.3302  0.5869 -2.7358
 6790SOL    HW232007   2.298   3.765  15.867 -0.3259  1.9902 -0.0724
 6791SOL     OW32008   2.333   1.373   9.192 -0.0489  0.3985  0.1556
 6791SOL    HW132009   2.383   1.376   9.274 -0.1110  2.5352  0.1123
 6791SOL    HW232010   2.396   1.335   9.130 -0.5042  0.3353 -0.2648
 6792SOL     OW32011   4.309   3.345  12.922  0.3905 -0.1389 -0.2987
 6792SOL    HW132012   4.294   3.266  12.974  0.9612 -0.4178 -0.5619
 6792SOL    HW232013   4.377   3.389  12.973  0.2574 -0.3957  0.1055
 6793SOL     OW32014   3.152   3.485   6.743 -0.1441  0.0293  0.2707
 6793SOL    HW132015   3.204   3.549   6.694 -0.6993  0.1592 -0.1508
 6793SOL    HW232016   3.192   3.401   6.722 -1.6608 -0.2471 -1.5598
 6794SOL     OW32017   0.374   1.014   2.942 -0.1088 -0.3383  0.3185
 6794SOL    HW132018   0.326   1.021   3.024 -0.0936  0.2870  0.2690
 6794SOL    HW232019   0.377   1.106   2.918  1.8382 -0.1959  1.1220
 6795SOL     OW32020   4.351   3.149   3.290  0.1484  0.0269 -0.7858
 6795SOL    HW132021   4.387   3.064   3.314 -0.3014  0.0932  0.1089
 6795SOL    HW232022   4.364   3.149   3.195 -1.0914 -0.2432 -0.9451
 6796SOL     OW32023   3.561   1.458   9.586  0.1671 -0.5014 -0.1721
 6796SOL    HW132024   3.551   1.551   9.608 -1.8303 -0.1081 -2.6970
 6796SOL    HW232025   3.657   1.455   9.584  0.1613 -1.6812  1.6370
 6797SOL     OW32026   1.418   3.710   8.348  0.3670 -0.2026  0.1697
 6797SOL    HW132027   1.444   3.802   8.337 -1.9238  0.3035 -1.1412
 6797SOL    HW232028   1.453   3.662   8.274 -0.5492  0.2608 -0.5715
 6798SOL     OW32029   4.001   4.029   5.856 -0.2132 -0.1031  0.0129
 6798SOL    HW132030   4.029   4.111   5.815  1.6062  0.1275  1.7095
 6798SOL    HW232031   3.937   4.006   5.788 -0.2650  0.4779 -0.1309
 6799SOL     OW32032   3.088   0.329   8.427 -0.0031  0.7439 -0.1096
 6799SOL    HW132033   3.044   0.398   8.477  0.8142  0.6576  0.7303
 6799SOL    HW232034   3.073   0.355   8.336 -0.7292  1.0850  0.1052
 6800SOL     OW32035   4.396   2.647  10.151  0.5451 -0.3491 -0.1691
 6800SOL    HW132036   4.335   2.716  10.178  0.8341  0.0635 -0.5563
 6800SOL    HW232037   4.474   2.702  10.144 -0.0581  0.4612 -0.5274
 6801SOL     OW32038   0.639   2.606   1.542  0.2771 -0.0396  0.7648
 6801SOL    HW132039   0.559   2.653   1.518 -0.5807 -2.4989 -1.1552
 6801SOL    HW232040   0.697   2.622   1.467 -0.7840 -0.5251 -0.1596
 6802SOL     OW32041   3.825   0.126   7.101  0.7799 -0.4482 -0.1239
 6802SOL    HW132042   3.896   0.190   7.106 -0.5138  1.0614 -1.2498
 6802SOL    HW232043   3.770   0.171   7.037  0.1255 -1.3809 -0.2192
 6803SOL     OW32044   0.992   4.129   4.720  0.7946 -0.1475 -0.5637
 6803SOL    HW132045   1.033   4.215   4.732 -0.2605  0.0809  1.3921
 6803SOL    HW232046   0.995   4.124   4.625 -1.9268  1.0141 -0.7047
 6804SOL     OW32047   4.546   0.397   5.482  0.4269  0.1903 -0.1039
 6804SOL    HW132048   4.558   0.302   5.494 -1.8890 -0.1889 -0.8243
 6804SOL    HW232049   4.539   0.395   5.387 -1.7425 -1.9686  0.1112
 6805SOL     OW32050   0.216   2.368   3.879  0.1850 -0.1887 -0.3715
 6805SOL    HW132051   0.145   2.388   3.817 -1.2938 -0.3141  1.2671
 6805SOL    HW232052   0.173   2.310   3.942  1.3323 -3.8883 -2.9955
 6806SOL     OW32053   4.508   1.069   7.070  0.2057  0.2572 -0.1527
 6806SOL    HW132054   4.486   1.162   7.076 -1.6833 -0.1826 -0.4093
 6806SOL    HW232055   4.594   1.070   7.112  1.1631 -2.2434 -2.0651
 6807SOL     OW32056   2.008   2.853   8.320  0.1793  0.2521  0.4241
 6807SOL    HW132057   2.067   2.781   8.343 -0.7318 -0.3888  0.7586
 6807SOL    HW232058   1.982   2.872   8.410  0.4855  1.0104  0.3529
 6808SOL     OW32059   0.424   0.321  11.984 -0.1728 -0.0075 -0.1950
 6808SOL    HW132060   0.421   0.274  11.900  1.3804 -1.1759  0.4019
 6808SOL    HW232061   0.517   0.343  11.986 -0.0423 -0.6262  0.4294
 6809SOL     OW32062   0.052   3.311  10.485  0.3715 -0.6635 -0.1236
 6809SOL    HW132063   0.087   3.350  10.404  1.9966  2.5223  2.1048
 6809SOL    HW232064   4.722   3.257  10.444  0.9220 -0.0093 -1.8813
 6810SOL     OW32065   1.111   4.191   5.133  0.0889 -0.1133  0.1113
 6810SOL    HW132066   1.032   4.244   5.120  0.7615  1.1815  1.2673
 6810SOL    HW232067   1.187   4.248   5.119 -1.3323  1.5860 -0.6798
 6811SOL     OW32068   2.380   3.285   5.380 -0.1108  0.0430  0.0152
 6811SOL    HW132069   2.332   3.336   5.445 -0.3762  1.8562 -1.5885
 6811SOL    HW232070   2.402   3.354   5.317 -0.6851 -0.6596 -0.9537
 6812SOL     OW32071   0.373   3.986   9.535  0.0123  0.2132 -0.6694
 6812SOL    HW132072   0.371   3.925   9.608  1.6620  0.4102 -0.4592
 6812SOL    HW232073   0.467   4.004   9.527  0.1865  0.2937  1.7620
 6813SOL     OW32074   0.730   1.608   7.365  0.2003 -0.3103  0.1984
 6813SOL    HW132075   0.809   1.577   7.321 -0.3647  0.2271 -1.1702
 6813SOL    HW232076   0.764   1.633   7.451 -1.2628  0.1100  0.6668
 6814SOL     OW32077   3.230   1.388   2.763 -0.2896  0.1284 -0.2781
 6814SOL    HW132078   3.276   1.350   2.837 -0.1066  0.7400 -0.0760
 6814SOL    HW232079   3.290   1.438   2.708 -1.2617 -0.8715 -2.2441
 6815SOL     OW32080   0.777   0.612   8.003 -0.3028  0.3876  0.4008
 6815SOL    HW132081   0.843   0.631   7.936 -1.0999  1.0566 -0.1924
 6815SOL    HW232082   0.707   0.564   7.958  0.8582 -0.9690  0.0381
 6816SOL     OW32083   4.473   3.089   6.004  0.1897  0.4778 -0.0069
 6816SOL    HW132084   4.396   3.078   5.949  1.0778  0.7962 -1.3235
 6816SOL    HW232085   4.440   3.100   6.093  0.3779 -0.6411  0.2013
 6817SOL     OW32086   4.708   4.349  15.217  0.4501  0.4937 -0.5242
 6817SOL    HW132087   4.725   4.312  15.303  0.4239  0.6925 -0.4337
 6817SOL    HW232088   0.056   4.360  15.176  0.9999 -0.5363  0.3505
 6818SOL     OW32089   1.601   4.118   1.381 -0.5261  0.4647  0.0858
 6818SOL    HW132090   1.653   4.160   1.450  0.0685 -1.1197  0.6056
 6818SOL    HW232091   1.607   4.189   1.316  1.4256 -1.2830 -1.6392
 6819SOL     OW32092   1.285   0.625   7.773  0.1366  0.0338  0.3017
 6819SOL    HW132093   1.196   0.642   7.804  0.0254  2.4302 -1.2979
 6819SOL    HW232094   1.332   0.703   7.802 -1.2187  0.6096  0.9394
 6820SOL     OW32095   0.374   1.856  10.099 -0.3185 -0.3607 -0.0584
 6820SOL    HW132096   0.426   1.917  10.047 -0.2803 -0.1405  0.2382
 6820SOL    HW232097   0.432   1.780  10.101  0.6781  0.5017  3.9303
 6821SOL     OW32098   0.371   3.357   0.826  0.0444 -0.2814  0.1023
 6821SOL    HW132099   0.396   3.269   0.857 -0.8988 -1.6467 -2.9833
 6821SOL    HW232100   0.324   3.345   0.743  0.1367  2.7650 -0.3797
 6822SOL     OW32101   4.700   1.091   5.870 -0.2439 -0.3111 -0.1399
 6822SOL    HW132102   4.665   1.002   5.865 -1.8491  0.2500  1.3126
 6822SOL    HW232103   4.624   1.131   5.911  0.9022  0.6903  1.0374
 6823SOL     OW32104   0.862   0.735   6.884 -0.2004  0.0645 -0.7115
 6823SOL    HW132105   0.866   0.693   6.970 -0.0771  1.3582 -0.0822
 6823SOL    HW232106   0.859   0.829   6.905  0.1483  0.3345 -1.8258
 6824SOL     OW32107   0.009   4.542   4.601  0.5052  0.3904 -0.1547
 6824SOL    HW132108   4.707   4.461   4.568  0.5853  0.1414  0.3619
 6824SOL    HW232109   4.719   4.599   4.530  0.6682 -0.5075 -0.9464
 6825SOL     OW32110   3.039   1.007   0.106 -0.0557 -0.8202  0.0256
 6825SOL    HW132111   3.117   0.957   0.128  0.8982 -0.0239 -1.5149
 6825SOL    HW232112   3.030   1.011   0.010  1.0689  2.8008  0.0605
 6826SOL     OW32113   0.480   4.089  17.244 -0.7272  0.5297  0.4157
 6826SOL    HW132114   0.516   4.001  17.259  0.4694  0.6068 -1.9454
 6826SOL    HW232115   0.492   4.103  17.150  1.8732  0.0449  0.6823
 6827SOL     OW32116   1.042   2.449   9.264 -0.1986 -1.0892 -0.3165
 6827SOL    HW132117   1.044   2.544   9.275 -1.7831 -1.1327  0.3630
 6827SOL    HW232118   1.092   2.423   9.341 -0.8404  3.3381  1.5574
 6828SOL     OW32119   1.328   0.725   6.540 -0.2261  0.0528 -0.2647
 6828SOL    HW132120   1.246   0.714   6.588  0.2316 -1.7173  0.1208
 6828SOL    HW232121   1.308   0.661   6.472  0.3754 -1.0898  0.6435
 6829SOL     OW32122   0.262   3.856   2.204 -0.8436 -0.2979  0.2809
 6829SOL    HW132123   0.321   3.803   2.257  0.1568 -0.6384 -1.2029
 6829SOL    HW232124   0.289   3.943   2.233 -1.4400 -0.2369  0.6646
 6830SOL     OW32125   2.439   2.813  12.468 -0.4864  0.9667  0.2855
 6830SOL    HW132126   2.357   2.803  12.515 -1.5606 -0.5249 -1.8843
 6830SOL    HW232127   2.501   2.748  12.503  0.0595  0.8542 -0.8699
 6831SOL     OW32128   1.563   0.075  14.665  0.4031 -0.2047 -0.3307
 6831SOL    HW132129   1.618   0.053  14.741  1.6284 -0.6976 -1.3580
 6831SOL    HW232130   1.509   4.736  14.647 -0.0801 -0.1638  0.9454
 6832SOL     OW32131   3.145   2.844   7.034  0.3319  0.1107  0.8087
 6832SOL    HW132132   3.099   2.857   7.117  0.8788  2.3435  0.7619
 6832SOL    HW232133   3.175   2.933   7.015 -0.6968  0.4886  0.9419
 6833SOL     OW32134   3.233   1.316   4.187 -0.2928 -0.1101 -0.0399
 6833SOL    HW132135   3.158   1.321   4.245  1.5506 -1.1124  2.4276
 6833SOL    HW232136   3.265   1.406   4.186  2.0014 -0.9006  2.0813
 6834SOL     OW32137   1.779   1.416   6.315 -0.4933  0.7127 -0.1291
 6834SOL    HW132138   1.708   1.434   6.377  0.9946  0.4029  1.6545
 6834SOL    HW232139   1.762   1.488   6.255 -2.2507  0.8748  0.5595
 6835SOL     OW32140   3.057   0.995   7.665 -0.6334  0.1056 -0.2426
 6835SOL    HW132141   3.081   0.937   7.737  0.0402  1.1272  0.3638
 6835SOL    HW232142   2.976   1.035   7.695 -0.3528  0.8905 -0.5312
 6836SOL     OW32143   2.369   0.460   7.434  0.5869  0.2096  0.4724
 6836SOL    HW132144   2.448   0.408   7.453  1.3058  1.0713 -0.2059
 6836SOL    HW232145   2.352   0.498   7.520  2.5268 -1.0160  1.3917
 6837SOL     OW32146   1.598   0.829  14.089 -0.2507  0.9614 -0.1866
 6837SOL    HW132147   1.513   0.800  14.123 -0.1281 -0.7627 -1.3868
 6837SOL    HW232148   1.647   0.852  14.168  1.5292 -0.3294 -0.9290
 6838SOL     OW32149   2.475   3.468   6.042  0.2111 -0.1349 -0.1694
 6838SOL    HW132150   2.477   3.561   6.019  0.1190  0.0413  0.5268
 6838SOL    HW232151   2.415   3.468   6.117 -2.1132  1.7108 -2.0022
 6839SOL     OW32152   3.732   0.028   1.475 -0.3035  0.0654 -0.5633
 6839SOL    HW132153   3.827   0.040   1.479 -0.4532  0.8696  0.9127
 6839SOL    HW232154   3.722   4.674   1.502  2.0273  1.1457  4.0077
 6840SOL     OW32155   0.838   1.647   3.327  0.5164  0.3691 -0.0852
 6840SOL    HW132156   0.921   1.633   3.372 -0.4961 -3.2326  0.7048
 6840SOL    HW232157   0.833   1.741   3.310  0.2109  0.4620  0.4808
 6841SOL     OW32158   2.517   2.780   9.684 -0.2939 -0.3776  0.7671
 6841SOL    HW132159   2.502   2.785   9.779 -1.2861  0.1564  0.5772
 6841SOL    HW232160   2.607   2.747   9.689 -0.5507 -1.1178  0.5274
 6842SOL     OW32161   2.272   0.479   9.938 -0.0545  0.0869  0.1041
 6842SOL    HW132162   2.183   0.447   9.929 -0.3681  0.5204  1.5804
 6842SOL    HW232163   2.324   0.424   9.880  0.6920 -0.1513  0.9932
 6843SOL     OW32164   2.886   3.910  10.138  0.4200  0.1065 -0.2418
 6843SOL    HW132165   2.855   3.995  10.171 -0.6913  0.6571 -2.7220
 6843SOL    HW232166   2.964   3.921  10.084 -0.2325 -0.6357 -1.3154
 6844SOL     OW32167   3.919   1.966   4.708 -0.0420 -0.1562  0.4711
 6844SOL    HW132168   3.919   1.971   4.612 -2.2781  0.5302  0.5038
 6844SOL    HW232169   4.005   1.926   4.722 -0.1904 -0.0507  1.7024
 6845SOL     OW32170   1.070   0.505   5.114  0.4870 -0.2484  0.0979
 6845SOL    HW132171   1.049   0.538   5.026  0.8108 -0.0533  0.0921
 6845SOL    HW232172   1.021   0.564   5.171 -0.1266 -0.0407 -0.6350
 6846SOL     OW32173   4.358   3.551  13.390  0.6988  0.4161 -0.0499
 6846SOL    HW132174   4.327   3.467  13.355 -0.4334  0.7532  0.1562
 6846SOL    HW232175   4.309   3.576  13.468 -0.2533 -1.8694  0.0901
 6847SOL     OW32176   1.003   3.000   3.698  0.1896 -0.2442 -1.0400
 6847SOL    HW132177   1.046   3.003   3.613  1.0708 -0.2067 -0.5930
 6847SOL    HW232178   1.069   2.966   3.758 -0.2608  0.3595 -0.1878
 6848SOL     OW32179   0.056   3.968   0.876  0.1040  0.8202 -0.1342
 6848SOL    HW132180   0.014   4.029   0.814  0.5582 -0.3822 -1.6106
 6848SOL    HW232181   0.057   3.891   0.819 -0.2262  3.2447 -3.4440
 6849SOL     OW32182   2.238   3.239   4.137 -0.4561 -1.0302  0.7039
 6849SOL    HW132183   2.209   3.257   4.227 -0.3652 -1.7908  0.8839
 6849SOL    HW232184   2.334   3.234   4.141 -0.3164  1.3800  0.6225
 6850SOL     OW32185   2.714   1.462   9.808 -0.6374 -0.5316  0.0545
 6850SOL    HW132186   2.640   1.407   9.782 -1.4982  0.8042 -0.3364
 6850SOL    HW232187   2.718   1.444   9.902  2.0612 -0.8774 -0.1402
 6851SOL     OW32188   2.820   3.952   7.759 -0.3801 -0.3000 -0.3829
 6851SOL    HW132189   2.847   3.978   7.847  0.1326  2.8017 -1.4578
 6851SOL    HW232190   2.828   3.857   7.762  0.0186 -0.2963 -1.2656
 6852SOL     OW32191   3.859   0.982   1.831  0.2151 -0.2676  0.0231
 6852SOL    HW132192   3.915   0.975   1.907  0.5396  1.9106  0.0010
 6852SOL    HW232193   3.795   1.045   1.867  1.4644  1.5148 -0.8726
 6853SOL     OW32194   1.421   0.640   0.082  0.3585 -0.2316  0.0895
 6853SOL    HW132195   1.364   0.580   0.034  0.3198 -0.3256  0.2550
 6853SOL    HW232196   1.380   0.642   0.169  1.1826  4.4040  0.3829
 6854SOL     OW32197   1.863   1.045   2.707  0.4815  0.5945  0.0222
 6854SOL    HW132198   1.871   0.996   2.789 -0.9485  0.0075 -0.1895
 6854SOL    HW232199   1.780   1.089   2.726 -1.1654 -2.9008  0.7359
 6855SOL     OW32200   2.757   0.019   6.561 -0.6278  0.5753  0.2694
 6855SOL    HW132201   2.705   0.020   6.642  0.0822 -2.0995  0.7616
 6855SOL    HW232202   2.740   4.664   6.544 -0.9358  0.5808  0.5385
 6856SOL     OW32203   0.723   3.562  16.045  0.7224  0.4962  0.0438
 6856SOL    HW132204   0.696   3.524  15.962 -3.2737  1.5021  0.8716
 6856SOL    HW232205   0.670   3.642  16.052 -0.9469 -0.7138  1.3201
 6857SOL     OW32206   2.359   3.398   5.795 -0.4303  0.6418 -0.8452
 6857SOL    HW132207   2.399   3.427   5.877 -1.4273  0.3898 -0.2772
 6857SOL    HW232208   2.440   3.382   5.745  0.5815  1.8279  0.4234
 6858SOL     OW32209   4.330   0.312   4.593  0.1469 -0.5672 -0.3600
 6858SOL    HW132210   4.409   0.262   4.612  1.5371  0.8132 -2.4930
 6858SOL    HW232211   4.263   0.263   4.641 -0.8008 -1.5833 -2.7204
 6859SOL     OW32212   2.386   2.147   8.451 -0.4672 -0.2480 -0.1740
 6859SOL    HW132213   2.456   2.211   8.460 -1.2527  0.4576  0.8937
 6859SOL    HW232214   2.372   2.129   8.544 -0.3772 -2.3594 -0.5793
 6860SOL     OW32215   0.548   0.882   2.556  0.0796  0.6743 -0.2946
 6860SOL    HW132216   0.516   0.896   2.467 -1.1381 -0.8204 -0.1016
 6860SOL    HW232217   0.591   0.966   2.570  1.3986 -0.2027  0.8387
 6861SOL     OW32218   3.165   3.440   2.968 -0.0405 -0.8091  0.2784
 6861SOL    HW132219   3.195   3.423   2.878 -1.0588  2.8946 -0.7480
 6861SOL    HW232220   3.227   3.512   2.982 -0.1139 -0.2402 -2.2350
 6862SOL     OW32221   3.027   1.606   5.047  0.5234 -0.3740 -0.5604
 6862SOL    HW132222   2.984   1.674   4.995  0.6936  0.2584  0.1179
 6862SOL    HW232223   3.121   1.621   5.038  0.3099 -0.8997 -3.7383
 6863SOL     OW32224   3.980   0.136   8.522  0.9119  0.0830  0.3907
 6863SOL    HW132225   3.912   0.188   8.479  0.6108 -0.3625  0.3321
 6863SOL    HW232226   4.044   0.146   8.451 -1.3241 -1.3680 -1.8001
 6864SOL     OW32227   2.982   1.196  14.305  0.2975  0.0534  0.1943
 6864SOL    HW132228   2.897   1.240  14.306 -1.6435 -3.5775 -3.4075
 6864SOL    HW232229   3.020   1.209  14.218 -1.5811 -0.7861 -0.7757
 6865SOL     OW32230   0.381   0.626  12.965  0.1474  0.0753 -0.2774
 6865SOL    HW132231   0.339   0.546  12.998  2.2884 -2.2621 -3.1902
 6865SOL    HW232232   0.444   0.592  12.901  0.7720 -0.2120  0.4862
 6866SOL     OW32233   2.433   3.535   7.277  0.0979 -0.7545 -0.0443
 6866SOL    HW132234   2.458   3.482   7.201  1.7936  0.4447 -0.3041
 6866SOL    HW232235   2.358   3.581   7.239 -0.7219 -2.0834 -0.0630
 6867SOL     OW32236   0.583   0.549   4.271 -0.3161 -0.1102 -0.2739
 6867SOL    HW132237   0.547   0.469   4.309 -0.1311 -0.2609 -0.4124
 6867SOL    HW232238   0.620   0.585   4.351 -0.3364  0.4004 -0.4920
 6868SOL     OW32239   2.754   1.834   8.373  0.0607 -0.2193 -0.4833
 6868SOL    HW132240   2.782   1.845   8.464  1.0477 -2.8496 -0.4691
 6868SOL    HW232241   2.777   1.742   8.362 -1.0636 -0.7175  1.3340
 6869SOL     OW32242   4.556   2.788   7.698 -0.1052 -0.0998 -0.2822
 6869SOL    HW132243   4.636   2.750   7.661 -0.1902 -0.0252 -0.5407
 6869SOL    HW232244   4.566   2.757   7.789 -1.1020  0.3277 -0.0343
 6870SOL     OW32245   2.003   0.404  17.138  0.1315 -0.1814 -0.2537
 6870SOL    HW132246   2.032   0.473  17.198  0.3427 -1.4213  1.0720
 6870SOL    HW232247   2.007   0.332  17.200 -0.0953  1.7785  2.0572
 6871SOL     OW32248   1.854   0.952   5.692  0.5195 -0.0911  0.0089
 6871SOL    HW132249   1.819   0.994   5.614  0.6315 -1.4893 -0.8074
 6871SOL    HW232250   1.856   1.019   5.760  2.7673  0.1979 -0.3389
 6872SOL     OW32251   0.728   4.326   4.585 -0.7624 -0.4851 -0.1486
 6872SOL    HW132252   0.757   4.409   4.623 -0.4346 -0.0078 -1.4596
 6872SOL    HW232253   0.778   4.260   4.634 -0.4435  0.0312  0.2155
 6873SOL     OW32254   2.329   4.603   9.496  0.1157 -0.4209  0.2610
 6873SOL    HW132255   2.301   4.626   9.585  1.3897  0.8468  0.3302
 6873SOL    HW232256   2.273   4.655   9.438 -0.4228  1.2069  2.2335
 6874SOL     OW32257   2.634   2.452   9.929 -0.3097 -0.0985  0.2536
 6874SOL    HW132258   2.597   2.536   9.902 -1.6028 -0.3510  1.2348
 6874SOL    HW232259   2.642   2.468  10.023 -3.2094  0.1329  0.4563
 6875SOL     OW32260   1.070   4.182  12.895  0.0925  0.2651  0.3552
 6875SOL    HW132261   1.066   4.274  12.869 -1.0829  0.6771  1.9737
 6875SOL    HW232262   0.992   4.144  12.854 -0.2536 -0.7936  1.9872
 6876SOL     OW32263   2.549   1.139   6.772 -0.0650  0.1533  0.0620
 6876SOL    HW132264   2.478   1.096   6.725  0.0988 -0.4494  0.3675
 6876SOL    HW232265   2.632   1.110   6.733 -0.0232 -2.0829  1.8088
 6877SOL     OW32266   1.358   1.908  16.646 -0.2876  0.1815 -0.1749
 6877SOL    HW132267   1.385   1.829  16.599  1.8839  1.5452 -1.2058
 6877SOL    HW232268   1.417   1.965  16.597 -0.3817  1.2437  0.9570
 6878SOL     OW32269   4.072   3.308   9.917  0.0070 -0.3683  0.0889
 6878SOL    HW132270   4.110   3.223   9.894 -0.7446 -1.2430  1.9821
 6878SOL    HW232271   4.089   3.307  10.012 -2.2589  0.2845  0.5181
 6879SOL     OW32272   3.853   3.065   1.809  0.1616  0.2371 -0.5853
 6879SOL    HW132273   3.854   2.969   1.804  2.5600  0.3126 -1.8014
 6879SOL    HW232274   3.796   3.088   1.882  0.6721  0.3132 -0.2120
 6880SOL     OW32275   1.929   1.010   5.313  0.2648  0.9264  0.1366
 6880SOL    HW132276   1.844   1.009   5.359  0.4064  0.9536  0.4016
 6880SOL    HW232277   1.976   0.944   5.363  2.0875  0.7543 -1.8352
 6881SOL     OW32278   3.318   3.182  13.268  0.2297  0.2530  0.2875
 6881SOL    HW132279   3.264   3.260  13.274  0.0866  0.0006  2.3276
 6881SOL    HW232280   3.251   3.114  13.259 -1.1558  1.5946  0.4507
 6882SOL     OW32281   4.079   4.451   8.293 -0.3678  0.7417  0.5956
 6882SOL    HW132282   4.008   4.420   8.349  2.0159 -2.2318  1.9613
 6882SOL    HW232283   4.153   4.416   8.343  0.3677 -1.2932 -1.9195
 6883SOL     OW32284   1.327   0.248   4.657  0.8096  0.2039 -0.3901
 6883SOL    HW132285   1.323   0.343   4.663  1.7019  0.2753 -0.9830
 6883SOL    HW232286   1.237   0.233   4.630  0.9085  0.5201 -0.8864
 6884SOL     OW32287   3.554   2.205   4.536  0.1154  0.4937 -0.4937
 6884SOL    HW132288   3.484   2.155   4.577  0.8952  1.4811  2.0110
 6884SOL    HW232289   3.528   2.294   4.559 -2.1526 -0.8876  2.3444
 6885SOL     OW32290   0.035   4.457  12.353 -0.3875  0.0021 -0.1286
 6885SOL    HW132291   0.068   4.397  12.287 -0.0524 -0.2541  0.2739
 6885SOL    HW232292   4.710   4.400  12.398 -2.8751  0.1929 -3.3394
 6886SOL     OW32293   0.783   0.948   2.853  0.6835  0.2891  0.4841
 6886SOL    HW132294   0.853   0.907   2.803 -1.3575 -0.3572 -1.8760
 6886SOL    HW232295   0.703   0.899   2.831 -0.7556  2.3674  1.0767
 6887SOL     OW32296   0.925   0.419   5.530 -0.0030 -0.5935 -0.6449
 6887SOL    HW132297   1.005   0.467   5.506  0.0214 -0.3500 -0.0617
 6887SOL    HW232298   0.901   0.462   5.612  1.1181 -0.4139 -0.4095
 6888SOL     OW32299   4.374   1.137   8.267  0.0050 -0.0486 -0.0826
 6888SOL    HW132300   4.375   1.209   8.204 -0.7675  1.4364  1.5887
 6888SOL    HW232301   4.284   1.148   8.298 -0.8955 -0.2722 -2.6039
 6889SOL     OW32302   2.663   4.333  12.446  0.0366  0.1062  0.7378
 6889SOL    HW132303   2.729   4.375  12.391 -1.8202  1.4166 -0.5065
 6889SOL    HW232304   2.637   4.409  12.498 -2.2437  0.1433 -0.4442
 6890SOL     OW32305   3.389   2.891   8.836  0.4804  0.2948 -0.2206
 6890SOL    HW132306   3.450   2.893   8.910  0.3563 -0.7701 -0.0877
 6890SOL    HW232307   3.445   2.885   8.759 -0.0910 -1.6237 -0.5046
 6891SOL     OW32308   2.812   2.222  13.873  0.4033 -0.2138  0.1803
 6891SOL    HW132309   2.805   2.151  13.937  1.0783  0.6436  1.2021
 6891SOL    HW232310   2.721   2.224  13.840  0.3049 -0.9729  0.4147
 6892SOL     OW32311   0.239   1.863   8.416  0.2873 -0.8626 -0.2366
 6892SOL    HW132312   0.249   1.821   8.331 -1.1271 -3.6137  0.9508
 6892SOL    HW232313   0.177   1.808   8.464 -1.9645  1.6171 -0.2889
 6893SOL     OW32314   1.153   4.352   0.365 -0.0672 -0.4168 -0.2720
 6893SOL    HW132315   1.187   4.439   0.387  0.5325 -0.8633  0.5773
 6893SOL    HW232316   1.060   4.364   0.386 -0.5411 -0.6130 -2.3083
 6894SOL     OW32317   3.525   1.693   5.801  0.2721 -0.3508  0.2637
 6894SOL    HW132318   3.483   1.712   5.884 -0.0667  1.9387 -0.4182
 6894SOL    HW232319   3.532   1.598   5.803 -1.1846 -0.3962  2.3410
 6895SOL     OW32320   1.125   3.693   1.965  0.7295 -0.7514 -0.0775
 6895SOL    HW132321   1.129   3.669   2.058  0.0549  3.3612  1.0093
 6895SOL    HW232322   1.069   3.620   1.937 -0.7721  0.8493 -1.2873
 6896SOL     OW32323   2.423   0.803   8.797 -0.0991  0.5674  0.2640
 6896SOL    HW132324   2.388   0.773   8.713  2.2402 -0.4780 -0.3158
 6896SOL    HW232325   2.393   0.734   8.856  0.0563 -0.1942 -0.5658
 6897SOL     OW32326   3.571   1.659   9.143 -0.8740 -0.3235 -0.3082
 6897SOL    HW132327   3.633   1.607   9.193 -2.0312  0.0613  1.5201
 6897SOL    HW232328   3.621   1.703   9.074 -0.0487  2.2130  1.9135
 6898SOL     OW32329   0.603   2.956   8.264 -0.2949 -0.4175 -0.4124
 6898SOL    HW132330   0.583   2.945   8.357  2.9371  0.0442  0.3545
 6898SOL    HW232331   0.653   3.038   8.270 -1.6469  0.3049  1.0629
 6899SOL     OW32332   2.563   4.534   9.388  0.3179 -0.6689  0.7393
 6899SOL    HW132333   2.476   4.547   9.426 -0.3248 -1.0380 -0.5926
 6899SOL    HW232334   2.575   4.441   9.409  1.0016 -1.0196 -1.1926
 6900SOL     OW32335   1.472   0.880   5.997 -0.1564 -0.1758  0.2422
 6900SOL    HW132336   1.386   0.887   6.037 -0.8677 -0.4173 -1.2491
 6900SOL    HW232337   1.465   0.792   5.959 -3.4680 -1.1051  3.0794
 6901SOL     OW32338   4.336   0.908   2.960 -0.5119  0.1089 -0.0254
 6901SOL    HW132339   4.347   0.819   2.926 -0.9639  0.0358  0.0129
 6901SOL    HW232340   4.240   0.901   2.962 -0.6115  1.3318 -0.4048
 6902SOL     OW32341   2.182   0.337   4.426 -0.7067 -0.2721 -0.0380
 6902SOL    HW132342   2.106   0.373   4.472 -0.0895  1.0956 -0.0853
 6902SOL    HW232343   2.182   0.400   4.355 -0.9819  1.3921  1.4242
 6903SOL     OW32344   0.070   0.673   9.559  0.3835 -0.1774 -0.4540
 6903SOL    HW132345   0.030   0.616   9.625  0.5829  1.9197  1.4696
 6903SOL    HW232346   0.106   0.747   9.608  3.1977 -0.4739 -2.0916
 6904SOL     OW32347   4.237   1.748   2.552  0.1293  0.6341 -0.1989
 6904SOL    HW132348   4.233   1.820   2.615  0.0142  0.1913  0.2955
 6904SOL    HW232349   4.197   1.681   2.607  3.5416 -1.8480 -0.8089
 6905SOL     OW32350   2.823   3.738  11.832  0.0049  0.0434  0.2664
 6905SOL    HW132351   2.847   3.696  11.749 -0.0029 -0.5762  0.5780
 6905SOL    HW232352   2.911   3.752  11.867  0.0487 -2.0858  1.0180
 6906SOL     OW32353   3.694   4.676   4.945 -0.1207  0.5383  0.2897
 6906SOL    HW132354   3.717   4.617   4.874 -0.2639 -0.1257  0.8035
 6906SOL    HW232355   3.615   4.714   4.906 -1.1946 -0.6581  1.3255
 6907SOL     OW32356   4.440   0.834   3.891 -0.0342 -0.1655 -0.4385
 6907SOL    HW132357   4.429   0.739   3.888  3.0044 -0.4434 -2.8699
 6907SOL    HW232358   4.393   0.859   3.971  0.4928 -0.1513 -0.1309
 6908SOL     OW32359   3.135   0.388   0.389 -0.1336 -0.0334 -0.1050
 6908SOL    HW132360   3.107   0.445   0.461 -0.0296 -0.5942  0.3742
 6908SOL    HW232361   3.073   0.414   0.320 -1.5223 -1.7653  0.5114
 6909SOL     OW32362   1.605   3.140   3.709 -0.2645  0.5832 -0.5690
 6909SOL    HW132363   1.652   3.110   3.632 -1.1940  0.1679 -0.9812
 6909SOL    HW232364   1.673   3.135   3.776 -3.3962 -3.7880  2.2960
 6910SOL     OW32365   0.872   4.188   1.764 -0.3250 -0.0246  0.2434
 6910SOL    HW132366   0.786   4.157   1.794  0.0666 -2.4172 -1.1416
 6910SOL    HW232367   0.931   4.121   1.797  1.0225  0.8299 -0.4262
 6911SOL     OW32368   4.132   1.853  16.913  0.2254  0.1270 -0.0880
 6911SOL    HW132369   4.067   1.895  16.856  0.2882 -0.5316 -0.6444
 6911SOL    HW232370   4.086   1.836  16.995 -1.2310  1.5279 -0.5973
 6912SOL     OW32371   3.988   3.443   4.703 -1.0897  0.4269  0.5533
 6912SOL    HW132372   4.010   3.396   4.623  0.0992 -1.2749  1.8660
 6912SOL    HW232373   3.993   3.377   4.773  1.3056 -0.6751 -0.6610
 6913SOL     OW32374   2.593   0.846  12.900 -0.0883 -0.4383 -0.2733
 6913SOL    HW132375   2.644   0.844  12.981 -0.7443 -1.6213  0.1154
 6913SOL    HW232376   2.591   0.940  12.882  1.3253 -0.2656  0.5065
 6914SOL     OW32377   3.903   2.914  15.314 -0.2221  0.1484 -0.1112
 6914SOL    HW132378   3.872   2.837  15.268 -1.6217  0.0355  1.0168
 6914SOL    HW232379   3.970   2.951  15.256 -0.9331  0.8858 -0.4656
 6915SOL     OW32380   3.786   4.154   3.765 -0.4284 -0.1851 -0.1963
 6915SOL    HW132381   3.788   4.061   3.788 -1.0193 -0.6149 -1.8555
 6915SOL    HW232382   3.847   4.186   3.832 -0.9035  3.3123 -1.4366
 6916SOL     OW32383   3.088   0.010   7.864  0.4589  0.5495  0.9223
 6916SOL    HW132384   3.100   0.011   7.769  3.4797  0.6151  1.2894
 6916SOL    HW232385   3.141   4.669   7.873  0.3493  0.4870  1.0223
 6917SOL     OW32386   0.962   0.868   5.964  0.2982  0.8564 -0.1030
 6917SOL    HW132387   0.934   0.786   6.004  0.1174 -0.2430 -2.5279
 6917SOL    HW232388   0.975   0.920   6.044  2.9093  1.0267 -0.6279
 6918SOL     OW32389   0.435   3.730   5.546  0.3070  0.2261 -0.5301
 6918SOL    HW132390   0.419   3.635   5.542  0.0272  0.1790  1.4104
 6918SOL    HW232391   0.389   3.762   5.469  3.7964  0.5264 -2.4700
 6919SOL     OW32392   1.034   0.949   4.433 -0.6650 -0.0705 -0.2919
 6919SOL    HW132393   1.082   1.030   4.450 -1.3117  0.3923 -0.6256
 6919SOL    HW232394   0.977   0.983   4.364  1.2866 -2.4859 -3.0810
 6920SOL     OW32395   3.313   3.252  16.852  0.2542 -0.4223 -0.2674
 6920SOL    HW132396   3.224   3.283  16.836  1.0238  1.7137 -0.3587
 6920SOL    HW232397   3.302   3.165  16.891  1.3633 -0.5420 -0.2434
 6921SOL     OW32398   3.328   2.747   9.266 -0.1170  0.5271  0.3427
 6921SOL    HW132399   3.283   2.704   9.192  0.8097 -0.2914  0.2561
 6921SOL    HW232400   3.259   2.774   9.326  1.8944  1.3935  2.2466
 6922SOL     OW32401   4.518   1.029  16.503  0.2193  0.0311 -0.0174
 6922SOL    HW132402   4.544   0.939  16.484 -0.8721 -0.2957  0.0213
 6922SOL    HW232403   4.449   1.033  16.437 -2.8092 -1.1225  3.0478
 6923SOL     OW32404   4.684   3.630   6.920 -0.2479 -0.3143 -0.2056
 6923SOL    HW132405   0.036   3.659   6.901  0.5943 -2.8677 -0.1289
 6923SOL    HW232406   4.674   3.644   7.014  0.1318 -0.7536 -0.0983
 6924SOL     OW32407   4.731   2.968   2.697 -0.0319  0.1179  0.1080
 6924SOL    HW132408   0.047   3.045   2.716 -1.0440  0.3025  2.1378
 6924SOL    HW232409   0.054   2.916   2.750  0.7560  0.5274 -0.3842
 6925SOL     OW32410   1.733   4.168   2.211 -0.2811  0.0375 -0.6508
 6925SOL    HW132411   1.781   4.100   2.259  0.9750  0.9931 -0.5510
 6925SOL    HW232412   1.800   4.236   2.206  0.3575 -0.5049  0.4277
 6926SOL     OW32413   4.408   0.872   6.097  0.0871 -0.1379  0.0440
 6926SOL    HW132414   4.427   0.805   6.163 -0.8758 -0.5245 -0.0650
 6926SOL    HW232415   4.428   0.824   6.017  0.2135 -1.6969  0.9884
 6927SOL     OW32416   1.841   0.421   7.242 -0.3744  0.2350  0.1448
 6927SOL    HW132417   1.837   0.418   7.146  2.6408  2.4532 -0.0286
 6927SOL    HW232418   1.935   0.428   7.254 -0.3589  1.2390 -0.5865
 6928SOL     OW32419   1.535   0.257   0.908  0.0202 -0.1999  0.3685
 6928SOL    HW132420   1.606   0.315   0.883 -1.1625  1.1527  0.1223
 6928SOL    HW232421   1.551   0.244   1.002  0.9442  2.1152  0.5406
 6929SOL     OW32422   3.026   3.612   9.584 -0.5287 -0.0349 -0.1439
 6929SOL    HW132423   3.016   3.590   9.491 -0.9547 -2.8832  0.5867
 6929SOL    HW232424   2.989   3.532   9.619 -1.8612 -0.2929 -2.1156
 6930SOL     OW32425   1.855   0.151   1.785 -0.3102  0.2131  0.4814
 6930SOL    HW132426   1.761   0.170   1.785 -0.2338  0.5994 -1.3341
 6930SOL    HW232427   1.873   0.174   1.876 -2.5099  1.4742  0.6298
 6931SOL     OW32428   3.130   4.059   6.237  0.5925  0.3599  0.6319
 6931SOL    HW132429   3.120   3.967   6.213  1.0467  0.5606 -0.2942
 6931SOL    HW232430   3.071   4.107   6.179  1.4792 -0.5496 -1.0023
 6932SOL     OW32431   3.866   0.295  16.686  0.8099  0.3140  0.2861
 6932SOL    HW132432   3.955   0.267  16.705  0.2949 -1.1046  0.5620
 6932SOL    HW232433   3.849   0.352  16.762  0.4002 -0.9666  1.1475
 6933SOL     OW32434   0.700   3.845  10.696 -0.6521  0.0047  0.1842
 6933SOL    HW132435   0.736   3.766  10.738  2.8008  1.5844  0.2185
 6933SOL    HW232436   0.722   3.811  10.609 -1.8517  0.2232 -0.2026
 6934SOL     OW32437   2.931   1.900   7.671  0.2717  0.0455 -0.2366
 6934SOL    HW132438   3.007   1.845   7.690 -1.3333 -1.9747  0.3288
 6934SOL    HW232439   2.942   1.975   7.729 -1.2578 -0.9986  1.4027
 6935SOL     OW32440   2.962   3.695   5.442  0.1376  0.3279 -0.3963
 6935SOL    HW132441   2.995   3.783   5.426 -0.1770  0.5647  0.2616
 6935SOL    HW232442   2.989   3.677   5.532  1.8870  3.5139 -0.2659
 6936SOL     OW32443   1.680   0.217   2.921 -0.1069  0.1512 -0.0139
 6936SOL    HW132444   1.584   0.213   2.924 -0.1494  1.5346  0.2553
 6936SOL    HW232445   1.685   0.182   2.832  1.8429 -2.4119  1.1105
 6937SOL     OW32446   0.834   4.193   4.048 -0.2278 -0.3190  0.1658
 6937SOL    HW132447   0.802   4.257   4.112 -2.3228 -0.0786 -1.1039
 6937SOL    HW232448   0.921   4.232   4.047  0.3504 -1.6539 -0.9493
 6938SOL     OW32449   0.753   1.970   9.626  0.0985 -0.4200  0.4787
 6938SOL    HW132450   0.845   1.948   9.616 -0.2314 -0.5619 -2.2898
 6938SOL    HW232451   0.758   2.045   9.567 -1.3810 -0.6277  0.0692
 6939SOL     OW32452   1.410   2.230   1.497  0.4830  0.5717 -0.0244
 6939SOL    HW132453   1.441   2.295   1.435 -1.3556  0.8039 -0.6951
 6939SOL    HW232454   1.464   2.156   1.470  0.0367  0.1395  0.2581
 6940SOL     OW32455   2.238   3.818   7.999  0.0102  0.1253  0.3548
 6940SOL    HW132456   2.230   3.846   8.091 -1.7108  2.4945 -0.5038
 6940SOL    HW232457   2.158   3.861   7.969  1.4690  1.7083 -1.2318
 6941SOL     OW32458   2.721   0.790   3.135 -0.1400  0.0040 -0.1051
 6941SOL    HW132459   2.751   0.722   3.076 -0.1468  0.2614 -0.4060
 6941SOL    HW232460   2.810   0.812   3.165  0.0721 -0.3966 -0.4385
 6942SOL     OW32461   2.978   0.287  15.506 -0.0809  0.2419 -0.1246
 6942SOL    HW132462   3.028   0.356  15.462  0.3741  0.6827  1.0733
 6942SOL    HW232463   2.890   0.322  15.493  0.0732 -0.1064 -2.0348
 6943SOL     OW32464   2.119   4.193   7.035  0.0286  0.2032  0.5064
 6943SOL    HW132465   2.186   4.261   7.031 -0.4921  0.8158  2.4897
 6943SOL    HW232466   2.047   4.249   7.064  1.4937  1.1520  2.3569
 6944SOL     OW32467   1.632   0.727   2.885 -0.3130 -0.1285 -0.0524
 6944SOL    HW132468   1.595   0.653   2.837  0.6381 -0.1642 -0.7226
 6944SOL    HW232469   1.585   0.707   2.966 -0.8360 -0.6893 -0.5031
 6945SOL     OW32470   0.837   1.471   8.959  0.0088 -0.8435 -0.1496
 6945SOL    HW132471   0.869   1.561   8.970 -1.1559 -0.1353 -2.4844
 6945SOL    HW232472   0.921   1.426   8.952  0.5354  0.4855 -2.6100
 6946SOL     OW32473   1.058   1.066  15.867  0.3851 -0.0000  0.3581
 6946SOL    HW132474   1.005   1.126  15.815 -0.2598  0.5602  1.6539
 6946SOL    HW232475   1.132   1.051  15.808 -0.2598 -2.0136  0.0655
 6947SOL     OW32476   2.517   1.860   2.812  0.1323 -0.2838 -0.0894
 6947SOL    HW132477   2.562   1.937   2.847  0.8517 -1.0635  0.7233
 6947SOL    HW232478   2.443   1.854   2.873  1.0618 -1.3855  0.9202
 6948SOL     OW32479   2.664   0.349   9.085 -0.2888  0.5242 -0.0705
 6948SOL    HW132480   2.641   0.257   9.095  5.2664 -0.7852  0.7253
 6948SOL    HW232481   2.698   0.348   8.996 -0.7391 -0.7122 -0.2253
 6949SOL     OW32482   1.776   4.090   7.850 -0.0277 -0.2572  0.2910
 6949SOL    HW132483   1.856   4.090   7.798 -0.3298 -2.8804 -0.1689
 6949SOL    HW232484   1.797   4.129   7.935  0.1302 -1.2685  0.7132
 6950SOL     OW32485   1.682   1.369   3.047 -0.0923 -0.2482 -0.3537
 6950SOL    HW132486   1.767   1.386   3.005 -0.1675  1.0227  0.0087
 6950SOL    HW232487   1.674   1.274   3.046 -3.7858  0.0561  1.6492
 6951SOL     OW32488   1.159   0.373   3.662  0.5368 -0.2965  0.4156
 6951SOL    HW132489   1.129   0.380   3.572  0.3430 -0.7845  0.4418
 6951SOL    HW232490   1.074   0.386   3.703 -0.3270  0.8900 -1.7824
 6952SOL     OW32491   2.150   4.712  13.883  0.1278 -0.2446  0.1337
 6952SOL    HW132492   2.177   4.646  13.819 -1.0003 -0.2804 -0.2959
 6952SOL    HW232493   2.055   4.714  13.876  0.2153 -1.6388 -1.2652
 6953SOL     OW32494   3.120   2.647   7.602  0.3810 -0.3469 -0.2462
 6953SOL    HW132495   3.179   2.649   7.677  2.7872  1.7281 -2.1796
 6953SOL    HW232496   3.057   2.590   7.645 -0.7050  1.3525  0.4173
 6954SOL     OW32497   3.154   1.982   0.938  0.2877 -0.1234 -0.0140
 6954SOL    HW132498   3.188   2.027   1.016 -1.1141  0.2306  0.3806
 6954SOL    HW232499   3.061   1.971   0.957  0.1538  1.6089  0.2769
 6955SOL     OW32500   0.925   2.611   4.968 -0.2746  0.5825  0.7815
 6955SOL    HW132501   0.875   2.611   4.886 -0.1511 -0.3435  0.7097
 6955SOL    HW232502   0.913   2.523   5.003 -0.3565  0.5926  0.7792
 6956SOL     OW32503   2.937   3.849   3.236 -0.3006 -0.5515  0.6040
 6956SOL    HW132504   3.029   3.855   3.209 -0.1950 -2.0882  0.6450
 6956SOL    HW232505   2.937   3.764   3.281 -0.3549 -1.0116 -0.2737
 6957SOL     OW32506   2.569   0.530  17.619 -0.2619 -0.3066  0.4772
 6957SOL    HW132507   2.591   0.469  17.549 -1.5507  0.9377 -1.0216
 6957SOL    HW232508   2.488   0.497  17.660  0.5766 -2.4149  0.4126
 6958SOL     OW32509   4.235   2.524   2.575 -0.0115  0.2270 -0.0521
 6958SOL    HW132510   4.178   2.592   2.610 -0.1054  0.4542 -0.6489
 6958SOL    HW232511   4.295   2.529   2.649 -2.5314 -0.9122  2.0755
 6959SOL     OW32512   3.126   0.769   2.261 -0.6778 -0.1262  0.7240
 6959SOL    HW132513   3.195   0.718   2.219  0.4117  2.2557 -0.3469
 6959SOL    HW232514   3.074   0.804   2.189 -0.7130 -1.8418 -0.0770
 6960SOL     OW32515   2.410   0.648   3.194 -0.4159 -0.3007  0.2836
 6960SOL    HW132516   2.402   0.623   3.102 -1.4533 -0.8600  0.5345
 6960SOL    HW232517   2.413   0.744   3.191 -1.9121 -0.2446  0.6167
 6961SOL     OW32518   4.621   1.384  12.700  0.2192  0.5213  0.0925
 6961SOL    HW132519   4.537   1.339  12.692  1.9728 -2.5478 -1.1147
 6961SOL    HW232520   4.615   1.457  12.637  1.1541  0.4557 -0.0807
 6962SOL     OW32521   2.719   1.374   5.424 -0.1050  0.3077  0.1229
 6962SOL    HW132522   2.786   1.399   5.487  0.8519 -0.7872 -0.4826
 6962SOL    HW232523   2.640   1.417   5.459  0.0339  1.5318 -1.0649
 6963SOL     OW32524   0.322   0.736   5.260  0.2729 -0.4702  0.8437
 6963SOL    HW132525   0.278   0.690   5.332  1.1958 -2.0284  0.4162
 6963SOL    HW232526   0.297   0.826   5.280 -2.0728 -1.6479  3.1647
 6964SOL     OW32527   0.310   0.413   7.349  0.2045 -0.2670 -0.3491
 6964SOL    HW132528   0.305   0.497   7.394  0.1948  0.2883 -1.4027
 6964SOL    HW232529   0.367   0.447   7.281  0.8666  0.3975  0.5459
 6965SOL     OW32530   2.030   3.274  17.359 -0.4316  0.2209 -0.0719
 6965SOL    HW132531   2.005   3.331  17.287 -0.0594 -1.8972 -1.8636
 6965SOL    HW232532   2.003   3.189  17.324 -1.0718 -1.0719  3.5343
 6966SOL     OW32533   0.387   1.483  15.096 -0.5352  0.0158  0.3618
 6966SOL    HW132534   0.301   1.525  15.095 -0.2377  0.5754 -2.5772
 6966SOL    HW232535   0.446   1.557  15.082  0.4382 -0.9602 -0.6679
 6967SOL     OW32536   3.873   4.372  17.504 -0.5222  0.1000  0.2583
 6967SOL    HW132537   3.918   4.456  17.496  1.3234 -0.8610  0.6750
 6967SOL    HW232538   3.923   4.337  17.430 -0.3112 -0.0005  0.4488
 6968SOL     OW32539   2.803   0.506   4.295  0.2797  0.2467 -0.0920
 6968SOL    HW132540   2.774   0.579   4.349  0.1169 -0.7923  1.2277
 6968SOL    HW232541   2.792   0.546   4.209  1.1585  0.1550 -0.2474
 6969SOL     OW32542   0.386   3.898   6.769  0.6620 -0.0921 -0.1693
 6969SOL    HW132543   0.306   3.915   6.719  0.0662 -0.8682  0.5161
 6969SOL    HW232544   0.424   3.824   6.723  1.9675 -0.3874  1.3779
 6970SOL     OW32545   2.659   2.996  12.358  0.3392  0.3859 -0.1899
 6970SOL    HW132546   2.589   2.936  12.384  0.0972  1.3352  1.3490
 6970SOL    HW232547   2.736   2.965  12.405 -0.8327  0.5508  1.8289
 6971SOL     OW32548   2.679   0.903   9.103  0.2074  0.1604  0.3248
 6971SOL    HW132549   2.725   0.863   9.176  0.1551  1.0496  0.8347
 6971SOL    HW232550   2.730   0.855   9.037  2.2828  0.4501  1.7157
 6972SOL     OW32551   4.120   3.216   4.610 -0.6485 -0.4446  0.2800
 6972SOL    HW132552   4.046   3.154   4.606 -2.2080  1.5584 -1.5223
 6972SOL    HW232553   4.177   3.169   4.672 -0.1838  0.6270  0.6633
 6973SOL     OW32554   1.937   0.519   0.707 -0.8230  0.3123  0.1557
 6973SOL    HW132555   2.010   0.520   0.645  0.1628  0.8523  1.3233
 6973SOL    HW232556   1.890   0.602   0.698 -0.7353  0.5736  2.2514
 6974SOL     OW32557   3.822   1.151  14.596 -0.4136  0.0133 -0.1097
 6974SOL    HW132558   3.748   1.203  14.628  1.0499  1.2372  1.2812
 6974SOL    HW232559   3.859   1.205  14.526 -0.1525  0.7740  0.6096
 6975SOL     OW32560   3.680   3.260   4.782 -0.1921  0.1259  0.2237
 6975SOL    HW132561   3.738   3.186   4.765 -1.6589 -0.8472 -0.4771
 6975SOL    HW232562   3.727   3.292   4.859 -1.4745  2.5132  0.0043
 6976SOL     OW32563   1.241   3.216   7.372  0.0581  0.5627 -0.5010
 6976SOL    HW132564   1.308   3.230   7.438 -0.3227 -1.9024  0.4170
 6976SOL    HW232565   1.281   3.259   7.297  2.2514  0.0465  0.3731
 6977SOL     OW32566   0.504   3.877   5.895  0.0903 -0.1829 -0.5833
 6977SOL    HW132567   0.428   3.823   5.871 -0.6414  0.7714 -0.4379
 6977SOL    HW232568   0.495   3.876   5.991  0.8058 -0.1902 -0.5189
 6978SOL     OW32569   2.813   1.524   8.377 -0.2853  0.1025 -0.3273
 6978SOL    HW132570   2.743   1.483   8.429  3.0720 -1.9531  2.5672
 6978SOL    HW232571   2.888   1.465   8.376  0.3321  0.8644  1.0566
 6979SOL     OW32572   1.070   0.054  16.870  0.0411 -0.1680 -0.1474
 6979SOL    HW132573   1.009   0.119  16.834  0.6829  0.3889 -0.2282
 6979SOL    HW232574   1.150   0.107  16.861  1.0220 -1.7473 -0.6904
 6980SOL     OW32575   3.537   4.423   3.569 -0.3799  0.0120 -0.5266
 6980SOL    HW132576   3.554   4.333   3.597 -4.5505 -1.4367 -2.6387
 6980SOL    HW232577   3.464   4.455   3.622  0.5206  0.3776  0.5041
 6981SOL     OW32578   3.125   3.276   4.259  0.2254 -0.2673 -0.2779
 6981SOL    HW132579   3.136   3.371   4.249  1.4485 -0.1504  2.0522
 6981SOL    HW232580   3.216   3.247   4.255  0.7644  1.7601 -2.5384
 6982SOL     OW32581   1.803   2.018  13.313  0.2499 -1.1886  0.3603
 6982SOL    HW132582   1.779   1.957  13.243  1.0492 -1.3431  0.2170
 6982SOL    HW232583   1.727   2.004  13.369 -0.2206  2.0657  0.5633
 6983SOL     OW32584   1.585   3.942   6.368  0.0769 -0.4087 -0.3240
 6983SOL    HW132585   1.491   3.951   6.380  0.0767  1.3237 -1.6257
 6983SOL    HW232586   1.591   3.978   6.279  0.0311 -1.5871 -0.7974
 6984SOL     OW32587   1.222   2.195  15.854  0.0259 -0.1374  0.3026
 6984SOL    HW132588   1.309   2.155  15.862  0.5412  0.9047 -0.1090
 6984SOL    HW232589   1.244   2.258  15.786  1.3527 -1.2415 -0.2949
 6985SOL     OW32590   0.835   4.496   6.410  0.2425  0.6504  0.0913
 6985SOL    HW132591   0.930   4.507   6.409  0.1495  1.3592 -2.6098
 6985SOL    HW232592   0.827   4.401   6.399  2.9954  0.5614 -1.1415
 6986SOL     OW32593   2.752   2.128   7.930 -0.7869 -0.0600  0.1908
 6986SOL    HW132594   2.686   2.197   7.920  0.5585  1.2037  0.1135
 6986SOL    HW232595   2.788   2.164   8.011  0.5187 -2.5009  0.6995
 6987SOL     OW32596   3.022   0.928   6.974  0.3680 -0.2187  0.1764
 6987SOL    HW132597   2.990   0.869   7.042 -0.7396  0.3617  0.1534
 6987SOL    HW232598   3.049   1.001   7.030 -0.9091  1.8220 -1.8608
 6988SOL     OW32599   4.599   1.822   6.123 -0.0642 -0.0533 -0.4046
 6988SOL    HW132600   4.685   1.829   6.081  0.5417  0.7944  0.9729
 6988SOL    HW232601   4.536   1.871   6.070  0.3724 -0.7290 -1.5461
 6989SOL     OW32602   0.063   1.904   2.693 -0.6718  0.0889  0.0338
 6989SOL    HW132603   0.001   1.915   2.765  1.1451 -1.7858  1.8727
 6989SOL    HW232604   0.075   1.996   2.668 -2.0057  0.5055  0.9236
 6990SOL     OW32605   4.421   2.161   7.610 -0.1802  0.3285 -0.8646
 6990SOL    HW132606   4.432   2.239   7.556  1.6745  0.2814 -0.5344
 6990SOL    HW232607   4.479   2.101   7.563  3.1421 -0.1264  3.8880
 6991SOL     OW32608   0.785   1.597   2.892 -0.3890 -0.0661 -0.3111
 6991SOL    HW132609   0.781   1.691   2.914 -2.6877 -0.3459  0.4574
 6991SOL    HW232610   0.697   1.594   2.854  0.9355  1.7944 -3.5104
 6992SOL     OW32611   4.177   2.855  10.155  0.3337 -0.0888 -0.7068
 6992SOL    HW132612   4.191   2.882  10.246  1.1681  2.2589 -1.5344
 6992SOL    HW232613   4.082   2.868  10.151  0.2721 -1.0419 -2.0722
 6993SOL     OW32614   0.185   4.163   0.631 -0.3289 -0.2045  0.3689
 6993SOL    HW132615   0.184   4.258   0.620 -0.1232 -0.4194 -1.4198
 6993SOL    HW232616   0.277   4.150   0.657  0.4038 -1.7249 -3.0261
 6994SOL     OW32617   2.840   2.902  11.642  0.9435 -0.7061  0.2091
 6994SOL    HW132618   2.795   2.946  11.571 -1.2393 -0.3675  1.7970
 6994SOL    HW232619   2.802   2.932  11.724 -2.3900 -2.5744 -0.6725
 6995SOL     OW32620   3.655   1.157   1.540 -0.2317 -0.0281  0.1235
 6995SOL    HW132621   3.653   1.062   1.539  0.2812 -0.0388 -0.3225
 6995SOL    HW232622   3.739   1.175   1.582 -0.6766  2.5374 -0.0735
 6996SOL     OW32623   1.088   3.902   5.399 -0.5167  0.2212  0.0984
 6996SOL    HW132624   1.077   3.903   5.494  2.2490  0.7431  0.4244
 6996SOL    HW232625   1.001   3.882   5.365 -0.6473 -1.1802  1.2539
 6997SOL     OW32626   1.971   3.025   1.635 -0.4949  0.5147  0.6274
 6997SOL    HW132627   2.029   2.993   1.704  0.6118 -0.9804 -1.0092
 6997SOL    HW232628   1.905   3.069   1.688 -1.6004  0.1709 -0.4546
 6998SOL     OW32629   2.582   1.862   7.127 -0.0274 -0.0006  0.2716
 6998SOL    HW132630   2.660   1.914   7.142 -0.7543  1.1788 -0.0270
 6998SOL    HW232631   2.529   1.941   7.118 -1.8179 -1.2570 -0.2569
 6999SOL     OW32632   1.973   2.787   1.267  0.0750 -0.0035 -0.0768
 6999SOL    HW132633   2.028   2.847   1.317  0.4383 -0.1664 -0.2810
 6999SOL    HW232634   2.039   2.744   1.213 -0.2179  0.7392 -1.0250
 7000SOL     OW32635   4.037   4.293   8.053  0.0590 -0.0312 -0.2156
 7000SOL    HW132636   4.066   4.339   8.131  0.5654 -1.9339  0.7255
 7000SOL    HW232637   4.106   4.299   7.987  0.1735 -0.5422 -0.1436
 7001SOL     OW32638   2.718   3.137   1.050 -0.0406 -0.3623 -0.2359
 7001SOL    HW132639   2.718   3.191   1.129  2.1734 -1.0243  0.2342
 7001SOL    HW232640   2.671   3.197   0.993 -0.5261 -0.2647  0.2676
 7002SOL     OW32641   3.246   1.952  17.714  0.2037 -0.3814 -0.3670
 7002SOL    HW132642   3.318   1.893  17.691  1.1243  0.6021  0.0129
 7002SOL    HW232643   3.281   2.014   0.029 -0.2111  0.9616 -1.4434
 7003SOL     OW32644   2.535   3.459  15.027 -0.2130 -0.0138 -0.3385
 7003SOL    HW132645   2.540   3.369  14.996 -1.3299  0.0082 -0.5612
 7003SOL    HW232646   2.441   3.460  15.044 -0.2910  0.4727 -0.8013
 7004SOL     OW32647   0.167   4.396   5.337  0.0162  0.6006  0.0214
 7004SOL    HW132648   0.212   4.363   5.414  2.5753  1.6656 -1.0081
 7004SOL    HW232649   0.214   4.358   5.263 -1.0046 -0.4723 -0.0607
 7005SOL     OW32650   4.693   4.148   4.292  0.5879  0.3411 -0.6355
 7005SOL    HW132651   4.636   4.191   4.228 -2.2528 -0.4183  1.4108
 7005SOL    HW232652   4.640   4.069   4.301  0.8465  0.4253  1.6508
 7006SOL     OW32653   4.109   0.635   4.144  0.0695  0.1639 -0.3266
 7006SOL    HW132654   4.036   0.640   4.082  1.0654  1.0979 -1.4171
 7006SOL    HW232655   4.109   0.540   4.160  0.9905 -0.0605 -1.6666
 7007SOL     OW32656   3.462   1.978   7.587  0.0150  0.1335  0.5942
 7007SOL    HW132657   3.547   1.977   7.629 -0.4004  1.9149  1.4722
 7007SOL    HW232658   3.483   2.012   7.500  1.1722  0.6296  1.0732
 7008SOL     OW32659   0.630   0.718   4.955  0.2342  0.8153  0.2826
 7008SOL    HW132660   0.585   0.658   5.015  0.0289  0.0690 -0.6218
 7008SOL    HW232661   0.581   0.795   4.982 -0.1294  0.9702 -0.8462
 7009SOL     OW32662   4.217   4.710   7.774 -0.4565  0.2464  0.2022
 7009SOL    HW132663   4.274   0.006   7.705 -0.0459  0.5187  0.6700
 7009SOL    HW232664   4.273   4.654   7.827 -3.0130 -1.2999  1.2518
 7010SOL     OW32665   0.191   0.302  17.654 -0.3510  0.1000  0.1337
 7010SOL    HW132666   0.255   0.344  17.712  1.4478 -0.0688 -1.6973
 7010SOL    HW232667   0.197   0.215  17.694  1.2436  0.1717  0.0419
 7011SOL     OW32668   1.857   3.244  16.400 -0.1192  0.0099  0.2477
 7011SOL    HW132669   1.831   3.336  16.389  1.8907  0.5940  0.4248
 7011SOL    HW232670   1.819   3.209  16.319 -1.0726  1.2429  0.1540
 7012SOL     OW32671   3.755   0.566   8.883 -0.1452 -0.3208 -0.2200
 7012SOL    HW132672   3.836   0.523   8.910 -1.6869 -2.0732  1.6301
 7012SOL    HW232673   3.699   0.522   8.947  1.0369 -1.6507 -0.1003
 7013SOL     OW32674   1.915   1.533   3.659 -0.0118  0.4800  0.7793
 7013SOL    HW132675   2.006   1.517   3.634 -0.8580 -0.8728 -1.3746
 7013SOL    HW232676   1.881   1.455   3.616 -0.1452  0.3079  1.1937
 7014SOL     OW32677   3.968   2.088   8.982  0.4395  0.2733  0.3902
 7014SOL    HW132678   4.010   2.075   8.898 -0.7563  1.9885 -0.4769
 7014SOL    HW232679   4.044   2.087   9.040 -0.9277 -0.1155  2.2062
 7015SOL     OW32680   2.502   2.458   5.478  0.0357  0.0494  0.7576
 7015SOL    HW132681   2.535   2.497   5.397  1.0602 -3.3400 -0.4179
 7015SOL    HW232682   2.422   2.510   5.485 -0.6914 -1.1388  1.1901
 7016SOL     OW32683   2.126   1.887  14.875  0.6510 -0.4583  0.1367
 7016SOL    HW132684   2.179   1.894  14.955 -0.1821 -1.3796  0.7636
 7016SOL    HW232685   2.083   1.804  14.893  0.7596 -0.2051  1.5632
 7017SOL     OW32686   1.197   4.149   9.346  0.3900 -0.2343  0.0040
 7017SOL    HW132687   1.192   4.162   9.252  0.1201 -3.8965 -0.4876
 7017SOL    HW232688   1.249   4.068   9.353  0.2440 -0.3781 -0.6168
 7018SOL     OW32689   0.747   1.996   1.248 -0.3716  0.1709 -0.2186
 7018SOL    HW132690   0.803   1.995   1.326  0.2001  1.5091 -0.6018
 7018SOL    HW232691   0.692   1.920   1.265 -1.3258  1.0978  0.8936
 7019SOL     OW32692   0.053   0.062  14.139  0.4621  0.2022  0.2550
 7019SOL    HW132693   0.034   0.144  14.093  1.2326  0.2693  0.0501
 7019SOL    HW232694   0.056   0.006  14.061  0.3290  1.3443 -0.5658
 7020SOL     OW32695   4.617   3.284   4.123  0.4494 -0.1945  0.2374
 7020SOL    HW132696   4.552   3.253   4.186 -0.6688 -0.8962 -1.2776
 7020SOL    HW232697   4.699   3.264   4.169  0.4004  1.8497  1.2311
 7021SOL     OW32698   2.902   4.024   2.399  0.5471 -0.2684 -0.2468
 7021SOL    HW132699   2.933   4.106   2.436  0.6255  0.6913 -2.4236
 7021SOL    HW232700   2.970   3.963   2.428  0.2816 -0.2242  0.4569
 7022SOL     OW32701   1.946   1.971   0.450  0.1735 -0.1311 -0.3527
 7022SOL    HW132702   1.880   1.962   0.382 -0.6486 -0.3520  0.4786
 7022SOL    HW232703   1.944   2.066   0.463  3.8840 -0.0524 -0.2773
 7023SOL     OW32704   4.723   0.236   5.834 -0.3565 -0.7811  0.6571
 7023SOL    HW132705   0.009   0.294   5.907  0.3922  1.1290 -1.1278
 7023SOL    HW232706   4.630   0.215   5.838 -0.3485 -0.9283  0.0646
 7024SOL     OW32707   0.422   1.067   7.925  0.1400 -0.1260 -1.0723
 7024SOL    HW132708   0.398   1.154   7.893 -0.8672 -0.4295 -1.1525
 7024SOL    HW232709   0.514   1.075   7.951  0.0892 -1.1267 -0.5843
 7025SOL     OW32710   1.611   1.887   7.996 -0.1755 -0.5433 -0.1495
 7025SOL    HW132711   1.544   1.828   7.961  0.2599 -0.2794 -1.4135
 7025SOL    HW232712   1.639   1.837   8.073 -0.0065 -1.1759 -0.6175
 7026SOL     OW32713   2.009   2.994   3.344  0.2024 -0.3367  0.2904
 7026SOL    HW132714   2.077   2.981   3.411  0.1979  0.7354  0.5075
 7026SOL    HW232715   2.021   2.923   3.281  2.7063  0.0370  0.3272
 7027SOL     OW32716   3.034   2.990   3.037  0.0686  0.4673  0.5238
 7027SOL    HW132717   2.963   2.929   3.016 -1.9876  2.5702  1.3364
 7027SOL    HW232718   3.018   2.993   3.131 -4.1021 -1.8692 -0.0830
 7028SOL     OW32719   4.334   2.448  12.958  0.3528 -0.3040  0.1640
 7028SOL    HW132720   4.239   2.437  12.960  0.5636 -2.5020 -1.5713
 7028SOL    HW232721   4.344   2.537  12.991  2.0203 -1.1141  1.8284
 7029SOL     OW32722   4.669   1.080  13.047  0.3597  0.4415  0.4196
 7029SOL    HW132723   0.026   1.066  13.047  0.4180  0.8587  0.3929
 7029SOL    HW232724   4.652   1.063  12.954 -0.3125 -0.7040  0.7441
 7030SOL     OW32725   1.561   1.218   7.914 -0.3634  0.3516 -0.3607
 7030SOL    HW132726   1.626   1.147   7.911  1.1108  1.9071 -4.0714
 7030SOL    HW232727   1.538   1.235   7.823  1.6764  2.6218 -0.4470
 7031SOL     OW32728   3.056   0.550   8.807  0.0017  0.1589  0.2668
 7031SOL    HW132729   3.144   0.517   8.786  0.0205  0.1577  0.3488
 7031SOL    HW232730   3.007   0.497   8.870  2.2745  0.8443  2.5971
 7032SOL     OW32731   0.882   0.524   9.733 -0.6996  0.1063 -0.5672
 7032SOL    HW132732   0.879   0.560   9.821  0.9212  0.9663 -0.8612
 7032SOL    HW232733   0.834   0.444   9.754  0.3776 -0.3961 -0.0461
 7033SOL     OW32734   1.812   4.282   3.014  0.2502 -0.2454 -0.0847
 7033SOL    HW132735   1.743   4.220   2.991 -0.0707 -0.7299  2.1632
 7033SOL    HW232736   1.854   4.236   3.087 -1.8118 -0.2243  1.1087
 7034SOL     OW32737   3.122   1.320   8.444 -0.5476 -0.8979 -0.5158
 7034SOL    HW132738   3.131   1.284   8.356  0.5505 -0.4381 -0.5899
 7034SOL    HW232739   3.029   1.302   8.458 -0.5989 -0.4019 -0.2080
 7035SOL     OW32740   0.221   0.187  15.910 -0.5492 -0.1107  0.3365
 7035SOL    HW132741   0.301   0.225  15.876 -1.0817  1.7391  1.1673
 7035SOL    HW232742   0.256   0.098  15.909  0.0751  0.1614 -3.0251
 7036SOL     OW32743   2.772   4.594   2.216  0.7426 -0.4725  0.1551
 7036SOL    HW132744   2.801   4.611   2.127  2.0954 -0.1363  0.6610
 7036SOL    HW232745   2.813   4.510   2.237  0.1358 -0.2993  2.0705
 7037SOL     OW32746   3.845   3.654   5.147  0.1289  0.0696 -0.0742
 7037SOL    HW132747   3.809   3.736   5.114 -3.1383 -1.6583 -0.7899
 7037SOL    HW232748   3.840   3.604   5.066 -1.0445  0.1323 -0.0377
 7038SOL     OW32749   2.963   0.028   6.348  0.1590  0.3979  0.0812
 7038SOL    HW132750   2.945   4.674   6.326  0.9581  1.0760 -3.3748
 7038SOL    HW232751   2.888   0.041   6.407  0.0719  1.3342 -0.2267
 7039SOL     OW32752   1.888   3.584  15.514 -0.2223 -0.1880 -0.1328
 7039SOL    HW132753   1.938   3.666  15.521 -0.4571 -0.1308  0.8778
 7039SOL    HW232754   1.804   3.617  15.482 -0.3876  1.4126  1.9181
 7040SOL     OW32755   4.400   3.421   6.285  0.0140  0.3705 -0.5088
 7040SOL    HW132756   4.400   3.399   6.192 -0.6709 -2.8647  0.2943
 7040SOL    HW232757   4.305   3.423   6.297  0.4691  0.3205  2.9677
 7041SOL     OW32758   4.112   4.231   8.668  0.1997  0.1323 -0.5167
 7041SOL    HW132759   4.101   4.141   8.700  0.3388  0.7050  1.1474
 7041SOL    HW232760   4.094   4.284   8.746  1.5673 -1.2889  0.7652
 7042SOL     OW32761   3.344   1.558  12.173  1.0542  0.5758 -0.3918
 7042SOL    HW132762   3.353   1.464  12.159 -0.5393  0.4888 -0.7680
 7042SOL    HW232763   3.256   1.578  12.205  0.9442 -0.0854 -0.2842
 7043SOL     OW32764   3.338   0.386  15.481 -0.9637 -0.0056  0.0078
 7043SOL    HW132765   3.260   0.427  15.443  0.3474  0.7411 -1.8429
 7043SOL    HW232766   3.339   0.301  15.438 -0.5501  0.2373 -0.4583
 7044SOL     OW32767   1.203   1.810  14.066 -0.1121 -0.1773  0.2561
 7044SOL    HW132768   1.177   1.840  14.154  0.4657  1.3231 -0.0861
 7044SOL    HW232769   1.135   1.746  14.044 -0.6237 -0.0609  1.4812
 7045SOL     OW32770   2.457   1.282   5.684 -0.3724 -0.6406 -0.2550
 7045SOL    HW132771   2.412   1.288   5.600  0.1136  1.2514 -0.3955
 7045SOL    HW232772   2.416   1.212   5.735  1.2222 -1.6730 -0.3721
 7046SOL     OW32773   4.578   4.092   7.975 -0.0682 -0.3884 -0.4062
 7046SOL    HW132774   4.566   4.174   7.928 -1.2933  0.2871  1.1101
 7046SOL    HW232775   4.662   4.111   8.017 -0.7136  2.5046 -0.4604
 7047SOL     OW32776   3.052   1.365   9.480  0.1085 -0.2617  0.5207
 7047SOL    HW132777   2.973   1.415   9.505  0.3702 -1.5756  4.0441
 7047SOL    HW232778   3.118   1.375   9.549  0.5542  0.0118  0.0509
 7048SOL     OW32779   0.016   3.705   2.302  0.3715 -0.3371  0.0856
 7048SOL    HW132780   0.008   3.800   2.301  1.0525 -0.2611  2.2038
 7048SOL    HW232781   0.089   3.709   2.239  1.3539  1.6936  1.3637
 7049SOL     OW32782   3.679   1.987   9.859  0.3537  0.2651  0.2176
 7049SOL    HW132783   3.655   2.029   9.777 -0.7612  0.9313  0.8895
 7049SOL    HW232784   3.755   2.046   9.861  1.6521 -1.3419 -1.5007
 7050SOL     OW32785   4.677   3.292   6.849 -0.0487 -0.4013  0.5582
 7050SOL    HW132786   4.676   3.382   6.881 -1.3136 -1.0527  2.3517
 7050SOL    HW232787   4.689   3.244   6.931 -2.0567 -3.2156 -0.7589
 7051SOL     OW32788   4.702   3.062  12.453  0.3416  0.6194  0.2038
 7051SOL    HW132789   0.034   3.119  12.484  1.0572 -0.4357  0.5303
 7051SOL    HW232790   0.008   3.010  12.385 -0.9885 -0.6765  0.3404
 7052SOL     OW32791   1.669   1.542   6.084  0.5226 -0.0743 -0.1032
 7052SOL    HW132792   1.593   1.503   6.041 -0.0274  1.2011 -0.2904
 7052SOL    HW232793   1.619   1.577   6.157 -0.3716  0.3057 -0.8896
 7053SOL     OW32794   2.914   4.467   3.335  0.2869 -0.1423 -0.8294
 7053SOL    HW132795   2.939   4.376   3.348  0.0647 -0.1182 -0.2625
 7053SOL    HW232796   2.973   4.514   3.394 -0.9088 -0.4872  0.6517
 7054SOL     OW32797   0.468   3.237   2.648 -0.4533  0.2308  0.2270
 7054SOL    HW132798   0.467   3.220   2.554 -0.5523  0.7500  0.1328
 7054SOL    HW232799   0.513   3.321   2.647  1.8235 -0.9706  1.3155
 7055SOL     OW32800   3.023   3.060  16.868  0.0359 -0.4272  0.6734
 7055SOL    HW132801   2.949   3.101  16.912 -0.3798 -0.3958 -0.0425
 7055SOL    HW232802   2.990   3.078  16.780 -0.6184 -1.7585  0.6533
 7056SOL     OW32803   1.454   3.478   7.612  0.0722 -0.3702 -0.0662
 7056SOL    HW132804   1.471   3.485   7.706  2.2377 -2.9186 -0.2778
 7056SOL    HW232805   1.429   3.387   7.594  0.3309 -0.2160 -1.2040
 7057SOL     OW32806   3.921   0.194   8.899  0.6724 -0.4066  0.5086
 7057SOL    HW132807   3.891   0.153   8.981  1.2467  1.8437  1.8475
 7057SOL    HW232808   4.013   0.168   8.901  0.6866 -0.4845 -1.5348
 7058SOL     OW32809   0.282   3.840   9.735 -0.1600 -0.0288  0.2880
 7058SOL    HW132810   0.235   3.903   9.788  0.7999  1.3901 -0.5491
 7058SOL    HW232811   0.352   3.811   9.793  1.5169 -1.3017 -2.3283
 7059SOL     OW32812   3.747   2.713   2.938 -0.3933  0.0946 -0.2623
 7059SOL    HW132813   3.707   2.639   2.984 -0.0681 -0.6264 -1.1371
 7059SOL    HW232814   3.702   2.705   2.854  1.6731  1.0309 -1.4553
 7060SOL     OW32815   0.844   4.106   6.787 -0.0703 -0.6096 -0.0994
 7060SOL    HW132816   0.903   4.154   6.728 -0.2089  1.9750  1.8816
 7060SOL    HW232817   0.881   4.018   6.785 -0.0769 -0.6165  0.1735
 7061SOL     OW32818   0.017   3.568   3.430  0.7960  0.1672  0.4849
 7061SOL    HW132819   4.661   3.579   3.412  1.1396  1.5394 -0.5584
 7061SOL    HW232820   0.012   3.555   3.524  1.2246  0.6408  0.5747
 7062SOL     OW32821   0.955   0.578  10.930 -0.1086  0.1432  0.0873
 7062SOL    HW132822   0.988   0.594  10.842  0.5306 -0.6296  0.1829
 7062SOL    HW232823   0.975   0.662  10.972 -0.1862  2.1587 -3.9702
 7063SOL     OW32824   4.286   0.582  15.878  0.2879 -0.0315  0.0575
 7063SOL    HW132825   4.212   0.624  15.923 -0.1502  0.2667 -0.9518
 7063SOL    HW232826   4.347   0.573  15.952  0.7121  1.1289 -0.1591
 7064SOL     OW32827   1.684   1.368  15.553 -0.7191 -0.2877 -0.0392
 7064SOL    HW132828   1.594   1.363  15.585 -1.5531  1.8316 -2.0171
 7064SOL    HW232829   1.714   1.457  15.567  2.8335 -1.1390 -2.1407
 7065SOL     OW32830   3.230   0.946   5.144 -0.2783  0.0522 -0.9746
 7065SOL    HW132831   3.215   0.934   5.051 -0.5185 -1.2927 -0.7552
 7065SOL    HW232832   3.159   0.897   5.184 -1.6494  2.1936 -0.8034
 7066SOL     OW32833   4.110   0.447   8.357 -0.0189 -0.3092 -0.6821
 7066SOL    HW132834   4.020   0.455   8.326 -0.5092  1.0022  1.0988
 7066SOL    HW232835   4.115   0.518   8.421 -1.2088 -1.8206  1.0838
 7067SOL     OW32836   0.871   3.226   8.219  0.5754 -0.3013 -0.5797
 7067SOL    HW132837   0.809   3.232   8.292  0.8412  0.3402 -0.4040
 7067SOL    HW232838   0.823   3.289   8.165 -1.1571 -0.7376  0.4490
 7068SOL     OW32839   2.578   0.521  11.994  1.2217 -0.0054 -0.0367
 7068SOL    HW132840   2.670   0.494  11.998  1.0082 -0.8371 -0.7467
 7068SOL    HW232841   2.530   0.444  11.965  1.8607 -0.8053  1.0347
 7069SOL     OW32842   0.363   0.949   1.950  0.1339  0.3579 -0.2521
 7069SOL    HW132843   0.426   0.879   1.967  0.1429 -0.5008 -3.9969
 7069SOL    HW232844   0.326   0.966   2.037 -0.4375  2.3895 -0.8939
 7070SOL     OW32845   1.886   4.036   8.635 -0.2550 -0.7406  0.1018
 7070SOL    HW132846   1.948   4.088   8.686  1.0066 -2.1548  0.0175
 7070SOL    HW232847   1.842   3.996   8.710  0.4710 -0.8420  0.4742
 7071SOL     OW32848   4.638   4.707  12.798 -0.1636 -0.4616 -0.0201
 7071SOL    HW132849   4.558   4.716  12.747  0.6631  1.2536 -1.0324
 7071SOL    HW232850   4.700   4.698  12.726  1.1897  1.5921  0.8817
 7072SOL     OW32851   3.156   2.204   8.069 -0.6997 -0.1035 -0.0259
 7072SOL    HW132852   3.175   2.209   7.975  1.1770  0.2799  0.3719
 7072SOL    HW232853   3.093   2.276   8.077 -0.2891  0.4572 -1.8701
 7073SOL     OW32854   2.080   0.656   3.767 -0.5797 -0.5618 -0.5475
 7073SOL    HW132855   2.148   0.676   3.703 -0.8551  3.7085  0.4945
 7073SOL    HW232856   2.065   0.562   3.756 -2.0309 -0.6603  2.0837
 7074SOL     OW32857   2.678   1.213   3.068  0.7952  0.1854  0.1203
 7074SOL    HW132858   2.714   1.124   3.060  1.0786  0.3276 -0.1750
 7074SOL    HW232859   2.753   1.256   3.108  0.7615 -0.0847  0.4742
 7075SOL     OW32860   1.202   3.727   9.790 -0.0136  0.6647  0.1167
 7075SOL    HW132861   1.214   3.774   9.707 -0.9676  0.8281  0.0712
 7075SOL    HW232862   1.128   3.677   9.756 -1.4049  1.6912  1.6686
 7076SOL     OW32863   2.071   1.368   6.108 -0.1387  0.1966 -0.3971
 7076SOL    HW132864   2.060   1.276   6.132  1.3891  0.6318  1.9605
 7076SOL    HW232865   2.013   1.417   6.167  1.6055  0.7317  0.8707
 7077SOL     OW32866   1.667   3.186   5.653 -0.4810 -0.0585 -0.3771
 7077SOL    HW132867   1.708   3.101   5.668 -1.4072 -0.3540  0.5465
 7077SOL    HW232868   1.592   3.160   5.707 -1.2787  0.8110 -1.0735
 7078SOL     OW32869   4.428   1.976   4.490  0.5485 -0.6252  0.1945
 7078SOL    HW132870   4.506   1.943   4.535  0.9757  0.0336 -0.0539
 7078SOL    HW232871   4.454   2.053   4.439  2.6949 -2.0178 -0.8000
 7079SOL     OW32872   1.823   3.553   2.938 -0.2438  0.1481 -0.6988
 7079SOL    HW132873   1.773   3.531   3.016  0.5796 -2.4256 -0.8909
 7079SOL    HW232874   1.754   3.609   2.902 -1.3748 -0.8936 -0.1197
 7080SOL     OW32875   1.320   3.876   7.667 -0.1529  0.2786 -0.2446
 7080SOL    HW132876   1.229   3.875   7.697  0.1026 -0.1287  0.5111
 7080SOL    HW232877   1.363   3.940   7.724  0.8194 -2.3351  1.9445
 7081SOL     OW32878   0.644   3.359  12.197  0.0094 -0.3692 -0.7810
 7081SOL    HW132879   0.705   3.397  12.133  0.1772  0.6786  0.0049
 7081SOL    HW232880   0.611   3.277  12.159 -0.4432 -1.0020  0.9837
 7082SOL     OW32881   0.415   2.211   7.087  0.5589 -0.4348 -0.1973
 7082SOL    HW132882   0.354   2.194   7.158  0.5437 -2.5231 -0.6954
 7082SOL    HW232883   0.444   2.120   7.083  0.1997 -0.5304 -0.6540
 7083SOL     OW32884   2.043   3.914   4.004  0.5820 -0.2316  0.3200
 7083SOL    HW132885   2.018   3.947   4.091  2.2504  3.2001 -0.5302
 7083SOL    HW232886   1.977   3.849   3.979 -0.5590  0.5779  1.2323
 7084SOL     OW32887   2.290   2.772   8.214 -0.8243  0.0300  0.2032
 7084SOL    HW132888   2.287   2.845   8.153 -0.3481 -0.3590 -0.2848
 7084SOL    HW232889   2.376   2.774   8.255 -0.6024 -0.5856 -0.2380
 7085SOL     OW32890   2.318   2.977   5.590  0.2643  0.0543 -0.4119
 7085SOL    HW132891   2.340   3.022   5.509 -1.8004 -1.7016 -1.9347
 7085SOL    HW232892   2.233   3.020   5.597  0.8077  1.3900 -2.3064
 7086SOL     OW32893   0.028   1.599  10.240  0.4141  0.3911 -0.2729
 7086SOL    HW132894   4.699   1.627  10.303 -0.5337 -2.5210 -0.0173
 7086SOL    HW232895   0.057   1.684  10.206  2.4728  0.1193  0.8327
 7087SOL     OW32896   3.469   0.698   8.357 -0.1865  0.4216 -0.4632
 7087SOL    HW132897   3.562   0.711   8.372  0.0029 -0.8502 -0.4977
 7087SOL    HW232898   3.454   0.752   8.279  2.2549  1.2993 -0.3182
 7088SOL     OW32899   1.363   3.846   8.019  0.1291 -1.0276 -0.6276
 7088SOL    HW132900   1.459   3.844   8.029  0.2441  4.3567 -0.4588
 7088SOL    HW232901   1.332   3.757   8.033  0.3989 -1.3083 -1.7471
 7089SOL     OW32902   3.941   2.144  13.342 -0.1464  0.2325  0.3852
 7089SOL    HW132903   3.967   2.127  13.432  0.2751 -1.3352 -0.0383
 7089SOL    HW232904   3.847   2.128  13.351 -0.1000  0.0721  0.5831
 7090SOL     OW32905   3.887   3.201   0.918 -0.5043 -0.2008  0.2350
 7090SOL    HW132906   3.912   3.190   0.826 -0.4936  0.8435  0.1026
 7090SOL    HW232907   3.951   3.145   0.960  1.0835 -0.8690 -3.1290
 7091SOL     OW32908   4.155   0.915  11.891 -0.4201  0.2687  0.1239
 7091SOL    HW132909   4.088   0.963  11.939  0.4153  0.1518  1.3852
 7091SOL    HW232910   4.107   0.892  11.811 -2.4770  2.4185  0.7536
 7092SOL     OW32911   3.229   0.053   6.387  0.3181  0.7739  0.5296
 7092SOL    HW132912   3.238   4.706   6.344 -4.0817  1.4297 -1.6305
 7092SOL    HW232913   3.134   0.054   6.385  0.3245 -1.4544 -0.7940
 7093SOL     OW32914   1.771   4.585   4.581  0.4009 -0.0967 -0.6193
 7093SOL    HW132915   1.775   4.536   4.664 -2.9512 -0.6827 -0.8158
 7093SOL    HW232916   1.785   4.674   4.612 -1.0030 -0.2829  0.5318
 7094SOL     OW32917   0.225   1.313   9.811 -0.6636 -0.3326 -0.3391
 7094SOL    HW132918   0.205   1.226   9.848  3.6346 -0.8200  0.8874
 7094SOL    HW232919   0.200   1.371   9.883  0.1113  1.1103 -1.2313
 7095SOL     OW32920   1.735   2.767  11.643  0.2775 -0.3202 -0.7345
 7095SOL    HW132921   1.793   2.769  11.720 -0.7662  1.7027 -0.0061
 7095SOL    HW232922   1.803   2.732  11.585  0.6976 -2.3526  0.9688
 7096SOL     OW32923   4.504   3.658   6.386 -0.5536  0.1860  0.3875
 7096SOL    HW132924   4.434   3.704   6.432  0.2050  2.9447 -1.2108
 7096SOL    HW232925   4.482   3.566   6.394  0.5825 -0.3950 -3.4073
 7097SOL     OW32926   3.279   1.149   9.897 -0.0364  0.0379  0.0969
 7097SOL    HW132927   3.238   1.157   9.812  1.4237  1.5378 -0.4648
 7097SOL    HW232928   3.235   1.226   9.932  0.5874 -0.2235  1.4831
 7098SOL     OW32929   2.173   2.690   4.480  0.4525 -0.4391 -0.1170
 7098SOL    HW132930   2.083   2.722   4.476  0.3767 -0.6141  0.2623
 7098SOL    HW232931   2.204   2.725   4.396  0.1024  1.4367  0.5361
 7099SOL     OW32932   2.283   2.096   1.096  0.6528  0.4806 -0.1585
 7099SOL    HW132933   2.251   2.012   1.131 -1.2300 -0.4712 -4.1439
 7099SOL    HW232934   2.349   2.072   1.031 -0.2883 -2.1791 -0.1633
 7100SOL     OW32935   2.614   3.310  15.780 -0.2352 -0.3434 -0.6039
 7100SOL    HW132936   2.635   3.219  15.762 -1.1868 -0.6288 -0.2856
 7100SOL    HW232937   2.529   3.318  15.736 -1.1407 -0.8474  1.0732
 7101SOL     OW32938   1.119   4.669   3.594  0.7780 -0.0636 -0.0547
 7101SOL    HW132939   1.181   4.596   3.589 -0.4399 -1.0428 -0.8967
 7101SOL    HW232940   1.168   4.728   3.651  1.7513 -0.2714 -0.6862
 7102SOL     OW32941   4.162   1.380   4.462  0.3180  0.6483 -0.4738
 7102SOL    HW132942   4.148   1.425   4.546 -2.8592 -0.3000 -0.4916
 7102SOL    HW232943   4.204   1.298   4.490 -1.0509 -0.6024 -2.0438
 7103SOL     OW32944   4.583   1.452  16.403  0.0769  0.8760 -1.0176
 7103SOL    HW132945   4.603   1.530  16.454  0.6875 -0.1807  0.3755
 7103SOL    HW232946   4.639   1.462  16.326  0.5546  1.6826 -0.5622
 7104SOL     OW32947   4.178   1.174  12.105  0.3241 -0.0724 -0.3685
 7104SOL    HW132948   4.270   1.198  12.113  0.0520  0.2340  1.6542
 7104SOL    HW232949   4.127   1.197  12.183  2.0983 -1.4225  1.1799
 7105SOL     OW32950   3.528   2.027  12.935 -0.8824 -0.0138 -0.6152
 7105SOL    HW132951   3.503   2.090  12.868 -0.9345 -1.0182 -1.5343
 7105SOL    HW232952   3.574   2.079  13.001 -1.4706  0.0589 -0.2557
 7106SOL     OW32953   2.035   3.322   6.865  0.3353  0.2185  0.2328
 7106SOL    HW132954   2.045   3.233   6.900  1.2728 -0.2952 -1.3368
 7106SOL    HW232955   2.015   3.369   6.945 -0.5108 -0.8023  0.6329
 7107SOL     OW32956   1.470   1.337   1.743  0.2906 -0.1101  0.3413
 7107SOL    HW132957   1.481   1.417   1.691 -0.0910  0.5772  1.3208
 7107SOL    HW232958   1.472   1.378   1.829  0.9393  0.0047  0.2696
 7108SOL     OW32959   4.042   2.747   6.961 -0.2703  0.1134 -0.6189
 7108SOL    HW132960   4.001   2.680   7.016  1.0829  0.0276  0.2935
 7108SOL    HW232961   4.004   2.720   6.877 -0.9915  0.6699 -0.4733
 7109SOL     OW32962   3.281   2.488   7.881  1.0961  0.1146 -0.1178
 7109SOL    HW132963   3.299   2.580   7.860 -0.4512  0.3863 -0.2354
 7109SOL    HW232964   3.326   2.479   7.965  0.9053 -0.7741 -0.1121
 7110SOL     OW32965   0.352   0.637   2.248  0.2824 -0.4157  0.2786
 7110SOL    HW132966   0.434   0.684   2.265  0.1587 -0.4649  1.0135
 7110SOL    HW232967   0.381   0.546   2.261 -0.9779 -1.0590 -1.3137
 7111SOL     OW32968   3.917   1.318   1.962 -0.0061  0.6877 -0.4565
 7111SOL    HW132969   3.876   1.397   1.998 -0.4541  1.5531 -2.8119
 7111SOL    HW232970   3.863   1.248   1.997 -0.7305  1.6018  0.2456
 7112SOL     OW32971   4.557   1.432   5.845 -0.1903  0.6725 -0.0101
 7112SOL    HW132972   4.634   1.425   5.901  1.1168  0.5603 -1.8171
 7112SOL    HW232973   4.587   1.452   5.756  0.9242  1.0389  0.4555
 7113SOL     OW32974   4.165   2.607  13.929 -0.4564 -0.5884  0.4389
 7113SOL    HW132975   4.239   2.583  13.873 -0.2605  0.7657  0.1236
 7113SOL    HW232976   4.146   2.520  13.962 -0.8673  0.1050  2.0149
 7114SOL     OW32977   4.480   4.659   8.836  0.1296 -0.0777 -0.1338
 7114SOL    HW132978   4.491   0.004   8.789  1.4536  1.0368  2.1595
 7114SOL    HW232979   4.431   4.608   8.771  2.0029 -1.1486 -0.7168
 7115SOL     OW32980   2.425   0.224   6.870 -0.6708  0.2960 -0.2432
 7115SOL    HW132981   2.410   0.288   6.940  1.5600 -1.7607  2.1242
 7115SOL    HW232982   2.348   0.243   6.818 -0.7920  0.1239 -0.1279
 7116SOL     OW32983   0.194   0.711   3.045  0.4800 -0.0180  0.0877
 7116SOL    HW132984   0.215   0.804   3.046  1.4236 -0.2302  0.2031
 7116SOL    HW232985   0.099   0.710   3.035  0.4725  1.5577 -0.0562
 7117SOL     OW32986   0.054   3.899   3.606  0.3298  0.5984 -0.1033
 7117SOL    HW132987   0.035   3.822   3.551  0.0009  0.6026  0.0044
 7117SOL    HW232988   0.034   3.970   3.545 -0.9365  0.1062 -0.2790
 7118SOL     OW32989   1.093   2.909  13.274  0.2491  0.1488  0.6428
 7118SOL    HW132990   1.172   2.915  13.327  1.6298  1.9094 -1.6019
 7118SOL    HW232991   1.094   2.814  13.270  0.6722  0.1867 -0.2043
 7119SOL     OW32992   4.505   0.040  14.284 -0.5075  0.0664  0.0045
 7119SOL    HW132993   4.598   0.029  14.264 -0.3767 -0.4263  0.8799
 7119SOL    HW232994   4.472   0.034  14.195  0.6287 -1.5196 -0.3039
 7120SOL     OW32995   0.067   1.866   7.561 -0.0921 -0.3020  0.0247
 7120SOL    HW132996   0.135   1.812   7.600  0.5415  0.7862  0.4129
 7120SOL    HW232997   0.056   1.940   7.620 -0.4150  0.5632 -1.1070
 7121SOL     OW32998   4.487   0.160   8.673 -0.0798 -0.2642 -0.3686
 7121SOL    HW132999   4.436   0.224   8.624 -1.7906 -1.4234 -0.1125
 7121SOL    HW233000   4.511   0.203   8.755 -4.8981 -2.2571  2.0890
 7122SOL     OW33001   3.218   3.660   8.160  0.0364 -0.4846  0.4382
 7122SOL    HW133002   3.140   3.669   8.105  1.6370 -3.1810 -2.2071
 7122SOL    HW233003   3.289   3.666   8.096 -1.5608 -0.0858 -1.3063
 7123SOL     OW33004   2.874   3.657  16.821  0.1652  0.4220 -0.1032
 7123SOL    HW133005   2.842   3.568  16.807  2.8221 -0.7519  1.3898
 7123SOL    HW233006   2.949   3.673  16.764  0.6181  0.2492  0.4472
 7124SOL     OW33007   3.403   1.878   4.658 -0.4718  0.1482 -0.0409
 7124SOL    HW133008   3.381   1.895   4.749 -0.3275  0.5226 -0.0720
 7124SOL    HW233009   3.367   1.956   4.615 -2.2853 -0.1101  1.0204
 7125SOL     OW33010   0.683   0.626   6.699  0.2824  0.2989 -0.1311
 7125SOL    HW133011   0.726   0.679   6.766  2.6768 -0.8146 -0.8259
 7125SOL    HW233012   0.730   0.640   6.617  0.2532  1.5955  0.0654
 7126SOL     OW33013   2.443   4.150  15.646 -0.1615 -0.2418  0.2110
 7126SOL    HW133014   2.351   4.137  15.623 -0.2089  0.6113 -0.0726
 7126SOL    HW233015   2.435   4.200  15.727  2.7006  0.6026 -0.0131
 7127SOL     OW33016   0.368   4.021   5.572 -0.3788  0.4865 -0.7724
 7127SOL    HW133017   0.279   3.991   5.557 -0.4028 -0.6874  1.6752
 7127SOL    HW233018   0.415   3.941   5.593 -0.0950  1.0409  0.7722
 7128SOL     OW33019   2.042   1.247   1.998 -0.0985 -0.2879  0.1600
 7128SOL    HW133020   2.131   1.249   1.964 -0.7227 -0.7302 -1.4947
 7128SOL    HW233021   2.010   1.168   1.955 -0.7204  0.9859 -1.7184
 7129SOL     OW33022   1.919   0.606  14.406 -0.4105 -0.1463  0.0836
 7129SOL    HW133023   1.982   0.533  14.401 -0.6757 -0.3292 -0.5486
 7129SOL    HW233024   1.959   0.672  14.349  0.1589 -0.3352  0.2550
 7130SOL     OW33025   0.210   1.723  16.580 -0.0234  0.0117 -0.5386
 7130SOL    HW133026   0.291   1.711  16.629 -0.9461  2.4716  1.5389
 7130SOL    HW233027   0.168   1.786  16.638  1.5094  2.8654 -2.5205
 7131SOL     OW33028   4.164   0.100   5.036  0.1596  0.3665  0.3737
 7131SOL    HW133029   4.135   0.016   5.071 -1.1469  0.6672 -0.0110
 7131SOL    HW233030   4.259   0.094   5.022 -0.4438  1.0019 -4.1259
 7132SOL     OW33031   4.561   2.202   3.682  0.3122  0.1650  0.1391
 7132SOL    HW133032   4.616   2.200   3.604 -0.1933  2.1753 -0.2487
 7132SOL    HW233033   4.525   2.290   3.687 -0.2543 -0.1262  1.3041
 7133SOL     OW33034   0.274   3.762   5.319 -0.3382  0.0236  0.7204
 7133SOL    HW133035   0.283   3.677   5.277  2.5618  0.6369  0.0742
 7133SOL    HW233036   0.241   3.815   5.246 -0.7380  0.7022  1.3933
 7134SOL     OW33037   3.161   4.403   4.924 -0.0552  0.5194 -0.4537
 7134SOL    HW133038   3.162   4.394   5.019 -0.7171 -0.7028 -0.5645
 7134SOL    HW233039   3.103   4.479   4.914 -1.3092 -0.2920  0.6939
 7135SOL     OW33040   1.929   3.139  15.666  0.1633 -0.0547  0.4513
 7135SOL    HW133041   1.968   3.054  15.645 -1.3098 -0.7187  0.4459
 7135SOL    HW233042   1.890   3.115  15.750  1.5895 -0.2861  1.0538
 7136SOL     OW33043   4.545   0.841  15.915  0.1838 -0.4337  0.9891
 7136SOL    HW133044   4.572   0.771  15.856  1.5491 -0.3782  1.5483
 7136SOL    HW233045   4.497   0.787  15.978  1.0020 -2.4245 -0.0755
 7137SOL     OW33046   4.270   1.699   1.418 -0.5273 -0.3560  0.5861
 7137SOL    HW133047   4.292   1.642   1.492 -0.3749 -0.0226  0.7992
 7137SOL    HW233048   4.197   1.753   1.449  0.4252  2.7941 -2.6970
 7138SOL     OW33049   4.614   3.920   5.996 -0.3359  0.0777 -0.2179
 7138SOL    HW133050   4.541   3.979   6.018  0.3376  0.7297  0.2426
 7138SOL    HW233051   4.573   3.850   5.946  1.3180 -2.0017  1.3548
 7139SOL     OW33052   3.006   1.387   2.951 -0.3207 -0.8075 -0.3851
 7139SOL    HW133053   3.073   1.355   2.890  1.4666  0.6783  0.8261
 7139SOL    HW233054   2.978   1.312   3.002  0.3262 -1.0159 -0.3312
 7140SOL     OW33055   1.170   0.320   2.519 -0.1791 -0.0774  0.3712
 7140SOL    HW133056   1.236   0.386   2.503 -1.3874  1.3556  1.3204
 7140SOL    HW233057   1.122   0.333   2.437 -1.1686 -3.5258  0.3859
 7141SOL     OW33058   4.335   1.599   6.624  0.5663  0.0792  0.3282
 7141SOL    HW133059   4.246   1.613   6.592 -0.0018 -0.6289  1.5975
 7141SOL    HW233060   4.358   1.526   6.568  0.9589  0.5746 -0.1513
 7142SOL     OW33061   3.266   2.973  16.896 -0.0437  0.7166  0.2470
 7142SOL    HW133062   3.182   3.008  16.867 -1.7846 -2.2441  1.8511
 7142SOL    HW233063   3.233   2.932  16.975  0.4778 -0.8857 -0.3611
 7143SOL     OW33064   2.212   3.551  16.248  0.5318  0.1087 -0.6507
 7143SOL    HW133065   2.198   3.462  16.280 -2.0665 -0.4538 -3.3373
 7143SOL    HW233066   2.139   3.595  16.293  2.2571 -0.1980  2.4297
 7144SOL     OW33067   2.736   4.649   8.376  0.2254 -0.1081 -0.2173
 7144SOL    HW133068   2.725   4.694   8.293  1.4380 -0.6831 -0.6772
 7144SOL    HW233069   2.810   4.703   8.405  0.4242 -1.1491  1.2009
 7145SOL     OW33070   3.080   1.922   2.897 -0.0595 -0.5833  0.4217
 7145SOL    HW133071   3.045   1.851   2.844 -0.9540 -1.5848  2.3406
 7145SOL    HW233072   3.164   1.943   2.858  0.1607  0.0240  1.2204
 7146SOL     OW33073   4.046   2.374  12.843  0.1272  0.4086 -0.1784
 7146SOL    HW133074   4.019   2.466  12.844  2.2928  1.0365  0.1767
 7146SOL    HW233075   3.983   2.331  12.901  1.3689 -1.0806  0.0725
 7147SOL     OW33076   0.164   1.037   0.227 -0.1255 -0.4050 -0.0139
 7147SOL    HW133077   0.221   1.114   0.228 -1.1894  0.3719  1.2962
 7147SOL    HW233078   0.167   1.005   0.317 -2.5768  0.3909  0.3605
 7148SOL     OW33079   2.352   1.839   2.585  0.0548 -0.0402 -0.5980
 7148SOL    HW133080   2.385   1.761   2.540 -0.2915 -0.1359 -0.6815
 7148SOL    HW233081   2.403   1.833   2.666  0.9595  3.4155 -0.8978
 7149SOL     OW33082   3.159   0.220   0.993 -0.3220 -0.1590 -0.1876
 7149SOL    HW133083   3.071   0.247   0.968  0.0932  2.5277  1.2728
 7149SOL    HW233084   3.158   0.201   1.087  0.6701  2.6426  0.3889
 7150SOL     OW33085   0.206   2.867   1.477 -0.4580 -0.2164  0.4456
 7150SOL    HW133086   0.209   2.956   1.512  1.1666  1.1482 -3.1810
 7150SOL    HW233087   0.128   2.873   1.421  0.5637 -1.3519 -1.0613
 7151SOL     OW33088   2.790   3.919  16.791  0.4477 -0.1321  0.0732
 7151SOL    HW133089   2.769   3.922  16.885 -0.3364 -1.4642 -0.0587
 7151SOL    HW233090   2.836   3.835  16.785 -1.0916 -0.8935 -1.0578
 7152SOL     OW33091   3.319   4.527   8.803  0.0780 -0.0358 -0.0941
 7152SOL    HW133092   3.228   4.549   8.784  0.7390  1.8611 -0.9499
 7152SOL    HW233093   3.354   4.480   8.728  0.7364  0.0816  0.1405
 7153SOL     OW33094   3.715   0.953   2.898 -0.2710  0.1767  0.4450
 7153SOL    HW133095   3.704   0.901   2.818 -2.3743  1.9952 -0.4395
 7153SOL    HW233096   3.694   0.891   2.967 -0.1908  0.1298  0.4279
 7154SOL     OW33097   1.938   0.161   6.648 -0.4083 -0.2711 -0.9517
 7154SOL    HW133098   1.934   0.088   6.710 -1.9506  0.6912  0.0785
 7154SOL    HW233099   1.864   0.137   6.593  1.6014  0.4283 -3.9174
 7155SOL     OW33100   3.218   2.082  15.732 -0.3465  0.5186 -0.1630
 7155SOL    HW133101   3.233   2.146  15.663 -1.2584 -0.4806 -1.2938
 7155SOL    HW233102   3.268   2.115  15.807  2.7502 -2.8427 -0.7466
 7156SOL     OW33103   0.330   1.817   3.600 -0.0486  0.2997  0.2657
 7156SOL    HW133104   0.271   1.892   3.608 -0.0962  0.3615 -0.5968
 7156SOL    HW233105   0.294   1.775   3.522  1.3889  0.6739 -0.6078
 7157SOL     OW33106   3.777   1.985   5.120 -0.0467 -0.0608  0.6167
 7157SOL    HW133107   3.770   2.079   5.136 -0.9309 -0.0125 -0.0327
 7157SOL    HW233108   3.688   1.979   5.085 -0.6531 -0.5530  2.2288
 7158SOL     OW33109   2.152   1.084   2.642  0.2464  0.1605 -0.0154
 7158SOL    HW133110   2.195   1.152   2.694 -0.9370 -1.6327  3.2448
 7158SOL    HW233111   2.061   1.116   2.640  0.1603 -0.0435  0.8435
 7159SOL     OW33112   4.360   2.966   5.029  0.1054 -0.1858  0.5757
 7159SOL    HW133113   4.403   3.037   5.077  1.9847 -1.0739  0.1910
 7159SOL    HW233114   4.361   2.905   5.102 -2.5442  1.3959  1.9432
 7160SOL     OW33115   3.296   1.843   9.640  0.4279 -0.0778  0.0041
 7160SOL    HW133116   3.373   1.808   9.684 -0.5962 -1.5084  0.6933
 7160SOL    HW233117   3.336   1.885   9.564  0.3343 -2.6168 -1.4752
 7161SOL     OW33118   1.775   1.389  10.324 -0.7999 -0.6823  0.1226
 7161SOL    HW133119   1.745   1.396  10.234 -0.7623 -0.1747  0.1528
 7161SOL    HW233120   1.787   1.480  10.352 -0.1919  0.2800 -3.3215
 7162SOL     OW33121   2.239   4.317   1.320  0.1409  0.9864  0.0777
 7162SOL    HW133122   2.261   4.305   1.228 -1.0744  0.2121 -0.1146
 7162SOL    HW233123   2.214   4.229   1.350  4.1192  0.2376  1.1224
 7163SOL     OW33124   4.704   3.047   3.017  0.1845  0.2397 -0.2297
 7163SOL    HW133125   0.005   3.130   2.988  1.7898 -1.0312 -1.6847
 7163SOL    HW233126   0.023   2.973   2.997  0.6581  0.2849  0.9412
 7164SOL     OW33127   2.115   2.267   3.756  0.1899  0.1581  0.3427
 7164SOL    HW133128   2.124   2.175   3.730  1.3253 -0.4173  2.7333
 7164SOL    HW233129   2.152   2.265   3.844  1.2625 -0.9946 -0.1245
 7165SOL     OW33130   0.137   3.260   6.640 -0.2720  0.2136  0.0334
 7165SOL    HW133131   0.205   3.223   6.696 -0.9959 -1.2389 -0.0423
 7165SOL    HW233132   0.066   3.289   6.697 -1.5561 -0.8773 -1.0116
 7166SOL     OW33133   1.793   3.034   2.493 -0.0463 -0.1330  0.0851
 7166SOL    HW133134   1.842   3.109   2.460  0.3295 -0.1176  0.6750
 7166SOL    HW233135   1.703   3.054   2.465 -1.1095 -0.8558  2.9868
 7167SOL     OW33136   0.188   4.566   5.852  0.0850 -0.5376  0.0474
 7167SOL    HW133137   0.104   4.535   5.886 -0.0100 -0.1771  0.1386
 7167SOL    HW233138   0.216   4.505   5.784 -0.9388  1.8142 -2.5152
 7168SOL     OW33139   2.156   3.475   9.191  0.2560  0.2446  0.7755
 7168SOL    HW133140   2.088   3.539   9.214 -0.8455 -0.2358 -1.0890
 7168SOL    HW233141   2.110   3.402   9.150  0.6232  0.2255  0.4009
 7169SOL     OW33142   0.538   4.241   8.779 -0.0578  0.0277  0.1709
 7169SOL    HW133143   0.444   4.239   8.796  0.2039 -0.1951  1.6255
 7169SOL    HW233144   0.545   4.304   8.707  0.5368 -1.2158 -0.8546
 7170SOL     OW33145   1.215   3.096   1.561  0.2357  0.0689 -0.2852
 7170SOL    HW133146   1.186   3.187   1.566  2.0607  0.4812  3.3804
 7170SOL    HW233147   1.178   3.063   1.480  0.6614  0.9553 -0.8377
 7171SOL     OW33148   2.396   4.623  15.835  0.0250  0.5932  0.2370
 7171SOL    HW133149   2.450   4.598  15.910 -1.6938 -1.2541  0.8599
 7171SOL    HW233150   2.464   4.648  15.772  2.8514 -0.3819  2.9472
 7172SOL     OW33151   3.641   1.771  12.128 -0.0873  0.0621  0.1744
 7172SOL    HW133152   3.602   1.844  12.080  0.6585  0.4146  0.0983
 7172SOL    HW233153   3.697   1.821  12.187 -1.2734  3.2820 -1.4294
 7173SOL     OW33154   1.241   2.402   6.249  0.1074  0.5794  0.9922
 7173SOL    HW133155   1.199   2.339   6.307  1.0361 -0.1904  0.8389
 7173SOL    HW233156   1.228   2.484   6.297  0.0510  1.0199  0.2201
 7174SOL     OW33157   3.389   2.578   6.648  0.7950 -0.1475  0.4243
 7174SOL    HW133158   3.306   2.609   6.611  2.5785  1.3241 -2.3828
 7174SOL    HW233159   3.417   2.667   6.670 -1.5675  0.4752  0.9605
 7175SOL     OW33160   2.148   2.206  14.652  0.2283  0.5479 -0.3170
 7175SOL    HW133161   2.121   2.292  14.620  0.4133  0.9226  0.5152
 7175SOL    HW233162   2.211   2.226  14.721  0.0183  2.7326 -0.7494
 7176SOL     OW33163   1.262   0.821   5.410  0.3234 -0.2595 -0.6812
 7176SOL    HW133164   1.180   0.822   5.361 -0.8159  0.7119  1.2774
 7176SOL    HW233165   1.240   0.752   5.472 -0.2268  0.3784 -0.1757
 7177SOL     OW33166   2.302   3.937  11.815 -0.2385 -0.1188 -0.0608
 7177SOL    HW133167   2.340   4.021  11.840 -0.1354 -0.3361  0.5154
 7177SOL    HW233168   2.210   3.954  11.833 -0.1476  0.1550  0.1492
 7178SOL     OW33169   2.154   1.812   4.969 -0.4984 -0.0596  0.0500
 7178SOL    HW133170   2.099   1.874   4.921  0.1136 -1.2606 -2.2164
 7178SOL    HW233171   2.084   1.754   5.000 -0.0538 -1.2743 -1.2260
 7179SOL     OW33172   3.566   3.372   5.845 -0.3334  0.0529  0.5480
 7179SOL    HW133173   3.641   3.347   5.897  1.0468  2.8288 -0.1002
 7179SOL    HW233174   3.610   3.439   5.793 -2.2515  1.6372  0.9638
 7180SOL     OW33175   3.503   0.287  11.445 -0.7019 -0.4716  0.3503
 7180SOL    HW133176   3.592   0.297  11.480  0.2207 -1.0969 -1.8258
 7180SOL    HW233177   3.509   0.218  11.380  0.2218 -0.5355  0.5030
 7181SOL     OW33178   3.435   2.289   6.571  0.0459 -0.1541  0.0208
 7181SOL    HW133179   3.353   2.303   6.617 -0.0770 -2.8334  0.6372
 7181SOL    HW233180   3.463   2.381   6.572  0.3431 -0.2548  0.8137
 7182SOL     OW33181   4.023   3.182   7.063 -0.6050  0.0947 -0.1543
 7182SOL    HW133182   3.936   3.141   7.068 -1.9350  3.0971  1.0558
 7182SOL    HW233183   4.049   3.179   7.155 -1.0521 -0.6109 -0.0511
 7183SOL     OW33184   0.882   4.572   8.334  0.1964 -0.0040 -0.0196
 7183SOL    HW133185   0.843   4.484   8.339 -0.1227  0.2361  1.8053
 7183SOL    HW233186   0.801   4.621   8.319  0.0910  0.3826  1.7933
 7184SOL     OW33187   4.718   2.031  15.896 -0.1524  0.3101  0.4009
 7184SOL    HW133188   0.009   1.946  15.930 -1.6910 -0.6402 -0.6602
 7184SOL    HW233189   4.671   2.066  15.972 -0.4245  0.3288  0.2245
 7185SOL     OW33190   4.069   0.087   0.683 -0.0557 -0.1343 -0.4043
 7185SOL    HW133191   3.989   0.051   0.645 -0.3610 -0.6422  0.7183
 7185SOL    HW233192   4.088   0.169   0.637 -0.4021 -1.2047 -2.4325
 7186SOL     OW33193   1.478   0.403  11.907 -0.9340 -0.2709 -0.1554
 7186SOL    HW133194   1.540   0.444  11.968 -2.4889 -0.7272  1.7515
 7186SOL    HW233195   1.461   0.319  11.951  0.9530 -2.2307 -3.1984
 7187SOL     OW33196   3.474   2.770   0.529 -0.0943 -0.0974 -0.2884
 7187SOL    HW133197   3.543   2.837   0.532 -0.7597  0.4426  2.9310
 7187SOL    HW233198   3.398   2.825   0.512 -1.1621 -0.3266  3.8694
 7188SOL     OW33199   2.790   1.121   9.415 -0.2105  0.3583  0.4033
 7188SOL    HW133200   2.833   1.125   9.500  2.1882 -3.3092 -0.6232
 7188SOL    HW233201   2.701   1.095   9.438 -0.2728  1.3122  1.2381
 7189SOL     OW33202   0.785   4.274   7.489  0.2790  0.5058 -0.0098
 7189SOL    HW133203   0.689   4.276   7.498  0.2471  0.8456 -0.4256
 7189SOL    HW233204   0.788   4.264   7.394  0.1386  2.5384 -0.2227
 7190SOL     OW33205   4.274   2.465   7.571 -0.1002 -0.0075  0.2623
 7190SOL    HW133206   4.253   2.517   7.494  0.3274  0.4594  0.4606
 7190SOL    HW233207   4.202   2.403   7.582  0.6514 -0.9069  0.0982
 7191SOL     OW33208   0.878   0.134   0.519  0.3568  0.3169 -0.0717
 7191SOL    HW133209   0.892   0.216   0.566  0.5762  2.6506 -4.1404
 7191SOL    HW233210   0.936   0.073   0.564  0.0906 -0.5363 -0.8825
 7192SOL     OW33211   3.100   1.326  13.353  0.2085  0.2245  0.3641
 7192SOL    HW133212   3.109   1.375  13.435 -1.0417  1.7968 -0.4586
 7192SOL    HW233213   3.190   1.297  13.336  0.0282  0.8597 -1.6418
 7193SOL     OW33214   1.217   2.388   9.481 -0.3345  0.0862 -0.4935
 7193SOL    HW133215   1.306   2.419   9.495  0.0158 -1.5388  0.7215
 7193SOL    HW233216   1.222   2.296   9.458 -1.8876 -0.5265  1.5872
 7194SOL     OW33217   2.020   2.497   9.613 -0.2360 -0.3544  0.2685
 7194SOL    HW133218   1.997   2.559   9.683  1.8183 -0.8753  1.4129
 7194SOL    HW233219   2.110   2.517   9.589 -0.9798 -0.0122 -2.1672
 7195SOL     OW33220   2.681   4.110   8.330  0.5173  0.1182 -0.3073
 7195SOL    HW133221   2.649   4.173   8.394 -0.8124  0.4388 -1.2786
 7195SOL    HW233222   2.652   4.032   8.377 -1.7784  2.0305  1.4585
 7196SOL     OW33223   1.744   3.167   9.672  0.3940  0.4332 -0.1505
 7196SOL    HW133224   1.728   3.156   9.765  1.5243  0.5593  0.0574
 7196SOL    HW233225   1.676   3.227   9.642 -0.5699 -0.5175  0.1249
 7197SOL     OW33226   0.349   1.019   6.772 -0.1059 -0.0530 -0.0532
 7197SOL    HW133227   0.272   0.963   6.770 -0.4954  0.4023  2.3534
 7197SOL    HW233228   0.379   1.016   6.681  1.5524  0.0859  0.4820
 7198SOL     OW33229   0.255   2.895   7.364 -0.1683 -0.4587  0.6147
 7198SOL    HW133230   0.169   2.876   7.327 -0.8369  1.5874  1.1492
 7198SOL    HW233231   0.280   2.819   7.417  0.0106 -0.9753 -0.2000
 7199SOL     OW33232   1.068   0.693   3.077  0.2562  0.0727 -0.3462
 7199SOL    HW133233   1.004   0.665   3.141  0.6796  0.1770  0.1272
 7199SOL    HW233234   1.046   0.786   3.067  0.3489  0.1055 -0.2471
 7200SOL     OW33235   0.070   3.500   8.641 -0.7964 -0.2863 -0.0384
 7200SOL    HW133236   0.083   3.446   8.562  1.0954 -0.3667  0.3237
 7200SOL    HW233237   0.038   3.582   8.605  1.2509 -0.1751 -1.6613
 7201SOL     OW33238   2.654   0.493  12.436  0.2985  0.5803  0.7501
 7201SOL    HW133239   2.643   0.588  12.431  0.1909  0.4265 -1.7287
 7201SOL    HW233240   2.680   0.476  12.527 -2.4540 -2.8395  0.9166
 7202SOL     OW33241   4.112   0.464   5.149  0.7186 -0.0884 -0.1498
 7202SOL    HW133242   4.175   0.442   5.080  1.1340 -2.2374  0.9251
 7202SOL    HW233243   4.175   0.489   5.216  1.9214  1.2494 -1.7758
 7203SOL     OW33244   4.542   0.067  13.052  1.0643  0.0874 -0.1542
 7203SOL    HW133245   4.611   0.124  13.087 -1.0880  0.7430  2.9678
 7203SOL    HW233246   4.569   0.069  12.960  2.0216 -0.9720  0.1037
 7204SOL     OW33247   4.444   0.369   6.937  0.2880  0.4084 -0.0530
 7204SOL    HW133248   4.377   0.426   6.899  2.2455  3.4643  1.0698
 7204SOL    HW233249   4.502   0.436   6.973 -1.5987  0.8255  2.2242
 7205SOL     OW33250   0.345   4.237  10.232 -0.0904 -0.2713  0.2143
 7205SOL    HW133251   0.340   4.305  10.299 -0.6506 -0.3574  0.2641
 7205SOL    HW233252   0.322   4.157  10.280  0.9675 -0.5597  0.2380
 7206SOL     OW33253   1.636   0.879   4.751  0.1343 -0.1364  0.1122
 7206SOL    HW133254   1.560   0.892   4.695 -1.6992  1.0516  2.8785
 7206SOL    HW233255   1.655   0.956   4.805 -0.5303  0.2907 -0.2628
 7207SOL     OW33256   3.056   0.854  17.608  0.4665  0.2891 -0.1487
 7207SOL    HW133257   2.980   0.808  17.572 -1.1953  2.4559  0.5626
 7207SOL    HW233258   3.109   0.778  17.631 -1.8819 -1.0719  0.8343
 7208SOL     OW33259   0.416   4.506  14.233  0.7888 -0.7531 -0.9044
 7208SOL    HW133260   0.396   4.452  14.310 -3.6529  1.8663 -0.2541
 7208SOL    HW233261   0.426   4.443  14.161  1.4064 -1.5494 -0.1249
 7209SOL     OW33262   2.119   2.420  14.047  0.3457 -0.5153  0.2249
 7209SOL    HW133263   2.058   2.350  14.022 -0.7862  0.1086  1.2519
 7209SOL    HW233264   2.061   2.495  14.037  1.9387  0.6713 -0.0474
 7210SOL     OW33265   4.416   2.755   9.214 -0.2084  0.5489  0.1096
 7210SOL    HW133266   4.441   2.825   9.275  1.1832 -0.3978  0.6228
 7210SOL    HW233267   4.353   2.802   9.159  0.3253 -0.4311 -1.3421
 7211SOL     OW33268   2.449   3.379   7.643  0.0346  0.3073  0.2431
 7211SOL    HW133269   2.356   3.371   7.667  0.1585 -0.4433  0.4704
 7211SOL    HW233270   2.447   3.352   7.551 -0.4900  1.2525 -0.0307
 7212SOL     OW33271   0.828   3.345  16.393  0.2949 -0.1761 -0.2111
 7212SOL    HW133272   0.751   3.396  16.368  0.0457  1.1162  3.1668
 7212SOL    HW233273   0.887   3.418  16.376 -2.3073  1.9059 -0.2305
 7213SOL     OW33274   3.041   1.029  12.144 -0.2121 -0.3241  0.7212
 7213SOL    HW133275   3.026   0.981  12.063 -2.5663 -0.4368  1.2324
 7213SOL    HW233276   3.055   0.955  12.203  1.4958 -0.7596 -0.2315
 7214SOL     OW33277   1.001   2.630   2.287 -0.0069  0.1403  0.3167
 7214SOL    HW133278   0.945   2.559   2.319  0.3461 -0.8078 -1.1764
 7214SOL    HW233279   0.950   2.646   2.207 -1.1315  1.7160  1.3467
 7215SOL     OW33280   1.013   1.102   5.853  0.5721  0.2797 -0.3782
 7215SOL    HW133281   0.991   1.017   5.891 -0.4506  0.1195 -1.3287
 7215SOL    HW233282   0.926   1.142   5.857  1.0924  0.9727  3.8890
 7216SOL     OW33283   3.294   0.911   0.139  0.0407 -0.3223  0.3226
 7216SOL    HW133284   3.301   0.877   0.049  2.4566 -1.6827  1.0029
 7216SOL    HW233285   3.366   0.863   0.181  0.8794  0.0629 -0.6629
 7217SOL     OW33286   2.796   2.659   9.620  0.1562  0.4297  0.0739
 7217SOL    HW133287   2.835   2.683   9.705  1.5959 -0.6005 -0.2857
 7217SOL    HW233288   2.873   2.686   9.570  0.6462 -1.1682 -0.0325
 7218SOL     OW33289   4.545   4.340  15.691  0.1137 -0.0232 -0.0009
 7218SOL    HW133290   4.600   4.418  15.690 -1.7529  1.3386  3.5221
 7218SOL    HW233291   4.593   4.303  15.765  0.2248  0.6900  0.2834
 7219SOL     OW33292   2.457   3.819   4.032 -0.3555 -0.2577  0.4461
 7219SOL    HW133293   2.438   3.816   4.126  1.6400 -2.6359  0.7736
 7219SOL    HW233294   2.402   3.893   4.008  2.8277  1.3266 -2.1247
 7220SOL     OW33295   0.717   3.601   5.485  0.1705  0.4867 -0.4624
 7220SOL    HW133296   0.787   3.607   5.550  0.3998  0.4271 -0.7053
 7220SOL    HW233297   0.642   3.603   5.545 -1.5917 -1.3233 -2.5974
 7221SOL     OW33298   1.228   3.604   4.845  0.0113  0.1480 -0.6572
 7221SOL    HW133299   1.222   3.536   4.777 -1.7250  0.3462 -0.6941
 7221SOL    HW233300   1.157   3.573   4.901  1.0000  0.7047  0.9028
 7222SOL     OW33301   4.737   2.150  10.153  0.1520 -0.1942 -0.5055
 7222SOL    HW133302   0.060   2.086  10.191  0.9843  0.9149  0.0377
 7222SOL    HW233303   4.688   2.176  10.232  1.0919 -1.0249  0.3444
 7223SOL     OW33304   1.035   0.974   3.107  0.2376  0.4256 -0.1553
 7223SOL    HW133305   0.952   1.010   3.139  0.3440 -0.1408  0.7677
 7223SOL    HW233306   1.051   1.036   3.037  1.8443  1.3310  1.0056
 7224SOL     OW33307   3.927   4.510   4.606 -0.0606  0.7166  0.6389
 7224SOL    HW133308   4.019   4.498   4.626 -0.5977 -0.4509  2.3412
 7224SOL    HW233309   3.900   4.425   4.640  1.0755  0.9942  2.1913
 7225SOL     OW33310   2.642   3.879  11.999 -0.7629  0.0726  0.3786
 7225SOL    HW133311   2.559   3.831  12.003 -0.2138 -1.0161 -0.9325
 7225SOL    HW233312   2.689   3.831  11.931  1.0317  0.1708  1.5598
 7226SOL     OW33313   1.289   2.779   4.767  0.2051  0.5743  0.7018
 7226SOL    HW133314   1.218   2.842   4.752  0.7129  0.9439 -0.1922
 7226SOL    HW233315   1.367   2.824   4.734 -0.8635  2.1527  0.2998
 7227SOL     OW33316   0.029   1.368   4.048  0.2382 -0.3795 -0.3743
 7227SOL    HW133317   0.065   1.451   4.018 -1.3611  0.6331  0.4613
 7227SOL    HW233318   4.678   1.377   4.013  1.0852  0.7812 -2.2091
 7228SOL     OW33319   1.868   2.659   1.679 -0.0922  0.0260  0.0083
 7228SOL    HW133320   1.873   2.739   1.627  2.9479 -0.9039 -1.0919
 7228SOL    HW233321   1.861   2.703   1.764  3.8394  1.2486 -0.3142
 7229SOL     OW33322   1.420   3.127   4.395 -0.3107 -0.2431  0.0865
 7229SOL    HW133323   1.400   3.205   4.343 -1.2947  0.1421  1.0543
 7229SOL    HW233324   1.514   3.131   4.375 -0.1192 -2.6682  0.5300
 7230SOL     OW33325   1.532   2.570  16.808  0.1174 -0.0356 -0.3888
 7230SOL    HW133326   1.493   2.488  16.836 -1.0567  0.5540 -0.2854
 7230SOL    HW233327   1.451   2.605  16.771  0.4608 -0.6844 -1.7274
 7231SOL     OW33328   4.164   4.297  16.764  0.5756  0.4520 -0.1386
 7231SOL    HW133329   4.212   4.321  16.684 -0.2201 -1.9314 -1.3258
 7231SOL    HW233330   4.083   4.348  16.768 -1.1609 -2.4335  0.9655
 7232SOL     OW33331   0.452   0.730   7.413 -0.1845  0.0918 -0.0364
 7232SOL    HW133332   0.520   0.795   7.432 -0.8286  0.7179  0.1062
 7232SOL    HW233333   0.439   0.686   7.497 -1.6045 -0.2938 -0.4573
 7233SOL     OW33334   0.850   1.944   7.678 -0.4369  0.2449 -0.4785
 7233SOL    HW133335   0.883   1.943   7.768 -0.3608 -0.9146 -0.5225
 7233SOL    HW233336   0.755   1.939   7.686 -0.3657  0.8629  0.7622
 7234SOL     OW33337   1.475   1.680  16.527 -0.3966 -0.2097  0.3122
 7234SOL    HW133338   1.518   1.641  16.451  0.8417 -0.4812  1.1618
 7234SOL    HW233339   1.486   1.605  16.585  0.9570  0.8319  1.3942
 7235SOL     OW33340   4.535   0.559   9.019 -0.3155 -0.5415  0.1102
 7235SOL    HW133341   4.517   0.574   9.112 -2.3109  1.5651 -0.6295
 7235SOL    HW233342   4.614   0.613   9.010  0.2641 -1.7101 -1.8304
 7236SOL     OW33343   0.377   2.842   6.329  0.2216 -0.3620 -0.6556
 7236SOL    HW133344   0.293   2.796   6.332 -0.9787  1.8909  0.6839
 7236SOL    HW233345   0.442   2.774   6.348  0.6698 -0.2602 -1.8179
 7237SOL     OW33346   4.363   0.612  12.390 -0.7786 -0.3146 -0.5108
 7237SOL    HW133347   4.393   0.699  12.416 -1.2688 -0.2067 -0.3227
 7237SOL    HW233348   4.337   0.576  12.475  3.3754  1.4371  1.5340
 7238SOL     OW33349   4.293   4.653   1.866  0.2956  0.6162  0.2598
 7238SOL    HW133350   4.273   4.560   1.878 -0.7010  0.8907  0.7718
 7238SOL    HW233351   4.384   4.651   1.897  1.2783 -1.0182 -2.7749
 7239SOL     OW33352   3.219   1.102   4.035 -0.4341  0.4730 -0.0757
 7239SOL    HW133353   3.236   1.176   4.093 -0.1105 -0.5547  1.1389
 7239SOL    HW233354   3.246   1.153   3.959  1.1189 -0.8547 -0.4096
 7240SOL     OW33355   1.105   4.494   1.622  0.2198 -0.0480 -0.4158
 7240SOL    HW133356   1.189   4.507   1.666 -0.4448 -1.2829  1.2146
 7240SOL    HW233357   1.106   4.401   1.599  1.6780 -0.1192 -0.0658
 7241SOL     OW33358   4.232   0.377   5.514 -0.0072  0.7173 -0.5685
 7241SOL    HW133359   4.247   0.455   5.461 -1.7771  1.0642 -0.5741
 7241SOL    HW233360   4.211   0.314   5.445  1.1209 -1.4822  1.1041
 7242SOL     OW33361   2.183   4.455   9.915  0.0670 -0.2955 -0.1646
 7242SOL    HW133362   2.196   4.513   9.841 -0.3595 -0.9429 -0.7527
 7242SOL    HW233363   2.232   4.375   9.892 -2.0435 -0.7538 -3.0869
 7243SOL     OW33364   4.120   0.353   6.651 -0.5407  0.2476  0.6150
 7243SOL    HW133365   4.099   0.261   6.663  3.5740 -0.4120  2.9717
 7243SOL    HW233366   4.132   0.356   6.556 -2.5440  0.3994  0.3619
 7244SOL     OW33367   3.272   0.943   9.490  0.4773 -0.0897  0.3075
 7244SOL    HW133368   3.291   0.853   9.461  0.4140 -0.2898  0.8850
 7244SOL    HW233369   3.361   0.974   9.509  0.5553  1.3527 -2.4536
 7245SOL     OW33370   1.014   4.203   3.812  0.2884 -0.6160 -0.0918
 7245SOL    HW133371   0.954   4.153   3.866  0.7494 -2.2362 -1.0787
 7245SOL    HW233372   1.078   4.223   3.880  0.7493  0.9946 -0.9835
 7246SOL     OW33373   1.983   4.664   8.237 -0.3378 -0.0759 -0.6775
 7246SOL    HW133374   2.036   4.711   8.301  0.5474 -1.2986 -0.5192
 7246SOL    HW233375   1.965   4.586   8.289 -1.3955 -0.3591 -1.4662
 7247SOL     OW33376   2.144   2.657   8.497 -0.0892 -0.4649 -0.8853
 7247SOL    HW133377   2.093   2.699   8.566 -1.4710 -0.4325 -1.9356
 7247SOL    HW233378   2.228   2.652   8.543 -1.1409 -0.7756  0.9726
 7248SOL     OW33379   0.034   3.342  10.178  0.3458 -0.3124  0.5652
 7248SOL    HW133380   0.114   3.387  10.207  0.8707 -0.2207 -0.9927
 7248SOL    HW233381   0.013   3.404  10.108 -1.5919 -3.2124 -1.4156
 7249SOL     OW33382   3.299   1.925   4.911  0.1873  0.2578  1.1169
 7249SOL    HW133383   3.253   1.994   4.959  0.7886  1.2067  0.3400
 7249SOL    HW233384   3.240   1.850   4.899  2.7504 -1.6348  0.3540
 7250SOL     OW33385   0.872   3.256  15.636  0.1041 -0.1502 -0.0474
 7250SOL    HW133386   0.932   3.313  15.685  1.7562 -0.5123 -1.6488
 7250SOL    HW233387   0.796   3.270  15.692 -0.7790  0.1604 -1.3188
 7251SOL     OW33388   1.538   0.245   4.231  0.2713 -0.1460 -0.1949
 7251SOL    HW133389   1.528   0.199   4.315 -0.5987  0.6481  0.1324
 7251SOL    HW233390   1.446   0.264   4.217  0.0533 -2.6658 -2.1189
 7252SOL     OW33391   0.726   1.537   6.009  0.3554  0.3105 -0.2562
 7252SOL    HW133392   0.797   1.473   6.008 -0.6781 -0.8503  0.5328
 7252SOL    HW233393   0.680   1.526   5.926  1.5850 -0.1180 -0.8803
 7253SOL     OW33394   4.470   4.077  12.243 -0.3788  0.2095  0.0678
 7253SOL    HW133395   4.421   4.111  12.168 -1.6058 -0.9460  0.3474
 7253SOL    HW233396   4.546   4.045  12.195  0.4565  2.6727 -0.2625
 7254SOL     OW33397   2.764   0.430   2.466 -0.0252 -0.3987  0.0560
 7254SOL    HW133398   2.751   0.433   2.561  1.0818 -0.7382  0.2178
 7254SOL    HW233399   2.841   0.486   2.451  0.8965 -2.0887 -1.4575
 7255SOL     OW33400   0.362   2.544  15.998 -0.2892  0.0076 -0.1593
 7255SOL    HW133401   0.291   2.579  15.944 -0.6096  1.4158  1.1818
 7255SOL    HW233402   0.349   2.590  16.080 -1.8713  0.3833 -0.6243
 7256SOL     OW33403   4.331   0.874   2.489 -0.2743  0.2368  0.2533
 7256SOL    HW133404   4.417   0.870   2.529 -0.4967  0.6110  0.7710
 7256SOL    HW233405   4.320   0.792   2.441  0.3392 -0.0434  0.5874
 7257SOL     OW33406   2.879   1.114  10.382 -0.0728 -0.5162  0.4217
 7257SOL    HW133407   2.851   1.025  10.359 -3.5562  0.9345 -0.9251
 7257SOL    HW233408   2.892   1.107  10.477  0.5381 -0.1856  0.3623
 7258SOL     OW33409   3.633   3.753   4.782 -0.3216  0.0554  0.1713
 7258SOL    HW133410   3.652   3.660   4.767  0.5744  0.1485  0.7567
 7258SOL    HW233411   3.620   3.754   4.877 -0.1008  0.3981  0.1982
 7259SOL     OW33412   0.382   0.854   9.155 -0.9702  0.2891 -0.2160
 7259SOL    HW133413   0.326   0.890   9.224 -0.7556  0.5299 -0.1656
 7259SOL    HW233414   0.374   0.760   9.171  0.8907  0.1560 -0.0297
 7260SOL     OW33415   3.296   0.436   6.750 -0.1269 -0.0713  0.4582
 7260SOL    HW133416   3.255   0.517   6.781  1.1578  0.9947 -0.6470
 7260SOL    HW233417   3.364   0.481   6.700 -0.4481  0.5154  0.5541
 7261SOL     OW33418   1.185   4.666   1.385  0.1151 -0.1732  0.1348
 7261SOL    HW133419   1.119   4.617   1.434  0.4632  0.4683  1.2504
 7261SOL    HW233420   1.162   4.652   1.294 -0.9547  0.3153  0.3320
 7262SOL     OW33421   3.918   2.041  13.639  0.5766  0.0088 -0.5058
 7262SOL    HW133422   3.889   1.963  13.686  0.2851  0.5692  0.2397
 7262SOL    HW233423   3.927   2.110  13.705  0.9772 -0.9857  0.4680
 7263SOL     OW33424   4.486   0.287  15.952 -0.0503  0.3997  0.1370
 7263SOL    HW133425   4.416   0.352  15.952 -0.5647 -0.1558  0.8560
 7263SOL    HW233426   4.441   0.209  15.919  2.5784 -0.5574 -1.2108
 7264SOL     OW33427   0.805   0.294  10.734 -0.8704 -0.1332 -0.3771
 7264SOL    HW133428   0.796   0.323  10.825  0.8193  1.4177 -0.7036
 7264SOL    HW233429   0.885   0.243  10.740  1.2230  3.1203 -0.8537
 7265SOL     OW33430   1.536   3.182   7.934  0.2798  0.1136  0.0085
 7265SOL    HW133431   1.489   3.173   8.017 -0.1220  0.9237 -0.1359
 7265SOL    HW233432   1.484   3.124   7.878  1.1771 -1.0339  0.3666
 7266SOL     OW33433   3.643   2.247   6.857 -0.4649 -0.1158  0.4064
 7266SOL    HW133434   3.677   2.303   6.787 -1.4466 -0.4855 -0.3818
 7266SOL    HW233435   3.611   2.184   6.793  0.0292  0.1694 -0.1292
 7267SOL     OW33436   0.056   0.089  10.781 -0.2501 -0.3357  0.1745
 7267SOL    HW133437   0.044   0.155  10.713  2.4571  1.4123  1.3742
 7267SOL    HW233438   0.146   0.107  10.807 -0.8209  0.3797  1.7098
 7268SOL     OW33439   2.405   2.801  10.424  0.5843  0.4972  0.1314
 7268SOL    HW133440   2.397   2.710  10.395  1.5530  1.1745 -2.3420
 7268SOL    HW233441   2.407   2.851  10.342 -0.7791 -0.1038 -0.2643
 7269SOL     OW33442   0.838   3.057  17.499 -0.6119  0.4600  0.1160
 7269SOL    HW133443   0.821   3.106  17.418 -1.4463 -0.2778 -0.1535
 7269SOL    HW233444   0.888   2.984  17.462 -1.3586 -0.2307  0.4839
 7270SOL     OW33445   2.549   4.385   2.315  0.7862 -0.1915  0.2413
 7270SOL    HW133446   2.528   4.377   2.408  0.8878 -2.8002  0.0422
 7270SOL    HW233447   2.629   4.333   2.315  0.4749 -0.6458  4.3088
 7271SOL     OW33448   2.223   4.467   4.463  0.0123  0.0066  0.1191
 7271SOL    HW133449   2.236   4.388   4.515 -1.1502  0.3315  0.9252
 7271SOL    HW233450   2.128   4.483   4.465  0.2183  0.9482  3.2575
 7272SOL     OW33451   3.133   4.266   4.239  0.2730  0.2782  0.2782
 7272SOL    HW133452   3.124   4.260   4.144  0.4193 -1.5762  0.3693
 7272SOL    HW233453   3.041   4.264   4.265  0.9455  1.3116  2.7094
 7273SOL     OW33454   1.559   1.757   5.002 -0.0112  0.5664  0.8838
 7273SOL    HW133455   1.553   1.666   4.973 -0.4814  1.3464 -1.5230
 7273SOL    HW233456   1.475   1.799   4.983 -1.3439 -2.5462 -0.0141
 7274SOL     OW33457   0.004   2.488   0.386 -0.2903 -0.0527  0.0178
 7274SOL    HW133458   4.667   2.546   0.406 -1.8749 -1.3853 -2.0411
 7274SOL    HW233459   4.715   2.397   0.400 -2.3863  0.6218  0.4764
 7275SOL     OW33460   0.634   1.410   6.867 -0.9889  0.3279  0.0642
 7275SOL    HW133461   0.542   1.424   6.844 -1.1219  0.0334  0.4206
 7275SOL    HW233462   0.639   1.348   6.939  1.3251 -1.0787 -1.3091
 7276SOL     OW33463   4.437   3.007  12.335  0.4408 -0.0123  0.2080
 7276SOL    HW133464   4.481   3.018  12.251 -3.0557 -1.9434 -1.8596
 7276SOL    HW233465   4.479   3.076  12.387 -0.7735  1.8746 -1.3411
 7277SOL     OW33466   3.902   2.876  11.699  1.1853  0.4318  0.0665
 7277SOL    HW133467   3.983   2.862  11.748  1.2121  1.5994  0.3651
 7277SOL    HW233468   3.933   2.919  11.619  1.0257  0.2152 -0.1114
 7278SOL     OW33469   4.366   0.345   9.171 -0.2708  0.7586 -0.3698
 7278SOL    HW133470   4.346   0.341   9.078  0.3021 -0.0467 -0.4533
 7278SOL    HW233471   4.461   0.341   9.174 -0.5021 -3.1719  1.1392
 7279SOL     OW33472   3.740   4.659   6.012  0.4858 -0.6022  0.1484
 7279SOL    HW133473   3.822   4.666   6.061  1.3093 -0.6645 -1.2364
 7279SOL    HW233474   3.764   4.624   5.926  0.8055  3.1973 -1.3095
 7280SOL     OW33475   0.899   2.574   3.727  0.0278  0.6052  0.4301
 7280SOL    HW133476   0.979   2.558   3.777  1.3459  1.2034 -1.4927
 7280SOL    HW233477   0.834   2.540   3.788 -0.0645 -1.4262 -0.7932
 7281SOL     OW33478   1.882   4.284  17.547  0.4196 -0.3785 -0.1208
 7281SOL    HW133479   1.921   4.272  17.634  0.5250  0.1345 -0.1008
 7281SOL    HW233480   1.937   4.227  17.495 -2.4396 -4.3992  1.2030
 7282SOL     OW33481   4.091   1.491   4.739  0.3109  0.0723  0.0899
 7282SOL    HW133482   4.079   1.515   4.831 -0.3553 -2.7695  0.7641
 7282SOL    HW233483   4.178   1.528   4.729  0.0062  0.1166 -2.1994
 7283SOL     OW33484   2.947   1.600   0.921 -0.0790 -0.2952 -0.5047
 7283SOL    HW133485   2.910   1.583   0.835  2.8594 -0.5239 -1.7255
 7283SOL    HW233486   3.036   1.631   0.906  0.0298  0.4944  1.7161
 7284SOL     OW33487   0.558   2.782   6.909 -0.5137  0.1719  0.3113
 7284SOL    HW133488   0.589   2.763   6.820  1.3541  1.2704  0.7100
 7284SOL    HW233489   0.634   2.823   6.951  0.2216 -0.5571 -0.2834
 7285SOL     OW33490   1.870   3.238   6.420 -0.2382  0.3553 -0.9099
 7285SOL    HW133491   1.879   3.145   6.401 -1.4366 -0.4285  2.2779
 7285SOL    HW233492   1.795   3.230   6.479  1.3276 -2.1931  0.7276
 7286SOL     OW33493   0.819   3.093  16.171  0.1359  0.2579 -0.7409
 7286SOL    HW133494   0.788   3.096  16.262  2.2621 -1.4795  0.0466
 7286SOL    HW233495   0.846   3.181  16.147  1.6493 -0.6538 -2.3627
 7287SOL     OW33496   3.058   3.125   2.797  0.1390  0.1626  0.6671
 7287SOL    HW133497   3.110   3.054   2.760 -0.5698 -0.6527  1.2232
 7287SOL    HW233498   3.026   3.080   2.875  0.3825 -0.5177  0.3726
 7288SOL     OW33499   2.940   3.838   3.870  0.3924  0.5505  0.3355
 7288SOL    HW133500   2.944   3.750   3.832  0.4714  0.7214 -0.0570
 7288SOL    HW233501   2.870   3.820   3.933 -0.8918  1.7224 -0.7404
 7289SOL     OW33502   4.162   0.380   4.202  0.7180 -0.8553 -0.4854
 7289SOL    HW133503   4.133   0.300   4.246  1.6936  1.1401  3.8184
 7289SOL    HW233504   4.233   0.341   4.150 -0.2358 -0.3528 -2.1642
 7290SOL     OW33505   1.957   0.488   7.849 -0.1922 -0.5644 -0.7928
 7290SOL    HW133506   1.961   0.582   7.869 -0.5321 -0.1540 -2.7079
 7290SOL    HW233507   1.905   0.486   7.769 -0.9163  0.2901 -0.3358
 7291SOL     OW33508   2.792   3.029   7.954 -0.0976 -0.2711 -0.3651
 7291SOL    HW133509   2.832   2.997   8.035  0.5144  0.8621 -0.2199
 7291SOL    HW233510   2.730   3.095   7.986  0.6904  0.4456 -0.3123
 7292SOL     OW33511   2.971   3.867   2.163 -0.0759  0.3510  0.0988
 7292SOL    HW133512   2.935   3.913   2.238 -0.1719  0.4086  0.0164
 7292SOL    HW233513   3.059   3.847   2.195  0.6796  3.4592 -0.0332
 7293SOL     OW33514   0.079   1.454  14.020  0.0673  0.1064 -0.3196
 7293SOL    HW133515   0.056   1.394  13.949  0.8237 -0.5712  0.0066
 7293SOL    HW233516   0.006   1.516  14.016 -1.0597 -1.1935  0.0955
 7294SOL     OW33517   4.444   2.278   6.591  0.0757  0.4492  0.3447
 7294SOL    HW133518   4.448   2.365   6.552  0.2404 -0.1306 -0.9540
 7294SOL    HW233519   4.353   2.255   6.574  1.2939 -0.3664 -5.3374
 7295SOL     OW33520   2.967   1.276  12.612 -0.2513  0.3557  0.4962
 7295SOL    HW133521   2.878   1.297  12.642  0.1631  1.4847  0.9215
 7295SOL    HW233522   2.952   1.199  12.557  3.5639 -0.9103  1.2312
 7296SOL     OW33523   2.665   2.726   0.413  0.1493  0.1921 -0.0577
 7296SOL    HW133524   2.714   2.761   0.339 -1.3863 -0.7592 -1.5308
 7296SOL    HW233525   2.707   2.640   0.414  1.7234  0.9264 -3.1418
 7297SOL     OW33526   2.190   2.610  15.549 -0.2985  0.0104  0.5530
 7297SOL    HW133527   2.255   2.647  15.489 -1.3331  1.8443  0.5675
 7297SOL    HW233528   2.124   2.577  15.489  0.3773 -1.3514  0.5783
 7298SOL     OW33529   3.641   0.002   7.281 -0.0692 -0.2204 -0.2495
 7298SOL    HW133530   3.572   4.708   7.223  1.4696  0.1588 -2.2998
 7298SOL    HW233531   3.691   0.052   7.215  1.6257 -0.4347  0.8628
 7299SOL     OW33532   4.353   1.078   9.756 -0.2493  0.3467 -0.4107
 7299SOL    HW133533   4.410   1.123   9.817 -0.1132 -0.8305  0.3302
 7299SOL    HW233534   4.392   1.095   9.670 -1.6623  0.2537 -1.0809
 7300SOL     OW33535   2.116   3.424   2.310  0.6055  0.0410 -0.0048
 7300SOL    HW133536   2.185   3.359   2.294 -0.3786 -0.2025 -3.3070
 7300SOL    HW233537   2.151   3.478   2.381  0.9772 -1.3324  0.8425
 7301SOL     OW33538   0.186   0.080   0.159 -0.0448  0.3106  0.1092
 7301SOL    HW133539   0.130   0.006   0.181 -0.4877 -0.5526 -3.9274
 7301SOL    HW233540   0.229   0.040   0.083  0.3474  1.9236 -0.5196
 7302SOL     OW33541   3.501   0.311   7.132  0.7878  0.1754  0.1979
 7302SOL    HW133542   3.506   0.241   7.067  0.4704  2.1242 -1.8835
 7302SOL    HW233543   3.442   0.275   7.199 -0.4778 -2.7423 -2.5003
 7303SOL     OW33544   0.152   1.273   3.074  0.4958  0.3266 -0.3616
 7303SOL    HW133545   0.081   1.262   3.011  1.2873  0.6847 -1.3208
 7303SOL    HW233546   0.232   1.296   3.027  1.8824  0.8591  2.2573
 7304SOL     OW33547   0.503   0.026   6.224 -0.3655 -0.2819 -0.4280
 7304SOL    HW133548   0.455   4.700   6.278 -0.4764  1.1323  1.1392
 7304SOL    HW233549   0.549   4.703   6.166  2.9353 -1.4299  3.4130
 7305SOL     OW33550   1.016   3.948   1.428 -0.0370 -0.2537 -0.5727
 7305SOL    HW133551   0.935   3.974   1.472 -0.2824 -1.7463 -0.1254
 7305SOL    HW233552   0.975   3.879   1.374 -1.4415  2.3521 -2.8695
 7306SOL     OW33553   0.640   3.228  15.848 -0.2482 -0.2056  0.1461
 7306SOL    HW133554   0.590   3.306  15.825  1.1939  1.5139  2.8161
 7306SOL    HW233555   0.607   3.215  15.937 -0.3409  1.2158  0.3272
 7307SOL     OW33556   4.298   3.873  15.080  0.1086 -0.1064 -0.0192
 7307SOL    HW133557   4.307   3.960  15.118 -1.9372  0.2946 -0.4647
 7307SOL    HW233558   4.319   3.897  14.990 -0.2716 -0.5229 -0.2200
 7308SOL     OW33559   4.482   2.089   9.430 -0.0654 -0.3274 -0.3220
 7308SOL    HW133560   4.572   2.083   9.397  0.6685  1.0548  1.4730
 7308SOL    HW233561   4.457   2.180   9.412  1.2638 -0.2803 -1.9682
 7309SOL     OW33562   2.779   2.449   0.290 -0.2545  0.0091  0.0920
 7309SOL    HW133563   2.853   2.479   0.238 -2.8361  2.4697 -2.1963
 7309SOL    HW233564   2.795   2.356   0.279  1.4001  0.4076 -0.9037
 7310SOL     OW33565   3.989   4.675   6.168  0.0316  0.2943  0.0776
 7310SOL    HW133566   3.996   0.010   6.229 -1.3943  1.4545 -1.1272
 7310SOL    HW233567   4.019   4.720   6.089  3.1697 -0.9362  0.5493
 7311SOL     OW33568   0.304   3.157  12.129 -0.0296 -0.4625  0.1321
 7311SOL    HW133569   0.400   3.152  12.125  0.0333  2.2410 -2.0751
 7311SOL    HW233570   0.282   3.067  12.152 -0.4616 -0.4974 -0.4349
 7312SOL     OW33571   4.412   1.812   7.755  0.0706 -0.2639  0.2063
 7312SOL    HW133572   4.446   1.885   7.703 -0.3164  1.0535  1.7916
 7312SOL    HW233573   4.321   1.832   7.777  0.2674  1.0508 -0.1667
 7313SOL     OW33574   3.924   2.475   3.500 -0.3656 -0.0387 -0.2975
 7313SOL    HW133575   4.004   2.508   3.539  0.8228  0.7290 -3.3842
 7313SOL    HW233576   3.876   2.556   3.522 -1.2838 -0.0064 -2.3422
 7314SOL     OW33577   1.414   4.586   0.991 -0.0662  0.0901 -0.0385
 7314SOL    HW133578   1.338   4.644   0.986 -2.1943 -2.7494 -0.5697
 7314SOL    HW233579   1.421   4.576   1.086  1.2459 -2.4891 -0.3943
 7315SOL     OW33580   0.529   2.988   3.224  0.0093  0.4279  0.1057
 7315SOL    HW133581   0.550   3.045   3.298  1.2478 -0.6350  0.5907
 7315SOL    HW233582   0.600   2.924   3.233 -0.9837 -0.5304  1.0979
 7316SOL     OW33583   3.431   1.816   3.920  0.1322  0.5591 -1.0996
 7316SOL    HW133584   3.395   1.896   3.958  0.2386  1.0263 -1.9964
 7316SOL    HW233585   3.499   1.798   3.984 -0.6257  0.0912 -0.4217
 7317SOL     OW33586   4.720   1.075   1.447 -0.0256  0.2693 -0.1735
 7317SOL    HW133587   4.650   1.111   1.393 -0.9096 -0.1054  0.7245
 7317SOL    HW233588   0.063   1.093   1.398  0.1649 -0.6769 -0.2084
 7318SOL     OW33589   0.319   0.575   9.181 -0.4502 -0.0532  0.5999
 7318SOL    HW133590   0.249   0.542   9.125 -0.7830 -1.1693  1.6532
 7318SOL    HW233591   0.389   0.517   9.150 -0.6264 -0.8308  1.6219
 7319SOL     OW33592   2.169   2.293   8.180  0.5558 -0.7556 -0.8230
 7319SOL    HW133593   2.253   2.322   8.144  1.2374 -1.1739  0.4433
 7319SOL    HW233594   2.122   2.376   8.188 -2.6018 -2.6307 -0.1291
 7320SOL     OW33595   0.177   0.301   9.821 -0.0001  0.0911 -0.0409
 7320SOL    HW133596   0.143   0.213   9.802 -0.6587  0.5060 -0.7917
 7320SOL    HW233597   0.101   0.359   9.825  1.0398  1.3018  2.1171
 7321SOL     OW33598   3.242   1.666   1.201  0.4489 -0.7043  0.6827
 7321SOL    HW133599   3.240   1.744   1.257 -1.0801 -0.6169  0.4979
 7321SOL    HW233600   3.219   1.697   1.113  0.4091 -0.2719  0.8450
 7322SOL     OW33601   3.424   3.696   9.279 -0.1304 -0.2699  0.2451
 7322SOL    HW133602   3.383   3.659   9.358  0.5577 -1.1830  0.1744
 7322SOL    HW233603   3.431   3.790   9.294  2.3665 -0.1431 -1.6577
 7323SOL     OW33604   1.203   2.315  10.008 -0.1656 -0.5182  0.4606
 7323SOL    HW133605   1.167   2.227   9.999 -1.5923  0.2325 -1.1698
 7323SOL    HW233606   1.138   2.374   9.970  1.1981  1.3527  0.9954
 7324SOL     OW33607   1.792   0.361   0.874 -0.4763  1.0889 -0.0644
 7324SOL    HW133608   1.842   0.304   0.934 -1.6304 -0.2856 -0.4138
 7324SOL    HW233609   1.855   0.420   0.832  0.4353 -0.3451 -0.7030
 7325SOL     OW33610   2.387   2.818   2.528  0.4986  0.1104 -0.3698
 7325SOL    HW133611   2.389   2.852   2.617 -1.2491  2.6167 -1.2876
 7325SOL    HW233612   2.314   2.876   2.505 -1.2678 -2.2639 -0.6999
 7326SOL     OW33613   2.918   4.687   8.107  0.3023  0.4195 -0.2047
 7326SOL    HW133614   2.956   0.024   8.152  0.2219  0.0626  0.4552
 7326SOL    HW233615   2.942   4.706   8.017  2.8997  0.0753  0.4253
 7327SOL     OW33616   3.607   1.875   2.608  0.2012 -0.0875 -0.5624
 7327SOL    HW133617   3.543   1.831   2.663 -0.4392  1.1811 -0.2866
 7327SOL    HW233618   3.681   1.871   2.669  1.1466  1.5007 -1.6121
 7328SOL     OW33619   2.244   0.299   9.429  0.0978 -0.0146  0.4126
 7328SOL    HW133620   2.178   0.363   9.456 -2.1618 -1.8688 -0.7411
 7328SOL    HW233621   2.313   0.361   9.405 -1.0487  0.4491 -1.7040
 7329SOL     OW33622   2.320   0.139   9.938 -0.0401  0.4626  0.2554
 7329SOL    HW133623   2.348   0.229   9.922 -0.8711  0.4478 -1.3322
 7329SOL    HW233624   2.325   0.149  10.033  3.9017 -0.5629  0.1796
 7330SOL     OW33625   2.452   4.676   3.132 -0.0503 -0.2475  0.0630
 7330SOL    HW133626   2.423   4.705   3.218  0.4415 -1.0207  0.4804
 7330SOL    HW233627   2.425   0.012   3.076  2.6737  2.3207  2.1080
 7331SOL     OW33628   2.277   1.016  14.945 -0.3871 -0.4382 -0.5274
 7331SOL    HW133629   2.367   1.019  14.977 -0.2327 -0.2762 -0.9834
 7331SOL    HW233630   2.287   1.033  14.852 -0.5228  0.8448 -0.3124
 7332SOL     OW33631   3.191   1.320   5.674 -0.1531 -0.2717 -0.2412
 7332SOL    HW133632   3.129   1.267   5.724 -0.2526  0.5180  0.4809
 7332SOL    HW233633   3.185   1.399   5.728  0.3088  0.9146 -1.9040
 7333SOL     OW33634   1.021   2.365   8.978 -0.3042 -0.5103  0.4298
 7333SOL    HW133635   1.034   2.400   9.066  2.2021  1.5004 -0.7310
 7333SOL    HW233636   0.944   2.411   8.944  0.0650  1.2790  2.0636
 7334SOL     OW33637   3.162   0.536   8.120 -0.2419 -0.4218 -0.1010
 7334SOL    HW133638   3.111   0.455   8.114 -0.9679 -0.0309  0.7467
 7334SOL    HW233639   3.111   0.574   8.192  1.2509 -0.5352  1.0279
 7335SOL     OW33640   0.752   2.090   5.031  0.2802 -0.0337 -0.1182
 7335SOL    HW133641   0.776   1.997   5.032 -1.5226 -0.5116  0.0093
 7335SOL    HW233642   0.766   2.117   5.122  0.0994  0.0985 -0.1288
 7336SOL     OW33643   1.878   0.723   4.368 -0.0040  0.8010 -0.1409
 7336SOL    HW133644   1.872   0.695   4.460 -0.8664  2.3795  0.2947
 7336SOL    HW233645   1.800   0.779   4.365 -0.2019  0.5682  0.5936
 7337SOL     OW33646   0.305   0.067   3.219  0.1048 -0.7754 -0.6540
 7337SOL    HW133647   0.339   4.719   3.247  1.1196  1.0312  3.6538
 7337SOL    HW233648   0.311   0.061   3.124 -0.6886 -1.7857 -0.6498
 7338SOL     OW33649   2.609   1.620  14.397  0.2963 -0.4915  0.0434
 7338SOL    HW133650   2.642   1.706  14.370 -1.0178 -0.5355 -1.6596
 7338SOL    HW233651   2.678   1.589  14.456  0.9506  0.4819 -0.2116
 7339SOL     OW33652   2.740   4.070  13.267 -0.2122 -0.3666 -0.2632
 7339SOL    HW133653   2.783   3.986  13.283 -0.1804 -0.4264 -0.6707
 7339SOL    HW233654   2.799   4.133  13.307  1.2925 -3.1519  1.8940
 7340SOL     OW33655   0.992   3.929   5.669 -0.7571  0.2218 -0.5227
 7340SOL    HW133656   0.897   3.922   5.681 -0.3129 -2.6398  1.4300
 7340SOL    HW233657   1.020   3.906   5.758 -0.3123  0.8611 -0.5006
 7341SOL     OW33658   0.411   2.776   9.084 -0.2776  0.8125  0.0300
 7341SOL    HW133659   0.364   2.773   9.167 -0.1677 -1.4388  0.0105
 7341SOL    HW233660   0.470   2.700   9.088 -0.4479  0.7395  0.9657
 7342SOL     OW33661   3.517   2.140  11.700  0.2117 -0.4500 -0.2544
 7342SOL    HW133662   3.451   2.100  11.644 -0.2953  1.1815 -0.8317
 7342SOL    HW233663   3.461   2.189  11.761 -0.2966 -1.0101 -0.2805
 7343SOL     OW33664   4.116   3.956   4.319 -0.2728 -0.1134 -0.1633
 7343SOL    HW133665   4.184   3.891   4.336  0.1861  0.3776 -0.1233
 7343SOL    HW233666   4.161   3.997   4.245 -1.8463  0.9448 -0.5340
 7344SOL     OW33667   1.353   3.410   3.826 -0.1657 -0.1095 -0.6343
 7344SOL    HW133668   1.312   3.356   3.893  2.7572 -0.0712  1.1597
 7344SOL    HW233669   1.313   3.496   3.834  1.7988  0.6531  1.0037
 7345SOL     OW33670   1.627   1.234   7.455  0.4499 -0.1911 -0.1519
 7345SOL    HW133671   1.663   1.296   7.392 -0.1793  1.1542  0.8147
 7345SOL    HW233672   1.708   1.211   7.500  0.2736  1.2823  0.9195
 7346SOL     OW33673   0.875   4.336   1.546  0.4259  0.5914  0.7454
 7346SOL    HW133674   0.882   4.292   1.631 -1.0765 -2.6033 -0.7816
 7346SOL    HW233675   0.961   4.314   1.511  0.0352 -0.1918  0.2784
 7347SOL     OW33676   1.461   3.475   4.506  0.0223  0.4650 -0.6180
 7347SOL    HW133677   1.408   3.433   4.438  1.2378  0.3133 -1.4715
 7347SOL    HW233678   1.434   3.431   4.586  0.5133  0.7593 -0.2936
 7348SOL     OW33679   0.669   1.663  15.261  0.3427 -0.0668 -0.4653
 7348SOL    HW133680   0.641   1.689  15.173 -0.9465 -0.3384 -0.1290
 7348SOL    HW233681   0.753   1.624  15.237  0.2584 -0.7690  0.3894
 7349SOL     OW33682   2.530   0.845   4.014 -0.0205  0.3483 -0.6868
 7349SOL    HW133683   2.522   0.937   3.990 -0.6778  0.5579  0.3780
 7349SOL    HW233684   2.530   0.846   4.110 -0.2581 -0.6191 -0.6745
 7350SOL     OW33685   2.421   1.234   2.989  0.5886 -0.2380 -0.5094
 7350SOL    HW133686   2.438   1.328   2.989  2.1572 -0.5054  2.7361
 7350SOL    HW233687   2.504   1.194   3.016 -0.7487 -3.7417 -1.6541
 7351SOL     OW33688   1.542   4.688   5.495  0.0170  0.2815 -0.7301
 7351SOL    HW133689   1.447   4.691   5.501  0.2583 -0.5811  3.8188
 7351SOL    HW233690   1.551   4.611   5.551 -0.9718  0.2574 -0.6060
 7352SOL     OW33691   3.153   4.634   6.805  0.5696  0.1886  0.5127
 7352SOL    HW133692   3.217   4.689   6.761  0.7876 -0.9082 -0.5256
 7352SOL    HW233693   3.165   4.550   6.761 -0.4583 -0.5451  1.6227
 7353SOL     OW33694   0.781   3.127   1.144  0.0439 -0.0128 -0.3129
 7353SOL    HW133695   0.813   3.207   1.185  1.5998 -0.3852 -0.8065
 7353SOL    HW233696   0.752   3.085   1.225  0.3449  1.3872  0.5190
 7354SOL     OW33697   3.702   2.790  14.672 -0.3836  0.3637 -0.7913
 7354SOL    HW133698   3.677   2.875  14.634 -1.0709 -0.5708 -2.3975
 7354SOL    HW233699   3.722   2.736  14.596 -0.2508 -0.4300 -0.1833
 7355SOL     OW33700   2.417   1.823   5.755 -0.2465  0.2277 -0.3994
 7355SOL    HW133701   2.392   1.807   5.664  1.8297 -0.8062 -0.7618
 7355SOL    HW233702   2.453   1.912   5.754 -0.1145  0.1674 -1.2868
 7356SOL     OW33703   4.237   4.103   6.907  0.1873 -0.1498  0.0167
 7356SOL    HW133704   4.142   4.113   6.895  0.2152 -0.0031 -0.0807
 7356SOL    HW233705   4.246   4.009   6.892 -1.3800 -0.2932 -0.0920
 7357SOL     OW33706   1.936   0.470   4.432 -0.2767 -0.8042 -0.1362
 7357SOL    HW133707   1.956   0.553   4.388  0.6416 -1.1041 -0.2826
 7357SOL    HW233708   1.863   0.434   4.381  2.2835 -3.6336 -1.8090
 7358SOL     OW33709   4.167   0.330  16.967  0.4346 -0.2920 -0.3175
 7358SOL    HW133710   4.164   0.268  16.894 -0.8800  0.4848 -0.9175
 7358SOL    HW233711   4.112   0.294  17.036 -0.1442  0.0082 -0.6189
 7359SOL     OW33712   2.200   4.202   3.408 -0.4952  0.1932  0.0069
 7359SOL    HW133713   2.266   4.142   3.373 -2.0208  0.3903 -3.1990
 7359SOL    HW233714   2.255   4.268   3.450 -1.8067  0.3606  1.4337
 7360SOL     OW33715   0.390   3.474   5.535 -0.0283 -0.1854 -0.2762
 7360SOL    HW133716   0.387   3.421   5.455  1.3251 -1.3578  0.4705
 7360SOL    HW233717   0.345   3.418   5.598 -0.5560  0.8758  0.2967
 7361SOL     OW33718   3.357   1.356   9.462 -0.6564 -0.0746 -1.1004
 7361SOL    HW133719   3.330   1.441   9.427 -1.4566  0.5303  0.9705
 7361SOL    HW233720   3.434   1.378   9.514 -3.5070  2.2083  2.1815
 7362SOL     OW33721   2.806   3.942   8.662 -0.5909  0.1428 -0.0483
 7362SOL    HW133722   2.880   3.939   8.600  0.1574 -0.7281  0.8810
 7362SOL    HW233723   2.862   3.975   8.732 -0.0798 -1.7703  0.4690
 7363SOL     OW33724   4.111   3.816  16.806  0.5513 -0.0332  0.5415
 7363SOL    HW133725   4.132   3.909  16.811  2.2342 -0.4818  1.6739
 7363SOL    HW233726   4.043   3.807  16.739  0.2936 -0.8810  0.9238
 7364SOL     OW33727   3.931   3.492   7.653  0.0440 -0.0007 -0.5435
 7364SOL    HW133728   3.933   3.554   7.726  1.5087 -0.3337 -0.2899
 7364SOL    HW233729   3.838   3.473   7.659  0.0585 -0.4184 -1.6265
 7365SOL     OW33730   1.543   0.630  12.128  0.3851  0.8166  0.1768
 7365SOL    HW133731   1.479   0.658  12.062  0.3250 -1.0352 -0.5284
 7365SOL    HW233732   1.547   0.711  12.179  0.6452  0.6894  0.3573
 7366SOL     OW33733   0.142   4.031   9.994  0.1931 -0.1172  0.1528
 7366SOL    HW133734   0.136   3.938  10.012  1.9677 -0.8485 -2.9972
 7366SOL    HW233735   0.115   4.067  10.079  0.4035  0.5746 -0.0735
 7367SOL     OW33736   4.019   2.574   2.131 -0.0914 -0.2169  0.9027
 7367SOL    HW133737   4.095   2.544   2.181 -0.4604  1.8870  2.7392
 7367SOL    HW233738   3.990   2.495   2.085  0.8588  0.5316 -0.9773
 7368SOL     OW33739   3.338   1.752   6.374 -0.2478 -0.1124 -0.1356
 7368SOL    HW133740   3.298   1.677   6.331 -1.3389 -0.3876  1.3216
 7368SOL    HW233741   3.404   1.779   6.311  1.2752 -0.7248  1.1732
 7369SOL     OW33742   1.862   0.161   5.105 -0.2170 -0.0668  0.2575
 7369SOL    HW133743   1.945   0.128   5.069  0.0571  2.0861 -1.1492
 7369SOL    HW233744   1.886   0.222   5.175 -0.8925  1.0370 -0.4564
 7370SOL     OW33745   3.798   3.543   6.424 -0.2765 -0.2505  0.1915
 7370SOL    HW133746   3.820   3.472   6.485  1.3942 -1.1036 -1.4402
 7370SOL    HW233747   3.766   3.608   6.487  1.0107 -1.3029  1.9322
 7371SOL     OW33748   0.536   0.108   6.502  0.0277  0.0957 -0.7762
 7371SOL    HW133749   0.518   0.029   6.452 -1.9156 -0.1734  0.3687
 7371SOL    HW233750   0.627   0.129   6.481 -0.2582  1.0576 -1.1014
 7372SOL     OW33751   4.182   1.026  17.252 -0.1306  0.0772 -0.5142
 7372SOL    HW133752   4.260   0.984  17.217  0.1942  1.3720 -1.3216
 7372SOL    HW233753   4.164   0.969  17.327  0.1597  2.3603  1.2769
 7373SOL     OW33754   1.059   4.376   0.919 -0.3826 -0.1084 -0.5071
 7373SOL    HW133755   1.137   4.399   0.867 -1.6690  1.5099 -1.7185
 7373SOL    HW233756   1.034   4.291   0.881 -0.4027 -0.0622 -0.5976
 7374SOL     OW33757   1.073   4.464   3.037 -0.3655 -0.0648  0.2796
 7374SOL    HW133758   1.076   4.524   2.962  2.1333 -0.4920  0.0568
 7374SOL    HW233759   1.092   4.519   3.113 -1.1131  0.5321  0.0347
 7375SOL     OW33760   1.458   0.246   3.793 -0.2501  0.5776 -0.4248
 7375SOL    HW133761   1.454   0.340   3.810  1.0608  0.3484  1.2620
 7375SOL    HW233762   1.548   0.221   3.817 -0.6514 -0.8435 -0.4134
 7376SOL     OW33763   0.458   4.322  14.425 -0.3346 -0.0625 -0.3409
 7376SOL    HW133764   0.410   4.240  14.414 -0.9914  0.5122 -1.7539
 7376SOL    HW233765   0.535   4.279  14.460 -0.3596  0.9401  0.9389
 7377SOL     OW33766   2.768   0.555   7.028 -0.6941 -0.2777 -0.7565
 7377SOL    HW133767   2.834   0.619   7.054  0.9100 -2.6386  0.9130
 7377SOL    HW233768   2.733   0.602   6.952 -0.6531  1.1874  0.1137
 7378SOL     OW33769   1.471   3.545  12.675 -0.6088  0.2956 -0.0654
 7378SOL    HW133770   1.475   3.526  12.769  0.4057 -0.1819 -0.2041
 7378SOL    HW233771   1.521   3.474  12.635  0.8096  1.9015 -1.1571
 7379SOL     OW33772   1.714   1.584   1.712  0.1613 -0.0573 -0.2543
 7379SOL    HW133773   1.764   1.529   1.772  0.0202 -1.5363 -1.4759
 7379SOL    HW233774   1.747   1.671   1.732 -0.5241 -0.0866  0.9561
 7380SOL     OW33775   0.612   3.809   7.208 -0.0876 -0.1447  0.0532
 7380SOL    HW133776   0.589   3.890   7.254  0.0511 -0.4937  0.7330
 7380SOL    HW233777   0.627   3.844   7.120 -0.9330  0.2357  0.0538
 7381SOL     OW33778   3.757   3.203   5.187  0.2649 -0.5278  0.2154
 7381SOL    HW133779   3.674   3.223   5.145  1.7690  0.1305 -2.4263
 7381SOL    HW233780   3.720   3.175   5.271 -2.4396 -1.6008 -1.3411
 7382SOL     OW33781   0.830   3.671  10.918  0.2490  0.4299 -0.1897
 7382SOL    HW133782   0.894   3.640  10.981 -0.8432  1.6459  1.4945
 7382SOL    HW233783   0.750   3.645  10.964  0.0797 -0.9328 -1.2220
 7383SOL     OW33784   3.384   2.105   8.194  0.0788  0.1254  0.1807
 7383SOL    HW133785   3.320   2.162   8.152 -2.7566 -4.0419 -1.1387
 7383SOL    HW233786   3.427   2.072   8.115 -0.1597 -0.9511  0.4946
 7384SOL     OW33787   1.733   2.412   9.257  0.0990 -0.4206  0.3352
 7384SOL    HW133788   1.662   2.440   9.199  1.8376 -0.4301 -1.8120
 7384SOL    HW233789   1.681   2.407   9.337  0.1629 -1.4696  0.3095
 7385SOL     OW33790   1.641   0.724   2.155 -0.6281  0.1679  0.3992
 7385SOL    HW133791   1.713   0.737   2.092 -0.5405 -1.6809  0.1017
 7385SOL    HW233792   1.691   0.755   2.230  0.8774 -1.1312 -0.0673
 7386SOL     OW33793   4.635   3.732   2.870 -0.4983  0.2226  0.2158
 7386SOL    HW133794   4.628   3.650   2.822 -0.9454 -0.5304  1.5710
 7386SOL    HW233795   4.636   3.701   2.960  2.0965 -0.8682 -0.1903
 7387SOL     OW33796   3.361   1.596   7.153 -0.3495  0.2962 -0.7133
 7387SOL    HW133797   3.375   1.619   7.061 -0.2561  1.3174 -0.4462
 7387SOL    HW233798   3.267   1.610   7.161  0.0479  1.5215  2.0041
 7388SOL     OW33799   4.502   4.642   8.208  0.4369  0.5667  0.0655
 7388SOL    HW133800   4.413   4.635   8.242  1.1085  1.1842  1.9677
 7388SOL    HW233801   4.549   4.628   8.290  0.9051 -0.6311 -0.4110
 7389SOL     OW33802   3.751   1.736   1.625 -0.1706 -0.4825 -0.2232
 7389SOL    HW133803   3.681   1.685   1.666 -0.8559  0.2015 -0.5464
 7389SOL    HW233804   3.736   1.825   1.657  0.1346 -1.5627  2.8950
 7390SOL     OW33805   3.517   2.814   2.086  0.1681  0.2988 -0.1931
 7390SOL    HW133806   3.426   2.805   2.059  0.0430  0.3571  0.2112
 7390SOL    HW233807   3.520   2.763   2.167 -1.2541  0.9668  0.2718
 7391SOL     OW33808   0.393   3.341   8.523 -0.0157 -0.2116  0.4468
 7391SOL    HW133809   0.370   3.427   8.558  2.2624  0.9077 -0.8016
 7391SOL    HW233810   0.378   3.283   8.598 -1.2422  0.0729  0.4093
 7392SOL     OW33811   0.462   0.349  15.519  0.1954 -0.1922 -0.3317
 7392SOL    HW133812   0.557   0.352  15.529  0.0221  1.9205  0.6851
 7392SOL    HW233813   0.443   0.431  15.474 -0.5956  0.8410  1.8458
 7393SOL     OW33814   2.177   0.515   4.224  0.0521  0.5977  0.0931
 7393SOL    HW133815   2.165   0.609   4.215 -0.8494  0.8801  4.0418
 7393SOL    HW233816   2.258   0.494   4.178  0.4654 -0.4486  1.2786
 7394SOL     OW33817   0.588   1.248   8.480 -0.0468 -0.3134 -0.3050
 7394SOL    HW133818   0.540   1.315   8.529  1.7770 -0.2048  1.3547
 7394SOL    HW233819   0.677   1.256   8.514  0.4168  1.4296 -1.9451
 7395SOL     OW33820   4.539   3.540  13.058  0.0929  0.1820  0.0263
 7395SOL    HW133821   4.556   3.496  13.141  3.2444  0.2492 -0.6043
 7395SOL    HW233822   4.523   3.627  13.095  0.6428 -0.4717  1.7851
 7396SOL     OW33823   0.986   1.569   7.272 -0.2712 -0.5017  0.0140
 7396SOL    HW133824   1.031   1.643   7.312 -0.3838  0.7713 -2.1627
 7396SOL    HW233825   1.037   1.502   7.318  0.5665  1.4814  1.9801
 7397SOL     OW33826   4.719   0.567   3.293  0.2064 -0.3675 -0.7210
 7397SOL    HW133827   0.026   0.629   3.350  0.6954 -0.9981 -0.4151
 7397SOL    HW233828   4.709   0.608   3.207 -0.1012 -0.8500 -0.9181
 7398SOL     OW33829   2.515   1.101   9.460  0.5022 -0.1798  0.6607
 7398SOL    HW133830   2.493   1.022   9.509 -1.0631 -0.9791 -1.3232
 7398SOL    HW233831   2.497   1.079   9.369  2.1028 -0.7080  0.4743
 7399SOL     OW33832   1.427   0.571   7.507 -0.1817 -0.5669  0.3081
 7399SOL    HW133833   1.488   0.498   7.508  0.2684 -0.1758  0.9610
 7399SOL    HW233834   1.456   0.615   7.587  3.0217  0.5736 -1.4733
 7400SOL     OW33835   0.961   0.021   5.225 -0.0415 -0.6870  0.8879
 7400SOL    HW133836   0.989   0.098   5.176  0.9860 -0.4371  1.8830
 7400SOL    HW233837   0.922   0.057   5.305 -1.4069 -1.4177  0.5597
 7401SOL     OW33838   3.043   3.280   7.692 -0.5913 -0.1437 -0.1560
 7401SOL    HW133839   3.036   3.375   7.678 -3.7300 -0.2409  0.7305
 7401SOL    HW233840   3.082   3.253   7.609 -1.4978 -3.1906  0.4246
 7402SOL     OW33841   0.156   4.441   0.679 -0.1971 -0.2312  0.1528
 7402SOL    HW133842   0.079   4.436   0.735  1.6677  1.8478  2.9109
 7402SOL    HW233843   0.194   4.523   0.710  0.8453 -1.0151  0.9507
 7403SOL     OW33844   4.351   3.388   6.034  0.2921 -0.0831  0.1562
 7403SOL    HW133845   4.362   3.416   5.943  0.3442 -0.8801 -0.0835
 7403SOL    HW233846   4.294   3.313   6.013  0.7298 -0.0243 -1.2114
 7404SOL     OW33847   2.058   1.652   6.721  0.0853  0.4750 -0.0300
 7404SOL    HW133848   2.080   1.701   6.800  0.3507  0.2002  0.0686
 7404SOL    HW233849   2.116   1.700   6.662  0.9890 -1.2047 -0.5021
 7405SOL     OW33850   4.635   1.322   4.302 -0.0861 -0.2903 -0.4884
 7405SOL    HW133851   4.673   1.242   4.267  0.9852  0.2121 -0.4937
 7405SOL    HW233852   4.602   1.372   4.228 -1.6269  0.3588  0.6491
 7406SOL     OW33853   1.180   2.214   5.193 -0.4215  0.4098  0.0271
 7406SOL    HW133854   1.129   2.220   5.113  1.2293 -1.6811 -1.1921
 7406SOL    HW233855   1.187   2.121   5.214  1.3652  0.7236  0.8726
 7407SOL     OW33856   1.201   3.419   2.875  0.8032 -0.0050 -0.3273
 7407SOL    HW133857   1.182   3.463   2.792  2.8139  0.5549 -0.4819
 7407SOL    HW233858   1.293   3.400   2.855  0.6916 -2.5325  1.5967
 7408SOL     OW33859   4.475   1.662  14.174  0.0389  0.2823  0.6298
 7408SOL    HW133860   4.400   1.688  14.121  0.5704  0.0977 -0.2220
 7408SOL    HW233861   4.541   1.677  14.106  1.1580  0.1807  1.6951
 7409SOL     OW33862   0.627   2.709   6.377  0.1980 -0.0356  0.3563
 7409SOL    HW133863   0.604   2.625   6.337  0.2521 -0.1401  0.5436
 7409SOL    HW233864   0.714   2.729   6.343  0.1452 -0.5003 -0.0567
 7410SOL     OW33865   2.590   3.143   5.488 -0.1490  0.5715  0.5346
 7410SOL    HW133866   2.611   3.131   5.396 -0.2282 -0.1870  0.6150
 7410SOL    HW233867   2.511   3.194   5.470 -0.9700 -0.4401  1.2596
 7411SOL     OW33868   2.498   1.872   8.261  0.8759 -0.1730  0.0327
 7411SOL    HW133869   2.585   1.875   8.301  0.6425  0.0897  0.5274
 7411SOL    HW233870   2.445   1.823   8.324 -0.7854  1.0451 -0.4078
 7412SOL     OW33871   0.159   3.120   1.691 -0.0100 -0.1039 -0.2694
 7412SOL    HW133872   0.075   3.111   1.647 -0.6553 -0.6093  1.0776
 7412SOL    HW233873   0.129   3.149   1.777  2.6721 -2.5849  1.5154
 7413SOL     OW33874   1.171   2.620   2.035  0.9486  0.7669 -0.5720
 7413SOL    HW133875   1.234   2.669   1.982  0.8520 -0.5868 -1.9583
 7413SOL    HW233876   1.096   2.677   2.053 -0.4111 -0.9349 -0.8366
 7414SOL     OW33877   4.549   1.900  11.494 -0.1589 -0.0730  0.1561
 7414SOL    HW133878   4.530   1.807  11.485 -1.2874  0.2533 -0.8754
 7414SOL    HW233879   4.468   1.924  11.539 -0.6050 -2.6018  0.6979
 7415SOL     OW33880   1.841   1.254   5.831 -0.4198  0.1260  0.1849
 7415SOL    HW133881   1.791   1.184   5.874  0.7979 -0.5863  0.4327
 7415SOL    HW233882   1.775   1.278   5.766 -0.2220  1.3457  0.4219
 7416SOL     OW33883   2.018   0.633   2.635  0.1187 -1.1984 -0.1685
 7416SOL    HW133884   2.074   0.663   2.706 -0.9415 -0.6279  0.4192
 7416SOL    HW233885   1.995   0.716   2.593 -0.5336 -0.8663  0.8441
 7417SOL     OW33886   0.370   3.867  10.145 -0.2632 -0.0649  0.2931
 7417SOL    HW133887   0.327   3.925  10.208 -1.4001  0.5982 -1.1081
 7417SOL    HW233888   0.333   3.779  10.153 -2.2384  0.7654  0.3519
 7418SOL     OW33889   4.153   1.467  15.842 -0.3521  0.0586 -0.7848
 7418SOL    HW133890   4.059   1.469  15.826 -0.2244  1.9436 -1.2417
 7418SOL    HW233891   4.160   1.437  15.933  2.1322 -0.1132 -1.0376
 7419SOL     OW33892   0.875   1.833   4.284  0.1875 -0.2580  0.5907
 7419SOL    HW133893   0.815   1.764   4.254 -2.0490  0.8225  2.5511
 7419SOL    HW233894   0.899   1.873   4.200  1.2501  1.4737  1.7411
 7420SOL     OW33895   2.573   0.293  15.103  0.0782 -0.1292  0.6273
 7420SOL    HW133896   2.611   0.372  15.142  0.5439  0.2025 -0.4912
 7420SOL    HW233897   2.642   0.256  15.049 -1.7200 -0.5037 -1.4211
 7421SOL     OW33898   2.645   2.110   0.637  0.0403  0.4079 -0.0764
 7421SOL    HW133899   2.595   2.142   0.712  0.9114 -1.2416  1.1833
 7421SOL    HW233900   2.620   2.020   0.615 -0.4015  0.8947 -1.6252
 7422SOL     OW33901   0.482   1.809   1.499 -0.1540  0.0157  0.0880
 7422SOL    HW133902   0.387   1.818   1.492 -0.2975 -1.2064  0.5777
 7422SOL    HW233903   0.511   1.835   1.412  1.0967  1.1778  0.8535
 7423SOL     OW33904   0.854   4.640   5.630  0.3310 -0.4370 -0.1222
 7423SOL    HW133905   0.771   4.688   5.628  1.9551  2.4230  0.3053
 7423SOL    HW233906   0.873   4.620   5.722 -2.3685  0.0955  0.5588
 7424SOL     OW33907   4.072   1.935   5.668  0.3020  0.2029 -0.0167
 7424SOL    HW133908   4.068   1.893   5.754  0.2563  0.7822  0.2589
 7424SOL    HW233909   4.062   1.858   5.612 -0.8935  1.3956 -1.4348
 7425SOL     OW33910   2.471   1.274  13.902  0.5204  0.3885  0.1057
 7425SOL    HW133911   2.412   1.338  13.862  2.1356  1.8849  0.0954
 7425SOL    HW233912   2.468   1.199  13.844  1.3961  1.1670 -0.9437
 7426SOL     OW33913   4.297   2.722   1.001 -0.0432  0.1746  0.4770
 7426SOL    HW133914   4.217   2.752   1.044 -0.0351  2.2121 -0.9485
 7426SOL    HW233915   4.308   2.637   1.043  3.3504  0.2624 -0.2860
 7427SOL     OW33916   4.218   3.407   8.885  0.4084 -0.4865  0.3444
 7427SOL    HW133917   4.165   3.474   8.842 -0.6939 -1.4323  0.2029
 7427SOL    HW233918   4.187   3.425   8.974  0.9121  2.1726 -0.0300
 7428SOL     OW33919   0.575   3.410   7.874  0.3516 -0.4230  0.1994
 7428SOL    HW133920   0.545   3.481   7.817  0.9095 -2.2424 -2.3779
 7428SOL    HW233921   0.493   3.362   7.874 -1.1118  2.0764 -1.6838
 7429SOL     OW33922   4.314   0.840   6.695 -0.0849 -0.3274 -0.1324
 7429SOL    HW133923   4.388   0.832   6.756 -0.5582  1.2464  0.6390
 7429SOL    HW233924   4.243   0.880   6.746 -0.6003 -0.5450 -0.6846
 7430SOL     OW33925   0.607   1.581   5.756  0.2130 -0.2849  0.2454
 7430SOL    HW133926   0.670   1.648   5.729  1.8340 -1.6298  0.7326
 7430SOL    HW233927   0.537   1.631   5.798  1.7268  1.4801  0.6392
 7431SOL     OW33928   3.407   3.679   6.855  0.0333  0.0348 -0.4938
 7431SOL    HW133929   3.348   3.729   6.912  0.1316 -0.8818  0.4214
 7431SOL    HW233930   3.385   3.717   6.771 -1.0833 -0.7261 -0.5466
 7432SOL     OW33931   3.167   1.252   6.602 -0.1148  0.1234  0.3414
 7432SOL    HW133932   3.109   1.213   6.537 -0.0678  0.0369  0.3508
 7432SOL    HW233933   3.107   1.236   6.674 -0.7577  2.5514  0.3292
 7433SOL     OW33934   3.149   4.545   8.174 -0.0585 -0.4188  0.0601
 7433SOL    HW133935   3.170   4.638   8.176  0.9744 -0.5941 -2.6120
 7433SOL    HW233936   3.057   4.538   8.149  0.2735  0.9044 -1.4893
 7434SOL     OW33937   2.495   2.536   3.624 -1.1547  0.1482 -0.3345
 7434SOL    HW133938   2.554   2.470   3.587 -1.3598 -1.0309  1.4408
 7434SOL    HW233939   2.466   2.577   3.542 -3.0582 -2.1354 -0.8215
 7435SOL     OW33940   2.315   2.528   3.099  0.1106  0.1572 -0.1672
 7435SOL    HW133941   2.225   2.548   3.076 -0.2699 -0.7530  0.5313
 7435SOL    HW233942   2.354   2.562   3.017  3.4723 -1.4670  0.7459
 7436SOL     OW33943   1.869   3.393   7.085 -0.8993  0.4488 -0.0238
 7436SOL    HW133944   1.803   3.460   7.103  0.1058  1.1397  1.0325
 7436SOL    HW233945   1.812   3.320   7.059 -0.8753 -0.4994  2.5506
 7437SOL     OW33946   3.920   1.111   5.145  0.1861  0.3964 -0.0349
 7437SOL    HW133947   3.841   1.092   5.095  0.9045  1.7053 -1.6520
 7437SOL    HW233948   3.983   1.145   5.081  0.8433 -0.3933  0.1923
 7438SOL     OW33949   4.054   4.389   4.360  0.1929 -0.0461 -0.3266
 7438SOL    HW133950   4.011   4.323   4.415 -0.2405  0.7412  0.2842
 7438SOL    HW233951   3.991   4.460   4.353  1.5864  1.0068 -2.3380
 7439SOL     OW33952   2.884   2.772  15.092 -0.0239 -0.0691 -0.7710
 7439SOL    HW133953   2.831   2.850  15.082 -0.8429  0.0088  3.9478
 7439SOL    HW233954   2.915   2.756  15.003  0.5793  0.3824 -0.6381
 7440SOL     OW33955   2.190   0.270   6.741  0.4518 -0.3655  0.3037
 7440SOL    HW133956   2.096   0.250   6.746  0.5669 -0.6565  1.3650
 7440SOL    HW233957   2.198   0.250   6.648 -0.6638  2.9999 -0.5135
 7441SOL     OW33958   2.539   3.332   6.342 -0.0633  0.4500 -0.5389
 7441SOL    HW133959   2.618   3.363   6.296  1.4953 -0.7300  1.3669
 7441SOL    HW233960   2.581   3.303   6.423 -1.6681  1.3068  0.5824
 7442SOL     OW33961   4.152   1.000   7.560 -0.0672  0.2742  0.4182
 7442SOL    HW133962   4.079   0.939   7.549  0.6510 -0.7339  1.3663
 7442SOL    HW233963   4.169   1.022   7.468 -0.3014 -0.0339  0.3030
 7443SOL     OW33964   0.672   0.411  10.193  0.0815 -0.1948  0.0213
 7443SOL    HW133965   0.677   0.456  10.278 -0.2950 -1.6772  0.8250
 7443SOL    HW233966   0.579   0.389  10.191  0.6640 -2.6880 -0.2963
 7444SOL     OW33967   1.944   1.345  17.207 -0.2127  0.0230  0.0085
 7444SOL    HW133968   1.986   1.414  17.155  1.0833 -0.8260 -0.0712
 7444SOL    HW233969   2.019   1.296  17.242 -0.5268 -1.1422 -0.9679
 7445SOL     OW33970   2.537   2.623   1.378  0.2460  0.5220  0.1742
 7445SOL    HW133971   2.581   2.707   1.395  3.1426 -0.4918 -2.3438
 7445SOL    HW233972   2.449   2.637   1.411  1.0113  3.1604  1.0908
 7446SOL     OW33973   4.406   3.596  10.086  0.8955 -0.2327  0.1185
 7446SOL    HW133974   4.413   3.548  10.169  0.8272 -1.5734 -0.6470
 7446SOL    HW233975   4.377   3.534  10.019 -0.5813 -2.9600  3.2748
 7447SOL     OW33976   4.661   3.196   5.732  0.2403  0.0116  0.0753
 7447SOL    HW133977   4.661   3.114   5.781  2.6795 -0.0335  0.0001
 7447SOL    HW233978   4.626   3.259   5.796 -2.2509 -1.4301  0.1261
 7448SOL     OW33979   3.467   2.423   4.769 -0.7448  0.3628 -0.4510
 7448SOL    HW133980   3.432   2.511   4.756 -0.6906  0.4413 -0.0605
 7448SOL    HW233981   3.420   2.375   4.837  0.4542  0.1354  0.2288
 7449SOL     OW33982   1.783   0.744  15.486  0.1553 -0.0166 -0.0782
 7449SOL    HW133983   1.871   0.764  15.519 -0.6060  1.4427  1.0698
 7449SOL    HW233984   1.729   0.820  15.507  2.7929  1.0673  2.7823
 7450SOL     OW33985   0.810   2.860   3.572 -0.1585 -0.5377 -0.1521
 7450SOL    HW133986   0.846   2.949   3.578  1.2573 -0.9284 -2.7242
 7450SOL    HW233987   0.862   2.804   3.629  0.4766  0.0504 -0.1470
 7451SOL     OW33988   4.725   0.501   9.800 -0.0250 -0.2025 -0.2811
 7451SOL    HW133989   4.727   0.578   9.856  0.8025 -0.4655  0.0493
 7451SOL    HW233990   4.638   0.462   9.804  0.8553 -2.5936 -3.5736
 7452SOL     OW33991   3.048   1.601   5.343 -0.3422 -0.1616 -0.5246
 7452SOL    HW133992   3.010   1.689   5.347 -1.2364 -0.5549 -0.1448
 7452SOL    HW233993   3.046   1.583   5.249 -2.4029 -1.6589 -0.2252
 7453SOL     OW33994   2.402   1.761   5.494 -0.5971  0.3120  0.2961
 7453SOL    HW133995   2.351   1.816   5.435  1.4799  1.3507 -0.5369
 7453SOL    HW233996   2.480   1.755   5.439 -1.2484 -3.3728 -0.2337
 7454SOL     OW33997   1.255   0.747  15.884  0.0798  0.1858  0.2768
 7454SOL    HW133998   1.320   0.679  15.865 -0.3341  0.1481 -1.0318
 7454SOL    HW233999   1.299   0.820  15.840  0.8198 -0.8888 -0.7964
 7455SOL     OW34000   0.061   4.477  11.531 -0.2718 -0.5023  0.0299
 7455SOL    HW134001   0.147   4.505  11.500  0.1875 -2.3460 -0.3497
 7455SOL    HW234002   0.066   4.383  11.516  1.1073 -0.3087 -0.7559
 7456SOL     OW34003   2.604   0.794   8.192 -0.3501  0.0662 -0.1198
 7456SOL    HW134004   2.663   0.866   8.170  1.6960 -2.2061 -2.1187
 7456SOL    HW234005   2.663   0.720   8.176 -2.1044 -0.9835 -1.7782
 7457SOL     OW34006   2.454   0.285  16.676  0.6030  0.0334 -0.1589
 7457SOL    HW134007   2.408   0.203  16.693  0.5044 -0.2023 -1.5819
 7457SOL    HW234008   2.471   0.265  16.584 -0.9603 -0.3962 -0.3471
 7458SOL     OW34009   3.133   2.961  10.372  0.1912 -0.3487 -0.3505
 7458SOL    HW134010   3.158   2.892  10.312  0.9162  0.3506 -0.8569
 7458SOL    HW234011   3.140   3.045  10.326  0.4110 -0.6426 -0.8389
 7459SOL     OW34012   0.914   4.678   1.647  0.2711 -0.7672  0.7750
 7459SOL    HW134013   0.968   4.599   1.655  0.5935 -0.7557 -1.1436
 7459SOL    HW234014   0.858   4.667   1.723 -0.7002 -0.2755  0.1390
 7460SOL     OW34015   1.765   3.748  16.724  0.0469 -0.2289 -0.6647
 7460SOL    HW134016   1.683   3.706  16.697  0.9083 -0.5616 -2.7818
 7460SOL    HW234017   1.737   3.840  16.732  0.7430  0.2446 -3.5876
 7461SOL     OW34018   2.758   3.307  15.472  0.3935 -0.3135  0.0080
 7461SOL    HW134019   2.696   3.256  15.420 -1.9342 -0.5253  2.9739
 7461SOL    HW234020   2.846   3.277  15.450  0.4679  0.6892 -1.1052
 7462SOL     OW34021   0.558   3.865   4.884 -0.6995  0.2101  0.3935
 7462SOL    HW134022   0.615   3.936   4.915  0.5264 -1.1606  1.3023
 7462SOL    HW234023   0.517   3.908   4.809 -2.0427 -2.3482 -0.3597
 7463SOL     OW34024   2.401   2.542   3.357 -0.0069  0.1196 -0.4057
 7463SOL    HW134025   2.329   2.486   3.384  0.6772  0.4084  2.0099
 7463SOL    HW234026   2.381   2.549   3.263  1.1027 -0.1417 -0.6666
 7464SOL     OW34027   2.451   3.013   8.298  0.2451  0.3950 -0.1892
 7464SOL    HW134028   2.424   3.026   8.208  1.5514 -0.2066 -0.6655
 7464SOL    HW234029   2.541   2.986   8.284  0.6711  2.3788 -1.1191
 7465SOL     OW34030   0.117   2.533   1.775  0.1994  0.7071  0.2496
 7465SOL    HW134031   0.088   2.443   1.760 -0.3170  0.5042  2.4971
 7465SOL    HW234032   0.210   2.510   1.773  0.2039  0.4110  4.5192
 7466SOL     OW34033   0.332   2.282   8.272 -0.1215 -0.0312 -0.4073
 7466SOL    HW134034   0.303   2.342   8.203  2.6793  1.6625 -0.0839
 7466SOL    HW234035   0.278   2.316   8.344  0.1557 -0.5548  0.0471
 7467SOL     OW34036   1.073   0.239   5.097  0.2855 -0.4630 -0.5110
 7467SOL    HW134037   1.140   0.245   5.029 -0.0407  0.8429 -0.7170
 7467SOL    HW234038   1.094   0.321   5.141  0.4685  0.1614 -1.7559
 7468SOL     OW34039   0.605   3.997  10.107  0.0466 -0.0823 -0.2920
 7468SOL    HW134040   0.605   4.039  10.021  0.5022  0.3276 -0.0895
 7468SOL    HW234041   0.529   3.941  10.093  0.7114 -0.9549 -0.3837
 7469SOL     OW34042   3.198   0.140  15.444 -0.7289 -0.2965 -0.3594
 7469SOL    HW134043   3.141   0.192  15.500 -0.8948 -2.0644  1.1120
 7469SOL    HW234044   3.164   0.169  15.360  2.4566 -0.5143 -1.7444
 7470SOL     OW34045   1.483   0.507   8.964  0.0737 -0.1255 -0.3265
 7470SOL    HW134046   1.492   0.470   9.052 -0.5396 -0.9247 -0.5992
 7470SOL    HW234047   1.395   0.478   8.942 -0.4921 -0.3311  2.2003
 7471SOL     OW34048   0.204   2.625  13.645  0.4815 -0.2870  0.2840
 7471SOL    HW134049   0.128   2.683  13.640 -0.0726 -1.1017 -0.8818
 7471SOL    HW234050   0.183   2.571  13.569 -1.5026 -1.2853  1.5374
 7472SOL     OW34051   4.111   1.872   7.625  0.1746  0.0176 -0.0221
 7472SOL    HW134052   4.110   1.951   7.572 -3.5228  0.6574  1.0017
 7472SOL    HW234053   4.025   1.867   7.665  1.1412 -0.9258  1.9651
 7473SOL     OW34054   1.756   0.859  14.295 -0.1745  0.0213 -0.3639
 7473SOL    HW134055   1.700   0.802  14.348  1.2437  1.0784  2.2250
 7473SOL    HW234056   1.819   0.889  14.360 -0.5045  0.0698 -0.0632
 7474SOL     OW34057   4.062   0.727   9.587  0.0790  0.3233  0.4278
 7474SOL    HW134058   4.055   0.705   9.680 -0.3963  1.8058  0.7492
 7474SOL    HW234059   4.083   0.820   9.593 -2.8318  1.0301 -0.1556
 7475SOL     OW34060   0.274   2.956   5.072  0.4579 -0.3112  0.5130
 7475SOL    HW134061   0.293   2.862   5.081  1.8887 -0.0091  0.7009
 7475SOL    HW234062   0.203   2.970   5.135  0.0513 -1.7657  0.3709
 7476SOL     OW34063   4.001   4.270   1.319  0.5302 -0.2496  0.6586
 7476SOL    HW134064   3.999   4.349   1.374  3.1828 -0.4468  1.0422
 7476SOL    HW234065   4.072   4.295   1.260 -2.2888  0.5086 -2.3638
 7477SOL     OW34066   4.277   3.554   3.143  0.0652 -0.1148 -0.4882
 7477SOL    HW134067   4.304   3.526   3.056  2.0197 -0.3776  0.2028
 7477SOL    HW234068   4.270   3.649   3.130 -1.8579 -0.3300 -1.0444
 7478SOL     OW34069   1.082   1.428   4.420 -0.0664  0.3688 -0.5276
 7478SOL    HW134070   1.094   1.518   4.449  0.8055  0.3463 -0.8279
 7478SOL    HW234071   1.021   1.445   4.349 -0.4178 -0.0858 -0.3359
 7479SOL     OW34072   2.391   3.107   2.306 -0.3877  0.5262  0.7408
 7479SOL    HW134073   2.345   3.059   2.374  0.4894 -1.1630  0.1496
 7479SOL    HW234074   2.321   3.112   2.240  0.1582 -1.2187  0.0276
 7480SOL     OW34075   1.322   0.409   6.010  0.0385  0.3464  0.4188
 7480SOL    HW134076   1.288   0.319   6.000  1.5355  0.2334 -3.4815
 7480SOL    HW234077   1.367   0.411   6.094 -1.1621 -0.0277  1.0719
 7481SOL     OW34078   0.395   3.814   3.805 -0.1904  0.0481 -0.2544
 7481SOL    HW134079   0.445   3.833   3.884 -0.0313 -1.0076 -0.1042
 7481SOL    HW234080   0.393   3.719   3.815 -2.1197  0.0310 -0.8985
 7482SOL     OW34081   1.910   2.625  16.941  0.1873  0.0907  0.0723
 7482SOL    HW134082   1.853   2.672  17.001  1.5310  1.9395 -0.0710
 7482SOL    HW234083   1.995   2.665  16.962 -0.3455  0.8296  0.8229
 7483SOL     OW34084   1.790   2.592   5.442 -0.0066 -0.2557  0.1543
 7483SOL    HW134085   1.833   2.673   5.416  0.4468 -0.9856 -1.3571
 7483SOL    HW234086   1.843   2.566   5.517  0.7482  1.3257  0.1661
 7484SOL     OW34087   2.557   1.371   7.903 -0.0563 -0.4096 -0.0894
 7484SOL    HW134088   2.477   1.420   7.920 -0.2149 -0.0158 -1.9478
 7484SOL    HW234089   2.546   1.285   7.944 -0.2032 -1.3195 -2.0063
 7485SOL     OW34090   0.190   4.303   8.734  0.2701  0.1493 -1.0670
 7485SOL    HW134091   0.178   4.381   8.679  0.4026  1.6703  1.0269
 7485SOL    HW234092   0.153   4.334   8.817  0.6844 -0.4963 -0.6396
 7486SOL     OW34093   2.175   4.072   1.395 -0.3331 -0.2676  0.2112
 7486SOL    HW134094   2.212   4.003   1.451 -0.3006 -1.7483 -1.6269
 7486SOL    HW234095   2.201   4.031   1.312 -2.0684 -0.0554 -0.4347
 7487SOL     OW34096   0.680   0.551   4.727 -0.2482 -0.0777  0.2836
 7487SOL    HW134097   0.654   0.616   4.792 -1.2935 -0.0766 -0.1424
 7487SOL    HW234098   0.775   0.562   4.731 -0.2175 -0.2341 -0.0686
 7488SOL     OW34099   3.116   2.405   2.811 -0.2361 -0.5596 -0.6464
 7488SOL    HW134100   3.095   2.386   2.903 -0.2831 -0.1527 -0.5721
 7488SOL    HW234101   3.209   2.385   2.802  0.5484  2.3459  1.2583
 7489SOL     OW34102   2.407   3.065   9.552 -0.1992 -0.6935  0.1276
 7489SOL    HW134103   2.369   2.978   9.570 -0.3162 -1.0615 -1.9197
 7489SOL    HW234104   2.407   3.077   9.457  0.4827  0.3070  0.2630
 7490SOL     OW34105   0.993   2.173   8.395 -0.8056  0.0755  0.0412
 7490SOL    HW134106   1.012   2.170   8.301  1.9887 -0.7060  0.6629
 7490SOL    HW234107   0.926   2.105   8.402 -0.4017 -0.1096  2.0245
 7491SOL     OW34108   3.694   2.660  14.424 -0.0242  0.2779  0.0010
 7491SOL    HW134109   3.626   2.645  14.359  1.3731 -1.7874 -0.9987
 7491SOL    HW234110   3.755   2.720  14.381  1.3426 -1.6874 -0.8492
 7492SOL     OW34111   0.736   0.787  14.111 -0.3038 -0.2194 -0.2109
 7492SOL    HW134112   0.701   0.862  14.064 -2.3750 -2.1430 -1.7809
 7492SOL    HW234113   0.796   0.826  14.174  0.1736 -2.1229  0.5271
 7493SOL     OW34114   3.345   0.333   5.888 -0.5526 -0.1754 -0.3344
 7493SOL    HW134115   3.358   0.247   5.927  1.0159  0.3357  0.2843
 7493SOL    HW234116   3.400   0.379   5.951  0.9103  0.6469 -2.1908
 7494SOL     OW34117   4.162   0.121   4.341  0.2553 -0.0176  0.3070
 7494SOL    HW134118   4.169   0.071   4.422 -0.4599 -0.1713  0.2789
 7494SOL    HW234119   4.219   0.066   4.288  1.6667  1.7209 -0.0059
 7495SOL     OW34120   3.961   2.816   7.219  0.3973  0.2718  0.7618
 7495SOL    HW134121   3.866   2.808   7.226  0.4918 -1.7277 -0.0696
 7495SOL    HW234122   4.000   2.802   7.132 -1.1782 -0.3042  0.1474
 7496SOL     OW34123   2.329   4.187  15.379 -0.5299 -0.0834 -0.3292
 7496SOL    HW134124   2.354   4.164  15.289  1.5666 -2.4052  0.8454
 7496SOL    HW234125   2.400   4.244  15.406 -0.6248  0.4757 -1.2605
 7497SOL     OW34126   2.807   3.639   6.026  0.7903  0.3344  0.5318
 7497SOL    HW134127   2.767   3.643   5.939 -0.8770  1.3369  1.3510
 7497SOL    HW234128   2.897   3.662   6.003 -0.4562  2.7449 -1.8812
 7498SOL     OW34129   1.412   2.060   6.420  0.0630 -0.2419 -0.1069
 7498SOL    HW134130   1.442   2.133   6.474 -3.5451  0.5685  0.7910
 7498SOL    HW234131   1.425   1.986   6.479  2.8807  1.9667  1.9896
 7499SOL     OW34132   2.695   4.466   4.251  0.0021  0.1990  0.0104
 7499SOL    HW134133   2.617   4.499   4.296 -1.4129 -1.7507 -1.0227
 7499SOL    HW234134   2.678   4.492   4.161  0.6810 -0.0744 -0.1911
 7500SOL     OW34135   1.455   2.477   8.231  0.1062 -0.3422  0.2802
 7500SOL    HW134136   1.539   2.474   8.276 -0.9385  0.8630  2.3166
 7500SOL    HW234137   1.398   2.461   8.306 -0.5778  0.0462 -0.1548
 7501SOL     OW34138   2.167   1.866   1.171 -0.2838  0.4284 -0.1843
 7501SOL    HW134139   2.100   1.911   1.223  1.7810  0.7882  2.1480
 7501SOL    HW234140   2.212   1.824   1.244 -1.7912  0.0856  0.5514
 7502SOL     OW34141   3.687   0.116   2.282  0.4726  0.2871 -0.0937
 7502SOL    HW134142   3.782   0.122   2.268  0.4445  2.2662  0.5326
 7502SOL    HW234143   3.667   0.194   2.335 -1.6812  0.0196 -0.5059
 7503SOL     OW34144   0.368   4.601   1.187 -0.4346 -0.7476  0.3098
 7503SOL    HW134145   0.356   4.682   1.238 -0.7096 -0.2532 -0.5356
 7503SOL    HW234146   0.294   4.550   1.218 -0.9370  0.2438  0.7690
 7504SOL     OW34147   1.735   3.278   0.354  0.2368  0.4199 -0.2700
 7504SOL    HW134148   1.689   3.205   0.312  0.2526 -0.0917  0.6044
 7504SOL    HW234149   1.726   3.345   0.286 -1.2398  0.0563 -0.4344
 7505SOL     OW34150   1.391   0.214   7.502 -0.2387  0.1298 -0.0142
 7505SOL    HW134151   1.461   0.279   7.506  0.5330 -0.7706  1.0438
 7505SOL    HW234152   1.431   0.137   7.544  0.9019 -0.1984 -1.6831
 7506SOL     OW34153   0.165   3.158   5.354  0.0994 -0.1847 -0.1208
 7506SOL    HW134154   0.246   3.208   5.342  0.3825 -0.3191  1.2874
 7506SOL    HW234155   0.201   3.089   5.408  1.7028  1.5132  0.9931
 7507SOL     OW34156   2.536   4.714   0.949  0.5002  0.2093 -0.2135
 7507SOL    HW134157   2.466   0.038   0.928  0.4729  0.9752  2.1437
 7507SOL    HW234158   2.619   0.011   0.917  0.1669  2.2608  1.1464
 7508SOL     OW34159   4.703   1.176   5.597  0.0677 -0.0024 -0.3180
 7508SOL    HW134160   4.728   1.159   5.688  2.6413 -0.9796 -1.2042
 7508SOL    HW234161   4.607   1.171   5.592  0.1196  0.9914 -2.3971
 7509SOL     OW34162   0.566   3.776  16.045  0.0776 -0.6724 -0.1038
 7509SOL    HW134163   0.530   3.835  15.978  1.2027 -0.2732 -0.3486
 7509SOL    HW234164   0.504   3.812  16.108 -1.3846 -0.9133 -1.3860
 7510SOL     OW34165   3.690   0.280   8.757  0.2776 -0.1153 -0.2219
 7510SOL    HW134166   3.755   0.253   8.822  0.3652  1.3087  0.2726
 7510SOL    HW234167   3.639   0.344   8.806  0.5207  1.5847 -2.2404
 7511SOL     OW34168   1.035   1.756  15.345 -0.4190  0.1233 -0.0164
 7511SOL    HW134169   0.961   1.797  15.300 -0.0544 -0.2394 -0.9487
 7511SOL    HW234170   1.038   1.679  15.289  2.4802  0.3676 -0.1686
 7512SOL     OW34171   1.492   3.484   5.010 -0.3300  0.1272  0.2540
 7512SOL    HW134172   1.413   3.535   4.993  0.4038  1.2987  0.4060
 7512SOL    HW234173   1.466   3.450   5.096  3.7238 -2.2494  0.5289
 7513SOL     OW34174   4.261   4.696  11.611  0.0907  0.0667  0.0503
 7513SOL    HW134175   4.167   4.711  11.616  0.2385  1.0353 -0.1190
 7513SOL    HW234176   4.289   0.049  11.597  1.8116 -0.3097  0.9774
 7514SOL     OW34177   2.699   4.051   5.127  0.3988 -0.2699 -0.5178
 7514SOL    HW134178   2.690   4.014   5.039  0.3973 -0.5713 -0.3929
 7514SOL    HW234179   2.663   4.139   5.114 -0.4595 -0.4006  0.9130
 7515SOL     OW34180   2.657   2.237  11.220  0.7038 -0.4199 -0.3215
 7515SOL    HW134181   2.583   2.265  11.274  1.0087  0.3475 -0.3070
 7515SOL    HW234182   2.690   2.168  11.276  0.5078  0.1783  0.5215
 7516SOL     OW34183   2.465   0.357   6.489 -0.1090 -0.0195 -0.2315
 7516SOL    HW134184   2.378   0.320   6.501 -0.1993 -0.4759 -2.1819
 7516SOL    HW234185   2.507   0.288   6.437 -0.0213  1.5214 -2.2256
 7517SOL     OW34186   1.602   0.992   1.045 -0.0461  0.1596 -0.1704
 7517SOL    HW134187   1.658   1.001   1.122  2.3828  0.5319 -1.9914
 7517SOL    HW234188   1.517   0.971   1.084  0.2318 -0.4091  0.1279
 7518SOL     OW34189   3.548   2.691  16.296  0.0223  0.1374  0.0571
 7518SOL    HW134190   3.550   2.740  16.378 -2.4075  1.1558 -0.4853
 7518SOL    HW234191   3.627   2.719  16.250  0.4895 -1.7195 -0.3004
 7519SOL     OW34192   3.799   3.507   7.096 -0.0740  0.2451  0.1135
 7519SOL    HW134193   3.773   3.499   7.005 -0.9148  2.1563  0.1880
 7519SOL    HW234194   3.772   3.596   7.120 -0.0791  0.1378  0.5036
 7520SOL     OW34195   3.118   2.453  10.330 -0.0874  0.6118 -0.2168
 7520SOL    HW134196   3.080   2.401  10.401  3.2553  0.5259  1.4906
 7520SOL    HW234197   3.210   2.437  10.349 -0.9297 -2.2879  1.4922
 7521SOL     OW34198   3.661   3.563   6.871  0.1251  0.4289 -0.0950
 7521SOL    HW134199   3.716   3.625   6.823  2.3791  0.6838  2.8110
 7521SOL    HW234200   3.570   3.589   6.857 -0.5176 -1.1487  1.1681
 7522SOL     OW34201   0.751   3.265  14.839 -0.2986 -0.3440  0.5642
 7522SOL    HW134202   0.825   3.270  14.778  0.2790  2.5146  1.5123
 7522SOL    HW234203   0.687   3.256  14.768 -2.3630  1.0348  2.2311
 7523SOL     OW34204   1.518   1.383  11.922 -0.3224 -0.2402  0.1451
 7523SOL    HW134205   1.598   1.330  11.929  0.6848  1.2849  0.1271
 7523SOL    HW234206   1.481   1.363  12.008  2.8480 -0.6879  1.4125
 7524SOL     OW34207   0.457   1.186  13.414  0.0102 -0.4520 -0.2333
 7524SOL    HW134208   0.501   1.270  13.400 -1.2199  0.0785 -1.0068
 7524SOL    HW234209   0.526   1.137  13.458 -0.3131 -0.0525  0.6996
 7525SOL     OW34210   3.141   0.170   3.022 -0.0898  0.0039 -0.6361
 7525SOL    HW134211   3.178   0.212   3.099  0.4390 -1.5659 -0.0211
 7525SOL    HW234212   3.114   0.245   2.969  0.3625  0.2242 -0.5530
 7526SOL     OW34213   4.391   4.319   7.410 -0.5162 -0.8153 -0.1403
 7526SOL    HW134214   4.381   4.239   7.462  0.1022 -0.6586  0.2195
 7526SOL    HW234215   4.339   4.298   7.332  1.7050 -0.5727 -1.6848
 7527SOL     OW34216   1.657   0.662  12.483 -0.2163  0.0224 -0.6697
 7527SOL    HW134217   1.670   0.735  12.421 -0.9423 -0.0640 -0.9250
 7527SOL    HW234218   1.682   0.700  12.567  2.5125  2.0182 -2.3584
 7528SOL     OW34219   4.508   1.045   8.806  0.3857  0.5950  0.4879
 7528SOL    HW134220   4.493   1.033   8.712  1.6628  1.5654  0.1556
 7528SOL    HW234221   4.599   1.075   8.803  0.6615 -0.3654 -0.7422
 7529SOL     OW34222   1.425   1.871  10.272  1.0617  0.3182  0.2274
 7529SOL    HW134223   1.466   1.955  10.250  0.9532 -0.0664 -1.4570
 7529SOL    HW234224   1.377   1.897  10.350  2.1492  1.3409  0.5558
 7530SOL     OW34225   3.324   2.584   2.979  0.3269 -0.9472 -0.0023
 7530SOL    HW134226   3.324   2.491   3.002  0.7135 -0.7061  0.9811
 7530SOL    HW234227   3.388   2.599   2.909 -0.6795 -1.0537 -0.9326
 7531SOL     OW34228   0.401   0.423  10.573  0.0414  0.6757  0.6367
 7531SOL    HW134229   0.408   0.447  10.665  2.6683  0.1717  0.5926
 7531SOL    HW234230   0.405   0.509  10.530 -1.4172 -0.1386 -1.1327
 7532SOL     OW34231   1.173   2.482  17.436 -0.4426 -0.1787 -0.0544
 7532SOL    HW134232   1.160   2.539  17.512  0.2356 -0.6606  0.4209
 7532SOL    HW234233   1.263   2.504  17.411 -0.2986  1.9429  2.2857
 7533SOL     OW34234   1.955   3.740   8.179 -0.3146  0.1918 -0.3759
 7533SOL    HW134235   1.920   3.787   8.255 -1.9916 -2.3901  0.4413
 7533SOL    HW234236   1.905   3.658   8.186 -1.9044  1.2187  0.3635
 7534SOL     OW34237   0.240   2.543   6.097  0.5816 -0.3381 -0.4219
 7534SOL    HW134238   0.241   2.632   6.061  0.1546 -1.1787 -2.5307
 7534SOL    HW234239   0.188   2.555   6.176  1.7073 -0.7760  0.3835
 7535SOL     OW34240   4.581   0.631   5.602 -0.5774  0.1954  0.6644
 7535SOL    HW134241   4.531   0.619   5.683 -1.7857  0.6587 -0.0093
 7535SOL    HW234242   4.554   0.552   5.554  0.6803  0.5601 -0.6327
 7536SOL     OW34243   0.694   3.859   6.640 -0.1123 -0.2454 -0.0094
 7536SOL    HW134244   0.637   3.782   6.647 -0.0330 -0.3983 -1.0642
 7536SOL    HW234245   0.655   3.912   6.710 -1.3032 -1.5628  0.3278
 7537SOL     OW34246   4.690   1.629  16.568  0.1472 -0.4048  0.1683
 7537SOL    HW134247   4.667   1.646  16.659  0.3675  2.2767 -0.2694
 7537SOL    HW234248   0.048   1.631  16.571  0.2764  0.2954 -4.0274
 7538SOL     OW34249   0.039   0.630  12.455 -0.0784  0.1569 -0.3311
 7538SOL    HW134250   0.105   0.560  12.449 -2.3503 -2.0182  0.2894
 7538SOL    HW234251   0.053   0.659  12.544 -1.7297 -0.2876  0.0711
 7539SOL     OW34252   4.502   3.280   7.233 -0.5199  0.3735  0.8815
 7539SOL    HW134253   4.444   3.223   7.182  0.1361 -0.4722  1.1020
 7539SOL    HW234254   4.588   3.261   7.197 -2.7126 -0.5191 -3.9349
 7540SOL     OW34255   0.275   3.472  10.224 -0.4533  0.3164  0.5040
 7540SOL    HW134256   0.348   3.477  10.286 -0.1616  1.3702  0.0896
 7540SOL    HW234257   0.313   3.511  10.145 -0.0111  0.1583  0.6374
 7541SOL     OW34258   0.511   3.270   4.769  0.3074 -0.1704  0.3479
 7541SOL    HW134259   0.550   3.322   4.839  1.4067  0.7161 -0.9291
 7541SOL    HW234260   0.490   3.186   4.811 -0.8080  0.3729  0.8632
 7542SOL     OW34261   0.248   0.164   7.411  0.5173  0.3505  0.2726
 7542SOL    HW134262   0.279   0.249   7.380  0.9141 -0.2851 -1.0651
 7542SOL    HW234263   0.226   0.194   7.499  0.2197 -2.2387  1.0866
 7543SOL     OW34264   2.357   1.546   9.874 -0.2105 -0.0155  0.8935
 7543SOL    HW134265   2.413   1.623   9.884  0.6174 -0.5735  0.4610
 7543SOL    HW234266   2.416   1.473   9.854  0.1683  1.1409 -2.1700
 7544SOL     OW34267   2.623   4.339   6.033 -0.0362 -0.2191  0.3975
 7544SOL    HW134268   2.534   4.372   6.018  0.1868 -0.3738 -1.1785
 7544SOL    HW234269   2.607   4.278   6.105 -2.1956 -0.7971 -0.5711
 7545SOL     OW34270   4.510   2.626   5.800  0.6005 -0.3750 -0.2900
 7545SOL    HW134271   4.457   2.571   5.859 -1.3333  0.8291 -0.8987
 7545SOL    HW234272   4.550   2.567   5.736  1.2724 -0.8319  0.5488
 7546SOL     OW34273   1.426   0.651   5.860 -0.5100  0.0853  0.1187
 7546SOL    HW134274   1.403   0.578   5.918  2.0843  0.9594  2.2548
 7546SOL    HW234275   1.408   0.614   5.774 -0.8421  0.2790  0.1078
 7547SOL     OW34276   3.390   4.125   6.263  0.1205 -0.3278  0.8464
 7547SOL    HW134277   3.405   4.099   6.172  1.5137  1.5803  0.5204
 7547SOL    HW234278   3.297   4.109   6.278  0.3414 -0.2042  2.3638
 7548SOL     OW34279   4.434   1.189   5.607 -0.5754 -0.2245  0.2428
 7548SOL    HW134280   4.366   1.222   5.666 -0.8675 -0.2663 -0.0748
 7548SOL    HW234281   4.382   1.128   5.556  0.2075 -0.9418  0.2993
 7549SOL     OW34282   2.044   1.421  16.803  0.0137  0.2529 -0.2529
 7549SOL    HW134283   2.030   1.479  16.878  2.9050  1.0908 -0.3344
 7549SOL    HW234284   1.968   1.365  16.790 -0.6205  0.4202  2.9141
 7550SOL     OW34285   4.250   1.086   4.154  0.0107  0.3459 -0.1182
 7550SOL    HW134286   4.287   1.102   4.241  0.4850  0.8994 -0.4201
 7550SOL    HW234287   4.265   0.991   4.150  0.6073  0.4738 -0.9645
 7551SOL     OW34288   4.578   1.091   2.355  0.3898 -0.2570  0.2104
 7551SOL    HW134289   4.626   1.025   2.304 -1.2587  0.4083 -2.2320
 7551SOL    HW234290   4.585   1.057   2.444 -0.6208  2.7267  1.4377
 7552SOL     OW34291   2.680   4.665   7.510  0.2420 -0.3195 -0.5476
 7552SOL    HW134292   2.675   4.583   7.462  0.9777  1.2967 -3.3682
 7552SOL    HW234293   2.664   4.731   7.443  0.1673  0.2315  0.0085
 7553SOL     OW34294   1.424   1.645  16.229  0.0115 -0.8266 -0.1642
 7553SOL    HW134295   1.401   1.552  16.218 -1.2043 -0.5702  0.2732
 7553SOL    HW234296   1.391   1.691  16.151  0.4155 -0.2839 -0.0124
 7554SOL     OW34297   2.151   1.876  13.778 -0.2455  0.1948 -0.2630
 7554SOL    HW134298   2.235   1.882  13.823 -1.4744 -0.1587  2.0407
 7554SOL    HW234299   2.143   1.965  13.744 -0.5050  0.6636  1.0528
 7555SOL     OW34300   3.895   3.875  13.504 -0.8432  0.4765  0.9238
 7555SOL    HW134301   3.973   3.894  13.556 -0.4464 -2.3849  1.3899
 7555SOL    HW234302   3.851   3.960  13.509 -1.7004  0.0455  0.8170
 7556SOL     OW34303   4.721   3.919   1.269  0.2403 -0.2634 -0.3149
 7556SOL    HW134304   4.721   3.913   1.364 -1.9546 -0.1534 -0.3079
 7556SOL    HW234305   0.042   3.994   1.268 -2.2243  1.6358 -1.2177
 7557SOL     OW34306   4.339   3.381   5.729 -0.0697  0.4108 -0.3119
 7557SOL    HW134307   4.397   3.405   5.657 -1.9158  0.7317 -1.6971
 7557SOL    HW234308   4.256   3.421   5.702  0.6020  1.4103 -0.9022
 7558SOL     OW34309   3.259   0.654   8.499  0.3464 -0.1527 -0.4092
 7558SOL    HW134310   3.290   0.574   8.541 -1.2542 -0.6987 -0.2396
 7558SOL    HW234311   3.328   0.668   8.436  2.7724 -0.8334  2.0935
 7559SOL     OW34312   0.484   1.834   5.413  0.7953 -0.9313  0.0749
 7559SOL    HW134313   0.437   1.761   5.453 -0.2164 -0.0019  0.5829
 7559SOL    HW234314   0.423   1.859   5.343  0.1843 -0.5805  0.7319
 7560SOL     OW34315   1.041   2.396  15.996 -0.1495  0.2090 -0.0750
 7560SOL    HW134316   1.010   2.306  15.998 -1.3790  0.6587  1.4338
 7560SOL    HW234317   1.040   2.411  15.901 -2.0832 -0.9495 -0.2323
 7561SOL     OW34318   4.099   2.068   1.895  0.4492  0.1178  0.5564
 7561SOL    HW134319   4.130   2.004   1.959  0.0309  0.9181  1.5660
 7561SOL    HW234320   4.102   2.148   1.947 -0.9127  0.2066  0.5044
 7562SOL     OW34321   0.583   4.218   2.174  0.2787  0.0071  0.2313
 7562SOL    HW134322   0.645   4.188   2.241 -1.1290 -0.9607  1.1067
 7562SOL    HW234323   0.508   4.163   2.199 -0.9396  2.5742  2.2521
 7563SOL     OW34324   0.500   0.562   5.137  0.5143 -0.3514  0.0446
 7563SOL    HW134325   0.444   0.625   5.183  0.5355  0.1100 -0.5594
 7563SOL    HW234326   0.583   0.566   5.186  1.0430  2.1101 -1.0622
 7564SOL     OW34327   1.486   1.113  17.708 -0.0212  0.8076  0.3759
 7564SOL    HW134328   1.487   1.157   0.044  1.8768  1.8840 -0.2148
 7564SOL    HW234329   1.516   1.178  17.645  2.8450  0.0663  0.9817
 7565SOL     OW34330   2.893   0.587   9.210 -0.0618 -0.7830  0.0285
 7565SOL    HW134331   2.845   0.668   9.229  1.1946  0.0565 -0.3842
 7565SOL    HW234332   2.974   0.623   9.174 -0.4415  0.1885  0.1300
 7566SOL     OW34333   4.347   1.332   6.852  0.1626  0.3467 -0.5513
 7566SOL    HW134334   4.291   1.259   6.824 -0.3892  0.2048  0.9035
 7566SOL    HW234335   4.277   1.380   6.896 -0.3207 -1.1341  0.2890
 7567SOL     OW34336   1.984   1.079   3.400  0.0240  0.4433  0.2246
 7567SOL    HW134337   1.926   1.007   3.426  0.3756  0.3657  0.8094
 7567SOL    HW234338   2.049   1.017   3.368 -1.5049  0.1408 -2.3148
 7568SOL     OW34339   3.999   2.000   9.576  1.1754 -0.2489 -1.2937
 7568SOL    HW134340   4.067   1.940   9.545 -0.5988 -2.2675 -1.2471
 7568SOL    HW234341   4.049   2.082   9.582  0.4539  0.1620 -0.7972
 7569SOL     OW34342   0.710   2.283  10.844 -0.5188 -0.4819  0.1331
 7569SOL    HW134343   0.802   2.308  10.836 -1.3170  2.0198 -1.3525
 7569SOL    HW234344   0.691   2.345  10.915  0.2815 -0.9585  0.7698
 7570SOL     OW34345   1.778   4.121  15.614 -0.0688  0.1507  0.0012
 7570SOL    HW134346   1.714   4.159  15.674  0.5739  3.2178 -1.2433
 7570SOL    HW234347   1.861   4.167  15.624 -0.9841  1.4327  1.6989
 7571SOL     OW34348   3.115   3.916   5.370  0.0336 -0.4613 -0.1716
 7571SOL    HW134349   3.174   3.894   5.299 -0.9003  0.8014 -1.3345
 7571SOL    HW234350   3.065   3.984   5.326  0.7981  0.7817  0.8815
 7572SOL     OW34351   1.390   1.152   3.731  0.5073  0.1747 -0.1342
 7572SOL    HW134352   1.390   1.212   3.806 -1.4747 -0.7675  0.6126
 7572SOL    HW234353   1.477   1.171   3.695  0.8127 -0.3327  0.3379
 7573SOL     OW34354   3.185   0.623  14.690 -0.2045 -0.1634  0.1596
 7573SOL    HW134355   3.128   0.551  14.718 -1.6885  1.5579  1.5460
 7573SOL    HW234356   3.163   0.693  14.752 -1.2598  0.1922 -0.6024
 7574SOL     OW34357   2.150   4.300   2.216  0.2292  0.0349  0.6104
 7574SOL    HW134358   2.219   4.367   2.220  0.8887 -0.5626 -0.7858
 7574SOL    HW234359   2.064   4.341   2.209  0.9181  1.3284 -0.2494
 7575SOL     OW34360   3.667   1.508   2.472 -0.1956 -0.6569 -0.4636
 7575SOL    HW134361   3.622   1.529   2.391  0.8437  0.4771 -0.7494
 7575SOL    HW234362   3.750   1.474   2.438  0.1402 -0.9940  0.6801
 7576SOL     OW34363   1.458   0.611   6.245 -0.0801 -0.1615  1.0751
 7576SOL    HW134364   1.498   0.541   6.297 -1.5956 -0.7958  1.3988
 7576SOL    HW234365   1.369   0.615   6.282 -0.8325 -2.7849 -0.4447
 7577SOL     OW34366   2.984   3.201  15.922 -0.2991  0.3012  0.8033
 7577SOL    HW134367   2.934   3.266  15.873  2.4088  0.2081 -2.0780
 7577SOL    HW234368   3.052   3.179  15.859  0.1235 -0.9112  1.6753
 7578SOL     OW34369   0.920   2.725   4.260 -0.3683 -0.5927 -0.0037
 7578SOL    HW134370   0.909   2.732   4.165 -0.0225 -0.5036 -0.0347
 7578SOL    HW234371   0.839   2.678   4.282 -0.0706 -0.8522  0.5375
 7579SOL     OW34372   2.479   1.220  17.025 -0.1651 -0.7617  0.1791
 7579SOL    HW134373   2.536   1.252  16.955  1.5556 -1.1247  1.4158
 7579SOL    HW234374   2.393   1.226  16.983 -1.3816 -1.1423  2.5617
 7580SOL     OW34375   2.938   4.190   0.229 -0.5624 -0.4375  0.0792
 7580SOL    HW134376   2.887   4.196   0.149  0.9492 -3.6604 -1.1518
 7580SOL    HW234377   2.871   4.226   0.288 -0.8945 -1.8135  0.5523
 7581SOL     OW34378   0.854   1.728   5.740 -0.0970  0.3986  0.2316
 7581SOL    HW134379   0.869   1.818   5.771  2.5166  0.2314 -0.5134
 7581SOL    HW234380   0.905   1.678   5.804  0.6006  0.0949 -0.5706
 7582SOL     OW34381   3.911   3.813   2.351 -0.4522  0.2054  0.5626
 7582SOL    HW134382   3.834   3.773   2.392  0.0905 -1.5262 -0.1343
 7582SOL    HW234383   3.945   3.862   2.426 -0.8190  1.0005  0.2184
 7583SOL     OW34384   2.446   1.810  12.810 -0.0492  0.5584  0.4371
 7583SOL    HW134385   2.423   1.852  12.893  0.0586  0.7688  0.3604
 7583SOL    HW234386   2.467   1.888  12.759 -0.0291  0.5289  0.3998
 7584SOL     OW34387   0.531   4.684   8.058 -0.2114 -0.0499  0.2580
 7584SOL    HW134388   0.623   4.709   8.056 -0.0305 -0.8774 -1.2641
 7584SOL    HW234389   0.539   4.614   7.993  0.6348 -1.7692  2.2403
 7585SOL     OW34390   1.149   0.696   4.415  0.4867 -0.1572 -0.2826
 7585SOL    HW134391   1.132   0.787   4.437 -3.0825 -0.6091 -1.1172
 7585SOL    HW234392   1.241   0.698   4.441  0.3867  0.3089  0.0236
 7586SOL     OW34393   4.364   3.063   6.814  0.1232 -0.3514  0.1479
 7586SOL    HW134394   4.441   3.024   6.773 -0.4222  1.0572 -2.1988
 7586SOL    HW234395   4.294   3.047   6.752 -0.0614 -0.1013  0.2906
 7587SOL     OW34396   1.013   0.864  11.044 -0.3684 -0.1613  0.3139
 7587SOL    HW134397   0.977   0.924  11.109 -0.4557 -0.2687  0.3635
 7587SOL    HW234398   1.099   0.846  11.084  0.1155  1.3248 -0.0616
 7588SOL     OW34399   3.235   0.298   3.730  0.5170  0.0193  0.2412
 7588SOL    HW134400   3.275   0.360   3.791 -0.7144 -0.9227  2.0102
 7588SOL    HW234401   3.211   0.350   3.653  0.3937 -0.7392 -0.2430
 7589SOL     OW34402   2.704   2.683   5.840 -0.0972 -0.6796  0.5683
 7589SOL    HW134403   2.765   2.675   5.766  0.0084 -0.5188  0.6384
 7589SOL    HW234404   2.765   2.669   5.913  0.3786 -1.2020  0.0695
 7590SOL     OW34405   0.309   0.043  14.303  0.1338  0.2794  0.1245
 7590SOL    HW134406   0.255   0.043  14.224  0.8991  1.0431 -0.4071
 7590SOL    HW234407   0.297   4.692  14.336 -0.4934  0.7426  1.1245
 7591SOL     OW34408   2.375   2.212   5.382 -0.1710  0.1312  0.1119
 7591SOL    HW134409   2.288   2.222   5.419 -0.7711 -0.6294 -1.1012
 7591SOL    HW234410   2.422   2.273   5.439 -0.1478  1.5868 -1.4767
 7592SOL     OW34411   3.886   0.791  16.642  0.1460 -0.0284  0.0117
 7592SOL    HW134412   3.933   0.734  16.580  1.6328  0.5698  0.6067
 7592SOL    HW234413   3.894   0.746  16.726 -1.7295  0.2006  0.3065
 7593SOL     OW34414   2.307   0.497  11.593 -0.0793  0.1877  0.0868
 7593SOL    HW134415   2.318   0.571  11.653 -0.3629 -0.7469  1.3038
 7593SOL    HW234416   2.271   0.552  11.524  1.6859 -0.3180 -1.2311
 7594SOL     OW34417   0.036   1.280   2.254 -0.0219 -0.0522  0.2048
 7594SOL    HW134418   0.013   1.366   2.289  2.8773  0.8624 -0.1268
 7594SOL    HW234419   4.697   1.223   2.263 -0.9106  0.7145 -2.4794
 7595SOL     OW34420   2.945   0.420   6.254 -0.1516 -0.3956 -0.1127
 7595SOL    HW134421   2.875   0.398   6.315 -1.3392  0.4732 -1.1903
 7595SOL    HW234422   2.945   0.343   6.197  1.4110 -0.2555 -0.3041
 7596SOL     OW34423   0.537   2.789   6.078 -0.1493  0.1600  0.4499
 7596SOL    HW134424   0.547   2.695   6.062  1.3535  0.1628  1.3879
 7596SOL    HW234425   0.580   2.802   6.163  0.9699 -0.6809  0.0221
 7597SOL     OW34426   2.107   1.216   7.338 -0.3102 -0.4467  0.0237
 7597SOL    HW134427   2.093   1.276   7.265 -1.9353  1.8924  2.2354
 7597SOL    HW234428   2.051   1.143   7.311  0.3584 -0.0873 -2.3723
 7598SOL     OW34429   4.527   0.744   9.712 -0.8458  0.0967 -0.3672
 7598SOL    HW134430   4.481   0.749   9.795  0.9542 -0.8830  0.6792
 7598SOL    HW234431   4.611   0.778   9.743 -1.0933  0.9089 -0.5820
 7599SOL     OW34432   0.746   2.710   2.879 -0.0568 -0.5907 -0.0239
 7599SOL    HW134433   0.696   2.779   2.836  0.0562 -0.9503 -0.7234
 7599SOL    HW234434   0.809   2.771   2.918  0.1096  0.8695 -2.5399
 7600SOL     OW34435   1.892   2.841  13.457  0.1052 -0.1197  0.0242
 7600SOL    HW134436   1.922   2.929  13.431 -0.0545  0.2753  1.1773
 7600SOL    HW234437   1.936   2.844  13.542 -1.1531  2.4854  0.6056
 7601SOL     OW34438   3.546   0.804   2.645 -0.0054 -0.2565 -0.1579
 7601SOL    HW134439   3.554   0.727   2.589  1.0584  0.4024 -0.9073
 7601SOL    HW234440   3.461   0.784   2.686 -0.2989 -0.7166 -0.9913
 7602SOL     OW34441   4.732   1.295   7.228 -0.2119  0.7061 -0.4965
 7602SOL    HW134442   4.661   1.337   7.276 -0.6844  0.9739 -1.4474
 7602SOL    HW234443   0.071   1.347   7.252 -0.4963  0.1386  1.6264
 7603SOL     OW34444   2.148   4.602   7.741 -0.1223  0.6187  0.7131
 7603SOL    HW134445   2.118   4.602   7.832 -1.4731 -1.4089  0.2559
 7603SOL    HW234446   2.094   4.536   7.697 -1.6124  0.9306  2.0766
 7604SOL     OW34447   4.441   3.170   5.173  0.0701  0.4066  0.0066
 7604SOL    HW134448   4.418   3.181   5.265  1.0761  1.0214  0.1862
 7604SOL    HW234449   4.535   3.159   5.190  0.3381  1.4075 -0.8559
 7605SOL     OW34450   4.614   0.381  12.782  0.0552 -0.2349  0.0199
 7605SOL    HW134451   4.538   0.336  12.818  0.3557 -0.6070  0.1844
 7605SOL    HW234452   4.617   0.353  12.691 -0.7947 -1.0784  0.2573
 7606SOL     OW34453   2.605   0.388   6.162 -0.0779  0.9892 -0.1815
 7606SOL    HW134454   2.625   0.347   6.078  0.0119 -2.0673  1.3159
 7606SOL    HW234455   2.592   0.317   6.225  0.1644 -0.3802 -1.6693
 7607SOL     OW34456   3.116   2.255  16.272  0.1646 -0.2257 -0.2654
 7607SOL    HW134457   3.172   2.196  16.321 -0.5776 -1.3501 -0.7897
 7607SOL    HW234458   3.065   2.203  16.210 -1.7575  0.5198  0.7130
 7608SOL     OW34459   2.417   4.319   8.750  0.3974  0.6311  0.4123
 7608SOL    HW134460   2.378   4.399   8.715  0.1796  0.9575  1.3889
 7608SOL    HW234461   2.476   4.345   8.821  1.2414  0.6309 -0.2905
 7609SOL     OW34462   4.610   3.725   7.169 -0.8223  0.8452 -0.1160
 7609SOL    HW134463   4.527   3.679   7.183 -0.6278  0.5695  0.1335
 7609SOL    HW234464   4.640   3.732   7.259  0.2773 -1.4616 -0.2900
 7610SOL     OW34465   3.915   4.015  16.598  0.0822  0.0369  0.1291
 7610SOL    HW134466   3.866   4.054  16.670  1.8246  1.9322  0.2889
 7610SOL    HW234467   3.932   4.091  16.542  0.6269 -0.3326 -0.2135
 7611SOL     OW34468   4.686   3.987   9.235  0.5905 -0.1043 -0.0361
 7611SOL    HW134469   4.610   3.969   9.290  0.2721  1.7719  0.1253
 7611SOL    HW234470   0.022   3.992   9.296  1.0609 -3.1041 -0.3525
 7612SOL     OW34471   3.988   0.486   6.229 -0.5783 -0.7261  0.5459
 7612SOL    HW134472   4.010   0.546   6.158 -3.8537 -0.4781 -0.2286
 7612SOL    HW234473   3.924   0.427   6.191 -2.0223  2.0258 -1.2182
 7613SOL     OW34474   0.531   2.156   5.868 -0.2983  0.3981 -0.6887
 7613SOL    HW134475   0.569   2.073   5.896  1.0655  0.3133 -2.7989
 7613SOL    HW234476   0.516   2.196   5.954 -0.0223  0.1496 -0.5260
 7614SOL     OW34477   0.927   3.061   5.286  0.1051 -0.1963 -0.9792
 7614SOL    HW134478   0.941   2.990   5.349 -0.4896 -2.5821 -3.5266
 7614SOL    HW234479   0.938   3.001   5.212 -0.4413 -2.1947  0.5471
 7615SOL     OW34480   2.834   3.971  13.888  0.2657  0.1115  0.0738
 7615SOL    HW134481   2.869   3.886  13.863  1.0124  0.4874 -0.1591
 7615SOL    HW234482   2.740   3.952  13.888  0.2885 -0.0026  0.0906
 7616SOL     OW34483   4.488   3.780   5.120  0.2915 -0.0968  0.2060
 7616SOL    HW134484   4.435   3.775   5.199  1.1058 -2.3614  0.6087
 7616SOL    HW234485   4.424   3.818   5.060 -0.6296 -3.9992 -1.3345
 7617SOL     OW34486   0.117   2.417   8.175  0.1247 -0.1947 -0.4209
 7617SOL    HW134487   0.031   2.449   8.201 -0.9180 -1.6842 -2.0176
 7617SOL    HW234488   0.093   2.342   8.121 -0.7950 -0.4356  0.3253
 7618SOL     OW34489   4.247   1.077   4.559 -0.2511 -0.0604 -0.0308
 7618SOL    HW134490   4.202   1.020   4.497 -2.7268  2.3429 -0.4013
 7618SOL    HW234491   4.293   1.013   4.614 -0.1289 -0.7121 -0.8814
 7619SOL     OW34492   3.276   0.686   5.341 -0.0656 -0.2708 -0.3602
 7619SOL    HW134493   3.287   0.771   5.383  2.8627 -1.7188  1.8088
 7619SOL    HW234494   3.182   0.690   5.326  0.1878  1.0149 -1.6779
 7620SOL     OW34495   1.722   2.888   3.554 -0.1827 -0.1123  0.2799
 7620SOL    HW134496   1.766   2.804   3.567 -1.3038 -0.5011  1.4663
 7620SOL    HW234497   1.633   2.866   3.580  0.6162 -1.6691  1.6810
 7621SOL     OW34498   0.073   2.210   7.131  0.3161  0.1029  0.1530
 7621SOL    HW134499   0.128   2.141   7.093  2.1595 -0.1062  3.2280
 7621SOL    HW234500   0.075   2.181   7.222 -1.3142 -1.6667 -0.3751
 7622SOL     OW34501   1.429   1.492   9.042 -0.3921 -0.0054 -0.2115
 7622SOL    HW134502   1.398   1.403   9.021 -0.0037  0.1065 -1.2544
 7622SOL    HW234503   1.367   1.534   8.982 -0.0219 -1.0069 -1.3030
 7623SOL     OW34504   1.849   0.703   4.667 -0.2367  0.5194 -0.1546
 7623SOL    HW134505   1.894   0.655   4.737 -0.5278  0.3633 -0.0752
 7623SOL    HW234506   1.766   0.731   4.704  1.0008  2.9119  0.7560
 7624SOL     OW34507   1.176   4.292   9.573  0.1099  0.0273  0.1936
 7624SOL    HW134508   1.202   4.216   9.625  2.4475  0.6414 -0.1100
 7624SOL    HW234509   1.172   4.251   9.487  4.3811 -0.2474  0.1279
 7625SOL     OW34510   0.173   2.918   8.273  0.6645 -0.0545 -0.4467
 7625SOL    HW134511   0.232   2.927   8.348  0.4032  0.0817 -0.2587
 7625SOL    HW234512   0.227   2.946   8.199 -0.3584  2.6261 -0.1846
 7626SOL     OW34513   4.732   4.183   3.542 -0.3907 -0.0577 -0.3240
 7626SOL    HW134514   0.079   4.228   3.543  0.7462 -2.1941 -0.7405
 7626SOL    HW234515   4.685   4.263   3.563 -0.8836 -0.3509 -0.3165
 7627SOL     OW34516   2.878   1.169   9.691  0.0693  0.0693  0.0208
 7627SOL    HW134517   2.886   1.115   9.770 -1.5820 -1.4821 -0.8811
 7627SOL    HW234518   2.930   1.244   9.720  1.4488 -0.6410 -0.5798
 7628SOL     OW34519   4.679   1.692  14.001  0.0275 -0.7834 -0.2055
 7628SOL    HW134520   4.695   1.785  14.020  2.1734 -0.7610 -2.1889
 7628SOL    HW234521   0.003   1.670  13.931  0.3236 -1.5687  0.3003
 7629SOL     OW34522   0.623   1.228  11.323  0.4338 -0.1406  0.3823
 7629SOL    HW134523   0.694   1.192  11.377  1.1655 -0.9337 -1.1020
 7629SOL    HW234524   0.659   1.315  11.300  2.5661 -1.9797 -3.3805
 7630SOL     OW34525   3.941   2.192   5.669 -0.2694 -0.5856  0.5634
 7630SOL    HW134526   3.988   2.117   5.631 -0.2711 -0.3905  0.1735
 7630SOL    HW234527   4.010   2.236   5.718  0.2803 -0.8592  0.0290
 7631SOL     OW34528   3.783   1.820   9.010  0.1696  0.1271  0.1831
 7631SOL    HW134529   3.810   1.851   8.924  2.2971 -1.5202  0.2685
 7631SOL    HW234530   3.820   1.885   9.069 -1.6166  1.7093 -0.4411
 7632SOL     OW34531   2.881   2.043   6.685  0.3308 -0.0122 -0.3488
 7632SOL    HW134532   2.877   2.136   6.707 -0.0328  0.3903 -2.1071
 7632SOL    HW234533   2.970   2.036   6.651  0.1510  0.3403 -0.8921
 7633SOL     OW34534   3.972   4.295   3.932  0.1873  0.2882 -0.1786
 7633SOL    HW134535   3.928   4.283   4.016 -0.1310  0.2310 -0.3545
 7633SOL    HW234536   4.035   4.223   3.930 -0.2241 -0.1245  1.5163
 7634SOL     OW34537   0.562   4.654   4.854 -0.6300 -0.1404 -0.1109
 7634SOL    HW134538   0.610   4.617   4.928  1.1180  1.9649 -0.2043
 7634SOL    HW234539   0.629   4.648   4.787 -1.1187 -0.4644 -0.5725
 7635SOL     OW34540   2.340   1.990  13.935  0.9759 -0.5677 -0.1425
 7635SOL    HW134541   2.323   1.995  14.029  2.4577 -1.2822  0.1579
 7635SOL    HW234542   2.414   1.929  13.943 -0.1166 -1.6945  1.2542
 7636SOL     OW34543   1.065   2.222   6.382  0.6931  0.0528  0.0330
 7636SOL    HW134544   1.086   2.211   6.475  0.9254 -2.5244 -0.3377
 7636SOL    HW234545   0.986   2.276   6.387  0.8320  0.1962  0.7471
 7637SOL     OW34546   1.785   0.193  15.079  0.2326 -0.2436 -0.5015
 7637SOL    HW134547   1.808   0.130  15.147  2.2606  0.7388 -0.2622
 7637SOL    HW234548   1.836   0.267  15.111  0.6002 -1.5489  1.9643
 7638SOL     OW34549   1.566   0.310   0.360  0.5269 -0.3430 -0.2029
 7638SOL    HW134550   1.608   0.327   0.445 -0.9887  1.1674  0.2387
 7638SOL    HW234551   1.532   0.395   0.333 -2.3941 -1.0425  1.1582
 7639SOL     OW34552   0.733   2.843  12.721 -0.3930  0.1622  0.3837
 7639SOL    HW134553   0.788   2.780  12.675  1.3829  1.3632  0.8634
 7639SOL    HW234554   0.659   2.862  12.663 -1.7431 -2.6811  1.1528
 7640SOL     OW34555   2.889   0.938   5.802 -0.2988  0.3144 -0.0047
 7640SOL    HW134556   2.876   0.927   5.896 -2.3025  0.8476 -0.2217
 7640SOL    HW234557   2.834   0.867   5.766 -0.5607  0.8545 -0.6808
 7641SOL     OW34558   1.678   3.183   6.594  0.0635 -0.0744 -0.3015
 7641SOL    HW134559   1.743   3.154   6.659 -0.4051 -1.5580 -0.4931
 7641SOL    HW234560   1.621   3.232   6.652  0.6232 -0.2599  0.4091
 7642SOL     OW34561   4.561   2.710   0.595  0.1695 -0.2593 -0.2741
 7642SOL    HW134562   4.656   2.711   0.592  0.1244  0.8903 -1.0428
 7642SOL    HW234563   4.535   2.677   0.509 -2.3035  0.1977  0.2941
 7643SOL     OW34564   0.597   0.552  11.133 -0.2687  0.8557  0.2036
 7643SOL    HW134565   0.562   0.595  11.055 -2.0036  1.6716  1.4347
 7643SOL    HW234566   0.534   0.593  11.192 -0.0168  0.9416  0.4170
 7644SOL     OW34567   0.586   4.395  10.427 -0.6850 -0.3198  0.9425
 7644SOL    HW134568   0.627   4.313  10.402 -0.3311 -0.1780  1.0526
 7644SOL    HW234569   0.621   4.457  10.363  3.6581 -2.6688  1.1155
 7645SOL     OW34570   0.953   4.085   8.716  0.1114  0.2144  0.2853
 7645SOL    HW134571   0.858   4.090   8.726  0.1184  0.9144  0.0257
 7645SOL    HW234572   0.971   4.019   8.783  0.8332  1.3063  1.1759
 7646SOL     OW34573   4.022   2.913   8.081 -0.2356 -0.2236 -0.2624
 7646SOL    HW134574   4.016   2.915   7.985  0.5380 -0.8059 -0.3182
 7646SOL    HW234575   3.937   2.936   8.120  0.1356 -1.5600  1.3502
 7647SOL     OW34576   0.600   2.293  15.680  0.8149  0.3378  0.5734
 7647SOL    HW134577   0.534   2.306  15.748  0.3916 -1.8515  0.5721
 7647SOL    HW234578   0.670   2.344  15.723  1.4601 -1.3147  1.4712
 7648SOL     OW34579   2.933   2.174   2.554  0.5075 -0.2457 -0.0378
 7648SOL    HW134580   2.934   2.080   2.535  0.6788 -0.6281  1.8708
 7648SOL    HW234581   2.930   2.170   2.650  2.4352 -0.8677 -0.0208
 7649SOL     OW34582   3.320   1.437   6.859  0.3933  0.3388 -0.0323
 7649SOL    HW134583   3.345   1.430   6.767 -1.7259  0.4052 -0.6102
 7649SOL    HW234584   3.274   1.356   6.883  0.2414  0.7459  1.0531
 7650SOL     OW34585   2.152   3.383   4.342 -1.0934  0.0014  0.2521
 7650SOL    HW134586   2.179   3.465   4.300 -1.3080 -0.3419 -0.5639
 7650SOL    HW234587   2.060   3.393   4.366 -1.4591  0.4858 -1.3180
 7651SOL     OW34588   1.380   0.660   6.976  0.0954  0.6130 -0.2373
 7651SOL    HW134589   1.371   0.685   7.068  1.4940 -0.5276  0.2035
 7651SOL    HW234590   1.470   0.689   6.963 -0.0518  0.5657 -1.4069
 7652SOL     OW34591   0.119   1.761   9.865  0.6181  0.2470 -0.2208
 7652SOL    HW134592   0.194   1.701   9.870  0.2349 -0.3197 -1.2606
 7652SOL    HW234593   0.074   1.700   9.806  1.8247 -1.9623  1.1495
 7653SOL     OW34594   4.682   4.508   5.418 -0.4004 -0.4119  0.8176
 7653SOL    HW134595   4.717   4.597   5.425 -0.2884 -0.4723  1.0377
 7653SOL    HW234596   0.012   4.464   5.366  0.4355 -0.7358  2.1757
 7654SOL     OW34597   4.430   1.055   3.488  0.3719 -0.0208  0.5712
 7654SOL    HW134598   4.484   1.107   3.548 -0.6623 -0.3959  1.8097
 7654SOL    HW234599   4.431   1.110   3.409 -1.7905 -0.5189  0.2015
 7655SOL     OW34600   2.279   0.748   6.073  0.3273 -0.8409  0.1589
 7655SOL    HW134601   2.328   0.678   6.114  1.0895 -0.2122  0.3159
 7655SOL    HW234602   2.238   0.699   6.001 -3.0061  4.4540 -1.6291
 7656SOL     OW34603   1.005   0.228   8.322  0.0942 -0.8714  0.3324
 7656SOL    HW134604   0.962   0.291   8.381 -0.5779 -0.4476 -0.6022
 7656SOL    HW234605   0.950   0.225   8.244 -1.8625  0.3294  1.6287
 7657SOL     OW34606   0.762   4.339  13.017 -0.5971 -0.1719 -0.1570
 7657SOL    HW134607   0.832   4.386  12.972 -0.4751 -0.0403  0.1769
 7657SOL    HW234608   0.803   4.256  13.041 -0.9241 -0.5660 -0.9272
 7658SOL     OW34609   0.617   2.757  16.857  0.7819 -0.0341 -0.2336
 7658SOL    HW134610   0.686   2.777  16.920  0.4484 -1.3127  0.5375
 7658SOL    HW234611   0.635   2.814  16.782 -2.6626 -0.7869 -1.6241
 7659SOL     OW34612   0.126   0.306   8.176 -0.1270  0.9499 -0.2735
 7659SOL    HW134613   0.052   0.247   8.192 -0.9517  2.2121  0.5992
 7659SOL    HW234614   0.204   0.252   8.165 -0.2881  0.5373  0.6613
 7660SOL     OW34615   1.191   3.669  11.048 -0.3365  0.4729  0.4439
 7660SOL    HW134616   1.255   3.601  11.068 -0.0875  0.9531  1.2919
 7660SOL    HW234617   1.109   3.642  11.088 -1.7600  1.9459 -1.4987
 7661SOL     OW34618   4.102   3.127   9.385 -0.4758 -0.0462  0.0091
 7661SOL    HW134619   4.158   3.129   9.308 -0.5445 -0.9005 -0.0635
 7661SOL    HW234620   4.169   3.089   9.443 -0.9754 -1.5352 -0.3932
 7662SOL     OW34621   3.605   3.328   8.547 -0.2801 -0.4390  0.3479
 7662SOL    HW134622   3.660   3.251   8.556 -0.2630 -0.5219 -0.5045
 7662SOL    HW234623   3.570   3.349   8.634 -1.1105 -2.2251  0.4476
 7663SOL     OW34624   4.448   0.386  16.448  0.6947  0.2658 -0.1171
 7663SOL    HW134625   4.387   0.314  16.462  1.2579 -0.4455 -1.2653
 7663SOL    HW234626   4.411   0.453  16.505  1.4504  0.2240  0.4316
 7664SOL     OW34627   3.978   3.640   5.391  0.0055  0.4198 -0.0517
 7664SOL    HW134628   3.943   3.671   5.307  1.1580  1.0748 -0.2835
 7664SOL    HW234629   4.027   3.716   5.423  0.4673 -0.0060  0.2358
 7665SOL     OW34630   2.406   0.904  13.949  0.0558  0.1876  0.0207
 7665SOL    HW134631   2.407   0.829  13.890 -0.8814 -0.1040  0.3752
 7665SOL    HW234632   2.409   0.973  13.883  1.5663 -0.2753 -0.3999
 7666SOL     OW34633   3.158   3.766   8.679 -0.0255 -0.0979  0.0609
 7666SOL    HW134634   3.200   3.838   8.726 -2.8114  0.2556  1.9756
 7666SOL    HW234635   3.193   3.775   8.590  1.0666  1.6544  0.6695
 7667SOL     OW34636   1.983   0.432   5.667  0.5103 -0.0895 -0.0334
 7667SOL    HW134637   1.934   0.478   5.736  0.6802  0.1528 -0.0757
 7667SOL    HW234638   1.909   0.378   5.639  2.1166 -1.8700 -0.7927
 7668SOL     OW34639   0.777   1.116   4.258 -0.1575 -0.1140 -0.0660
 7668SOL    HW134640   0.856   1.134   4.208  0.7358 -3.1506  0.2867
 7668SOL    HW234641   0.731   1.199   4.247  2.2839  1.0456 -1.4943
 7669SOL     OW34642   1.956   1.877   0.983 -0.3860 -0.0143  0.2185
 7669SOL    HW134643   2.039   1.881   1.030 -0.6845  1.6372  0.5971
 7669SOL    HW234644   1.980   1.875   0.890 -0.6251  0.6291  0.1416
 7670SOL     OW34645   2.457   1.530  12.938  0.2176 -0.2496  0.2961
 7670SOL    HW134646   2.415   1.616  12.947 -1.9864 -1.2472 -0.2883
 7670SOL    HW234647   2.547   1.559  12.948  0.1950 -0.2102  0.3872
 7671SOL     OW34648   3.850   1.286   6.291  0.0484 -0.4742 -0.2520
 7671SOL    HW134649   3.907   1.224   6.337 -0.1572 -0.4016  0.0998
 7671SOL    HW234650   3.772   1.292   6.346  0.9286  1.3768  0.8028
 7672SOL     OW34651   0.565   2.141  12.761 -0.2130  0.7492  0.1795
 7672SOL    HW134652   0.563   2.071  12.826  2.3380  0.3711 -0.1198
 7672SOL    HW234653   0.484   2.190  12.772 -1.7054 -2.1712  1.9569
 7673SOL     OW34654   1.824   1.770   6.111 -0.3343 -0.3953 -0.1451
 7673SOL    HW134655   1.794   1.809   6.029  0.8570  0.7758 -0.0299
 7673SOL    HW234656   1.783   1.684   6.113  2.0153 -1.5620 -1.5465
 7674SOL     OW34657   0.561   3.721   9.848  0.2345 -0.1585  0.0239
 7674SOL    HW134658   0.629   3.780   9.884  2.0303 -2.6013  0.6156
 7674SOL    HW234659   0.584   3.708   9.755  0.3287  0.5928 -0.0614
 7675SOL     OW34660   0.188   2.530   3.572  0.2053  0.0564  0.5094
 7675SOL    HW134661   0.244   2.592   3.620 -0.9587  0.2381  1.6182
 7675SOL    HW234662   0.247   2.455   3.583  0.5827  0.3341  0.3790
 7676SOL     OW34663   3.178   1.825   8.287 -0.1277  0.1090  0.4804
 7676SOL    HW134664   3.152   1.899   8.232 -2.5506 -0.6665  0.5962
 7676SOL    HW234665   3.269   1.850   8.301 -0.2955  1.9556 -1.7873
 7677SOL     OW34666   3.428   0.780   5.790  0.5630 -0.2249 -0.0277
 7677SOL    HW134667   3.367   0.853   5.774  1.3596  0.0882 -1.5969
 7677SOL    HW234668   3.402   0.733   5.869 -0.8637  1.3425  0.4485
 7678SOL     OW34669   0.402   0.807  12.644  0.2377 -0.6188 -0.1047
 7678SOL    HW134670   0.463   0.747  12.601  1.0129 -0.8947  1.3756
 7678SOL    HW234671   0.359   0.748  12.705  2.3214 -1.7736  0.2685
 7679SOL     OW34672   2.081   2.752   3.976 -0.2707 -0.0207 -1.0032
 7679SOL    HW134673   1.998   2.706   3.991  0.1285 -0.9597 -1.6711
 7679SOL    HW234674   2.119   2.695   3.910  2.1849  0.1256  0.3022
 7680SOL     OW34675   0.494   1.457  11.452  0.2664 -0.2128  0.2633
 7680SOL    HW134676   0.406   1.440  11.486 -0.2065  0.5299 -0.5960
 7680SOL    HW234677   0.536   1.372  11.467  0.4951 -0.0714  0.4106
 7681SOL     OW34678   1.422   4.603  15.409  0.1181  0.3158  0.0074
 7681SOL    HW134679   1.424   4.509  15.424 -0.3902  0.2108 -0.6157
 7681SOL    HW234680   1.478   4.624  15.484 -0.5289 -0.7116  0.7835
 7682SOL     OW34681   4.103   2.603  15.491 -0.0342 -0.1301 -0.0694
 7682SOL    HW134682   4.146   2.689  15.494 -0.1388 -0.0977  0.4591
 7682SOL    HW234683   4.014   2.626  15.517 -0.7962  2.7845 -5.0927
 7683SOL     OW34684   2.799   4.258   9.938  0.3342  0.2213 -0.0944
 7683SOL    HW134685   2.709   4.254   9.968  0.4957  0.0387  0.3695
 7683SOL    HW234686   2.834   4.337   9.980 -0.7837  0.5135  0.2737
 7684SOL     OW34687   0.491   3.594   1.139 -0.4559  0.5636 -0.0782
 7684SOL    HW134688   0.507   3.534   1.066  1.5784 -1.0127  1.6508
 7684SOL    HW234689   0.527   3.676   1.106 -0.8479  0.8520  0.2064
 7685SOL     OW34690   4.096   3.238   6.643 -0.0437  0.1386 -0.0664
 7685SOL    HW134691   4.106   3.148   6.673 -1.2730  0.3062  0.8490
 7685SOL    HW234692   4.182   3.247   6.603  0.9993 -0.5217  2.0921
 7686SOL     OW34693   0.647   3.507  10.666  0.1393  0.3424  0.1717
 7686SOL    HW134694   0.703   3.583  10.653  1.5955 -1.0436 -1.5218
 7686SOL    HW234695   0.580   3.548  10.721  0.0147  0.9664 -0.4409
 7687SOL     OW34696   4.713   0.700   6.489 -0.3069  0.1990  0.4888
 7687SOL    HW134697   0.057   0.650   6.494 -1.0242 -1.0362 -0.1114
 7687SOL    HW234698   4.660   0.650   6.551 -0.4295 -0.4906 -0.1644
 7688SOL     OW34699   1.220   3.541  16.642  0.1047  0.0826  0.7335
 7688SOL    HW134700   1.204   3.457  16.685  0.8524 -0.3483  0.1560
 7688SOL    HW234701   1.175   3.604  16.699  1.0602  0.7488  0.7451
 7689SOL     OW34702   0.049   1.667  14.427  0.0195 -0.1413  0.0337
 7689SOL    HW134703   0.128   1.678  14.479  0.2449 -0.3644 -0.2593
 7689SOL    HW234704   0.093   1.678  14.343  0.5761 -1.4997  0.1495
 7690SOL     OW34705   2.407   4.586   7.779  0.1791  0.0038  0.0995
 7690SOL    HW134706   2.430   4.516   7.718  0.6726 -2.0085  2.5664
 7690SOL    HW234707   2.315   4.601   7.757  0.5642  0.8228 -0.9447
 7691SOL     OW34708   1.961   4.720   2.429 -0.0913  0.3291  0.5356
 7691SOL    HW134709   1.935   4.635   2.393  0.9219 -0.0142  0.6402
 7691SOL    HW234710   1.975   4.709   2.523  1.8073 -2.0083 -0.0306
 7692SOL     OW34711   3.542   0.318   2.450  0.1111  0.0170  0.2463
 7692SOL    HW134712   3.571   0.365   2.528  1.7372  0.6718 -0.7523
 7692SOL    HW234713   3.470   0.264   2.482  1.3134 -1.0057  1.2162
 7693SOL     OW34714   1.477   1.937   6.167  0.3907 -0.0919 -0.1678
 7693SOL    HW134715   1.476   1.846   6.195 -0.5671  0.1374  0.5304
 7693SOL    HW234716   1.470   1.988   6.248  1.2592 -2.7847  1.6004
 7694SOL     OW34717   4.198   2.409   5.447  0.5763  0.0878 -0.7424
 7694SOL    HW134718   4.263   2.415   5.377  2.0194 -0.6877  0.5330
 7694SOL    HW234719   4.120   2.366   5.413 -0.3611 -0.9314  2.7637
 7695SOL     OW34720   2.992   4.562  16.460 -0.5045  0.4839 -0.3337
 7695SOL    HW134721   3.021   4.516  16.539  2.1437  0.1813 -1.4708
 7695SOL    HW234722   2.996   4.497  16.391  1.3410 -1.2443  1.4015
 7696SOL     OW34723   0.076   0.717   4.120  0.0868 -0.1851  0.0981
 7696SOL    HW134724   4.727   0.684   4.142  0.6338 -1.2953  0.6067
 7696SOL    HW234725   0.101   0.762   4.201  0.3511 -1.2543  0.6121
 7697SOL     OW34726   2.806   1.253   6.416 -0.0371  0.5153 -0.2610
 7697SOL    HW134727   2.806   1.332   6.363  0.6552  0.5087 -0.2787
 7697SOL    HW234728   2.719   1.252   6.456 -0.0668  0.6146 -0.3256
 7698SOL     OW34729   1.465   3.719   4.111 -0.3178  0.1930 -0.0606
 7698SOL    HW134730   1.501   3.672   4.186  0.9776  0.9415 -0.2064
 7698SOL    HW234731   1.372   3.728   4.132 -0.0610 -3.3571  2.6227
 7699SOL     OW34732   2.801   3.352  10.670 -0.2253 -0.3176 -0.6637
 7699SOL    HW134733   2.720   3.311  10.641  0.5025 -2.5034  0.3868
 7699SOL    HW234734   2.854   3.273  10.680 -0.0539  0.2318  2.7037
 7700SOL     OW34735   0.601   4.254   6.829  0.2828  0.3860  0.2321
 7700SOL    HW134736   0.610   4.192   6.901  0.2853 -0.4568 -0.4963
 7700SOL    HW234737   0.663   4.222   6.763 -1.1752 -3.0262  0.5127
 7701SOL     OW34738   1.208   3.374   7.869 -0.0162  0.1672  0.1937
 7701SOL    HW134739   1.134   3.323   7.836 -0.9288  0.9946  0.9879
 7701SOL    HW234740   1.281   3.338   7.818 -0.9768 -2.5808  0.7341
 7702SOL     OW34741   1.052   4.612   2.795 -0.0254  0.0699 -0.3819
 7702SOL    HW134742   1.033   4.700   2.827  1.5695  0.5487 -0.7076
 7702SOL    HW234743   1.009   4.611   2.709  3.2778 -1.1416 -2.0503
 7703SOL     OW34744   3.925   0.348  12.261  0.1156 -0.2459  0.3332
 7703SOL    HW134745   3.912   0.425  12.316 -1.7464 -0.9026  0.8029
 7703SOL    HW234746   3.836   0.314  12.269  0.1144 -0.8762 -2.5636
 7704SOL     OW34747   1.178   3.122   5.984  0.5570  0.1357 -0.0246
 7704SOL    HW134748   1.124   3.163   5.918 -1.0082  0.9589  1.7672
 7704SOL    HW234749   1.157   3.029   5.974  3.0023 -0.3895 -0.2469
 7705SOL     OW34750   3.770   4.209   3.326 -0.5225  0.2170 -0.6345
 7705SOL    HW134751   3.787   4.268   3.400 -1.7486  1.4446 -1.3283
 7705SOL    HW234752   3.676   4.225   3.327 -0.8272 -1.7451  1.0307
 7706SOL     OW34753   3.805   0.687   4.640 -0.2170  0.0025  0.5345
 7706SOL    HW134754   3.842   0.630   4.572 -1.9718 -0.0966 -0.3513
 7706SOL    HW234755   3.827   0.633   4.716 -2.1975 -0.2459  0.9166
 7707SOL     OW34756   0.838   2.870  16.979  0.3183 -0.1334  0.4752
 7707SOL    HW134757   0.879   2.930  16.916 -2.0204  1.7896  0.7768
 7707SOL    HW234758   0.893   2.890  17.055 -0.7053  0.9798  0.9269
 7708SOL     OW34759   4.554   2.336  17.345  0.3855  0.3785 -0.1684
 7708SOL    HW134760   4.642   2.301  17.360  0.6827  0.4890 -1.6329
 7708SOL    HW234761   4.570   2.406  17.408 -2.0591 -0.3832  1.3355
 7709SOL     OW34762   4.111   1.546  16.748 -0.4729  0.5145  0.2013
 7709SOL    HW134763   4.119   1.459  16.709 -0.7784 -0.7454  2.9016
 7709SOL    HW234764   4.098   1.526  16.841 -1.4955 -0.1009 -0.0673
 7710SOL     OW34765   2.263   3.463  13.611  0.6347  0.3906  0.3552
 7710SOL    HW134766   2.200   3.532  13.631 -2.3513 -2.6440  1.3117
 7710SOL    HW234767   2.342   3.512  13.587 -0.7699  2.8253  0.7449
 7711SOL     OW34768   4.235   4.331   9.520 -0.0170  0.4167 -0.3692
 7711SOL    HW134769   4.148   4.306   9.487  0.0690 -0.0321 -0.2540
 7711SOL    HW234770   4.258   4.269   9.589  0.4533 -0.3862 -1.2486
 7712SOL     OW34771   4.150   3.484  16.794  0.7358  0.2315  0.0805
 7712SOL    HW134772   4.133   3.542  16.720  2.0839 -0.6381 -0.8970
 7712SOL    HW234773   4.115   3.403  16.756 -0.0670  0.9867 -0.7928
 7713SOL     OW34774   2.616   3.969   3.816  0.3790 -0.7448  0.5689
 7713SOL    HW134775   2.548   3.975   3.883 -1.9447 -1.7212 -1.6660
 7713SOL    HW234776   2.574   3.914   3.750  0.2051 -0.0766  0.1251
 7714SOL     OW34777   4.125   3.439   6.371 -0.7319  0.1461  0.2965
 7714SOL    HW134778   4.095   3.518   6.328  0.0769  0.9627  1.2226
 7714SOL    HW234779   4.158   3.474   6.454 -0.9696  0.1207  0.4003
 7715SOL     OW34780   3.089   3.243   3.548  0.2523  0.0591 -0.0323
 7715SOL    HW134781   3.018   3.287   3.501 -1.8511 -1.5557  1.6100
 7715SOL    HW234782   3.053   3.156   3.568 -1.1075  0.6605  0.1848
 7716SOL     OW34783   4.075   3.578  14.029 -0.1148 -0.0356  0.2763
 7716SOL    HW134784   4.127   3.529  14.092  0.4516 -0.3269 -0.4255
 7716SOL    HW234785   4.137   3.596  13.958  0.3900 -0.8758  0.5014
 7717SOL     OW34786   4.269   1.065   1.433  0.2318  0.3925 -0.6172
 7717SOL    HW134787   4.199   1.075   1.369  1.5998 -1.0014 -2.3348
 7717SOL    HW234788   4.228   1.010   1.500  1.0125  1.5167  0.7931
 7718SOL     OW34789   1.375   1.165   1.340 -0.6867  0.3493 -0.1427
 7718SOL    HW134790   1.332   1.240   1.382 -0.4396  0.1047  0.5311
 7718SOL    HW234791   1.457   1.173   1.388  0.1812  3.1953 -2.0921
 7719SOL     OW34792   1.460   2.526   9.524 -0.4375  0.0388 -0.2616
 7719SOL    HW134793   1.496   2.608   9.491 -0.0311  0.5302  1.3766
 7719SOL    HW234794   1.535   2.478   9.558 -1.8315 -0.8555  1.5773
 7720SOL     OW34795   4.537   0.900  13.838 -0.0366  0.5138  0.1335
 7720SOL    HW134796   4.600   0.923  13.906 -0.2985  0.2966  0.4506
 7720SOL    HW234797   4.464   0.872  13.893  2.4370 -1.2934  2.5391
 7721SOL     OW34798   3.264   0.313   1.568  0.1486 -0.1617 -0.3151
 7721SOL    HW134799   3.352   0.282   1.547  0.1606 -0.3568  0.0319
 7721SOL    HW234800   3.212   0.234   1.553 -0.7157  0.4284 -0.4499
 7722SOL     OW34801   2.452   1.496   5.180  0.0214 -0.1151  0.1435
 7722SOL    HW134802   2.491   1.563   5.124  3.0467 -0.3322  1.9795
 7722SOL    HW234803   2.369   1.496   5.134 -0.6941  0.0453  1.4529
 7723SOL     OW34804   1.576   1.884   2.728 -0.7399 -0.2815  0.2125
 7723SOL    HW134805   1.586   1.979   2.720 -0.5216 -0.2715  0.6350
 7723SOL    HW234806   1.622   1.846   2.653  1.5133  0.5739  1.1916
 7724SOL     OW34807   2.932   2.418  13.268  0.3583 -0.2563  0.4811
 7724SOL    HW134808   2.876   2.494  13.282 -0.4952 -0.8741  0.4272
 7724SOL    HW234809   2.875   2.355  13.312 -0.9094 -0.4717 -1.4607
 7725SOL     OW34810   1.797   2.608  15.010 -0.2644 -1.1506  0.3145
 7725SOL    HW134811   1.782   2.525  14.965 -1.7014  1.2022 -3.5331
 7725SOL    HW234812   1.715   2.617  15.057 -0.4986 -0.7882 -0.1685
 7726SOL     OW34813   1.183   3.175  10.079 -0.2183  0.0905  0.4855
 7726SOL    HW134814   1.089   3.190  10.069 -0.2197  1.5067  2.6828
 7726SOL    HW234815   1.210   3.134   9.996  2.5522  2.1996  0.3232
 7727SOL     OW34816   3.993   1.984   6.871 -0.2106  0.1445  0.6461
 7727SOL    HW134817   4.055   1.945   6.809 -0.3135  0.3159  0.4333
 7727SOL    HW234818   4.052   1.987   6.946  2.5071  2.1933 -1.5530
 7728SOL     OW34819   4.389   1.741   0.106  0.4867  0.0183  0.3764
 7728SOL    HW134820   4.406   1.785   0.022  0.7147 -0.5749  0.1115
 7728SOL    HW234821   4.460   1.776   0.159 -1.2698  1.9626  1.4601
 7729SOL     OW34822   4.286   1.545  12.944 -0.4140 -0.2533  0.4589
 7729SOL    HW134823   4.321   1.456  12.953  1.5002  0.2121 -2.4755
 7729SOL    HW234824   4.221   1.534  12.874 -0.8656 -1.2301  1.0214
 7730SOL     OW34825   1.980   2.755  14.859 -0.3415 -0.3551  0.4175
 7730SOL    HW134826   1.923   2.707  14.920  1.4347 -2.3465  0.4893
 7730SOL    HW234827   2.015   2.679  14.814 -1.9055 -0.9775  0.2333
 7731SOL     OW34828   4.669   1.447   5.604  0.5513  0.0151 -0.1442
 7731SOL    HW134829   4.710   1.460   5.519  0.5069 -3.4102 -0.6740
 7731SOL    HW234830   4.681   1.353   5.612  0.8283  0.1310  0.8619
 7732SOL     OW34831   3.823   2.399  17.208  0.2196  0.0428 -0.1265
 7732SOL    HW134832   3.807   2.470  17.146  2.1106  1.0159  0.5136
 7732SOL    HW234833   3.794   2.319  17.164  1.7032 -0.5015 -0.1073
 7733SOL     OW34834   2.631   0.172  15.658  0.4473 -0.0372 -0.0187
 7733SOL    HW134835   2.621   0.248  15.715 -4.3571 -1.1856  0.6658
 7733SOL    HW234836   2.724   0.152  15.670  0.5418  1.1522  1.1224
 7734SOL     OW34837   3.596   2.482   5.716 -0.1335 -0.1067 -0.7773
 7734SOL    HW134838   3.552   2.412   5.764 -0.7409  0.1267 -1.0060
 7734SOL    HW234839   3.632   2.438   5.639  2.4246 -0.3770  0.5577
 7735SOL     OW34840   3.976   1.643   1.865  0.5593 -0.3647  0.2616
 7735SOL    HW134841   3.969   1.653   1.770 -1.5252 -1.1732  0.3193
 7735SOL    HW234842   4.069   1.627   1.881  0.6330 -0.1480  0.0484
 7736SOL     OW34843   1.466   1.847   7.585  0.5073 -0.3780  0.2225
 7736SOL    HW134844   1.542   1.878   7.535 -0.7741  2.0766 -0.2058
 7736SOL    HW234845   1.401   1.912   7.556  0.6541  0.1276  1.0264
 7737SOL     OW34846   1.028   3.379  15.811 -0.1091  0.4180  0.6621
 7737SOL    HW134847   1.094   3.314  15.836 -0.1814 -0.1323 -0.5724
 7737SOL    HW234848   0.964   3.359  15.879 -0.4384 -0.3895  0.1249
 7738SOL     OW34849   0.782   1.793   4.833 -0.7947 -0.6986  0.0716
 7738SOL    HW134850   0.764   1.786   4.927  0.3617  1.1706  0.4446
 7738SOL    HW234851   0.787   1.698   4.823  0.5930 -0.5240 -0.9514
 7739SOL     OW34852   0.576   0.002  13.128 -0.3374 -0.3614  0.3911
 7739SOL    HW134853   0.620   0.005  13.213 -1.0622  1.3705  0.7154
 7739SOL    HW234854   0.530   0.086  13.116 -2.1271 -1.2637  0.9037
 7740SOL     OW34855   3.078   2.487   1.903 -0.2939  0.4692  0.0055
 7740SOL    HW134856   3.032   2.492   1.986  2.5378 -0.7008  1.6338
 7740SOL    HW234857   3.143   2.556   1.917  1.4219 -1.0844 -0.2962
 7741SOL     OW34858   3.725   4.152   7.057 -0.3306  0.1112 -0.1435
 7741SOL    HW134859   3.750   4.238   7.090 -2.2101  0.0226  1.5039
 7741SOL    HW234860   3.739   4.087   7.125 -2.3633  0.1267  0.2866
 7742SOL     OW34861   2.924   4.533   0.655 -0.4296  0.7446  0.3096
 7742SOL    HW134862   2.833   4.505   0.646  0.0700  0.4472 -3.8572
 7742SOL    HW234863   2.951   4.531   0.746  1.3767 -0.3592 -0.2471
 7743SOL     OW34864   2.716   3.762  15.523  0.2707 -0.2842  0.1265
 7743SOL    HW134865   2.689   3.701  15.454 -1.3807  2.7182 -1.8756
 7743SOL    HW234866   2.646   3.826  15.510 -1.1599 -1.7347  0.5786
 7744SOL     OW34867   4.732   0.948   1.812 -0.0988  0.6284 -0.1401
 7744SOL    HW134868   4.671   0.992   1.753 -1.5323 -0.8316  0.2508
 7744SOL    HW234869   4.687   0.942   1.896  0.0207 -0.4996 -0.1566
 7745SOL     OW34870   0.773   3.287  14.031 -1.1553 -0.0367 -0.6898
 7745SOL    HW134871   0.677   3.297  14.034 -1.2896 -1.4093 -0.0083
 7745SOL    HW234872   0.780   3.192  14.042  0.0738  0.2246  0.8403
 7746SOL     OW34873   2.130   2.641   2.164  0.2102 -0.2567 -0.2571
 7746SOL    HW134874   2.143   2.546   2.163  0.4005 -0.2578  1.6171
 7746SOL    HW234875   2.098   2.650   2.254  0.7144  0.2763 -0.1312
 7747SOL     OW34876   4.395   2.066  12.656  0.4556 -0.0337  0.0135
 7747SOL    HW134877   4.473   2.114  12.627  0.2227  1.1314  1.2870
 7747SOL    HW234878   4.325   2.127  12.632  2.1848  2.2721  0.8843
 7748SOL     OW34879   3.238   3.095   7.788 -0.0508 -0.0406 -0.3232
 7748SOL    HW134880   3.164   3.154   7.774  0.7309  0.6950 -1.3012
 7748SOL    HW234881   3.283   3.133   7.864  1.2819 -0.3545 -0.9625
 7749SOL     OW34882   3.560   4.153   3.629 -0.0270  0.5831  0.6510
 7749SOL    HW134883   3.491   4.116   3.685 -0.2035 -2.0916 -1.3737
 7749SOL    HW234884   3.638   4.132   3.681 -1.8729 -3.3023  1.8532
 7750SOL     OW34885   4.325   0.485  13.340  0.4122  0.6066 -0.3023
 7750SOL    HW134886   4.395   0.547  13.357  0.2036  0.0951  2.3912
 7750SOL    HW234887   4.361   0.456  13.256 -1.9062 -0.2287 -1.0014
 7751SOL     OW34888   3.551   1.183   3.915 -0.8813  0.1677  0.2427
 7751SOL    HW134889   3.602   1.263   3.921 -0.1510 -0.1622 -1.5512
 7751SOL    HW234890   3.471   1.233   3.899 -1.6451 -1.3646 -0.7043
 7752SOL     OW34891   2.455   0.873   8.399  0.4417 -0.1130  0.3165
 7752SOL    HW134892   2.511   0.868   8.321 -0.3193 -1.2778 -0.1727
 7752SOL    HW234893   2.484   0.806   8.460  0.2966 -1.4748 -1.1043
 7753SOL     OW34894   4.620   3.948   5.543  0.2566 -0.2663  0.3130
 7753SOL    HW134895   4.623   4.033   5.499 -0.7266 -0.3221  0.1600
 7753SOL    HW234896   4.712   3.949   5.572  0.3542  2.2118 -0.0747
 7754SOL     OW34897   0.873   2.547   6.150  0.8917  0.1678 -1.2889
 7754SOL    HW134898   0.959   2.546   6.109  0.4330  0.0636 -2.2395
 7754SOL    HW234899   0.883   2.476   6.213 -1.6868  1.8272  1.0093
 7755SOL     OW34900   2.588   0.108   4.179  0.1134 -0.3060 -0.2399
 7755SOL    HW134901   2.607   0.073   4.266  0.0609  1.1530  0.3531
 7755SOL    HW234902   2.543   0.186   4.210 -0.1899 -0.0963 -1.2165
 7756SOL     OW34903   0.892   4.627  13.082 -0.1306  0.0447  0.1815
 7756SOL    HW134904   0.961   4.683  13.048 -0.5899  0.8931  0.6406
 7756SOL    HW234905   0.837   4.624  13.004  0.1497  4.1370 -0.1851
 7757SOL     OW34906   1.691   3.765   7.714  0.5017 -0.4595  0.3539
 7757SOL    HW134907   1.751   3.822   7.666 -0.0800 -0.6607 -0.6252
 7757SOL    HW234908   1.620   3.762   7.649  1.8277  2.0590 -1.2326
 7758SOL     OW34909   3.247   4.178   7.953  0.6597  0.6666  0.4778
 7758SOL    HW134910   3.162   4.170   7.995  1.0539 -1.3590  0.8735
 7758SOL    HW234911   3.300   4.196   8.030 -0.1699 -0.8596  1.4029
 7759SOL     OW34912   2.466   3.157   8.540 -0.3126  0.1502  0.6476
 7759SOL    HW134913   2.445   3.094   8.471  0.6896 -2.5806  2.8211
 7759SOL    HW234914   2.531   3.216   8.503 -1.3220 -0.4737 -2.1429
 7760SOL     OW34915   1.065   0.692   1.118  0.2346  0.6332 -0.0046
 7760SOL    HW134916   1.006   0.737   1.179  1.3153  2.2340 -0.1425
 7760SOL    HW234917   1.102   0.629   1.180  0.9157  0.5565 -0.4929
 7761SOL     OW34918   3.257   1.370   3.256 -0.2056 -0.1043  0.1176
 7761SOL    HW134919   3.169   1.387   3.288 -0.1889 -1.6468  0.9801
 7761SOL    HW234920   3.299   1.455   3.270  1.8811 -1.2718  0.9038
 7762SOL     OW34921   4.141   3.867   7.519  0.5333  0.6993 -0.4844
 7762SOL    HW134922   4.206   3.798   7.530  1.4347  1.5530 -0.5228
 7762SOL    HW234923   4.102   3.842   7.435 -1.5121 -1.1997  1.0230
 7763SOL     OW34924   1.693   1.162   0.811  0.0334 -0.7155 -0.1458
 7763SOL    HW134925   1.664   1.096   0.748 -0.1959 -1.4827  0.7663
 7763SOL    HW234926   1.671   1.112   0.889 -1.0257  1.2214  0.8091
 7764SOL     OW34927   3.210   4.524   1.945  0.1663  0.1934  0.2801
 7764SOL    HW134928   3.286   4.531   1.887 -0.3548 -0.4281 -0.4773
 7764SOL    HW234929   3.174   4.437   1.934 -2.0719  1.0129  1.0921
 7765SOL     OW34930   1.343   3.078   2.775  0.0904  0.2009  0.3930
 7765SOL    HW134931   1.296   3.034   2.704 -0.2454  1.8175 -0.3896
 7765SOL    HW234932   1.430   3.041   2.763 -0.5740 -0.8670 -1.1733
 7766SOL     OW34933   4.518   3.059   2.248 -0.3979 -0.1329  0.3886
 7766SOL    HW134934   4.433   3.088   2.280 -0.6969 -1.4772  0.8306
 7766SOL    HW234935   4.559   3.030   2.329 -1.2352  0.0792  0.8771
 7767SOL     OW34936   2.676   1.920   7.532 -0.4093  0.0294 -0.0590
 7767SOL    HW134937   2.747   1.941   7.471  0.2635 -2.3581 -0.0843
 7767SOL    HW234938   2.724   1.869   7.597 -0.3322  1.8839  1.3395
 7768SOL     OW34939   3.030   0.143   6.926  0.1484  0.1339  0.2313
 7768SOL    HW134940   3.045   0.211   6.861 -0.9824 -0.5859 -0.7915
 7768SOL    HW234941   3.071   0.070   6.880 -0.5444  0.1460 -0.3962
 7769SOL     OW34942   4.272   2.407   1.794 -0.0310 -0.8977 -0.2206
 7769SOL    HW134943   4.263   2.414   1.890  0.3339  0.4102 -0.2792
 7769SOL    HW234944   4.358   2.448   1.785 -1.1080  1.5524  0.5175
 7770SOL     OW34945   3.908   4.079  11.903 -0.2713 -0.0565 -0.2387
 7770SOL    HW134946   3.924   4.010  11.839  3.3027 -0.6452  1.2452
 7770SOL    HW234947   3.833   4.056  11.958 -2.1462 -0.0963 -2.8280
 7771SOL     OW34948   0.814   4.408   7.155 -0.4034  0.2384 -0.0447
 7771SOL    HW134949   0.722   4.390   7.174  0.7545 -2.0483  3.3581
 7771SOL    HW234950   0.809   4.470   7.082  0.6911 -2.5974 -2.5141
 7772SOL     OW34951   0.868   4.401   4.247 -0.4017 -0.7798 -0.5206
 7772SOL    HW134952   0.816   4.471   4.287  0.1646 -1.4659  1.4431
 7772SOL    HW234953   0.943   4.383   4.305 -0.8561 -3.3359 -0.7255
 7773SOL     OW34954   3.292   0.428   8.658  0.7650 -0.2633  0.1181
 7773SOL    HW134955   3.284   0.334   8.640 -0.0963 -0.2733  0.5350
 7773SOL    HW234956   3.383   0.450   8.677  0.5134  2.3607 -1.7627
 7774SOL     OW34957   2.660   1.356  12.579 -0.7520  0.6224  0.0533
 7774SOL    HW134958   2.621   1.420  12.520 -2.3729  0.5290  1.0243
 7774SOL    HW234959   2.598   1.352  12.652 -1.0497  0.7884 -0.1924
 7775SOL     OW34960   0.263   3.423   2.276  0.2620  0.1317 -0.1253
 7775SOL    HW134961   0.238   3.418   2.184  0.2693  0.8746 -0.1721
 7775SOL    HW234962   0.185   3.376   2.307 -0.1257  2.3013  2.2216
 7776SOL     OW34963   4.352   1.488   2.470 -0.7905  0.1844 -0.3241
 7776SOL    HW134964   4.321   1.578   2.464 -1.1896  0.0339 -0.5042
 7776SOL    HW234965   4.348   1.464   2.377  1.9868 -0.9175 -0.1611
 7777SOL     OW34966   3.316   0.379  12.908 -0.1406 -0.1629 -0.0892
 7777SOL    HW134967   3.385   0.373  12.841 -0.6040 -1.6851 -0.4359
 7777SOL    HW234968   3.289   0.471  12.906  0.7490  0.1410  2.6231
 7778SOL     OW34969   1.700   0.094   7.243  0.1061  0.5455 -0.0617
 7778SOL    HW134970   1.755   0.041   7.185 -0.3464 -1.4460  1.3097
 7778SOL    HW234971   1.613   0.058   7.227  0.3117  0.0356 -0.0367
 7779SOL     OW34972   3.389   1.923  10.973 -0.1672  0.4795  0.0073
 7779SOL    HW134973   3.353   1.847  10.927 -0.7403  1.8036 -1.7135
 7779SOL    HW234974   3.399   1.889  11.063  1.3396 -0.5063 -0.5274
 7780SOL     OW34975   2.478   3.813  16.910  0.2324  0.6478 -0.6102
 7780SOL    HW134976   2.477   3.723  16.944 -0.0992  0.0203 -2.2697
 7780SOL    HW234977   2.551   3.852  16.958 -0.1257 -1.6003  1.7913
 7781SOL     OW34978   0.625   3.375   8.845  0.0013  0.0741  0.2732
 7781SOL    HW134979   0.630   3.441   8.776  2.0018 -3.8421 -3.3122
 7781SOL    HW234980   0.544   3.332   8.820  0.1467 -1.4636  2.4239
 7782SOL     OW34981   4.231   1.226   8.596 -0.0678  1.1531 -0.3094
 7782SOL    HW134982   4.215   1.154   8.658 -0.8017 -0.9272 -2.9210
 7782SOL    HW234983   4.194   1.297   8.648 -0.5813 -0.0703  1.0162
 7783SOL     OW34984   1.673   1.894   2.977  0.7467  0.0259  0.1023
 7783SOL    HW134985   1.609   1.869   2.910  2.3774  1.0753 -1.8453
 7783SOL    HW234986   1.676   1.815   3.031  1.1534  0.7933  1.2014
 7784SOL     OW34987   2.763   1.323   4.849  0.3020 -0.2377  0.1742
 7784SOL    HW134988   2.723   1.250   4.801 -0.9884  0.7318 -0.2282
 7784SOL    HW234989   2.854   1.293   4.847  0.5031  0.3568  0.3195
 7785SOL     OW34990   3.281   2.637  13.754  0.5552  0.4366 -0.4451
 7785SOL    HW134991   3.232   2.706  13.798 -0.2282 -0.2685 -0.2238
 7785SOL    HW234992   3.346   2.612  13.820  1.7230  0.5836 -1.5374
 7786SOL     OW34993   2.760   1.496   6.333  0.0452  0.1307 -0.5723
 7786SOL    HW134994   2.703   1.561   6.374  0.5866  0.6723 -0.6813
 7786SOL    HW234995   2.818   1.549   6.279  0.8629 -0.3204 -0.1399
 7787SOL     OW34996   0.125   4.513   9.757  0.7890  0.4689  0.3401
 7787SOL    HW134997   0.123   4.558   9.841 -0.2450 -2.8214  2.0866
 7787SOL    HW234998   0.069   4.440   9.784  1.2768 -0.0831 -0.1501
 7788SOL     OW34999   4.012   0.694   7.817 -1.0956  0.0261  0.9489
 7788SOL    HW135000   3.943   0.664   7.876 -0.6258 -2.6711  0.1551
 7788SOL    HW235001   4.072   0.619   7.810 -0.3235  0.9712 -2.8177
 7789SOL     OW35002   0.676   2.709   5.304 -0.0492 -0.4907 -0.4682
 7789SOL    HW135003   0.668   2.614   5.310 -1.8161 -0.3034  0.0291
 7789SOL    HW235004   0.766   2.706   5.336  0.0323 -0.7994 -0.7230
 7790SOL     OW35005   3.181   0.542   3.574 -0.1290  0.0952 -0.2696
 7790SOL    HW135006   3.088   0.545   3.596 -0.2220 -0.7815 -0.5530
 7790SOL    HW235007   3.220   0.603   3.637 -1.0980  1.9773 -1.4770
 7791SOL     OW35008   2.762   3.237  16.947 -0.0970 -0.5982 -0.3328
 7791SOL    HW135009   2.698   3.170  16.973  1.7625 -2.3907 -0.3100
 7791SOL    HW235010   2.756   3.292  17.025 -1.7740 -2.6480  1.0043
 7792SOL     OW35011   1.620   0.291   5.897  0.7713 -0.4268 -0.0772
 7792SOL    HW135012   1.532   0.320   5.873  1.4302  1.0287 -0.7454
 7792SOL    HW235013   1.646   0.362   5.956 -0.5914  1.1377 -1.3649
 7793SOL     OW35014   2.067   2.140   5.114 -0.3982 -0.4167 -0.2308
 7793SOL    HW135015   2.035   2.218   5.158 -0.4037 -1.1249  1.0301
 7793SOL    HW235016   2.163   2.145   5.116 -0.3997 -0.2225 -0.6848
 7794SOL     OW35017   2.376   0.441   4.050 -0.6504 -0.4178  0.0028
 7794SOL    HW135018   2.388   0.349   4.026  1.4478  0.3664 -1.8958
 7794SOL    HW235019   2.433   0.479   3.984 -0.2118  0.9400  1.1734
 7795SOL     OW35020   3.585   0.158   6.034 -0.3221 -0.3770  0.9795
 7795SOL    HW135021   3.635   0.078   6.024 -0.8731 -0.8171  1.7462
 7795SOL    HW235022   3.503   0.126   6.072 -0.2390  0.6521  2.0234
 7796SOL     OW35023   3.358   2.730   7.818 -0.0268 -0.2714 -0.1646
 7796SOL    HW135024   3.362   2.808   7.762 -1.5637 -0.4244 -0.4895
 7796SOL    HW235025   3.406   2.767   7.893 -0.2522  0.4663 -0.3782
 7797SOL     OW35026   0.772   3.017  14.054  0.7899  0.0257 -0.1559
 7797SOL    HW135027   0.746   2.946  14.113 -0.9950  1.6657  1.0331
 7797SOL    HW235028   0.825   2.971  13.989  1.7736 -1.2529  1.5466
 7798SOL     OW35029   4.529   2.820   3.824 -0.2559 -0.2116 -0.0672
 7798SOL    HW135030   4.455   2.875   3.851 -0.9826  0.1001 -2.6992
 7798SOL    HW235031   4.512   2.807   3.731 -2.4272 -1.0886  0.4323
 7799SOL     OW35032   1.165   2.559  17.000 -0.4392 -0.6224  0.2353
 7799SOL    HW135033   1.071   2.563  16.984 -0.5129  1.2343  1.1714
 7799SOL    HW235034   1.174   2.484  17.058  0.2770  1.6843  3.1182
 7800SOL     OW35035   0.530   1.219   5.908  0.0058  0.4276 -0.7258
 7800SOL    HW135036   0.445   1.176   5.915  0.6721 -0.3884  2.0369
 7800SOL    HW235037   0.540   1.264   5.991  0.2577 -1.2161  0.1346
 7801SOL     OW35038   2.864   0.086   3.521  0.2326  0.0249 -0.1385
 7801SOL    HW135039   2.882   0.179   3.539  0.7960  0.0925 -1.0764
 7801SOL    HW235040   2.787   0.096   3.465  2.4301  1.2743 -2.9443
 7802SOL     OW35041   1.251   3.789   7.052  0.1194  0.0067 -0.1254
 7802SOL    HW135042   1.185   3.857   7.042 -1.5128 -1.2827  1.8547
 7802SOL    HW235043   1.223   3.722   6.990  0.9769  0.5746 -1.1338
 7803SOL     OW35044   4.531   1.005   1.614  0.1678 -0.1410  0.0017
 7803SOL    HW135045   4.604   1.025   1.556 -1.2060  1.9099 -1.0345
 7803SOL    HW235046   4.497   0.922   1.581  0.8607 -0.1162 -0.7744
 7804SOL     OW35047   4.698   0.415  16.430  0.3214 -0.4121 -0.5146
 7804SOL    HW135048   4.603   0.413  16.429  0.3234  0.0328 -2.0680
 7804SOL    HW235049   4.720   0.435  16.521  0.5036 -2.5851 -0.0972
 7805SOL     OW35050   1.793   1.274   4.723  0.1848 -0.2270 -0.2476
 7805SOL    HW135051   1.709   1.227   4.722  0.2539 -0.3398 -1.1417
 7805SOL    HW235052   1.772   1.367   4.734  0.6796  0.0545 -1.6559
 7806SOL     OW35053   3.663   0.429   2.676  0.3573  0.3291  0.1730
 7806SOL    HW135054   3.706   0.487   2.739  0.7695 -0.4399  0.6016
 7806SOL    HW235055   3.628   0.370   2.742 -1.3431  0.3958 -0.6800
 7807SOL     OW35056   2.348   2.975   3.254 -0.0132  0.1999  0.1090
 7807SOL    HW135057   2.397   2.893   3.246  0.9238  0.6939  0.9178
 7807SOL    HW235058   2.405   3.033   3.205  0.1990 -0.9669 -1.0440
 7808SOL     OW35059   0.856   3.409   3.069  0.3477 -0.8090  0.3417
 7808SOL    HW135060   0.853   3.430   2.976 -0.0442  0.2554  0.5976
 7808SOL    HW235061   0.833   3.491   3.114  0.0607 -0.7968  0.1743
 7809SOL     OW35062   4.351   2.007   3.113  0.0951  0.2068 -0.4657
 7809SOL    HW135063   4.446   1.995   3.121  0.0162  0.7520  1.4403
 7809SOL    HW235064   4.332   2.015   3.020  0.3423  1.9187 -0.3737
 7810SOL     OW35065   2.334   4.271   9.777 -0.5010 -0.3360  0.2500
 7810SOL    HW135066   2.309   4.302   9.690 -1.9998  0.3250  0.9127
 7810SOL    HW235067   2.364   4.180   9.772  1.7173  0.5087 -1.6824
 7811SOL     OW35068   2.643   2.941   6.502  0.5032 -0.3225 -0.7809
 7811SOL    HW135069   2.606   2.938   6.414  0.8898 -0.4393 -0.9385
 7811SOL    HW235070   2.644   3.035   6.520 -0.6726 -0.3346 -0.6701
 7812SOL     OW35071   2.045   0.401  14.250 -0.2847 -0.5977 -0.4895
 7812SOL    HW135072   1.980   0.439  14.192  1.1937  0.5310 -1.4006
 7812SOL    HW235073   2.061   0.324  14.194 -2.4950 -1.1033 -0.4451
 7813SOL     OW35074   2.945   3.111  16.623 -0.0262 -0.4418  0.1691
 7813SOL    HW135075   3.009   3.071  16.565 -0.0587  1.1153 -0.9266
 7813SOL    HW235076   2.908   3.175  16.563 -1.3214 -0.5626  0.8258
 7814SOL     OW35077   0.975   1.059   1.394 -0.4025  0.0366  0.1622
 7814SOL    HW135078   1.058   1.046   1.439 -0.4981  1.4010  0.7467
 7814SOL    HW235079   0.979   0.992   1.327 -0.4402  0.5004 -0.3077
 7815SOL     OW35080   0.197   0.034   6.608 -0.3341 -0.5621  0.3954
 7815SOL    HW135081   0.152   0.062   6.528 -0.3039  1.1037  0.9595
 7815SOL    HW235082   0.133   4.704   6.631 -1.0850 -0.3508 -1.0770
 7816SOL     OW35083   1.626   3.832  15.441  0.1804 -0.4264 -0.3805
 7816SOL    HW135084   1.647   3.823  15.534 -0.6956  0.7165 -0.0661
 7816SOL    HW235085   1.597   3.741  15.435 -0.3852 -0.1665 -1.5769
 7817SOL     OW35086   4.009   1.944   8.447  0.3241  0.1751  0.2661
 7817SOL    HW135087   3.917   1.936   8.422  0.5219 -0.2184 -0.3310
 7817SOL    HW235088   4.016   2.021   8.503 -0.1142  0.3109  0.1336
 7818SOL     OW35089   1.416   1.970  15.148 -0.2986 -0.1139  0.0423
 7818SOL    HW135090   1.403   1.880  15.177 -0.8752  0.4477  1.5192
 7818SOL    HW235091   1.408   1.966  15.053 -1.2181  2.7871  0.0014
 7819SOL     OW35092   3.412   0.922   3.491  0.2979 -0.8663  0.3664
 7819SOL    HW135093   3.447   0.928   3.580 -0.6083  0.9908  0.6007
 7819SOL    HW235094   3.433   1.012   3.466  2.3155 -1.3015  0.4660
 7820SOL     OW35095   0.677   3.121   5.705 -0.2425 -0.4118  0.3158
 7820SOL    HW135096   0.666   3.091   5.614  2.5056 -2.6280  0.7047
 7820SOL    HW235097   0.644   3.044   5.751 -3.3521  0.5074 -0.3735
 7821SOL     OW35098   0.661   1.076  17.251  0.1579 -0.2121 -0.0063
 7821SOL    HW135099   0.743   1.120  17.275  0.7624 -0.7555 -1.0717
 7821SOL    HW235100   0.682   1.054  17.160  2.6177  2.8188 -0.1725
 7822SOL     OW35101   2.683   1.787   2.076  0.4512  0.4798 -0.2000
 7822SOL    HW135102   2.679   1.698   2.109 -0.1101 -0.1934 -2.0927
 7822SOL    HW235103   2.698   1.762   1.985 -0.9582 -0.9719 -0.0382
 7823SOL     OW35104   4.372   0.072  15.872  0.6138  0.5698  0.4993
 7823SOL    HW135105   4.388   4.715  15.870 -1.1635  0.2531  1.4827
 7823SOL    HW235106   4.292   0.084  15.923  0.2186 -0.5716  0.1734
 7824SOL     OW35107   3.534   0.846   7.568 -0.0126  0.2568  0.2972
 7824SOL    HW135108   3.493   0.824   7.652  1.0750 -2.0443  0.2097
 7824SOL    HW235109   3.587   0.770   7.543 -0.2328  1.1077 -2.7112
 7825SOL     OW35110   3.113   0.169  15.183 -0.0501 -0.2645 -0.4053
 7825SOL    HW135111   3.031   0.132  15.151  0.3871 -1.3125 -0.3099
 7825SOL    HW235112   3.141   0.231  15.115  3.1526 -0.5217  0.6756
 7826SOL     OW35113   4.032   0.981   4.035  0.0523  0.2700  0.4488
 7826SOL    HW135114   3.979   0.942   4.105 -1.8122 -0.1280 -1.1925
 7826SOL    HW235115   4.101   1.020   4.089 -1.1573  0.4956  1.8154
 7827SOL     OW35116   1.949   2.169   4.492  0.2068 -0.3845  0.3085
 7827SOL    HW135117   1.858   2.197   4.499  0.0708  0.0090 -2.9725
 7827SOL    HW235118   1.958   2.086   4.539 -0.1714 -0.1656  0.7723
 7828SOL     OW35119   4.393   2.070   8.159  0.2431  0.2600  0.5617
 7828SOL    HW135120   4.301   2.061   8.134  0.2473 -0.5479  0.8150
 7828SOL    HW235121   4.425   1.991   8.114  0.1884  0.5150  0.0791
 7829SOL     OW35122   0.038   2.326   6.740  0.7794  0.2125 -0.4185
 7829SOL    HW135123   0.058   2.237   6.767  0.2619  0.2666  0.1470
 7829SOL    HW235124   4.726   2.319   6.658 -0.6625  0.5150  0.4238
 7830SOL     OW35125   4.576   3.986   1.039  0.0128  0.5201  0.6303
 7830SOL    HW135126   4.607   3.938   1.116 -1.5316 -1.5410 -0.0433
 7830SOL    HW235127   4.658   4.002   0.993 -0.8843 -0.1138 -1.1954
 7831SOL     OW35128   1.613   1.601  14.795  0.6442  0.1412 -0.5708
 7831SOL    HW135129   1.522   1.627  14.805  0.3980 -0.4873 -1.1713
 7831SOL    HW235130   1.628   1.529  14.857 -0.9264 -0.7757 -1.2660
 7832SOL     OW35131   3.465   3.127   5.803 -0.4202  0.2982 -0.0585
 7832SOL    HW135132   3.373   3.151   5.788 -1.1484 -2.2096  0.4514
 7832SOL    HW235133   3.494   3.218   5.812  1.8345 -0.6724  2.1396
 7833SOL     OW35134   3.930   3.630   8.308 -0.1211  0.2109  0.8767
 7833SOL    HW135135   3.909   3.700   8.370 -3.0040  0.2311 -0.0991
 7833SOL    HW235136   3.898   3.674   8.230 -2.1020 -1.4993  0.7004
 7834SOL     OW35137   1.542   3.442   7.886 -0.3220 -0.3157 -0.6905
 7834SOL    HW135138   1.629   3.438   7.847 -0.2453 -1.1087 -0.4380
 7834SOL    HW235139   1.523   3.349   7.894  0.0477 -0.2591  0.8927
 7835SOL     OW35140   0.392   0.377   3.889  0.4904  0.0100  0.1927
 7835SOL    HW135141   0.302   0.353   3.911  0.5411 -1.9626 -1.7338
 7835SOL    HW235142   0.448   0.318   3.940 -0.4784  0.8526  2.2695
 7836SOL     OW35143   4.658   4.701   3.327 -0.0419 -0.5142 -0.2378
 7836SOL    HW135144   0.013   4.722   3.328 -0.7672  2.7761 -3.2414
 7836SOL    HW235145   4.672   4.632   3.262  1.8203  0.4482 -0.8523
 7837SOL     OW35146   0.574   3.924   3.090  0.0206 -0.5057  0.6182
 7837SOL    HW135147   0.665   3.915   3.061  0.2951  0.3135  1.2220
 7837SOL    HW235148   0.580   3.879   3.174 -0.3619  0.2690  1.0622
 7838SOL     OW35149   1.417   1.506   0.090  0.3101 -0.1352  0.0711
 7838SOL    HW135150   1.492   1.508   0.150 -0.1537  0.1247  0.6383
 7838SOL    HW235151   1.456   1.454   0.020  0.5951 -1.1531  0.9709
 7839SOL     OW35152   4.699   1.870   4.747  0.0188  0.4227  0.0951
 7839SOL    HW135153   4.692   1.820   4.666  0.0238 -0.2192  0.4865
 7839SOL    HW235154   4.607   1.861   4.773  0.2892 -3.1435 -0.2378
 7840SOL     OW35155   2.709   3.602   5.421 -0.0242 -0.1458  0.0549
 7840SOL    HW135156   2.799   3.622   5.396 -0.5493  1.6212 -0.4933
 7840SOL    HW235157   2.688   3.696   5.430 -0.8128 -0.2466 -0.7327
 7841SOL     OW35158   4.289   3.880   2.255  0.3771  0.3851 -0.4261
 7841SOL    HW135159   4.346   3.808   2.226  0.9398  0.6056  0.1193
 7841SOL    HW235160   4.348   3.919   2.320 -2.2796  3.0290  0.3664
 7842SOL     OW35161   2.478   4.574   6.908 -0.1010 -0.9130  0.3058
 7842SOL    HW135162   2.429   4.639   6.957  0.0423 -1.7973  1.6451
 7842SOL    HW235163   2.539   4.631   6.861 -2.4501  0.9012 -0.4735
 7843SOL     OW35164   0.776   1.203   2.964 -0.0792  0.2046 -0.1045
 7843SOL    HW135165   0.822   1.243   2.890 -0.1487  1.3850  0.4762
 7843SOL    HW235166   0.753   1.121   2.921  0.8726 -0.0839 -0.0657
 7844SOL     OW35167   2.138   3.538   7.907  0.1026  0.7423 -0.3055
 7844SOL    HW135168   2.228   3.516   7.885 -0.2513 -0.5170 -0.4732
 7844SOL    HW235169   2.144   3.632   7.923 -1.9964  0.8055  0.2032
 7845SOL     OW35170   4.012   1.090   2.730 -0.2752  0.0909 -0.5016
 7845SOL    HW135171   4.014   1.066   2.823  3.0762 -0.0498 -0.6007
 7845SOL    HW235172   3.995   1.000   2.701 -0.5841 -0.1033  0.2809
 7846SOL     OW35173   4.352   0.807   1.802  0.3312 -0.2761  0.1705
 7846SOL    HW135174   4.419   0.776   1.740 -0.1121  0.3209 -0.6069
 7846SOL    HW235175   4.402   0.877   1.844 -0.7863  0.0877  0.8764
 7847SOL     OW35176   4.173   2.687   8.948 -0.3301 -0.0713 -0.5142
 7847SOL    HW135177   4.186   2.622   9.017 -2.3187 -0.0556 -0.1225
 7847SOL    HW235178   4.169   2.770   8.994 -0.8530 -0.7645  0.6708
 7848SOL     OW35179   0.874   3.715   1.289 -0.3660 -0.1514 -0.1989
 7848SOL    HW135180   0.782   3.701   1.312 -0.1877 -1.3937 -0.2317
 7848SOL    HW235181   0.915   3.658   1.353 -0.3975  0.8696  0.7164
 7849SOL     OW35182   3.121   3.155  13.803 -0.0804  0.2119 -0.1105
 7849SOL    HW135183   3.201   3.169  13.753  1.0852 -0.5765  1.5469
 7849SOL    HW235184   3.145   3.163  13.895  1.0092  2.5195 -0.6073
 7850SOL     OW35185   3.585   0.598   6.224  0.5101 -0.0651  0.0515
 7850SOL    HW135186   3.616   0.533   6.161 -2.2102 -0.6047 -0.7493
 7850SOL    HW235187   3.567   0.540   6.298 -0.4869  0.4566  0.2220
 7851SOL     OW35188   1.332   3.192  13.802 -0.2031 -0.5246 -0.5248
 7851SOL    HW135189   1.333   3.237  13.718 -0.9389  0.4696  0.0040
 7851SOL    HW235190   1.321   3.270  13.856  1.5986 -0.0418 -0.8500
 7852SOL     OW35191   2.081   4.218   4.863 -0.4365  0.1177  0.0927
 7852SOL    HW135192   2.007   4.278   4.872 -1.4123 -1.1245  0.2301
 7852SOL    HW235193   2.148   4.241   4.927 -2.7035  2.1998  1.7357
 7853SOL     OW35194   4.561   0.274   4.417  0.3725  0.0288  0.2666
 7853SOL    HW135195   4.486   0.264   4.358  1.1097 -0.6562 -0.5590
 7853SOL    HW235196   4.572   0.182   4.442 -2.0428  0.5653  3.2399
 7854SOL     OW35197   3.360   2.954  14.528 -0.0300  0.4557  0.5574
 7854SOL    HW135198   3.316   2.986  14.607 -0.9125  1.0013 -0.1705
 7854SOL    HW235199   3.450   2.984  14.546  0.2668  0.0708 -0.3126
 7855SOL     OW35200   2.170   1.754   7.610  0.6467  0.6524  0.1855
 7855SOL    HW135201   2.083   1.794   7.611  0.5346  0.4681 -2.5098
 7855SOL    HW235202   2.210   1.794   7.687  2.9502  0.0517 -0.6865
 7856SOL     OW35203   1.465   0.843   9.592 -0.5905  0.0125 -0.0331
 7856SOL    HW135204   1.447   0.777   9.659  1.6863  1.4924  2.0044
 7856SOL    HW235205   1.542   0.802   9.553  1.3069  1.2983  2.4174
 7857SOL     OW35206   0.760   4.236   3.569  0.2445 -0.1718 -0.3514
 7857SOL    HW135207   0.676   4.263   3.605 -0.8461 -2.4790 -1.1192
 7857SOL    HW235208   0.808   4.236   3.652 -1.3749  0.0559  0.5784
 7858SOL     OW35209   3.120   0.504  15.379  0.3961  0.1048  0.2684
 7858SOL    HW135210   3.048   0.544  15.427  0.7347  1.5969 -0.4476
 7858SOL    HW235211   3.111   0.551  15.296  0.1552 -1.3224 -0.5079
 7859SOL     OW35212   1.056   1.784   3.773 -0.6882  0.0932  0.1321
 7859SOL    HW135213   1.110   1.859   3.750 -3.4147  2.2387  0.7454
 7859SOL    HW235214   1.094   1.774   3.861  1.7112  0.3934 -0.8800
 7860SOL     OW35215   3.615   4.041   6.844 -0.3915 -0.0148 -0.3112
 7860SOL    HW135216   3.548   4.009   6.904 -0.1820 -0.1283 -0.1391
 7860SOL    HW235217   3.665   4.095   6.904 -0.7330  0.0368 -0.0765
 7861SOL     OW35218   4.515   1.751   8.706  0.1741  0.5238  0.2688
 7861SOL    HW135219   4.537   1.707   8.788 -1.9672  0.2036  0.6885
 7861SOL    HW235220   4.424   1.773   8.728  0.2697  1.5036 -0.3018
 7862SOL     OW35221   3.692   0.890   4.475 -0.5374  0.2311 -0.3962
 7862SOL    HW135222   3.723   0.819   4.532 -1.6171 -0.4194 -0.6175
 7862SOL    HW235223   3.638   0.942   4.534 -1.4479  2.5519 -3.2917
 7863SOL     OW35224   0.073   3.430  15.150 -0.2195 -0.0704  0.8977
 7863SOL    HW135225   0.161   3.393  15.151  0.3649  1.2960  0.0257
 7863SOL    HW235226   0.075   3.467  15.061 -1.4479  0.5730  1.1239
 7864SOL     OW35227   3.578   0.126   4.545  0.3736  0.1599 -0.6063
 7864SOL    HW135228   3.513   0.084   4.488 -1.2200 -1.6028  2.5549
 7864SOL    HW235229   3.647   0.060   4.552 -0.2773 -0.3095  1.2492
 7865SOL     OW35230   2.827   2.180   3.841 -0.4641  0.2669  0.4637
 7865SOL    HW135231   2.814   2.089   3.866  1.2067 -0.4380 -1.2519
 7865SOL    HW235232   2.847   2.168   3.748  2.5124 -0.5295  1.2051
 7866SOL     OW35233   2.121   0.385   4.766 -0.1304  0.2916  0.0932
 7866SOL    HW135234   2.158   0.297   4.767 -2.2279 -0.5966 -1.7022
 7866SOL    HW235235   2.031   0.376   4.735 -0.0147  0.2853 -0.2402
 7867SOL     OW35236   2.404   4.168   5.356  0.0464  0.0895  0.0666
 7867SOL    HW135237   2.483   4.132   5.395 -0.0755  0.2105  0.4335
 7867SOL    HW235238   2.439   4.240   5.304 -0.8478 -0.3406 -1.1239
 7868SOL     OW35239   1.737   4.525   9.006  0.4998  0.2723 -0.1655
 7868SOL    HW135240   1.712   4.464   8.937  0.8760 -0.7513  0.6103
 7868SOL    HW235241   1.747   4.460   9.076 -0.0084  2.0123  1.5315
 7869SOL     OW35242   4.451   2.879   3.338  0.4010  0.2532 -0.0291
 7869SOL    HW135243   4.429   2.802   3.286 -0.6488  0.2679  0.3856
 7869SOL    HW235244   4.540   2.899   3.311  1.2887 -1.6048  1.5526
 7870SOL     OW35245   3.256   3.464   7.017 -0.1043  0.3866  0.4676
 7870SOL    HW135246   3.184   3.463   6.954  0.6703  1.4753 -0.4230
 7870SOL    HW235247   3.321   3.510   6.964  0.5894 -2.6574 -1.3827
 7871SOL     OW35248   4.127   0.811   8.054 -0.2967 -0.6179 -0.6153
 7871SOL    HW135249   4.078   0.788   7.974 -0.6245  0.6249 -0.7767
 7871SOL    HW235250   4.202   0.752   8.057 -0.2753 -0.4532  1.9645
 7872SOL     OW35251   1.086   2.357   2.094  0.5315 -0.1943 -0.0680
 7872SOL    HW135252   1.113   2.448   2.081  1.2589 -0.0760  2.2581
 7872SOL    HW235253   1.075   2.314   2.010 -1.3093 -0.9079  0.5302
 7873SOL     OW35254   4.162   3.322  13.285  0.4311  0.2454  0.5258
 7873SOL    HW135255   4.133   3.299  13.373  0.7040  2.3775  1.1590
 7873SOL    HW235256   4.094   3.385  13.264  0.1404  1.2811  4.5254
 7874SOL     OW35257   3.326   0.409   5.393  0.5284  0.2310 -0.2640
 7874SOL    HW135258   3.358   0.366   5.314  0.7664 -0.2858  0.1109
 7874SOL    HW235259   3.316   0.503   5.375  0.0496  0.2514  0.1342
 7875SOL     OW35260   3.381   2.703   3.419  0.8873 -0.0799  0.4389
 7875SOL    HW135261   3.303   2.676   3.467  2.1382  1.5845  3.4039
 7875SOL    HW235262   3.343   2.756   3.349  1.5057 -0.2936 -0.0535
 7876SOL     OW35263   3.550   2.128   9.026  0.0404 -0.2737 -0.6275
 7876SOL    HW135264   3.475   2.090   8.980 -0.1920  1.3014 -1.5520
 7876SOL    HW235265   3.513   2.208   9.063  0.2071 -1.3629  1.8789
 7877SOL     OW35266   2.156   3.981   0.492 -0.7046  0.3635 -0.0782
 7877SOL    HW135267   2.167   3.966   0.586  1.1893 -0.7504 -0.4734
 7877SOL    HW235268   2.071   3.940   0.479 -1.0595  0.7309  1.0730
 7878SOL     OW35269   4.604   0.675   2.724  0.1595  0.0404  0.3472
 7878SOL    HW135270   4.620   0.683   2.630  1.6020 -0.3300  0.5627
 7878SOL    HW235271   4.658   0.598   2.741 -1.2068 -0.9851  0.0363
 7879SOL     OW35272   3.679   1.817   0.259 -0.4530 -0.0948  0.6916
 7879SOL    HW135273   3.712   1.747   0.316 -2.2184 -0.8050  0.8687
 7879SOL    HW235274   3.609   1.768   0.214  1.6893 -0.1210 -2.5871
 7880SOL     OW35275   1.217   4.643  11.922 -0.0590 -0.2553 -0.5783
 7880SOL    HW135276   1.132   4.601  11.913 -0.4455  0.3446  0.3287
 7880SOL    HW235277   1.236   4.699  11.846 -0.9419  0.0336 -0.5802
 7881SOL     OW35278   0.883   3.113   7.068 -0.2223  0.3290 -0.2544
 7881SOL    HW135279   0.939   3.140   7.141  1.6916  0.4212 -1.7396
 7881SOL    HW235280   0.801   3.154   7.096 -1.3383 -1.1667 -1.3830
 7882SOL     OW35281   2.521   2.506   9.193 -0.2535  0.5537  0.4411
 7882SOL    HW135282   2.485   2.417   9.197  0.3154  0.2397 -1.1471
 7882SOL    HW235283   2.560   2.515   9.280 -0.3256 -0.7091  0.6047
 7883SOL     OW35284   1.116   4.288   5.420 -0.2858 -0.4572 -0.4581
 7883SOL    HW135285   1.117   4.381   5.397  0.3449 -0.0126  1.3873
 7883SOL    HW235286   1.104   4.245   5.335  0.2362  0.2936 -0.9216
 7884SOL     OW35287   4.393   2.409   3.637 -0.2167 -0.1906 -0.5383
 7884SOL    HW135288   4.332   2.336   3.630 -1.7455  1.0943 -0.4963
 7884SOL    HW235289   4.345   2.458   3.571 -1.7197  0.6541  1.1793
 7885SOL     OW35290   0.650   4.515   6.898 -1.2890 -0.4469  0.2634
 7885SOL    HW135291   0.652   4.420   6.884  0.4764 -0.2132 -1.0883
 7885SOL    HW235292   0.653   4.541   6.806  1.0821 -1.4788  0.0489
 7886SOL     OW35293   0.090   4.195   1.294 -0.0651  0.3523  0.8351
 7886SOL    HW135294   0.018   4.258   1.302 -0.5943 -0.0248 -0.9736
 7886SOL    HW235295   0.135   4.205   1.378  0.0562 -0.6288  0.8846
 7887SOL     OW35296   1.438   1.468   5.323  0.4149 -0.2713 -0.2286
 7887SOL    HW135297   1.356   1.426   5.297 -0.2283  0.1764  1.0550
 7887SOL    HW235298   1.468   1.500   5.239 -0.8473  0.8108 -0.2732
 7888SOL     OW35299   1.082   3.208  14.082  0.0025  0.1860 -0.1755
 7888SOL    HW135300   1.076   3.130  14.026 -0.3313  0.3182 -0.3197
 7888SOL    HW235301   1.019   3.273  14.050 -0.3843  0.0535  0.3145
 7889SOL     OW35302   0.407   0.542   3.128  0.1644 -0.7986  0.5889
 7889SOL    HW135303   0.391   0.536   3.223 -2.3965  4.2058  0.4815
 7889SOL    HW235304   0.325   0.577   3.094 -0.0385 -0.5946  1.2957
 7890SOL     OW35305   0.818   2.243   6.784  0.1721 -0.1737  0.4390
 7890SOL    HW135306   0.746   2.301   6.811 -0.8781 -1.1706 -0.1887
 7890SOL    HW235307   0.781   2.167   6.738  1.8267 -0.7834  0.1094
 7891SOL     OW35308   4.724   1.671  10.954  0.0403  0.3388 -0.3158
 7891SOL    HW135309   0.061   1.722  10.987  1.8649 -2.3696 -0.2386
 7891SOL    HW235310   4.659   1.739  10.942 -0.4891  0.2141  1.8625
 7892SOL     OW35311   2.415   3.216  11.336  0.3001 -1.1129  0.5599
 7892SOL    HW135312   2.472   3.206  11.260  0.8309 -0.6943  0.9035
 7892SOL    HW235313   2.406   3.312  11.333 -1.7380 -1.3265 -0.1787
 7893SOL     OW35314   1.506   0.147   8.244  0.1308  0.1764  0.3224
 7893SOL    HW135315   1.477   0.186   8.162 -2.2591 -1.9164  0.1446
 7893SOL    HW235316   1.540   0.062   8.216 -1.7161 -0.7286  0.8216
 7894SOL     OW35317   0.154   1.650   6.084 -0.4820  0.6535 -0.3153
 7894SOL    HW135318   0.250   1.652   6.081 -0.5665  0.7855 -3.4366
 7894SOL    HW235319   0.129   1.723   6.028  0.8479  1.5438  0.2559
 7895SOL     OW35320   0.811   2.439   3.012  0.1682  0.0929 -0.2142
 7895SOL    HW135321   0.829   2.375   2.942 -0.5463  1.3840 -1.5757
 7895SOL    HW235322   0.796   2.518   2.959 -1.6121  1.3011  2.1116
 7896SOL     OW35323   3.267   0.419  13.933 -0.0239  0.1988  0.1243
 7896SOL    HW135324   3.215   0.479  13.987 -0.4247 -0.3588  0.3465
 7896SOL    HW235325   3.337   0.478  13.905 -1.5998  1.2454 -1.5928
 7897SOL     OW35326   1.439   2.027  12.987 -0.1198 -0.3776  0.3348
 7897SOL    HW135327   1.424   2.077  12.907 -1.0756 -1.0779  0.0696
 7897SOL    HW235328   1.348   1.998  12.999  0.8583 -2.9158  1.7163
 7898SOL     OW35329   0.865   4.666   0.831 -0.0531  0.2958 -0.0438
 7898SOL    HW135330   0.864   4.571   0.815  0.6663  0.6770 -2.3684
 7898SOL    HW235331   0.770   4.677   0.838  0.1124  0.3641  2.2767
 7899SOL     OW35332   2.508   1.234   6.483 -0.3810  0.4207 -0.4821
 7899SOL    HW135333   2.491   1.324   6.510 -0.3406  0.4580 -0.5826
 7899SOL    HW235334   2.444   1.184   6.535  1.5467  0.6896  2.1246
 7900SOL     OW35335   4.124   0.085   1.983 -0.0680 -0.0002  0.7863
 7900SOL    HW135336   4.169   0.167   1.962  1.2098 -1.6352 -2.8212
 7900SOL    HW235337   4.190   0.019   1.965 -1.1390 -0.5627 -1.1788
 7901SOL     OW35338   1.796   3.778   1.960 -0.0824 -0.2718 -0.4649
 7901SOL    HW135339   1.746   3.731   1.893 -0.2857 -0.2726 -0.3136
 7901SOL    HW235340   1.836   3.840   1.899  2.2540 -2.0842 -0.7601
 7902SOL     OW35341   4.267   1.498   4.234 -0.1752 -0.5637  0.4066
 7902SOL    HW135342   4.303   1.583   4.258 -3.5942  1.6963 -2.4340
 7902SOL    HW235343   4.207   1.470   4.303 -0.4282 -2.1965 -0.4802
 7903SOL     OW35344   0.775   1.689   6.777  0.3503  0.7381 -0.2052
 7903SOL    HW135345   0.840   1.685   6.846  1.5867 -3.5313 -1.5900
 7903SOL    HW235346   0.701   1.682   6.837  1.3571 -2.2495  0.7167
 7904SOL     OW35347   1.724   4.272   8.539  0.4341 -0.2485  0.0814
 7904SOL    HW135348   1.760   4.183   8.546 -1.0074 -1.0999 -3.0425
 7904SOL    HW235349   1.734   4.304   8.629  2.7968  0.9698 -0.6187
 7905SOL     OW35350   0.929   0.521   4.353 -0.2867  0.3574  0.0800
 7905SOL    HW135351   0.862   0.581   4.387  0.1585  1.3801 -0.8331
 7905SOL    HW235352   1.005   0.575   4.373 -0.4222  0.6029 -0.0661
 7906SOL     OW35353   3.837   4.685   7.513 -0.3674  0.5794 -0.2707
 7906SOL    HW135354   3.794   4.687   7.427  1.2794  0.3360 -1.0915
 7906SOL    HW235355   3.881   4.600   7.509  1.5452  1.7675 -3.7992
 7907SOL     OW35356   2.933   0.180   5.343 -0.0578 -0.2326  0.6326
 7907SOL    HW135357   2.944   0.162   5.436  0.2106 -0.5505  0.5415
 7907SOL    HW235358   2.940   0.275   5.342  1.2406 -0.3309  0.4649
 7908SOL     OW35359   2.762   2.825  10.885  0.5698 -0.8980 -0.5169
 7908SOL    HW135360   2.857   2.829  10.878  0.6542  0.2806  1.1809
 7908SOL    HW235361   2.743   2.908  10.928  1.2212 -0.6528 -0.7006
 7909SOL     OW35362   0.007   1.651   7.158 -0.2057 -0.7184 -0.0227
 7909SOL    HW135363   0.059   1.613   7.229  0.7939  1.2520  0.3009
 7909SOL    HW235364   0.049   1.616   7.080  2.0863  0.5548  0.6253
 7910SOL     OW35365   2.980   3.365   5.340 -0.7441  0.8110  0.3916
 7910SOL    HW135366   3.074   3.354   5.325 -0.4231 -0.6617  3.5019
 7910SOL    HW235367   2.960   3.297   5.404  0.7027 -0.4797 -0.5293
 7911SOL     OW35368   1.465   2.990   5.094  1.0248  0.2726  0.1953
 7911SOL    HW135369   1.521   2.936   5.151  1.5569  1.4065  0.7469
 7911SOL    HW235370   1.516   3.069   5.079 -0.0831  1.0909  0.7089
 7912SOL     OW35371   3.590   4.569   1.338 -0.2160 -0.1000 -0.8170
 7912SOL    HW135372   3.655   4.509   1.301  2.0361  1.5604  0.4355
 7912SOL    HW235373   3.649   4.641   1.361 -1.5562  1.3121 -1.7637
 7913SOL     OW35374   0.949   0.278   4.651 -0.5859 -0.0331 -0.0991
 7913SOL    HW135375   1.000   0.354   4.625 -1.1627  0.4336  0.1428
 7913SOL    HW235376   0.932   0.305   4.741 -1.4873  0.2587 -0.3603
 7914SOL     OW35377   0.848   1.535   5.469  0.1440 -0.8471 -0.0613
 7914SOL    HW135378   0.862   1.497   5.555  1.8892 -1.7558 -0.7436
 7914SOL    HW235379   0.932   1.581   5.469 -0.3290  0.0211  0.2597
 7915SOL     OW35380   0.910   3.988   7.903  0.2122 -0.2289  0.3561
 7915SOL    HW135381   0.962   3.954   7.975  0.9879 -2.7069 -1.3989
 7915SOL    HW235382   0.845   4.031   7.960  1.6230 -0.2541  1.9871
 7916SOL     OW35383   1.673   0.764   4.096 -0.2780 -0.5067  0.0948
 7916SOL    HW135384   1.764   0.739   4.082 -0.2725 -0.9711  0.9550
 7916SOL    HW235385   1.640   0.678   4.070 -3.2259  1.5700 -3.1561
 7917SOL     OW35386   1.497   3.499   3.320  0.0607  0.1088 -0.0249
 7917SOL    HW135387   1.501   3.462   3.408 -0.5260 -0.7034 -0.3393
 7917SOL    HW235388   1.412   3.543   3.327 -0.5670 -1.1617  0.2511
 7918SOL     OW35389   2.818   3.431  15.906  0.6733  0.7480  0.1098
 7918SOL    HW135390   2.859   3.471  15.830 -0.0909  0.8883 -0.2318
 7918SOL    HW235391   2.739   3.394  15.866  0.2802  2.3361 -0.5954
 7919SOL     OW35392   1.302   3.971   5.244  0.0253 -0.0190 -0.1755
 7919SOL    HW135393   1.270   3.991   5.156 -1.2857 -1.1924  0.0490
 7919SOL    HW235394   1.219   3.937   5.278 -0.4419  0.4141 -0.8676
 7920SOL     OW35395   1.180   1.992   6.305 -0.0358 -0.1567  1.1037
 7920SOL    HW135396   1.134   2.071   6.331  1.5874  0.8998  0.7527
 7920SOL    HW235397   1.268   2.017   6.332  0.1451 -2.3975  2.5871
 7921SOL     OW35398   1.315   3.155   8.712  0.0317  0.6818 -0.0412
 7921SOL    HW135399   1.408   3.136   8.720 -0.4849 -1.6033  0.2796
 7921SOL    HW235400   1.274   3.087   8.765  1.5051 -0.5153 -0.4521
 7922SOL     OW35401   2.468   1.938   6.457  0.0491 -0.4006 -0.4773
 7922SOL    HW135402   2.436   2.008   6.399 -0.1515  1.2678  1.6453
 7922SOL    HW235403   2.530   1.990   6.508  3.4881 -2.8051 -2.1656
 7923SOL     OW35404   4.538   0.113   5.494  0.1172 -0.1814 -0.2253
 7923SOL    HW135405   4.535   0.053   5.420 -1.0220  1.7302 -1.7066
 7923SOL    HW235406   4.623   0.089   5.532 -0.3995  1.3327  1.8934
 7924SOL     OW35407   3.002   1.293  13.906  0.0953 -1.1083  0.3298
 7924SOL    HW135408   2.946   1.216  13.913 -0.8251 -0.4266  0.6121
 7924SOL    HW235409   2.947   1.360  13.949  1.8693  0.9398 -0.5949
 7925SOL     OW35410   4.650   3.383  16.932 -0.4411  0.3983 -0.0632
 7925SOL    HW135411   4.668   3.318  16.864  0.0536 -0.7079  1.1388
 7925SOL    HW235412   4.570   3.423  16.898 -0.8421  0.0567  0.4821
 7926SOL     OW35413   1.299   3.244   9.206  0.5644 -0.3184  0.0361
 7926SOL    HW135414   1.355   3.176   9.168 -1.2641 -1.6358 -0.3062
 7926SOL    HW235415   1.296   3.311   9.138 -3.3938  0.6987  1.1894
 7927SOL     OW35416   0.356   2.269   4.850 -0.3945 -0.3677  0.2608
 7927SOL    HW135417   0.323   2.254   4.762 -0.1011 -0.0322  0.0952
 7927SOL    HW235418   0.445   2.235   4.843 -1.1551 -2.3027 -0.1189
 7928SOL     OW35419   1.094   3.164  14.925  0.4898  0.6923  0.0866
 7928SOL    HW135420   1.054   3.140  14.841  0.5911 -1.0739  0.5401
 7928SOL    HW235421   1.165   3.221  14.896  1.6787 -0.6743  0.3068
 7929SOL     OW35422   2.264   1.823   6.572 -0.0979  0.1521 -0.2298
 7929SOL    HW135423   2.338   1.872   6.537 -0.1887 -1.0314 -2.1111
 7929SOL    HW235424   2.223   1.804   6.487  0.3686  0.7204 -0.5769
 7930SOL     OW35425   0.418   3.637   2.327  0.0486 -0.3824 -0.0243
 7930SOL    HW135426   0.498   3.584   2.332 -0.0787 -0.4783  0.9750
 7930SOL    HW235427   0.349   3.572   2.335 -0.2984 -0.0583 -0.4327
 7931SOL     OW35428   3.899   3.099   4.521  0.1584 -0.1056  0.0383
 7931SOL    HW135429   3.855   3.049   4.590 -3.4408  2.1385 -0.6326
 7931SOL    HW235430   3.926   3.018   4.477 -2.5925 -1.1640  0.2762
 7932SOL     OW35431   1.889   0.232  15.653  0.3237  0.0862 -0.1712
 7932SOL    HW135432   1.873   0.194  15.567 -2.3911 -0.3834  0.5359
 7932SOL    HW235433   1.891   0.323  15.625 -1.5456  0.6124  1.4163
 7933SOL     OW35434   4.128   0.745   9.103 -0.1383 -0.5626  0.1819
 7933SOL    HW135435   4.116   0.671   9.162 -0.8028  0.2174  1.0166
 7933SOL    HW235436   4.214   0.781   9.127  0.3313 -1.8680  0.4259
 7934SOL     OW35437   0.634   0.418   6.388 -0.6487 -0.7173 -0.2353
 7934SOL    HW135438   0.543   0.391   6.380 -1.4793  2.0481 -0.1968
 7934SOL    HW235439   0.668   0.330   6.402 -0.3205 -0.6871 -0.8632
 7935SOL     OW35440   4.627   3.139  16.761 -0.4763 -0.1490 -0.3404
 7935SOL    HW135441   4.602   3.049  16.779  0.2801 -0.5183 -1.1123
 7935SOL    HW235442   4.572   3.159  16.686  0.2259  0.4198 -0.7098
 7936SOL     OW35443   3.668   2.543   5.201  0.1110 -0.0666  0.5002
 7936SOL    HW135444   3.577   2.542   5.172  0.7628 -1.7150 -1.5295
 7936SOL    HW235445   3.706   2.511   5.119 -0.7959 -0.9818  0.4375
 7937SOL     OW35446   4.043   1.435   8.316 -0.3227 -0.5401 -0.1845
 7937SOL    HW135447   4.022   1.487   8.393  1.2853  3.0899 -2.2242
 7937SOL    HW235448   3.989   1.468   8.244  0.2111  1.5248  0.3631
 7938SOL     OW35449   1.316   1.857   4.872  0.1845 -0.1294  0.7402
 7938SOL    HW135450   1.284   1.794   4.807  2.2924 -0.9314  0.4773
 7938SOL    HW235451   1.310   1.940   4.826  1.1630 -0.1720  0.5362
 7939SOL     OW35452   1.608   3.405  15.147 -0.2358  0.4848  0.4663
 7939SOL    HW135453   1.570   3.491  15.163  1.0184  0.8381  1.4886
 7939SOL    HW235454   1.662   3.417  15.068 -1.8084 -0.3753 -0.7421
 7940SOL     OW35455   4.013   0.676   4.934  0.2542  0.1213  0.1351
 7940SOL    HW135456   4.082   0.644   4.877  1.8998 -0.4402  2.4599
 7940SOL    HW235457   4.021   0.624   5.014 -1.1084 -0.8273 -0.3404
 7941SOL     OW35458   3.013   1.449   3.297 -0.7660  0.2162 -0.7110
 7941SOL    HW135459   2.976   1.507   3.231 -2.0657  1.0162  0.7124
 7941SOL    HW235460   2.998   1.498   3.378 -1.1131 -1.7896  0.4312
 7942SOL     OW35461   1.684   1.930   0.030  0.3399  0.3744  0.3129
 7942SOL    HW135462   1.720   1.968  17.699 -1.7718 -0.6009 -1.1148
 7942SOL    HW235463   1.721   1.843   0.015  0.5386  0.3915  0.7312
 7943SOL     OW35464   4.717   0.845  12.270 -0.4609  0.0363  0.1411
 7943SOL    HW135465   4.654   0.840  12.341 -2.0433  0.7178 -1.2226
 7943SOL    HW235466   0.041   0.783  12.310  0.9482  1.1772 -0.2614
 7944SOL     OW35467   3.821   0.992  15.583 -0.8189  0.0830 -0.0887
 7944SOL    HW135468   3.881   0.981  15.509  1.3980  0.2554  1.6748
 7944SOL    HW235469   3.774   0.909  15.578  0.4952 -0.6090 -1.0679
 7945SOL     OW35470   2.779   3.933  14.780  0.1919 -0.4155 -0.2595
 7945SOL    HW135471   2.762   3.898  14.693 -1.3701  1.2688 -0.6226
 7945SOL    HW235472   2.775   3.858  14.839 -2.3552 -2.0804 -2.5519
 7946SOL     OW35473   1.161   2.955   7.375 -0.2726  0.1793  0.3567
 7946SOL    HW135474   1.196   3.044   7.383  0.0533 -0.0723  1.7052
 7946SOL    HW235475   1.219   2.901   7.428  1.4306  1.4682 -0.1543
 7947SOL     OW35476   2.495   4.238   7.933 -0.3275  0.5095 -0.7295
 7947SOL    HW135477   2.510   4.196   7.848  0.2398 -1.6721  0.4527
 7947SOL    HW235478   2.564   4.303   7.938  0.0820  0.3242 -3.5175
 7948SOL     OW35479   3.258   3.577   7.267  0.2421  0.2210 -0.1623
 7948SOL    HW135480   3.347   3.599   7.242  0.3353 -0.5517 -0.5216
 7948SOL    HW235481   3.224   3.528   7.192  0.1567 -0.2000  0.1516
 7949SOL     OW35482   3.674   4.717  17.361 -0.2706 -0.2983  0.1643
 7949SOL    HW135483   3.607   4.649  17.357 -1.2581  0.6135  1.1346
 7949SOL    HW235484   3.750   4.671  17.324  1.1839  1.5232  0.9205
 7950SOL     OW35485   4.178   2.885   9.123 -0.2955 -0.5247 -0.1474
 7950SOL    HW135486   4.204   2.977   9.124 -1.0277 -0.3310  1.0362
 7950SOL    HW235487   4.083   2.894   9.135 -0.2052  2.3132 -1.5645
 7951SOL     OW35488   2.004   3.783  16.623  0.2213 -0.0615 -0.1324
 7951SOL    HW135489   1.926   3.752  16.669  0.3201 -1.8967 -1.1880
 7951SOL    HW235490   1.981   3.876  16.626 -1.8114 -0.6350  1.7374
 7952SOL     OW35491   1.340   4.336   8.574 -0.5994 -0.4194  0.1434
 7952SOL    HW135492   1.360   4.298   8.660 -1.8090 -0.1714  0.5414
 7952SOL    HW235493   1.332   4.430   8.587 -2.2680 -0.9165  2.6282
 7953SOL     OW35494   2.990   4.707   2.871  0.2411 -0.5404 -0.0066
 7953SOL    HW135495   3.049   4.632   2.862  0.5740 -0.0932 -1.5785
 7953SOL    HW235496   3.033   0.015   2.944 -1.2806 -1.5883  1.5462
 7954SOL     OW35497   3.304   0.484   3.361 -0.0230  0.2227 -0.1489
 7954SOL    HW135498   3.262   0.501   3.445 -0.2537  0.9704 -0.4163
 7954SOL    HW235499   3.360   0.562   3.357  0.6362 -0.2005  1.1950
 7955SOL     OW35500   2.926   0.393  15.827  0.3837  0.2757 -0.3689
 7955SOL    HW135501   2.932   0.488  15.817 -3.2419  0.4582 -0.7134
 7955SOL    HW235502   2.960   0.386  15.916  1.0179 -0.8489 -0.7055
 7956SOL     OW35503   0.888   0.603   4.924  0.4869 -0.0243  0.3507
 7956SOL    HW135504   0.818   0.654   4.965 -1.3274 -2.6908  0.5832
 7956SOL    HW235505   0.943   0.669   4.882 -1.4257  1.8709  0.8428
 7957SOL     OW35506   0.857   3.256   3.296 -0.4863  0.4782 -0.9323
 7957SOL    HW135507   0.878   3.177   3.245 -3.4020 -0.7225 -0.2760
 7957SOL    HW235508   0.831   3.317   3.227 -1.1850 -0.6052 -1.6324
 7958SOL     OW35509   3.681   2.280   7.495  0.0123  0.8219  0.5662
 7958SOL    HW135510   3.600   2.239   7.466  0.6613  0.8798 -1.3735
 7958SOL    HW235511   3.740   2.284   7.419 -0.1695  0.8615  0.4262
 7959SOL     OW35512   0.561   3.259  16.131  0.2748 -0.4323  0.1872
 7959SOL    HW135513   0.524   3.187  16.181  0.9504 -2.0603 -1.6594
 7959SOL    HW235514   0.505   3.332  16.158 -0.5861 -1.3320  0.8091
 7960SOL     OW35515   1.474   3.158   8.402 -0.3014 -0.0003  0.2251
 7960SOL    HW135516   1.537   3.176   8.472 -0.5631 -1.2464  0.7799
 7960SOL    HW235517   1.403   3.122   8.455 -0.8010  1.6708  0.7020
 7961SOL     OW35518   0.852   1.807   5.217 -0.2156  0.3923 -0.2911
 7961SOL    HW135519   0.824   1.812   5.308 -0.1325  0.1883 -0.2564
 7961SOL    HW235520   0.945   1.823   5.234 -0.3289 -0.1808  0.8538
 7962SOL     OW35521   4.381   0.118  10.027  0.3378 -0.6334  0.0226
 7962SOL    HW135522   4.375   0.125  10.123 -2.2696 -1.7133 -0.0784
 7962SOL    HW235523   4.449   0.186  10.024  0.5844 -0.9832 -1.9784
 7963SOL     OW35524   1.995   4.030   9.177  0.5059  0.0557 -0.5592
 7963SOL    HW135525   2.058   4.042   9.248  0.3737 -1.5149 -0.1752
 7963SOL    HW235526   1.926   3.980   9.221 -0.1601  1.3840 -0.0816
 7964SOL     OW35527   4.367   1.662   7.395  0.2027  0.4617  0.0130
 7964SOL    HW135528   4.417   1.580   7.393 -1.3149 -0.4499 -0.9540
 7964SOL    HW235529   4.420   1.724   7.345  0.4318  1.5254  1.5695
 7965SOL     OW35530   1.605   3.960   7.024  0.4580 -0.0860 -0.2135
 7965SOL    HW135531   1.691   3.924   7.002  1.2061  1.1510  0.6829
 7965SOL    HW235532   1.547   3.887   7.046 -1.8114  1.3566 -1.3632
 7966SOL     OW35533   0.281   3.229   5.606 -0.2476 -0.0293 -0.0154
 7966SOL    HW135534   0.274   3.143   5.566  0.9864  0.0308 -0.3638
 7966SOL    HW235535   0.333   3.209   5.683  0.7355  0.5568 -0.5175
 7967SOL     OW35536   1.233   4.027   5.724  0.5419 -0.0935  0.2338
 7967SOL    HW135537   1.286   3.965   5.674  1.9839  1.2789  0.0619
 7967SOL    HW235538   1.151   4.018   5.676 -0.5517 -0.8678  2.2629
 7968SOL     OW35539   1.098   1.711   4.056  0.2816 -0.1924  0.5235
 7968SOL    HW135540   1.111   1.692   4.149 -0.8056  0.0280  0.7153
 7968SOL    HW235541   1.098   1.622   4.022  0.7814 -0.5471  1.4544
 7969SOL     OW35542   2.476   3.893   3.180  0.2232 -0.7601 -0.3085
 7969SOL    HW135543   2.448   3.977   3.144 -1.1541 -0.4819  1.4157
 7969SOL    HW235544   2.559   3.882   3.133 -1.3101  0.4905 -3.2982
 7970SOL     OW35545   1.402   2.938   6.808 -0.4003  0.9915 -0.4723
 7970SOL    HW135546   1.460   2.906   6.739 -1.3485 -1.9142  0.0902
 7970SOL    HW235547   1.468   2.943   6.877 -1.5918  1.6590  0.6214
 7971SOL     OW35548   1.220   2.570   4.940  0.1821  0.3329  0.9068
 7971SOL    HW135549   1.314   2.553   4.939  0.3670  1.3372  0.9541
 7971SOL    HW235550   1.232   2.652   4.891  0.4794  0.9698  2.0424
 7972SOL     OW35551   3.078   1.507  12.766 -0.1436 -0.1630 -0.7825
 7972SOL    HW135552   3.035   1.429  12.731  1.7022 -1.5792  0.0936
 7972SOL    HW235553   3.003   1.564  12.785  0.0256  0.4519 -1.9047
 7973SOL     OW35554   4.701   0.071   5.209 -0.2595 -0.1849 -0.0119
 7973SOL    HW135555   0.047   0.033   5.183 -2.0246 -3.6352 -0.6717
 7973SOL    HW235556   4.722   0.163   5.228 -0.3418 -0.1986  0.1480
 7974SOL     OW35557   3.534   2.913   8.609 -0.3256 -0.1893 -0.4949
 7974SOL    HW135558   3.620   2.956   8.615 -0.1324 -0.3124 -2.3154
 7974SOL    HW235559   3.551   2.851   8.538 -1.2461  0.6478 -1.4277
 7975SOL     OW35560   3.276   4.117   4.751  0.0545 -0.1522  0.5301
 7975SOL    HW135561   3.223   4.157   4.683  1.0048  0.4309  0.1292
 7975SOL    HW235562   3.285   4.029   4.713 -0.5536 -1.0451  2.4619
 7976SOL     OW35563   2.276   1.466  14.794 -0.0670 -0.1809  0.0324
 7976SOL    HW135564   2.346   1.431  14.739 -0.2090 -1.9412  0.9556
 7976SOL    HW235565   2.208   1.478  14.729  0.4387  1.7128 -0.1408
 7977SOL     OW35566   3.525   3.358  11.567  0.2378 -0.1740 -0.2842
 7977SOL    HW135567   3.528   3.409  11.648  1.0911  0.9807 -1.0643
 7977SOL    HW235568   3.612   3.321  11.553  0.2508 -0.3172  0.1478
 7978SOL     OW35569   2.280   0.474   3.360 -0.2551 -0.4436  0.2671
 7978SOL    HW135570   2.195   0.515   3.342 -0.4852  0.1062  2.6841
 7978SOL    HW235571   2.341   0.525   3.307  0.6994  0.6502  2.4346
 7979SOL     OW35572   0.647   4.557   1.432 -0.1770 -0.6006 -0.4746
 7979SOL    HW135573   0.687   4.547   1.519  2.5531 -0.4065 -1.6964
 7979SOL    HW235574   0.558   4.522   1.439 -0.5196  0.8591  2.4955
 7980SOL     OW35575   1.419   2.716  14.013 -0.2089  0.0284  0.0977
 7980SOL    HW135576   1.381   2.632  13.986 -0.5141  0.1603  0.1181
 7980SOL    HW235577   1.358   2.781  13.980  1.9322  1.9391 -0.1180
 7981SOL     OW35578   0.050   3.266  12.160 -0.1243 -0.2022 -0.2239
 7981SOL    HW135579   0.133   3.224  12.138  0.1317  0.2965 -0.2040
 7981SOL    HW235580   4.726   3.193  12.155  0.7902 -1.0042  0.1823
 7982SOL     OW35581   2.750   2.942   7.695 -0.2133  0.1195 -0.0519
 7982SOL    HW135582   2.783   2.973   7.779 -0.5372 -0.2775  0.2202
 7982SOL    HW235583   2.659   2.972   7.708  0.2197  1.7726 -0.7343
 7983SOL     OW35584   4.200   3.819  11.027 -0.3927 -0.0354 -0.0710
 7983SOL    HW135585   4.251   3.864  10.958 -0.8178  3.3948  1.8473
 7983SOL    HW235586   4.266   3.765  11.070  0.4406  0.9577 -0.0798
 7984SOL     OW35587   2.256   1.825   4.589  0.1290  0.4005 -0.0706
 7984SOL    HW135588   2.228   1.818   4.498  0.5147  0.0668 -0.1635
 7984SOL    HW235589   2.186   1.767   4.619  0.9483 -1.4632 -1.7808
 7985SOL     OW35590   2.175   1.677   0.737  0.3385  0.2197  0.0246
 7985SOL    HW135591   2.099   1.733   0.719  0.8627  1.4051  1.5038
 7985SOL    HW235592   2.161   1.655   0.829  0.7184  0.4603  0.1395
 7986SOL     OW35593   4.082   4.038   3.876 -0.0163  0.1667 -0.2251
 7986SOL    HW135594   3.994   4.004   3.895  0.5898 -0.2688  1.7635
 7986SOL    HW235595   4.101   3.995   3.793  0.0095  2.8309 -1.6008
 7987SOL     OW35596   0.936   2.143   8.676 -0.4137 -0.1029  0.0743
 7987SOL    HW135597   0.977   2.205   8.616  0.7918 -1.9063 -0.9599
 7987SOL    HW235598   0.853   2.130   8.631 -0.3962 -1.8931  0.5561
 7988SOL     OW35599   1.738   1.422   7.301  0.2076 -0.3999  0.6599
 7988SOL    HW135600   1.778   1.491   7.353  0.1845  0.4730 -0.4705
 7988SOL    HW235601   1.738   1.472   7.219  1.1740  0.4445  1.1812
 7989SOL     OW35602   3.851   2.902  14.897 -0.1383  0.3354 -0.0851
 7989SOL    HW135603   3.805   2.863  14.823 -3.1889  1.0810  1.4188
 7989SOL    HW235604   3.935   2.910  14.852  0.5246 -0.5669  0.9851
 7990SOL     OW35605   3.231   0.473   5.695 -0.0384 -0.0394  0.7503
 7990SOL    HW135606   3.272   0.424   5.767  0.2152 -1.3040 -0.2662
 7990SOL    HW235607   3.302   0.527   5.660 -0.2906  0.2065  0.6241
 7991SOL     OW35608   2.213   4.673   9.754  0.1227 -0.2480 -0.1794
 7991SOL    HW135609   2.124   4.681   9.720 -0.4492 -0.8133  1.1946
 7991SOL    HW235610   2.220   0.020   9.796 -0.2098  0.2389 -1.1015
 7992SOL     OW35611   4.319   2.123   5.662 -0.8351  0.0479  0.1514
 7992SOL    HW135612   4.273   2.185   5.718 -1.8378 -1.9789  1.5879
 7992SOL    HW235613   4.256   2.054   5.684  0.8731 -0.9990  1.6800
 7993SOL     OW35614   1.281   0.898   3.751 -0.1184  0.4592  0.2016
 7993SOL    HW135615   1.346   0.833   3.726 -1.6788 -0.4289 -1.5574
 7993SOL    HW235616   1.332   0.975   3.727  2.6221 -2.1675 -2.3618
 7994SOL     OW35617   3.466   2.079   8.722  0.3249 -0.6527 -0.0947
 7994SOL    HW135618   3.506   1.992   8.726  1.6167 -0.0763 -0.3443
 7994SOL    HW235619   3.454   2.089   8.627  2.0050 -0.0472 -0.2429
 7995SOL     OW35620   2.150   3.850   6.089 -0.3421 -0.3392 -0.2870
 7995SOL    HW135621   2.145   3.760   6.055 -3.0503 -1.1824  2.3695
 7995SOL    HW235622   2.057   3.871   6.088 -0.6034 -1.5222 -0.6635
 7996SOL     OW35623   3.426   2.305   7.711  0.0137 -0.3169  0.1052
 7996SOL    HW135624   3.467   2.364   7.647  3.2221 -0.8279  1.6896
 7996SOL    HW235625   3.368   2.370   7.751 -0.4463 -1.2755  0.9717
 7997SOL     OW35626   3.632   3.889   6.195  0.1256 -0.3165 -0.8071
 7997SOL    HW135627   3.706   3.940   6.162  0.5186 -1.7696 -2.1619
 7997SOL    HW235628   3.580   3.896   6.115 -1.3746 -2.1322  0.0239
 7998SOL     OW35629   4.658   3.956  12.577  0.0026  0.2478  0.0893
 7998SOL    HW135630   4.612   3.925  12.654  2.8354 -0.0249  1.6739
 7998SOL    HW235631   4.642   3.881  12.520 -4.1208 -0.0049  1.6254
 7999SOL     OW35632   4.570   3.813  11.841 -0.7676  0.1008  0.0333
 7999SOL    HW135633   4.637   3.782  11.901 -1.9800 -0.8985  0.8595
 7999SOL    HW235634   4.542   3.889  11.893  0.1750  0.9656 -0.7221
 8000SOL     OW35635   3.006   2.363   3.916  0.1446  0.5890  0.0033
 8000SOL    HW135636   3.006   2.349   4.011 -3.8216 -2.1380 -0.3985
 8000SOL    HW235637   2.925   2.317   3.892  0.2723  0.3238  0.0881
 8001SOL     OW35638   2.268   2.632  13.925 -0.2095 -0.5000  0.1070
 8001SOL    HW135639   2.242   2.543  13.903  2.5120 -0.9247 -1.3649
 8001SOL    HW235640   2.362   2.623  13.912 -0.0390 -0.1533  1.0735
 8002SOL     OW35641   1.938   2.439   6.256 -0.2235  0.7415 -0.4899
 8002SOL    HW135642   1.886   2.361   6.274  1.8404 -0.4695  0.2378
 8002SOL    HW235643   1.952   2.440   6.162  0.2794 -0.0314 -0.4258
 8003SOL     OW35644   4.471   3.690  15.159 -0.0281  0.3832  0.1460
 8003SOL    HW135645   4.410   3.756  15.129 -0.3802  0.6928  1.5231
 8003SOL    HW235646   4.540   3.743  15.200 -0.5974  1.2692 -0.0646
 8004SOL     OW35647   3.532   3.430   8.052  0.6647 -0.3782 -0.7597
 8004SOL    HW135648   3.544   3.524   8.040 -0.7117  0.2222  2.4888
 8004SOL    HW235649   3.528   3.428   8.147 -0.0773  0.6116 -0.7717
 8005SOL     OW35650   2.825   1.676   2.472  0.1335  0.4272  0.0323
 8005SOL    HW135651   2.762   1.618   2.430  2.3789 -2.6061  0.7630
 8005SOL    HW235652   2.849   1.631   2.554 -4.0983 -2.5253 -0.3377
 8006SOL     OW35653   2.964   1.690   6.166  0.6388  0.1443 -0.1401
 8006SOL    HW135654   2.943   1.782   6.185  1.3983  0.4069 -0.5844
 8006SOL    HW235655   2.900   1.686   6.095 -0.4230 -0.2892  0.8297
 8007SOL     OW35656   4.304   1.117   9.358  0.5495 -0.4067  0.1460
 8007SOL    HW135657   4.326   1.197   9.407  1.3450 -0.8965  0.5798
 8007SOL    HW235658   4.230   1.098   9.416  2.1401 -0.3878  2.1870
 8008SOL     OW35659   4.570   4.094   9.939  0.1938 -0.4519  0.1160
 8008SOL    HW135660   4.638   4.046   9.892 -0.3192  0.4716 -1.5720
 8008SOL    HW235661   4.502   4.026   9.944  1.5365 -1.7866  0.0351
 8009SOL     OW35662   0.654   3.548  15.130  0.6708  0.2694  0.0580
 8009SOL    HW135663   0.579   3.606  15.139 -0.0415 -0.5466 -0.6009
 8009SOL    HW235664   0.660   3.512  15.219  1.2502  0.7330  0.2002
 8010SOL     OW35665   2.557   4.426  15.397 -0.4008  0.0577 -0.1920
 8010SOL    HW135666   2.536   4.508  15.443 -1.3031 -1.0296  1.3361
 8010SOL    HW235667   2.536   4.451  15.307  1.7606  0.8146 -0.4913
 8011SOL     OW35668   4.003   0.954   2.303  0.0085  0.6832 -0.0989
 8011SOL    HW135669   3.912   0.964   2.275  0.4436  0.2926 -1.6955
 8011SOL    HW235670   4.053   0.964   2.222 -2.1491 -1.3175 -1.6810
 8012SOL     OW35671   2.499   3.543   4.577  0.6842  0.1236  0.0616
 8012SOL    HW135672   2.403   3.544   4.580  0.5686 -1.5514 -3.0922
 8012SOL    HW235673   2.533   3.488   4.647  1.2793  1.9722  1.2310
 8013SOL     OW35674   1.528   3.589  14.169 -0.1265  0.0641  0.4200
 8013SOL    HW135675   1.456   3.577  14.231  1.0654 -0.0730  1.7738
 8013SOL    HW235676   1.545   3.682  14.187  0.9040  0.3212 -1.8862
 8014SOL     OW35677   4.107   3.331   4.945  0.0928 -0.5375  0.1267
 8014SOL    HW135678   4.086   3.247   4.985 -0.9262 -0.1528  0.3866
 8014SOL    HW235679   4.203   3.336   4.948 -0.0771  2.1553  1.4258
 8015SOL     OW35680   4.105   2.146   8.753  0.3503 -0.1291 -1.0100
 8015SOL    HW135681   4.058   2.213   8.704  0.9499  0.3698 -0.8924
 8015SOL    HW235682   4.185   2.194   8.775  0.6718 -1.4511  0.6850
 8016SOL     OW35683   4.016   2.385   7.259  0.7852  0.1097  0.2115
 8016SOL    HW135684   3.942   2.325   7.269  0.8045  0.1710  0.7243
 8016SOL    HW235685   4.010   2.423   7.347 -1.5649  0.8396 -0.2683
 8017SOL     OW35686   2.334   1.063   0.742 -0.3026 -0.0211  0.8071
 8017SOL    HW135687   2.305   1.145   0.702  0.1642  0.0443  0.5989
 8017SOL    HW235688   2.339   1.089   0.834  0.0763 -1.2874  1.1504
 8018SOL     OW35689   1.716   1.463   5.226 -0.2619 -0.2139  0.1360
 8018SOL    HW135690   1.741   1.393   5.286 -0.9637 -1.4527 -1.0040
 8018SOL    HW235691   1.708   1.414   5.144 -0.4577 -0.8314  0.5301
 8019SOL     OW35692   4.509   0.429   8.179  0.6495 -0.3025  0.4346
 8019SOL    HW135693   4.534   0.340   8.202  0.4204 -0.2030  1.0661
 8019SOL    HW235694   4.423   0.418   8.137  0.6848 -0.1576  0.3247
 8020SOL     OW35695   4.353   0.823   5.793  0.0748  0.0511 -0.3600
 8020SOL    HW135696   4.329   0.782   5.710  4.4560  0.3910 -1.7838
 8020SOL    HW235697   4.276   0.875   5.817  0.6741  0.2845  1.0505
 8021SOL     OW35698   4.701   1.100   6.428  0.4076 -0.4397  0.2046
 8021SOL    HW135699   4.660   1.059   6.504  0.5209 -1.1229 -0.0982
 8021SOL    HW235700   4.630   1.105   6.364  0.3684 -1.2320  0.1841
 8022SOL     OW35701   0.994   0.834   6.425  0.0692  0.3840 -0.5233
 8022SOL    HW135702   0.951   0.748   6.430  2.4910 -0.8994 -1.7325
 8022SOL    HW235703   1.041   0.832   6.509 -0.6299  1.6741 -0.1018
 8023SOL     OW35704   2.016   4.625   8.933  0.1333  0.1003  0.2409
 8023SOL    HW135705   1.961   4.621   8.855 -2.7291 -0.6116  2.2760
 8023SOL    HW235706   1.945   4.604   8.994  0.4057  0.3537  0.6454
 8024SOL     OW35707   1.035   2.123  16.009  0.1565  0.0980  0.3599
 8024SOL    HW135708   1.106   2.140  15.948  0.9601 -0.3083  1.1849
 8024SOL    HW235709   0.969   2.094  15.945 -0.2536 -0.4049  1.0064
 8025SOL     OW35710   4.103   1.141  11.242 -0.0215  0.3195  0.4386
 8025SOL    HW135711   4.126   1.186  11.161 -1.1001  0.4725  0.2235
 8025SOL    HW235712   4.082   1.216  11.297 -1.7938 -0.6865  1.1423
 8026SOL     OW35713   0.463   0.366   6.910 -0.1622  0.1045  0.0776
 8026SOL    HW135714   0.405   0.419   6.855 -1.3924  0.9995  2.2301
 8026SOL    HW235715   0.430   0.279   6.887  3.1310 -0.7353 -1.4431
 8027SOL     OW35716   3.861   2.042  10.510  0.3163 -0.1026  0.8888
 8027SOL    HW135717   3.806   2.066  10.436  1.0349 -0.0679  0.3598
 8027SOL    HW235718   3.908   2.123  10.532  0.0662  0.2303  0.1869
 8028SOL     OW35719   0.042   2.176   9.338  0.2935  0.2525  0.5112
 8028SOL    HW135720   0.108   2.108   9.326  0.3472  0.4706 -0.4147
 8028SOL    HW235721   0.075   2.211   9.421  0.9513  0.2766  0.2374
 8029SOL     OW35722   1.793   1.632   5.645  0.4316  0.7086 -0.1973
 8029SOL    HW135723   1.780   1.670   5.732 -0.6512  0.4916 -0.2597
 8029SOL    HW235724   1.737   1.687   5.590 -3.5083 -2.0441  0.9750
 8030SOL     OW35725   4.734   4.542  15.803 -0.2546  0.1915 -0.0788
 8030SOL    HW135726   4.709   4.625  15.843 -0.1755  0.3519 -0.3686
 8030SOL    HW235727   0.049   4.579  15.732 -0.1754  0.0582 -0.0898
 8031SOL     OW35728   0.454   3.697   4.679  0.0327 -0.9600  0.2432
 8031SOL    HW135729   0.493   3.610   4.670  2.3895  0.0179  1.0812
 8031SOL    HW235730   0.521   3.737   4.735 -0.0161 -0.3028 -0.1718
 8032SOL     OW35731   3.007   1.324   8.182  0.2709  0.9680  0.6827
 8032SOL    HW135732   2.995   1.419   8.184  3.1981  1.3717 -0.2793
 8032SOL    HW235733   3.043   1.309   8.094  2.1896  0.6589  1.5290
 8033SOL     OW35734   2.457   4.152   0.397 -0.3317 -0.2599  0.7981
 8033SOL    HW135735   2.462   4.241   0.433 -0.8379  0.8928 -2.0035
 8033SOL    HW235736   2.534   4.139   0.342 -1.1983 -3.0933  0.2420
 8034SOL     OW35737   2.372   4.176  10.621 -1.0270  0.0507  0.3163
 8034SOL    HW135738   2.361   4.121  10.543  0.0971  0.4880 -0.1451
 8034SOL    HW235739   2.385   4.097  10.673 -1.0396 -1.7564 -2.4003
 8035SOL     OW35740   0.424   1.712  16.759 -0.1598 -0.2663 -0.0174
 8035SOL    HW135741   0.459   1.624  16.772  0.7844  0.1721  0.4479
 8035SOL    HW235742   0.503   1.749  16.720  0.2124 -1.8148 -0.7116
 8036SOL     OW35743   4.514   0.868   6.868  0.0297 -0.0066  0.0014
 8036SOL    HW135744   4.589   0.830   6.914  1.0853 -0.1164 -1.8105
 8036SOL    HW235745   4.500   0.946   6.922 -0.1340 -1.2763  1.7789
 8037SOL     OW35746   0.507   1.892   8.144  0.6083 -0.0541 -0.8038
 8037SOL    HW135747   0.413   1.907   8.149  1.0193  2.2309 -0.0339
 8037SOL    HW235748   0.508   1.800   8.169  0.9816  0.4592  1.0779
 8038SOL     OW35749   0.086   1.744   4.246 -0.3044 -0.7255 -0.0063
 8038SOL    HW135750   0.007   1.756   4.193 -0.2685  0.6212  0.2456
 8038SOL    HW235751   0.127   1.683   4.185 -0.4459 -1.0575  0.2310
 8039SOL     OW35752   4.436   3.509   9.049 -0.1765  0.0277 -0.1876
 8039SOL    HW135753   4.503   3.448   9.018 -1.4198 -0.7343 -1.3225
 8039SOL    HW235754   4.357   3.479   9.005  0.7493 -0.9375 -1.1987
 8040SOL     OW35755   2.294   2.457   0.879  0.0906 -0.8909  0.1826
 8040SOL    HW135756   2.218   2.414   0.841 -0.0478  0.8192 -1.4666
 8040SOL    HW235757   2.258   2.473   0.966  1.0286 -0.8054  0.5592
 8041SOL     OW35758   2.077   2.136   5.740  0.0017  0.2941  0.1654
 8041SOL    HW135759   2.052   2.046   5.716  1.9612  0.2464 -1.7327
 8041SOL    HW235760   1.995   2.184   5.728  1.4308  2.7848  0.4071
 8042SOL     OW35761   2.865   4.345   2.320 -0.3377 -0.1317 -0.0341
 8042SOL    HW135762   2.882   4.317   2.411 -1.1635 -1.0011 -0.1361
 8042SOL    HW235763   2.956   4.362   2.296 -0.2854 -1.3283 -0.6761
 8043SOL     OW35764   2.089   2.534   3.788  0.1007  0.8394 -0.0460
 8043SOL    HW135765   2.149   2.583   3.732 -0.8752  0.0036 -1.8522
 8043SOL    HW235766   2.109   2.444   3.762 -0.9440 -0.0556  2.2722
 8044SOL     OW35767   2.083   3.257   9.040  0.2255  0.5992  0.3164
 8044SOL    HW135768   2.161   3.222   8.997 -1.3199 -1.6274 -0.6922
 8044SOL    HW235769   2.021   3.281   8.972  0.8652  2.1150  0.2761
 8045SOL     OW35770   0.670   3.925   5.496 -0.0002  0.1544  0.2994
 8045SOL    HW135771   0.607   3.856   5.516 -2.0306  1.7358 -0.6142
 8045SOL    HW235772   0.689   3.956   5.585  0.0350 -0.6741  0.5838
 8046SOL     OW35773   2.907   0.107  14.629 -0.7583  0.2229 -0.4708
 8046SOL    HW135774   2.878   0.179  14.573  0.3001  0.7873 -0.2913
 8046SOL    HW235775   2.992   0.088  14.590 -1.7912 -2.1396 -1.5583
 8047SOL     OW35776   3.782   0.321   5.463  0.5456  0.6589  0.5483
 8047SOL    HW135777   3.717   0.260   5.498 -0.6366  2.6723  1.8905
 8047SOL    HW235778   3.840   0.254   5.428 -0.8920 -0.1322 -0.2981
 8048SOL     OW35779   1.745   1.354   5.582  0.7276  0.2961 -0.7038
 8048SOL    HW135780   1.762   1.447   5.592 -0.3323  0.3989  0.1476
 8048SOL    HW235781   1.825   1.321   5.540 -1.2026 -1.6395 -2.8746
 8049SOL     OW35782   4.349   4.211  11.188  0.1905 -0.1145  0.0577
 8049SOL    HW135783   4.271   4.215  11.132 -0.2403  0.6360  0.7097
 8049SOL    HW235784   4.412   4.192  11.118 -0.2379  0.1009 -0.3902
 8050SOL     OW35785   3.280   3.448   4.089 -0.3121 -0.1997 -0.6930
 8050SOL    HW135786   3.342   3.493   4.031  0.9517  1.9645  2.3447
 8050SOL    HW235787   3.346   3.400   4.139 -1.0194  3.5067  3.8164
 8051SOL     OW35788   3.734   0.169   8.377 -0.1211 -0.5084  0.8550
 8051SOL    HW135789   3.705   0.244   8.429  0.1959 -0.3599  0.8179
 8051SOL    HW235790   3.653   0.121   8.393  0.2806 -2.0531 -1.6783
 8052SOL     OW35791   1.223   0.046   9.126  0.1895 -0.3955 -0.1354
 8052SOL    HW135792   1.225   0.121   9.185 -1.9318  0.3493 -1.0065
 8052SOL    HW235793   1.175   0.078   9.049  0.6057  0.8108  0.1269
 8053SOL     OW35794   0.822   4.506  16.126 -0.4062 -0.0363 -0.0408
 8053SOL    HW135795   0.856   4.591  16.153  0.8818 -0.1760 -1.2640
 8053SOL    HW235796   0.774   4.536  16.048 -1.3150  3.1998  1.8136
 8054SOL     OW35797   2.767   1.725  16.855 -0.3958 -0.0692 -0.1176
 8054SOL    HW135798   2.691   1.693  16.807  0.8773 -1.3571 -1.2856
 8054SOL    HW235799   2.829   1.739  16.783 -1.3584 -1.7300 -1.2472
 8055SOL     OW35800   1.204   1.920   5.777  0.0766 -0.7819 -0.8616
 8055SOL    HW135801   1.176   1.873   5.856  2.1491  0.0533  0.3678
 8055SOL    HW235802   1.264   1.978   5.823 -0.2151 -1.5960  0.5465
 8056SOL     OW35803   3.937   3.647   3.393 -0.3510 -0.0007  0.4737
 8056SOL    HW135804   3.990   3.568   3.402  1.7026  1.7497  3.6881
 8056SOL    HW235805   3.889   3.618   3.315 -0.7250  0.0075  0.7010
 8057SOL     OW35806   2.858   4.494   4.849  0.1715  0.3442  0.0755
 8057SOL    HW135807   2.874   4.401   4.833 -4.5621 -0.2785 -0.9921
 8057SOL    HW235808   2.812   4.493   4.933  0.5188 -0.1357  0.2583
 8058SOL     OW35809   4.398   0.886  17.173  0.3386 -0.0227  0.4765
 8058SOL    HW135810   4.392   0.795  17.202  3.2548 -0.1292  0.7868
 8058SOL    HW235811   4.473   0.878  17.114  0.8281  2.8675  0.7009
 8059SOL     OW35812   0.524   2.934   9.513  0.4873 -0.3908  0.0674
 8059SOL    HW135813   0.603   2.961   9.467 -1.6852  0.4552 -3.1331
 8059SOL    HW235814   0.477   3.016   9.528  0.5547 -0.3849  0.2524
 8060SOL     OW35815   1.393   2.169   8.346 -0.0410 -0.3731 -0.6435
 8060SOL    HW135816   1.327   2.226   8.385  1.7679  2.5024 -1.8671
 8060SOL    HW235817   1.471   2.223   8.334 -0.3415  0.7540  2.4044
 8061SOL     OW35818   3.968   3.537  13.216  0.3043 -0.4780 -1.0974
 8061SOL    HW135819   3.912   3.479  13.164 -0.7111 -1.1645  0.7538
 8061SOL    HW235820   3.923   3.549  13.300  0.4181  1.5202 -1.3165
 8062SOL     OW35821   3.373   4.554   5.360  1.0016  0.0480  0.1552
 8062SOL    HW135822   3.314   4.618   5.320  0.6884 -0.0056  0.5308
 8062SOL    HW235823   3.459   4.573   5.322  1.6703 -1.5324  0.8672
 8063SOL     OW35824   4.588   3.656   9.262  0.2284 -0.3473  0.0990
 8063SOL    HW135825   4.561   3.732   9.210 -0.0892 -0.6710 -0.2073
 8063SOL    HW235826   4.528   3.593   9.222 -1.7290  1.8637 -0.4509
 8064SOL     OW35827   3.420   1.184   6.643 -0.2885  0.0724 -0.5541
 8064SOL    HW135828   3.327   1.204   6.636 -0.3928 -0.0643  0.4287
 8064SOL    HW235829   3.414   1.094   6.676  1.0021  0.1789 -0.0409
 8065SOL     OW35830   0.930   3.970   5.091 -0.5389  0.0136 -0.0850
 8065SOL    HW135831   0.979   4.047   5.121 -0.7415 -0.3740  1.2623
 8065SOL    HW235832   0.892   3.931   5.170  1.2716  0.7117  1.1391
 8066SOL     OW35833   3.576   2.422   2.597  0.0036 -0.0916 -0.6672
 8066SOL    HW135834   3.489   2.384   2.610 -0.5349  0.9823 -1.1977
 8066SOL    HW235835   3.628   2.342   2.584 -2.5279 -1.9371  0.6621
 8067SOL     OW35836   2.632   0.080   7.719 -0.6304 -0.0533 -1.1503
 8067SOL    HW135837   2.633   0.031   7.801  2.0222 -0.6454 -1.5344
 8067SOL    HW235838   2.639   0.003   7.661  2.3454 -1.4839  1.1170
 8068SOL     OW35839   2.699   2.681   2.136 -0.0815 -0.1588 -0.2958
 8068SOL    HW135840   2.672   2.594   2.107  1.4776  0.0403 -2.3524
 8068SOL    HW235841   2.636   2.689   2.207  2.6212  0.2425  2.0288
 8069SOL     OW35842   2.842   2.635  16.089  0.0269 -0.5967  0.4731
 8069SOL    HW135843   2.882   2.572  16.149 -0.2968  0.2873  1.6251
 8069SOL    HW235844   2.844   2.591  16.004  0.1292 -0.9056  0.6374
 8070SOL     OW35845   3.093   3.278   7.160 -0.3644  0.0896  0.6153
 8070SOL    HW135846   3.117   3.199   7.111 -0.9533  1.6255 -2.1762
 8070SOL    HW235847   3.150   3.346   7.124  0.2796 -0.4590  0.5942
 8071SOL     OW35848   4.566   0.959  12.666  0.3122 -0.2991 -0.0890
 8071SOL    HW135849   4.571   0.890  12.733 -0.7542 -0.4138 -0.1374
 8071SOL    HW235850   4.627   1.026  12.697  1.3770 -0.5323 -1.6667
 8072SOL     OW35851   0.538   0.998   5.011  0.0303  0.3441  0.4880
 8072SOL    HW135852   0.484   1.076   5.006 -2.1968 -0.9960  3.9191
 8072SOL    HW235853   0.616   1.033   5.054  1.6165 -0.0889 -2.0279
 8073SOL     OW35854   3.616   4.304   5.379 -0.4906  0.1140 -0.1400
 8073SOL    HW135855   3.545   4.258   5.334 -0.0724 -2.5613  1.9071
 8073SOL    HW235856   3.624   4.379   5.321 -0.2035  1.8149  2.0684
 8074SOL     OW35857   3.134   3.121   6.302  0.3354  0.0529  0.1842
 8074SOL    HW135858   3.158   3.157   6.216  1.6311 -0.2205  0.4263
 8074SOL    HW235859   3.060   3.172   6.333 -1.7441 -1.2021 -2.6945
 8075SOL     OW35860   2.546   1.733   9.753 -0.6563  0.7614  0.2159
 8075SOL    HW135861   2.538   1.821   9.790  1.9722  0.7575  0.7915
 8075SOL    HW235862   2.629   1.709   9.794 -1.8412 -0.5113  1.8446
 8076SOL     OW35863   2.749   1.590   5.970 -0.4348  0.2666 -0.6358
 8076SOL    HW135864   2.659   1.607   5.997 -0.0901 -0.8079  1.1818
 8076SOL    HW235865   2.742   1.495   5.959  0.0957  0.1182  0.3025
 8077SOL     OW35866   3.495   0.982   3.717 -0.0313 -0.4215  0.2246
 8077SOL    HW135867   3.517   1.060   3.768  0.7845 -0.9456  0.6686
 8077SOL    HW235868   3.464   0.933   3.793  3.0828 -2.2524  0.2909
 8078SOL     OW35869   1.920   2.422   1.997 -0.7052 -0.1106 -0.5325
 8078SOL    HW135870   1.924   2.327   2.006 -0.5954  0.3450  4.1168
 8078SOL    HW235871   1.968   2.436   1.916  0.0853 -0.6959 -0.1619
 8079SOL     OW35872   3.389   3.225   4.236  0.0028  0.5503  0.3165
 8079SOL    HW135873   3.413   3.167   4.163 -1.5246  0.9562 -0.5032
 8079SOL    HW235874   3.469   3.222   4.288 -1.8148  1.3840  3.1090
 8080SOL     OW35875   0.650   2.434   5.299  0.6437  0.1517 -0.1263
 8080SOL    HW135876   0.730   2.384   5.316  0.2062 -0.6605 -0.4226
 8080SOL    HW235877   0.593   2.408   5.371 -0.3847  0.1406 -0.9518
 8081SOL     OW35878   2.265   2.378   1.147  0.2647 -0.2829 -0.0850
 8081SOL    HW135879   2.358   2.373   1.129 -0.0922 -2.0390 -1.4335
 8081SOL    HW235880   2.247   2.284   1.146 -2.3696  0.1994  0.6545
 8082SOL     OW35881   1.877   2.459  17.650 -0.0742 -0.5429  0.7009
 8082SOL    HW135882   1.872   2.426  17.739  0.3260 -3.3293 -0.3043
 8082SOL    HW235883   1.971   2.478  17.643 -0.3395  0.3893 -0.3326
 8083SOL     OW35884   1.096   1.466   8.605  0.6716 -0.1262 -0.0784
 8083SOL    HW135885   1.132   1.423   8.527  2.4431 -0.0788  0.7280
 8083SOL    HW235886   1.053   1.392   8.648 -2.2873  0.1780 -2.4935
 8084SOL     OW35887   3.860   2.638   6.257  0.2631 -0.0229  0.2916
 8084SOL    HW135888   3.935   2.617   6.313 -0.4554  1.4665  1.8439
 8084SOL    HW235889   3.796   2.573   6.285 -0.6345  0.8984  0.3886
 8085SOL     OW35890   1.904   2.815   2.618 -0.3367  0.3108  0.8593
 8085SOL    HW135891   1.886   2.902   2.583 -1.7580 -0.3951 -0.1544
 8085SOL    HW235892   1.821   2.768   2.624 -0.2684  0.0929  0.0627
 8086SOL     OW35893   3.987   4.598   3.286 -0.0210 -0.0440  0.3986
 8086SOL    HW135894   3.966   4.609   3.378 -0.6391  0.3577  0.2041
 8086SOL    HW235895   4.080   4.575   3.295  0.1771  0.7550  0.3906
 8087SOL     OW35896   2.168   0.848   6.725  0.4163 -0.2121 -0.3976
 8087SOL    HW135897   2.129   0.783   6.665  2.0766 -0.8277 -0.8126
 8087SOL    HW235898   2.186   0.802   6.807 -0.9985 -0.3763 -0.1813
 8088SOL     OW35899   4.364   0.136   0.098 -0.3355 -0.0851  0.1191
 8088SOL    HW135900   4.341   0.188   0.175  1.9448  0.6289  0.3268
 8088SOL    HW235901   4.359   0.201   0.028  0.6787  0.7019  0.7701
 8089SOL     OW35902   0.764   1.113  17.626  0.4814  0.3054  1.3472
 8089SOL    HW135903   0.691   1.160  17.585  2.3470  0.3177 -1.9636
 8089SOL    HW235904   0.831   1.125  17.558 -0.2822  1.1861  0.7456
 8090SOL     OW35905   3.697   0.876  15.241  0.2600  0.0113  0.4932
 8090SOL    HW135906   3.778   0.915  15.274  0.4661  0.5890 -0.6982
 8090SOL    HW235907   3.726   0.785  15.248  1.6718  0.5040  0.9599
 8091SOL     OW35908   2.462   4.143   7.291 -0.1700  0.7289 -0.3879
 8091SOL    HW135909   2.418   4.222   7.261 -0.1878  0.2640 -1.5953
 8091SOL    HW235910   2.437   4.144   7.383 -0.4661  2.3092 -0.4975
 8092SOL     OW35911   4.089   1.618   6.470  0.0557  0.0189 -0.0602
 8092SOL    HW135912   4.028   1.686   6.499  0.5696  0.4562  0.0038
 8092SOL    HW235913   4.084   1.622   6.375  2.3104 -0.6532 -0.2123
 8093SOL     OW35914   3.104   1.121  17.111 -0.4607  0.3313 -0.1267
 8093SOL    HW135915   3.044   1.078  17.172 -0.5470  2.4423  1.2902
 8093SOL    HW235916   3.059   1.206  17.105  0.6093  0.8399 -1.1193
 8094SOL     OW35917   3.355   1.925  11.279  0.0570  0.2788 -0.4199
 8094SOL    HW135918   3.450   1.932  11.265  0.0797  1.0151  0.1142
 8094SOL    HW235919   3.340   1.834  11.251 -0.8623  0.2681  0.1494
 8095SOL     OW35920   1.706   1.308   4.404  0.6745  0.5131 -0.5120
 8095SOL    HW135921   1.668   1.230   4.363 -1.2985  2.4940 -2.4072
 8095SOL    HW235922   1.800   1.293   4.389  0.4324 -1.8222  0.3376
 8096SOL     OW35923   2.472   2.188   2.653 -0.5810  0.0602  0.8190
 8096SOL    HW135924   2.504   2.150   2.734  1.5415  0.9992  0.4114
 8096SOL    HW235925   2.399   2.131   2.626 -0.0605 -0.9045  1.4581
 8097SOL     OW35926   2.216   0.688   7.886  0.0877  0.2879 -0.1718
 8097SOL    HW135927   2.287   0.741   7.921 -0.6768  0.1871  1.5275
 8097SOL    HW235928   2.181   0.644   7.964 -0.8356 -0.6154 -1.0988
 8098SOL     OW35929   4.415   3.569  16.481 -0.5461 -0.3699 -0.1226
 8098SOL    HW135930   4.383   3.650  16.521 -1.5116 -2.0355  2.4639
 8098SOL    HW235931   4.444   3.519  16.557  2.2406  0.2607 -0.7804
 8099SOL     OW35932   1.720   2.042   8.526 -0.0000  0.1404 -0.3575
 8099SOL    HW135933   1.791   1.982   8.551 -1.1267 -0.6855  0.8000
 8099SOL    HW235934   1.717   2.052   8.430  0.6886 -0.4218 -0.4376
 8100SOL     OW35935   3.704   2.654   9.187 -0.4341  0.4429  0.2714
 8100SOL    HW135936   3.657   2.617   9.113  1.1778 -1.2583  0.0842
 8100SOL    HW235937   3.751   2.573   9.207 -0.3146  0.1241 -1.3333
 8101SOL     OW35938   2.182   1.501   4.781 -0.0268  0.0787 -0.3030
 8101SOL    HW135939   2.132   1.420   4.771 -0.3243  0.4531 -2.0035
 8101SOL    HW235940   2.254   1.496   4.718 -1.4793  0.0108 -1.9942
 8102SOL     OW35941   1.830   0.007  17.618 -0.1697  0.2266 -0.2761
 8102SOL    HW135942   1.747   4.703  17.638  0.0113 -0.9235 -1.9297
 8102SOL    HW235943   1.816   0.024  17.525 -0.5490  0.3697 -0.1931
 8103SOL     OW35944   1.222   1.753   8.901  0.0314 -0.0937  0.6144
 8103SOL    HW135945   1.186   1.800   8.825  0.0980 -4.4863 -2.1652
 8103SOL    HW235946   1.237   1.667   8.862 -1.7650  0.1471 -0.6499
 8104SOL     OW35947   1.354   0.788   0.563  0.5245 -0.2262 -0.5771
 8104SOL    HW135948   1.266   0.824   0.555  0.2715 -0.6331  0.3638
 8104SOL    HW235949   1.390   0.820   0.480  2.4887  0.6298  0.6036
 8105SOL     OW35950   2.018   1.886   5.672  0.4838 -0.1430 -0.5171
 8105SOL    HW135951   1.940   1.870   5.723 -0.2425 -2.3599 -2.3340
 8105SOL    HW235952   2.050   1.797   5.659  1.2057  0.1758 -1.0122
 8106SOL     OW35953   0.631   2.164  13.363  0.5310 -0.0160 -0.3594
 8106SOL    HW135954   0.655   2.190  13.451 -2.3343 -0.4774  0.5487
 8106SOL    HW235955   0.552   2.111  13.376  0.4115 -0.0536 -1.2073
 8107SOL     OW35956   2.666   2.576   5.287  0.0343 -0.2584 -0.8301
 8107SOL    HW135957   2.760   2.585   5.300 -0.0470 -0.0648 -0.3816
 8107SOL    HW235958   2.632   2.661   5.260  0.0383 -0.3052 -0.9817
 8108SOL     OW35959   4.138   2.772   5.956  0.4045 -0.2989  0.4766
 8108SOL    HW135960   4.050   2.791   5.926  0.5726  0.5116  0.4800
 8108SOL    HW235961   4.131   2.841   6.023  1.7184 -0.4704  0.8021
 8109SOL     OW35962   3.955   2.295   5.374  0.2440 -0.2378  0.1162
 8109SOL    HW135963   3.864   2.279   5.349 -0.2136  2.5159  0.0323
 8109SOL    HW235964   3.982   2.323   5.287 -1.4830  1.8399  0.2243
 8110SOL     OW35965   4.393   1.889   0.420 -0.2569 -0.0983  0.4824
 8110SOL    HW135966   4.377   1.982   0.402  0.3108 -0.4488 -1.8923
 8110SOL    HW235967   4.397   1.885   0.515 -0.7394 -0.0332  0.5064
 8111SOL     OW35968   1.841   3.963   2.740  0.0140 -0.0419  0.3498
 8111SOL    HW135969   1.884   3.905   2.802 -0.0017  1.1711  1.4934
 8111SOL    HW235970   1.910   4.027   2.726 -0.4671  0.3394 -0.3248
 8112SOL     OW35971   1.376   4.542   1.714 -0.6460 -0.1740  0.1877
 8112SOL    HW135972   1.443   4.475   1.703  0.6062  1.2847 -1.1084
 8112SOL    HW235973   1.412   4.611   1.658  0.3836 -0.0704  0.9845
 8113SOL     OW35974   1.730   3.672  12.022  0.3202 -0.4047  0.0013
 8113SOL    HW135975   1.707   3.611  11.951 -0.2813  1.3724 -1.3282
 8113SOL    HW235976   1.694   3.623  12.096 -0.2564  0.8428  0.5410
 8114SOL     OW35977   0.914   3.153   9.961  0.6858 -0.2330 -0.4359
 8114SOL    HW135978   0.819   3.141   9.963  0.2120  3.5676 -0.5412
 8114SOL    HW235979   0.914   3.246   9.941  1.3727  0.2074  1.5946
 8115SOL     OW35980   2.215   1.627   2.905  0.0703  0.6750  0.4910
 8115SOL    HW135981   2.155   1.699   2.928 -1.6120 -0.1729 -1.2120
 8115SOL    HW235982   2.195   1.595   2.817 -1.1118 -0.6732  1.2581
 8116SOL     OW35983   3.346   3.396  11.887  0.3197  0.5407 -0.4736
 8116SOL    HW135984   3.352   3.312  11.843 -0.7483  0.0342  0.3522
 8116SOL    HW235985   3.425   3.446  11.866 -0.4719  1.1742 -1.9331
 8117SOL     OW35986   3.125   0.682   0.123  0.4798 -0.8343 -0.0342
 8117SOL    HW135987   3.187   0.686   0.196 -1.4443 -1.5177  1.6661
 8117SOL    HW235988   3.053   0.632   0.163  0.1612 -1.2547 -1.1477
 8118SOL     OW35989   3.761   0.599  15.245  0.0816 -0.0810  0.5611
 8118SOL    HW135990   3.800   0.568  15.327  0.2387  1.3607  1.0324
 8118SOL    HW235991   3.828   0.552  15.195  0.9915 -1.3122  2.9064
 8119SOL     OW35992   3.823   3.400  10.221 -0.3140 -0.0600 -0.4309
 8119SOL    HW135993   3.802   3.355  10.139 -1.2593 -0.1746 -0.1179
 8119SOL    HW235994   3.770   3.341  10.274 -0.9025  2.1730  1.4420
 8120SOL     OW35995   3.003   1.325   9.905 -0.1185  0.5548 -0.5490
 8120SOL    HW135996   3.087   1.343   9.947 -2.0834  2.0588  2.8000
 8120SOL    HW235997   2.996   1.406   9.854  0.6723  1.0872  0.1697
 8121SOL     OW35998   3.926   0.909  14.348  0.4497  0.2277  0.1544
 8121SOL    HW135999   3.988   0.981  14.356 -0.2320  0.9680 -1.1828
 8121SOL    HW236000   3.984   0.834  14.332 -1.1220 -0.9929  0.1436
 8122SOL     OW36001   3.581   1.294   1.315  0.0941  0.4010  0.0163
 8122SOL    HW136002   3.594   1.238   1.391 -0.1396 -1.2427 -1.1412
 8122SOL    HW236003   3.509   1.350   1.343  1.4729  1.7920  0.7640
 8123SOL     OW36004   1.437   0.668  14.261 -0.6835  0.2818 -0.1633
 8123SOL    HW136005   1.524   0.633  14.280 -1.7153 -1.0494  2.0469
 8123SOL    HW236006   1.388   0.586  14.266 -0.2907  0.0078 -0.8414
 8124SOL     OW36007   4.437   3.993   2.448  0.2402  0.5267 -0.0338
 8124SOL    HW136008   4.525   4.027   2.433  0.3697  0.7144  1.1587
 8124SOL    HW236009   4.406   4.068   2.498  0.8159  1.1902 -0.6706
 8125SOL     OW36010   1.085   0.167   7.835 -0.3475  0.7407  0.3029
 8125SOL    HW136011   1.133   0.237   7.791  0.4104 -0.4351 -0.7374
 8125SOL    HW236012   1.077   0.088   7.781 -0.0087  0.7372  0.2588
 8126SOL     OW36013   3.226   3.771   5.580 -0.5109  0.5714  0.0548
 8126SOL    HW136014   3.304   3.727   5.545 -1.0434  0.9558 -1.6338
 8126SOL    HW236015   3.207   3.837   5.514 -1.1588  2.1141  1.7918
 8127SOL     OW36016   3.568   1.283   5.434 -0.5306 -0.3176 -0.3003
 8127SOL    HW136017   3.534   1.224   5.366 -0.9594 -0.5418  0.1073
 8127SOL    HW236018   3.663   1.279   5.427 -0.3992  2.1229  0.1289
 8128SOL     OW36019   3.476   1.553  11.264  0.5292 -0.0474 -0.1380
 8128SOL    HW136020   3.445   1.605  11.190 -0.1388 -1.4492 -0.8534
 8128SOL    HW236021   3.571   1.557  11.252  0.5505  1.7755  0.6249
 8129SOL     OW36022   2.614   4.577  13.290  0.0702  0.2143  0.1097
 8129SOL    HW136023   2.570   4.492  13.283  1.4924 -0.4240 -1.0035
 8129SOL    HW236024   2.688   4.560  13.348 -0.2882  1.8730  1.0649
 8130SOL     OW36025   1.436   3.226   7.567 -0.3120 -0.1208  0.3026
 8130SOL    HW136026   1.526   3.215   7.538  0.0908 -0.2336  1.6028
 8130SOL    HW236027   1.421   3.150   7.623 -0.4996 -1.9849 -2.3007
 8131SOL     OW36028   1.971   0.759   6.051  0.8065 -0.0129 -0.6001
 8131SOL    HW136029   1.880   0.733   6.062  0.5600  0.5535 -1.2672
 8131SOL    HW236030   2.003   0.750   6.141  1.9722 -0.6010 -1.0791
 8132SOL     OW36031   0.168   0.624   5.062 -0.2431  0.2867  0.3312
 8132SOL    HW136032   0.227   0.668   5.123 -0.0709 -0.6696  0.8505
 8132SOL    HW236033   0.222   0.559   5.017 -0.6995  0.7812 -0.9559
 8133SOL     OW36034   0.684   3.104   4.532 -0.0076  0.3982  0.3679
 8133SOL    HW136035   0.701   3.100   4.626 -1.8298 -1.1968  0.6394
 8133SOL    HW236036   0.588   3.105   4.528  0.1166  0.3114 -2.4793
 8134SOL     OW36037   2.843   2.674   8.029  0.2082 -0.0249 -0.3098
 8134SOL    HW136038   2.749   2.681   8.015 -0.0703  2.9285  3.1085
 8134SOL    HW236039   2.871   2.757   8.067  0.8540 -0.7550  0.7983
 8135SOL     OW36040   1.486   1.624   7.192  0.5608 -0.8130  0.1822
 8135SOL    HW136041   1.450   1.542   7.227 -0.0098 -1.3770 -1.7597
 8135SOL    HW236042   1.449   1.695   7.244  0.9271 -0.3945 -0.1341
 8136SOL     OW36043   3.047   4.541   8.789  0.1280  0.0406 -0.2050
 8136SOL    HW136044   3.005   4.519   8.705 -0.1448  0.3243 -0.1400
 8136SOL    HW236045   3.005   4.621   8.820 -0.1986  1.0659 -3.3007
 8137SOL     OW36046   0.217   3.812   1.052 -0.1238  0.3005 -0.0905
 8137SOL    HW136047   0.146   3.865   1.015  0.4615  0.4107 -1.0789
 8137SOL    HW236048   0.247   3.763   0.975  1.0488 -0.7308  1.0202
 8138SOL     OW36049   1.653   2.330  10.103 -0.0561  0.2039  0.5715
 8138SOL    HW136050   1.744   2.330  10.132 -0.4851 -1.2477  1.8944
 8138SOL    HW236051   1.629   2.244  10.136 -0.7841 -0.4069 -1.5587
 8139SOL     OW36052   1.502   2.827   9.187 -0.1455  0.0185 -0.0242
 8139SOL    HW136053   1.475   2.824   9.279 -2.1708  0.8010 -0.6003
 8139SOL    HW236054   1.596   2.814   9.201 -0.3781  0.2227  1.7011
 8140SOL     OW36055   2.746   1.211  17.195 -0.5518  0.4063 -0.3061
 8140SOL    HW136056   2.830   1.257  17.186  0.0165 -0.9534 -1.8820
 8140SOL    HW236057   2.780   1.122  17.209 -1.0791 -0.0547 -1.9995
 8141SOL     OW36058   0.718   1.106  15.219 -0.6815  0.1921 -0.4862
 8141SOL    HW136059   0.719   1.075  15.309 -0.9508  1.7818  0.0685
 8141SOL    HW236060   0.809   1.138  15.217 -0.6843  0.2371  0.1966
 8142SOL     OW36061   1.134   0.382   7.083 -0.1037  0.1829 -0.3232
 8142SOL    HW136062   1.056   0.327   7.079 -0.4865  0.5163  2.4146
 8142SOL    HW236063   1.193   0.329   7.137 -0.4083  0.8780  0.6990
 8143SOL     OW36064   0.266   2.972   3.379  0.2390 -0.1103  0.2266
 8143SOL    HW136065   0.241   3.022   3.457 -2.5729 -1.5197  0.2596
 8143SOL    HW236066   0.245   3.036   3.310 -0.9415 -0.0059  0.6798
 8144SOL     OW36067   3.609   0.187   3.525 -0.0609  0.2171  0.0226
 8144SOL    HW136068   3.539   0.133   3.490  0.8340 -0.5250 -0.6239
 8144SOL    HW236069   3.676   0.169   3.458  0.6368 -0.8991  1.0052
 8145SOL     OW36070   3.005   2.219   1.286 -0.1071  0.3052 -0.4837
 8145SOL    HW136071   3.028   2.276   1.212 -0.8766  1.3443  0.0845
 8145SOL    HW236072   2.918   2.256   1.300  0.3901  1.8521 -1.4908
 8146SOL     OW36073   3.065   2.264   1.713  0.3575  0.0927  0.8533
 8146SOL    HW136074   3.107   2.322   1.777  1.4768  1.3917 -1.0739
 8146SOL    HW236075   2.983   2.305   1.687 -0.3889 -0.8499  1.6896
 8147SOL     OW36076   3.050   1.557   9.784 -0.1940  0.1642 -0.1139
 8147SOL    HW136077   3.140   1.538   9.811  0.2968  1.3436 -0.9164
 8147SOL    HW236078   3.043   1.652   9.799  2.2562  0.2745  0.4461
 8148SOL     OW36079   2.163   0.539   1.653  0.3548  0.9512  0.3590
 8148SOL    HW136080   2.160   0.444   1.649  0.6284  0.9296  0.7140
 8148SOL    HW236081   2.072   0.563   1.633  0.3110 -1.0609 -1.9498
 8149SOL     OW36082   4.487   4.227   6.889 -0.1835 -0.6796 -0.1109
 8149SOL    HW136083   4.405   4.181   6.902  0.5646 -1.9898 -0.0662
 8149SOL    HW236084   4.537   4.164   6.838  0.2357 -0.7295  0.3491
 8150SOL     OW36085   3.015   2.103   7.025  0.3740  0.5191  0.0132
 8150SOL    HW136086   3.038   2.017   6.990 -0.7474  1.5079 -3.1879
 8150SOL    HW236087   2.942   2.080   7.082  1.3084 -0.1572  0.9328
 8151SOL     OW36088   1.255   1.685  11.026  0.6224 -0.2225 -0.7453
 8151SOL    HW136089   1.198   1.759  11.003 -1.2465 -2.0928 -2.1290
 8151SOL    HW236090   1.207   1.642  11.097  1.1848  0.2539 -0.0766
 8152SOL     OW36091   0.034   3.461  17.182  0.1840  0.6886 -0.3634
 8152SOL    HW136092   0.091   3.533  17.210 -2.2255  3.1472 -1.8749
 8152SOL    HW236093   0.002   3.482  17.094 -0.3839  0.6051 -0.1719
 8153SOL     OW36094   1.073   1.950  13.812  0.3967 -0.2217  0.2216
 8153SOL    HW136095   1.083   1.973  13.905  0.2989 -0.9368  0.4029
 8153SOL    HW236096   0.998   1.891  13.820 -0.1244  0.5442  0.9954
 8154SOL     OW36097   1.113   0.408   0.337  0.3235 -0.1837 -0.2504
 8154SOL    HW136098   1.084   0.380   0.424 -0.2807 -0.3879 -0.5099
 8154SOL    HW236099   1.157   0.327   0.311  2.5788  1.7822 -2.5218
 8155SOL     OW36100   0.239   2.068  10.265 -0.4031  0.4114 -0.6838
 8155SOL    HW136101   0.274   1.985  10.232  0.3212  1.1700 -1.7985
 8155SOL    HW236102   0.274   2.139  10.212 -0.2623 -0.3030 -1.5611
 8156SOL     OW36103   2.969   0.896   5.526 -0.8753  0.0538  0.4489
 8156SOL    HW136104   2.921   0.967   5.483 -1.8059 -1.0433 -0.3075
 8156SOL    HW236105   2.952   0.906   5.620 -1.7907 -0.5893  0.3396
 8157SOL     OW36106   0.103   2.257  11.235  0.1207 -0.4174 -0.1308
 8157SOL    HW136107   0.041   2.283  11.303  1.6659 -2.5145  2.1277
 8157SOL    HW236108   0.136   2.174  11.271  1.9198  0.4620  0.2745
 8158SOL     OW36109   1.545   4.208   3.222 -0.3167 -0.0763 -0.4348
 8158SOL    HW136110   1.509   4.141   3.164 -0.3876 -1.0134  0.6958
 8158SOL    HW236111   1.617   4.166   3.268  0.8165  2.0802 -0.2015
 8159SOL     OW36112   4.670   3.079   7.732  0.2545  0.3203 -0.3993
 8159SOL    HW136113   0.022   3.048   7.731 -0.4667 -1.7450 -1.6402
 8159SOL    HW236114   4.644   3.045   7.818 -0.5066  1.6422 -0.1104
 8160SOL     OW36115   3.366   1.447   7.819  0.0668  0.4898 -0.5059
 8160SOL    HW136116   3.330   1.440   7.908  2.9886  1.9335  0.7661
 8160SOL    HW236117   3.405   1.534   7.825  3.0727 -0.7878 -1.6573
 8161SOL     OW36118   4.482   2.666   4.180  0.7247  0.5557 -0.1089
 8161SOL    HW136119   4.503   2.655   4.273  4.2781 -0.6325 -1.0645
 8161SOL    HW236120   4.447   2.755   4.188 -0.7773 -0.0543  0.0335
 8162SOL     OW36121   0.380   2.511  15.286 -0.0726 -0.1923  0.5312
 8162SOL    HW136122   0.458   2.494  15.339 -0.8607 -0.7640  1.5232
 8162SOL    HW236123   0.361   2.597  15.324 -0.1765 -1.2370  2.8789
 8163SOL     OW36124   3.984   2.152  16.373  0.2956  0.5557 -0.4012
 8163SOL    HW136125   4.015   2.195  16.294  1.5068 -1.4936 -1.0529
 8163SOL    HW236126   3.895   2.126  16.350  0.1087 -0.3928  1.3802
 8164SOL     OW36127   4.714   2.866  14.406 -0.2824  0.3160  0.4198
 8164SOL    HW136128   0.017   2.927  14.467 -2.8446  1.2874  1.1446
 8164SOL    HW236129   0.051   2.862  14.345 -0.2421 -0.6526  0.5325
 8165SOL     OW36130   1.051   4.400  13.156  0.2585  0.3346 -0.5098
 8165SOL    HW136131   1.013   4.315  13.135 -0.7946  0.1536  2.0958
 8165SOL    HW236132   0.971   4.453  13.157  0.8092  1.1700 -0.6948
 8166SOL     OW36133   1.732   4.566   7.668  0.1557 -0.6180  0.3849
 8166SOL    HW136134   1.724   4.551   7.762 -0.1132  1.1748  0.6539
 8166SOL    HW236135   1.809   4.520   7.636  1.1823  0.7510  0.8657
 8167SOL     OW36136   1.800   1.989   8.213  0.6469 -0.1498  0.2860
 8167SOL    HW136137   1.752   2.066   8.182  2.8031  0.7462 -0.8310
 8167SOL    HW236138   1.872   1.995   8.150 -0.8860  0.3382 -1.4304
 8168SOL     OW36139   0.641   2.930  16.360 -0.1936 -0.4648  0.5968
 8168SOL    HW136140   0.551   2.961  16.353  0.0543  0.1386  0.0486
 8168SOL    HW236141   0.651   2.892  16.273 -1.3682  1.5568 -0.4206
 8169SOL     OW36142   0.876   1.203  16.839  0.4000  0.0889 -0.6226
 8169SOL    HW136143   0.952   1.245  16.879  1.1065 -1.4318 -0.3768
 8169SOL    HW236144   0.884   1.233  16.749 -0.4038  1.8130 -0.1288
 8170SOL     OW36145   3.759   4.421   1.208  0.1616  0.1453 -0.4345
 8170SOL    HW136146   3.811   4.501   1.205  0.4812 -0.0830 -0.9368
 8170SOL    HW236147   3.794   4.372   1.133  0.3007 -2.4074  1.2979
 8171SOL     OW36148   3.508   3.070   4.049  0.1757 -0.1085 -0.3986
 8171SOL    HW136149   3.433   3.038   4.001  1.1886 -0.2913 -1.8598
 8171SOL    HW236150   3.579   3.053   3.987 -0.6742  0.7245 -1.5758
 8172SOL     OW36151   1.117   4.606  12.674 -0.1572 -0.1137 -0.3998
 8172SOL    HW136152   1.075   4.679  12.629  0.2674  1.5482  1.8873
 8172SOL    HW236153   1.181   4.575  12.610 -0.2719  0.2451 -0.6842
 8173SOL     OW36154   0.396   4.054   9.120 -0.1508 -0.4080 -0.5972
 8173SOL    HW136155   0.412   4.149   9.121  0.3215 -0.4936 -0.2308
 8173SOL    HW236156   0.380   4.041   9.026 -2.8691 -0.0041 -0.1794
 8174SOL     OW36157   1.135   0.027  11.545 -0.3260 -0.7082  0.0763
 8174SOL    HW136158   1.085   0.088  11.490 -1.5723 -1.9073 -0.1392
 8174SOL    HW236159   1.186   4.723  11.476  1.9292  2.2066  0.0150
 8175SOL     OW36160   3.976   0.260   2.826  0.0406 -0.3106 -0.5864
 8175SOL    HW136161   4.006   0.340   2.868 -0.5915  0.2473 -1.1962
 8175SOL    HW236162   3.983   0.194   2.895 -0.2901  0.4313  0.1603
 8176SOL     OW36163   2.969   0.101  13.757 -1.1397  0.1598  0.5868
 8176SOL    HW136164   2.979   0.145  13.841  0.9564  0.1318  0.3433
 8176SOL    HW236165   2.994   0.167  13.692  0.7863  0.3276  1.5079
 8177SOL     OW36166   4.381   3.701   4.221 -0.0247 -0.2870  0.5495
 8177SOL    HW136167   4.434   3.622   4.211 -1.2152 -1.0390  0.2571
 8177SOL    HW236168   4.297   3.669   4.253  0.3765  0.0945  1.9831
 8178SOL     OW36169   1.594   1.507  11.025 -0.0119  0.0544  0.0072
 8178SOL    HW136170   1.616   1.415  11.007 -1.3179 -0.7210  2.4336
 8178SOL    HW236171   1.550   1.497  11.109  1.9005  0.7411  1.0855
 8179SOL     OW36172   1.349   0.047  11.728 -0.1642 -0.1964 -0.0144
 8179SOL    HW136173   1.426   0.070  11.675 -0.1297 -1.2436 -0.4043
 8179SOL    HW236174   1.284   0.046  11.659 -1.5391  2.1678  1.2248
 8180SOL     OW36175   1.420   3.972  14.885 -0.8167  0.5541 -0.0651
 8180SOL    HW136176   1.427   4.058  14.843  0.5159  0.3715 -0.2328
 8180SOL    HW236177   1.358   3.996  14.954  0.2376  3.0864  0.0308
 8181SOL     OW36178   2.546   4.685  12.382  0.0403 -0.0131 -0.2403
 8181SOL    HW136179   2.577   0.017  12.441 -1.7542  0.5988 -0.0140
 8181SOL    HW236180   2.627   4.668  12.334 -0.9043  1.7100 -2.4654
 8182SOL     OW36181   2.098   4.142   8.244  0.1852  0.2025  0.7460
 8182SOL    HW136182   2.177   4.089   8.233 -0.3609  0.2269 -3.0926
 8182SOL    HW236183   2.111   4.188   8.327 -1.7693  1.8655  0.1021
 8183SOL     OW36184   0.416   0.642   3.817  0.6553  0.4339 -0.0016
 8183SOL    HW136185   0.409   0.549   3.836  1.9484  0.1545 -0.8648
 8183SOL    HW236186   0.381   0.688   3.893  1.7977 -1.5587  1.7301
 8184SOL     OW36187   4.168   4.676   2.339  0.2568 -0.4169  0.2447
 8184SOL    HW136188   4.151   4.589   2.304  2.5876 -0.5816 -0.4747
 8184SOL    HW236189   4.235   4.706   2.279 -0.5397 -0.4208 -0.6413
 8185SOL     OW36190   3.034   0.733  17.350 -0.6481 -0.3251 -0.0555
 8185SOL    HW136191   2.981   0.684  17.287  0.8062 -2.5329  0.4776
 8185SOL    HW236192   3.073   0.663  17.401  0.0915 -0.7303 -1.1710
 8186SOL     OW36193   1.016   2.330  12.817  0.1452 -0.2880 -0.4494
 8186SOL    HW136194   0.962   2.317  12.739 -0.7543 -0.6379  0.2250
 8186SOL    HW236195   0.998   2.254  12.872  2.5794 -0.8383 -0.4192
 8187SOL     OW36196   2.399   2.496   4.132 -0.1403 -0.1477 -0.1002
 8187SOL    HW136197   2.465   2.563   4.112 -1.1537  1.4583  2.0587
 8187SOL    HW236198   2.420   2.457   4.216  2.1392 -2.1146 -1.5678
 8188SOL     OW36199   2.781   1.955   5.104  0.2875  0.3123  0.1878
 8188SOL    HW136200   2.739   2.032   5.144 -0.4884  0.0546 -0.1398
 8188SOL    HW236201   2.720   1.940   5.033  0.7863  1.4674 -0.4942
 8189SOL     OW36202   2.362   1.351   4.176 -0.3077 -0.3939 -0.0766
 8189SOL    HW136203   2.411   1.430   4.199 -2.3298  0.1400  2.3114
 8189SOL    HW236204   2.283   1.361   4.228 -0.7590 -0.7340 -0.6978
 8190SOL     OW36205   0.348   3.402   9.513 -0.1775  0.0715 -0.4415
 8190SOL    HW136206   0.343   3.447   9.429 -0.8879 -0.4405 -0.6763
 8190SOL    HW236207   0.395   3.468   9.564 -0.1089 -1.9324  2.1112
 8191SOL     OW36208   0.702   3.536   4.345  0.0082 -0.1908  0.1673
 8191SOL    HW136209   0.646   3.494   4.411 -1.0615  0.8580 -0.0604
 8191SOL    HW236210   0.772   3.471   4.342 -0.4493 -0.6379 -0.9016
 8192SOL     OW36211   3.912   0.178   3.451 -0.0568 -0.2033 -0.1653
 8192SOL    HW136212   3.999   0.199   3.417 -0.3691 -2.3766 -2.2782
 8192SOL    HW236213   3.934   0.100   3.503 -0.6765 -0.8232 -0.8418
 8193SOL     OW36214   3.221   0.860   3.198 -0.3917  0.1719  0.8773
 8193SOL    HW136215   3.296   0.813   3.233 -0.1385 -1.9326 -2.4439
 8193SOL    HW236216   3.261   0.877   3.112 -3.0567  2.4516  0.0878
 8194SOL     OW36217   2.744   1.260   7.164 -0.3079 -0.6377 -0.1513
 8194SOL    HW136218   2.681   1.331   7.180  0.3089 -0.5697  2.0426
 8194SOL    HW236219   2.691   1.180   7.158  0.2604 -0.8859 -1.8983
 8195SOL     OW36220   4.675   2.310   8.688 -0.3505 -0.9130  0.2628
 8195SOL    HW136221   4.580   2.318   8.674 -0.1230 -2.7868 -2.4409
 8195SOL    HW236222   4.665   2.224   8.730  2.1287 -1.4023 -0.1501
 8196SOL     OW36223   4.081   4.371  10.777  0.2305  0.1045  0.0990
 8196SOL    HW136224   4.139   4.333  10.711 -1.0463 -0.2370 -0.8306
 8196SOL    HW236225   3.995   4.368  10.735  0.6340 -1.0833 -0.6150
 8197SOL     OW36226   4.732   1.272   2.845 -0.2691  0.0872 -0.1321
 8197SOL    HW136227   4.707   1.320   2.766  3.7359  2.4000  0.0232
 8197SOL    HW236228   4.670   1.200   2.833 -0.2594  0.1365 -0.4855
 8198SOL     OW36229   3.630   3.159  10.610  0.6718 -0.2526 -0.0444
 8198SOL    HW136230   3.542   3.197  10.612  1.2379  0.9858  1.2932
 8198SOL    HW236231   3.687   3.236  10.599  2.2199 -1.8463 -3.0418
 8199SOL     OW36232   4.496   0.489   4.062 -0.0132 -0.9455  0.4062
 8199SOL    HW136233   4.523   0.413   4.114  1.2723 -0.3761  0.5721
 8199SOL    HW236234   4.480   0.554   4.130  2.6145 -0.0547  0.2002
 8200SOL     OW36235   3.088   3.712   6.260 -0.2756 -0.1315  0.3107
 8200SOL    HW136236   3.111   3.622   6.282 -1.3071  0.1482  2.5508
 8200SOL    HW236237   3.168   3.728   6.211 -0.8439 -1.1464 -0.9409
 8201SOL     OW36238   4.358   0.281   9.695 -0.8250  0.1073  0.0303
 8201SOL    HW136239   4.439   0.241   9.724  0.6524  3.5327  0.6157
 8201SOL    HW236240   4.354   0.239   9.609  0.4407  0.3642 -0.1557
 8202SOL     OW36241   2.333   0.165  13.929  0.9237 -0.4273  0.3662
 8202SOL    HW136242   2.266   0.109  13.891  0.2309  0.6511 -0.0049
 8202SOL    HW236243   2.287   0.249  13.926  3.0617  0.6822 -1.6392
 8203SOL     OW36244   1.898   1.225   1.171 -0.2032  0.3826  0.1548
 8203SOL    HW136245   1.848   1.163   1.224 -1.8391 -1.0564 -3.1461
 8203SOL    HW236246   1.823   1.286   1.170  0.1592  0.8316  0.2892
 8204SOL     OW36247   1.258   0.812   2.467 -0.3107 -0.3577  0.1061
 8204SOL    HW136248   1.329   0.837   2.409 -1.4873  0.4665 -0.9817
 8204SOL    HW236249   1.214   0.896   2.479 -1.2454 -0.5831 -1.7047
 8205SOL     OW36250   1.486   1.708   9.475  0.5086  0.4018 -0.0585
 8205SOL    HW136251   1.497   1.637   9.539 -0.8369  1.2636  1.1436
 8205SOL    HW236252   1.537   1.675   9.401 -1.4471 -1.5886 -0.5388
 8206SOL     OW36253   1.785   0.044   9.056  0.0187 -0.1297  0.0183
 8206SOL    HW136254   1.765   4.692   9.028  0.3420 -0.2433  0.1575
 8206SOL    HW236255   1.700   0.086   9.066  0.2365  0.1132  0.8571
 8207SOL     OW36256   3.203   4.598  15.155 -0.7599 -0.2183  0.1194
 8207SOL    HW136257   3.189   4.690  15.133 -0.1773 -0.5964 -1.8095
 8207SOL    HW236258   3.126   4.574  15.207 -0.9006  0.2513  0.1327
 8208SOL     OW36259   2.168   0.069   9.070 -0.2365  0.1918 -0.5282
 8208SOL    HW136260   2.103   0.007   9.037 -1.6330  0.4543  1.7374
 8208SOL    HW236261   2.164   0.126   8.993 -1.1444  0.9699  0.0962
 8209SOL     OW36262   1.396   2.363   4.569  0.1460 -0.0197  0.4837
 8209SOL    HW136263   1.410   2.423   4.496 -0.4818 -1.9229 -1.1777
 8209SOL    HW236264   1.307   2.382   4.598  0.1209 -1.0235  1.0474
 8210SOL     OW36265   2.035   2.272   7.065 -0.1593 -0.0532 -0.0252
 8210SOL    HW136266   1.994   2.346   7.110 -2.8429 -1.8842  0.5079
 8210SOL    HW236267   2.097   2.309   7.001 -0.4240 -1.6513 -1.1908
 8211SOL     OW36268   2.857   0.629   7.866 -0.3213  0.0061  0.2932
 8211SOL    HW136269   2.832   0.595   7.952 -2.1458  1.1587  0.2079
 8211SOL    HW236270   2.833   0.721   7.876  0.1131  0.2131 -0.6255
 8212SOL     OW36271   1.358   4.720   4.765  0.1578  0.0375 -0.0147
 8212SOL    HW136272   1.358   0.078   4.753 -0.9872  0.2210  1.5656
 8212SOL    HW236273   1.442   4.711   4.810  1.0569 -0.4227 -1.7607
 8213SOL     OW36274   3.213   4.215  13.850  0.0053 -0.8025  0.3485
 8213SOL    HW136275   3.138   4.178  13.897 -0.3472 -1.0650 -0.4234
 8213SOL    HW236276   3.273   4.206  13.924 -0.0365  0.2596  0.5027
 8214SOL     OW36277   4.429   2.371   9.395 -0.0087 -0.9887 -0.0497
 8214SOL    HW136278   4.398   2.460   9.410  2.3845 -0.4081  1.5190
 8214SOL    HW236279   4.464   2.383   9.307  1.7687 -0.6146  0.7148
 8215SOL     OW36280   4.029   2.161   7.722  0.2946 -0.0360  0.5854
 8215SOL    HW136281   4.115   2.149   7.761  0.9976  0.7561 -0.7406
 8215SOL    HW236282   4.042   2.145   7.629 -0.7623 -0.2192  0.4612
 8216SOL     OW36283   3.483   2.945  16.741 -0.4172  0.4139 -0.6723
 8216SOL    HW136284   3.404   2.929  16.792 -1.9365  0.7781 -2.9048
 8216SOL    HW236285   3.530   2.997  16.806 -0.6414  0.5356 -0.6070
 8217SOL     OW36286   4.651   1.960   5.487  0.0232  0.7193 -0.4516
 8217SOL    HW136287   4.625   2.044   5.450  2.4888  0.4357 -2.8182
 8217SOL    HW236288   0.006   1.955   5.466  0.6445  1.6033  2.1142
 8218SOL     OW36289   0.727   3.351   6.408 -0.0062  0.5103 -0.0002
 8218SOL    HW136290   0.742   3.257   6.411  4.6516  1.3485  2.1267
 8218SOL    HW236291   0.814   3.382   6.382  0.3229 -0.7063 -0.3212
 8219SOL     OW36292   0.996   2.226   1.855  0.4670  0.0181 -0.2518
 8219SOL    HW136293   1.046   2.230   1.773 -1.5145  0.7748 -1.4346
 8219SOL    HW236294   0.996   2.133   1.878  2.0844 -0.4307 -2.0302
 8220SOL     OW36295   3.836   0.406   4.716 -0.4591  0.0455 -0.1922
 8220SOL    HW136296   3.907   0.390   4.654 -0.3962 -1.4300  0.2619
 8220SOL    HW236297   3.869   0.367   4.796  2.0668 -1.2572 -1.8719
 8221SOL     OW36298   3.112   2.219  13.547 -0.0984 -0.0963 -0.1938
 8221SOL    HW136299   3.048   2.272  13.595  0.5017  0.3079  0.1615
 8221SOL    HW236300   3.155   2.288  13.497 -1.5764  0.9003 -0.1030
 8222SOL     OW36301   2.396   0.886  12.580  0.2806  0.5236  0.2952
 8222SOL    HW136302   2.435   0.957  12.632 -2.2073  1.3337  1.0645
 8222SOL    HW236303   2.346   0.945  12.523 -0.2886 -0.0206  0.2300
 8223SOL     OW36304   1.435   1.730   3.632 -0.0633  0.3490 -0.2452
 8223SOL    HW136305   1.431   1.659   3.696 -0.6283 -0.1044 -0.7783
 8223SOL    HW236306   1.431   1.681   3.549  1.4808  0.4329 -0.3582
 8224SOL     OW36307   2.343   3.695   0.521 -0.1059 -0.1332  0.1566
 8224SOL    HW136308   2.264   3.748   0.508  0.7504  0.9212 -0.7469
 8224SOL    HW236309   2.304   3.609   0.504  0.5997 -0.0631 -1.8747
 8225SOL     OW36310   1.669   0.314   2.604 -0.2989 -0.3679  0.3369
 8225SOL    HW136311   1.648   0.221   2.597  0.9784 -0.6432  0.1720
 8225SOL    HW236312   1.764   0.317   2.591 -0.1634  0.2140  1.4373
 8226SOL     OW36313   3.308   1.126   7.903  0.6115  0.8893 -0.3011
 8226SOL    HW136314   3.296   1.031   7.910  2.0643  0.7909  1.0586
 8226SOL    HW236315   3.320   1.130   7.808 -1.4275  0.5402 -0.5735
 8227SOL     OW36316   2.407   3.720   7.715  0.7632  0.0754  0.1312
 8227SOL    HW136317   2.450   3.761   7.790  0.5785  2.7222 -1.2288
 8227SOL    HW236318   2.321   3.761   7.716  0.4648 -0.5516  0.3877
 8228SOL     OW36319   4.309   4.268   5.876  0.1786  0.3014 -0.1139
 8228SOL    HW136320   4.301   4.201   5.808 -1.9215  0.4768 -0.0329
 8228SOL    HW236321   4.334   4.345   5.827  0.5013  0.9297  1.0289
 8229SOL     OW36322   1.196   4.098   5.991 -0.6363 -0.3065 -0.2049
 8229SOL    HW136323   1.145   4.179   5.987  0.1199  0.1811  0.1005
 8229SOL    HW236324   1.221   4.089   5.899  3.9459 -2.5896  1.2505
 8230SOL     OW36325   3.601   1.179   3.020  0.2754 -0.0017  0.1136
 8230SOL    HW136326   3.652   1.150   3.096  0.4834 -1.3346 -0.5354
 8230SOL    HW236327   3.652   1.130   2.956  0.5250 -1.4752  1.4287
 8231SOL     OW36328   1.031   1.541   5.915  1.0903 -0.1225  0.2367
 8231SOL    HW136329   1.034   1.533   6.011 -1.9205 -2.9349  0.1053
 8231SOL    HW236330   1.121   1.554   5.886  0.9479  1.4801  0.5313
 8232SOL     OW36331   3.874   1.425   8.753 -0.1826 -0.1704  0.6732
 8232SOL    HW136332   3.811   1.460   8.816 -2.4255  0.8679 -2.1805
 8232SOL    HW236333   3.951   1.442   8.807 -1.0869  0.8784  1.6427
 8233SOL     OW36334   0.190   4.639   5.150  0.3972  1.2119 -0.2118
 8233SOL    HW136335   0.159   4.548   5.148 -0.2914  1.4338  0.2478
 8233SOL    HW236336   0.278   4.622   5.185  0.5029 -0.1073 -1.1258
 8234SOL     OW36337   0.651   0.260   4.799  0.2633 -0.0381 -0.0020
 8234SOL    HW136338   0.735   0.258   4.846 -0.3278 -1.7835  0.9724
 8234SOL    HW236339   0.648   0.353   4.776  0.8608 -0.5459 -2.1272
 8235SOL     OW36340   1.940   2.372   5.925  0.6194 -0.2756  0.3708
 8235SOL    HW136341   2.035   2.376   5.914  0.6191  0.3168  0.5976
 8235SOL    HW236342   1.920   2.296   5.869  0.0056 -0.0616  0.3016
 8236SOL     OW36343   0.154   4.464   6.239 -0.2676  0.0233  0.2800
 8236SOL    HW136344   0.104   4.518   6.178  0.3649  0.6137  0.2801
 8236SOL    HW236345   0.079   4.407   6.258  0.6880 -0.6071  2.2147
 8237SOL     OW36346   1.364   0.178   9.366  0.3580 -0.0708 -0.0771
 8237SOL    HW136347   1.340   0.142   9.451 -1.5775  1.0491 -0.1512
 8237SOL    HW236348   1.397   0.266   9.386  0.9984 -0.1660 -0.7002
 8238SOL     OW36349   2.534   2.942   4.194  0.3004 -0.1107  0.7825
 8238SOL    HW136350   2.524   2.923   4.288  1.8449 -0.4292  0.8885
 8238SOL    HW236351   2.528   3.037   4.182 -1.5318 -0.3844 -0.4071
 8239SOL     OW36352   0.658   3.487   2.285 -0.4669  0.3035 -0.0377
 8239SOL    HW136353   0.723   3.555   2.304  1.1460 -0.8393 -1.4679
 8239SOL    HW236354   0.676   3.406   2.333 -0.0631 -0.2691 -1.1474
 8240SOL     OW36355   4.047   1.059   6.383  0.3439 -0.3055  0.1208
 8240SOL    HW136356   4.011   1.001   6.316  0.7920 -1.0805  0.5490
 8240SOL    HW236357   3.983   1.056   6.455  0.0967 -2.3616 -0.1826
 8241SOL     OW36358   0.108   1.220  11.669  0.1708  0.1266 -0.1675
 8241SOL    HW136359   0.131   1.236  11.760 -1.9703 -0.7102  0.5314
 8241SOL    HW236360   0.167   1.146  11.652 -0.1367  0.3031 -2.0241
 8242SOL     OW36361   3.888   1.741   3.277 -0.3864 -0.0572  0.1873
 8242SOL    HW136362   3.913   1.764   3.366 -2.5544  1.3371  0.4163
 8242SOL    HW236363   3.801   1.780   3.273 -1.7783 -3.0962  0.8239
 8243SOL     OW36364   4.341   4.044  11.719  0.6510 -0.0876  0.0146
 8243SOL    HW136365   4.357   4.138  11.720  1.0314 -0.1123 -2.7142
 8243SOL    HW236366   4.260   4.039  11.668  1.9830  1.0643 -2.2070
 8244SOL     OW36367   2.294   3.043   5.095 -0.1570 -0.3086  0.2483
 8244SOL    HW136368   2.226   3.003   5.042 -1.4018  2.4449 -0.2267
 8244SOL    HW236369   2.245   3.106   5.148 -2.0709 -0.3738 -1.4493
 8245SOL     OW36370   0.025   1.961   0.934  0.1297  0.6322  0.1374
 8245SOL    HW136371   0.081   1.932   0.862 -0.0975 -0.2923  0.3416
 8245SOL    HW236372   4.684   1.997   0.892 -0.7729  0.2509  1.4992
 8246SOL     OW36373   3.283   2.609   5.791  0.1187  0.3496  0.1495
 8246SOL    HW136374   3.241   2.588   5.874  0.2945  1.2602  0.4774
 8246SOL    HW236375   3.367   2.628   5.834  1.0148  2.8194 -2.6995
 8247SOL     OW36376   3.054   1.743   8.838  0.6373  0.1839 -0.0520
 8247SOL    HW136377   3.033   1.689   8.914  0.0442  0.3096 -0.1288
 8247SOL    HW236378   3.142   1.715   8.812  1.0733  1.0077  0.5641
 8248SOL     OW36379   1.475   2.216   2.662  0.2236 -0.1097  0.0385
 8248SOL    HW136380   1.412   2.284   2.638 -2.1077 -1.5966  1.8991
 8248SOL    HW236381   1.531   2.266   2.721 -3.4528  1.2583  2.3454
 8249SOL     OW36382   1.370   1.646   6.080 -0.6342  0.2548  0.1587
 8249SOL    HW136383   1.360   1.604   5.995 -2.0655  0.1765  0.3676
 8249SOL    HW236384   1.299   1.710   6.074 -1.5280 -0.7799 -0.1109
 8250SOL     OW36385   0.766   3.103   7.442 -0.6258 -0.0096 -0.3760
 8250SOL    HW136386   0.825   3.164   7.398 -0.0840  0.3221  0.8045
 8250SOL    HW236387   0.834   3.043   7.472  0.4705  0.8782 -1.0627
 8251SOL     OW36388   4.459   2.300   9.883 -0.4502 -0.2511 -0.4743
 8251SOL    HW136389   4.422   2.297   9.971 -1.7594 -2.2410 -1.0742
 8251SOL    HW236390   4.553   2.312   9.888 -0.4185 -0.4786 -0.5164
 8252SOL     OW36391   0.028   1.013   7.194 -0.3823  0.3717 -0.2695
 8252SOL    HW136392   0.023   1.094   7.246 -0.0916 -0.1411  0.5630
 8252SOL    HW236393   0.092   0.966   7.247 -2.4328 -3.3162 -1.0191
 8253SOL     OW36394   3.620   2.685   8.490 -0.1112 -0.7175  0.3177
 8253SOL    HW136395   3.647   2.635   8.567  0.0811  1.1919  1.4952
 8253SOL    HW236396   3.705   2.713   8.457 -0.7777 -0.6924 -1.3549
 8254SOL     OW36397   2.078   0.814   3.045  0.1155  0.0795  0.4304
 8254SOL    HW136398   1.987   0.843   3.042  1.0809  3.0369 -0.8727
 8254SOL    HW236399   2.100   0.805   2.952  1.5871 -0.6910  0.8493
 8255SOL     OW36400   3.593   0.989   4.784 -0.2670  0.4478  0.0829
 8255SOL    HW136401   3.611   1.070   4.832 -0.4300 -0.2723  1.3287
 8255SOL    HW236402   3.659   0.935   4.826  0.0060 -1.0487 -2.2567
 8256SOL     OW36403   3.215   2.470  13.525  0.3850 -0.2905 -0.1179
 8256SOL    HW136404   3.212   2.545  13.464 -0.3134 -1.3010 -1.3281
 8256SOL    HW236405   3.239   2.514  13.606  0.3487 -1.1346  0.3404
 8257SOL     OW36406   4.257   2.916   8.204 -0.3112 -0.0140 -0.9855
 8257SOL    HW136407   4.168   2.927   8.171 -0.7975  0.9364  0.6392
 8257SOL    HW236408   4.249   2.845   8.268  0.5519  1.1851  0.4576
 8258SOL     OW36409   1.240   2.919   7.106  0.1449  0.1304  0.0352
 8258SOL    HW136410   1.206   2.928   7.195 -1.0879  1.1657 -0.5416
 8258SOL    HW236411   1.220   2.830   7.080 -1.3281  0.0315  1.5825
 8259SOL     OW36412   2.381   3.954  10.792 -0.3143  1.0994 -0.0657
 8259SOL    HW136413   2.353   3.864  10.778  2.6221 -0.0740  1.5759
 8259SOL    HW236414   2.371   3.956  10.887 -0.4429 -0.0853 -0.0552
 8260SOL     OW36415   0.842   3.969   3.474 -0.2194 -0.5276 -0.7836
 8260SOL    HW136416   0.754   3.936   3.458  0.7517 -4.0370  0.9812
 8260SOL    HW236417   0.819   4.032   3.542 -0.1387 -3.0488  1.5913
 8261SOL     OW36418   0.747   4.099   2.372  0.2005  0.3194 -0.1742
 8261SOL    HW136419   0.838   4.128   2.373  0.3956 -0.2856 -0.5256
 8261SOL    HW236420   0.713   4.146   2.449  1.0373 -0.0464  0.4145
 8262SOL     OW36421   3.385   1.905  13.128 -0.2512  0.2087 -0.0756
 8262SOL    HW136422   3.477   1.884  13.138  0.0534  0.4396 -2.4418
 8262SOL    HW236423   3.390   1.981  13.069 -0.5789 -0.4582 -0.9619
 8263SOL     OW36424   0.072   1.411   2.019  0.3110  0.1431  0.1829
 8263SOL    HW136425   0.029   1.351   2.079 -0.8296  0.3083 -0.4645
 8263SOL    HW236426   0.159   1.386   2.048  0.5655  0.9859  0.1688
 8264SOL     OW36427   3.426   3.795   2.581 -0.1016  0.8037  0.1232
 8264SOL    HW136428   3.441   3.788   2.675 -0.5453  0.6513  0.1828
 8264SOL    HW236429   3.352   3.735   2.564  0.6436 -0.4525  1.3111
 8265SOL     OW36430   1.521   4.276   6.359  0.0041  0.2070 -0.5845
 8265SOL    HW136431   1.597   4.310   6.407 -0.6326  2.5603 -1.2816
 8265SOL    HW236432   1.461   4.267   6.433  0.6683  1.2847  0.0980
 8266SOL     OW36433   0.504   1.299   4.966 -0.1286 -0.0048  0.6413
 8266SOL    HW136434   0.420   1.325   5.003 -0.8182 -1.5347  0.1569
 8266SOL    HW236435   0.563   1.351   5.020  1.6053 -1.3630  0.0514
 8267SOL     OW36436   3.575   3.351  16.945  0.1763 -0.2578  0.1610
 8267SOL    HW136437   3.559   3.435  16.988  2.0063  2.5286 -4.5728
 8267SOL    HW236438   3.489   3.318  16.919 -0.0763  1.5116 -1.2328
 8268SOL     OW36439   0.131   4.090   2.944  0.1250 -0.6979 -0.5917
 8268SOL    HW136440   0.055   4.070   2.998  0.0157 -0.5924 -0.7078
 8268SOL    HW236441   0.140   4.008   2.894  0.7384  0.9749 -3.2144
 8269SOL     OW36442   3.203   2.152   9.043  0.1309 -0.4597 -0.3658
 8269SOL    HW136443   3.218   2.216   8.973 -0.6690 -2.3145 -2.2571
 8269SOL    HW236444   3.119   2.122   9.008 -0.1077 -1.7216  1.3377
 8270SOL     OW36445   3.194   3.059   4.780 -0.4803 -0.0147  0.1600
 8270SOL    HW136446   3.250   3.040   4.856  0.4519  1.5029 -0.1537
 8270SOL    HW236447   3.247   3.059   4.700 -0.5842  1.9125  0.1030
 8271SOL     OW36448   1.392   1.867  13.899 -0.6434 -0.5497  0.2059
 8271SOL    HW136449   1.361   1.837  13.814 -2.2811  0.4092  0.4606
 8271SOL    HW236450   1.323   1.855  13.963 -0.2630 -1.4171  0.4443
 8272SOL     OW36451   2.673   0.642   0.942  0.3249 -0.4440  0.6989
 8272SOL    HW136452   2.648   0.622   1.032  2.4369  1.8727  1.7987
 8272SOL    HW236453   2.600   0.700   0.922  0.1949 -0.9339 -0.2663
 8273SOL     OW36454   1.194   0.195   8.097 -0.3571  0.1406 -0.2185
 8273SOL    HW136455   1.147   0.114   8.116 -1.3120  0.6148 -0.5479
 8273SOL    HW236456   1.180   0.214   8.004  0.2752 -2.6515 -0.8906
 8274SOL     OW36457   1.436   2.575   7.950 -0.4320  0.4430  0.1033
 8274SOL    HW136458   1.438   2.483   7.925  0.0187  0.3439  0.5202
 8274SOL    HW236459   1.403   2.569   8.040 -1.4974  2.0110 -0.1830
 8275SOL     OW36460   2.746   4.515   9.158 -0.3536 -0.7549  0.3253
 8275SOL    HW136461   2.695   4.550   9.231 -0.7020  0.6885 -0.6165
 8275SOL    HW236462   2.700   4.431   9.148  0.5451 -1.2131 -0.0255
 8276SOL     OW36463   1.737   0.997  16.772  0.4921 -0.3575  0.1260
 8276SOL    HW136464   1.717   0.980  16.864 -0.5824  0.8507  0.1075
 8276SOL    HW236465   1.724   0.910  16.734  1.2363 -0.9305  1.1774
 8277SOL     OW36466   4.607   0.781  15.291  0.7465 -0.5457  0.1818
 8277SOL    HW136467   4.585   0.874  15.284 -0.6322 -0.8452  0.7208
 8277SOL    HW236468   4.691   0.785  15.337  1.6128 -1.4566 -1.3235
 8278SOL     OW36469   0.942   2.412  17.243  0.0239  0.0247  0.4256
 8278SOL    HW136470   0.913   2.472  17.312  3.4298  2.2295 -0.0377
 8278SOL    HW236471   0.912   2.458  17.164 -0.5180 -0.6340  0.2448
 8279SOL     OW36472   3.920   2.280   3.315 -0.3861  0.0177  0.2251
 8279SOL    HW136473   4.006   2.242   3.297  1.1994  4.5395 -1.6832
 8279SOL    HW236474   3.934   2.349   3.380 -0.6520 -1.1840  1.5566
 8280SOL     OW36475   1.569   4.313   5.886 -0.3087  0.2913  0.0018
 8280SOL    HW136476   1.522   4.231   5.907 -1.2578  0.4727 -1.4372
 8280SOL    HW236477   1.565   4.361   5.969  2.1824 -0.7065  0.7162
 8281SOL     OW36478   1.499   3.353   8.243 -0.5137  0.0363 -0.2148
 8281SOL    HW136479   1.478   3.287   8.308  0.4615  2.1290  2.2277
 8281SOL    HW236480   1.586   3.329   8.212 -1.3368 -0.1395 -2.4000
 8282SOL     OW36481   2.299   4.023   3.916 -0.0983 -0.1405  0.1748
 8282SOL    HW136482   2.207   4.006   3.937 -0.2558  0.2723 -0.1827
 8282SOL    HW236483   2.287   4.062   3.829  1.6177  0.3643  0.1746
 8283SOL     OW36484   0.837   3.842  11.562 -0.0824  0.0998  0.3692
 8283SOL    HW136485   0.875   3.861  11.647 -2.8652 -1.6475  2.0068
 8283SOL    HW236486   0.915   3.853  11.507  0.3447  0.0010  0.9625
 8284SOL     OW36487   0.855   3.259   9.560  0.0430  0.0683 -0.1153
 8284SOL    HW136488   0.805   3.313   9.622  0.7416  2.2855 -1.5105
 8284SOL    HW236489   0.935   3.237   9.607  0.5528  2.5039  0.1057
 8285SOL     OW36490   0.895   2.612  12.939  0.4985  0.1739 -0.0444
 8285SOL    HW136491   0.950   2.534  12.928 -0.3864 -0.5053  0.3091
 8285SOL    HW236492   0.971   2.667  12.917 -0.4003  2.2558  2.1565
 8286SOL     OW36493   2.506   1.219   3.310 -0.3853 -0.1782  0.2143
 8286SOL    HW136494   2.538   1.129   3.304 -0.2590 -0.0011 -1.9653
 8286SOL    HW236495   2.430   1.213   3.253 -0.5024 -1.4968  0.5085
 8287SOL     OW36496   3.478   4.535  17.300 -0.2871 -0.2346  0.0101
 8287SOL    HW136497   3.416   4.549  17.228 -1.4916 -1.5555  0.7835
 8287SOL    HW236498   3.421   4.491  17.362  0.2363  0.1475  0.7669
 8288SOL     OW36499   0.004   3.097   8.888 -0.1297 -0.4427 -0.1875
 8288SOL    HW136500   4.709   3.179   8.851 -0.9433 -0.4237  0.5762
 8288SOL    HW236501   0.073   3.138   8.941  0.1542 -0.8605 -0.2363
 8289SOL     OW36502   1.747   1.412   6.621  0.3440  0.3814  0.0839
 8289SOL    HW136503   1.660   1.407   6.582 -0.1558 -0.0255  1.2721
 8289SOL    HW236504   1.723   1.445   6.707 -1.7512 -1.1448  0.0656
 8290SOL     OW36505   4.038   2.590   4.763  0.1830  0.1133  0.8208
 8290SOL    HW136506   4.126   2.553   4.749 -0.3452 -1.4104  1.4997
 8290SOL    HW236507   3.988   2.564   4.686 -0.6755  1.5232  0.9030
 8291SOL     OW36508   4.411   3.833   8.391 -0.3874  0.2338 -0.2328
 8291SOL    HW136509   4.495   3.849   8.349 -0.6385  0.8501 -0.4871
 8291SOL    HW236510   4.349   3.808   8.323 -1.0739 -4.1962  2.0123
 8292SOL     OW36511   0.394   4.010  15.624 -0.5206 -0.3132 -0.0527
 8292SOL    HW136512   0.394   4.038  15.533  2.6962  0.8663  0.3172
 8292SOL    HW236513   0.306   3.972  15.628 -0.5763 -0.2809 -0.9845
 8293SOL     OW36514   0.923   0.640   8.834  0.3228  0.0033 -0.3947
 8293SOL    HW136515   0.963   0.635   8.921 -1.1520 -1.4280  0.2041
 8293SOL    HW236516   0.994   0.630   8.771 -0.3898  2.5316 -1.5949
 8294SOL     OW36517   1.452   1.946  14.859 -0.1343  0.1364  0.3870
 8294SOL    HW136518   1.505   1.945  14.779  0.6064  0.3735  0.8755
 8294SOL    HW236519   1.461   1.855  14.887  1.4788 -0.3409 -1.6873
 8295SOL     OW36520   2.893   1.515   4.105 -0.6127  0.0705  0.4538
 8295SOL    HW136521   2.940   1.540   4.185  0.3363 -2.6723  0.7407
 8295SOL    HW236522   2.803   1.508   4.137 -1.6132  1.6765 -2.0249
 8296SOL     OW36523   2.689   3.084   6.852  0.1491 -0.3278 -0.3753
 8296SOL    HW136524   2.773   3.114   6.888  0.4296 -0.5660 -0.8463
 8296SOL    HW236525   2.675   3.144   6.779 -0.8644  0.2012  0.2407
 8297SOL     OW36526   2.859   2.438   9.058 -0.2350  0.0720 -0.3771
 8297SOL    HW136527   2.837   2.508   8.996  1.8013  0.5566 -0.5220
 8297SOL    HW236528   2.845   2.479   9.143 -2.0662  1.0895 -1.1614
 8298SOL     OW36529   0.473   1.886   0.097  0.3919 -0.2330  0.1928
 8298SOL    HW136530   0.506   1.877   0.186  0.0474  0.7141  0.4109
 8298SOL    HW236531   0.477   1.981   0.086 -0.3349 -0.1697  0.5128
 8299SOL     OW36532   0.831   0.860   4.587  0.2461 -0.0047  0.3849
 8299SOL    HW136533   0.904   0.862   4.526  0.6258  1.2444  0.8658
 8299SOL    HW236534   0.875   0.847   4.671  0.3501  0.1195  0.3490
 8300SOL     OW36535   4.167   4.606   6.605  0.1544  0.7158 -0.2153
 8300SOL    HW136536   4.115   4.549   6.549 -1.8774  0.7369  1.6387
 8300SOL    HW236537   4.183   4.547   6.679 -0.5930  1.5642  0.6267
 8301SOL     OW36538   0.566   1.136   5.510 -0.0551  0.0675  0.0024
 8301SOL    HW136539   0.552   1.218   5.557  2.3570  0.4660  0.0532
 8301SOL    HW236540   0.520   1.146   5.427 -1.2136  0.0072  0.6440
 8302SOL     OW36541   1.898   4.691  13.973 -0.2168 -0.2183  0.1064
 8302SOL    HW136542   1.944   4.628  14.027  2.9018  1.2911 -0.7637
 8302SOL    HW236543   1.900   0.040  14.014  2.0909 -0.3827  0.3290
 8303SOL     OW36544   2.458   0.863   9.657  0.3406  0.3510 -0.2889
 8303SOL    HW136545   2.493   0.780   9.688  1.0303  1.1608  1.1155
 8303SOL    HW236546   2.367   0.843   9.680  0.3025  1.6500  0.6761
 8304SOL     OW36547   4.261   2.655   3.881 -0.4057 -0.0031  0.1328
 8304SOL    HW136548   4.208   2.605   3.819 -2.6459 -0.1342  2.1356
 8304SOL    HW236549   4.347   2.641   3.841 -1.8588 -2.4163 -2.1878
 8305SOL     OW36550   3.275   3.829   4.852 -0.6452 -0.5315  0.1849
 8305SOL    HW136551   3.307   3.768   4.786  0.3297  2.5325 -2.1568
 8305SOL    HW236552   3.183   3.844   4.831  0.4381 -0.9875 -4.7558
 8306SOL     OW36553   3.240   1.367   5.212  0.3193  0.2045  0.2263
 8306SOL    HW136554   3.167   1.383   5.271 -0.3282  2.0919 -1.0883
 8306SOL    HW236555   3.308   1.371   5.279  1.0637  0.7375 -0.5447
 8307SOL     OW36556   4.124   0.889  10.400 -0.4016  0.4450  0.3418
 8307SOL    HW136557   4.133   0.799  10.430 -2.4542 -0.0230 -0.4335
 8307SOL    HW236558   4.155   0.937  10.477  1.7303 -2.8598  1.5727
 8308SOL     OW36559   1.035   0.077  12.946 -0.1995 -0.3606  0.0907
 8308SOL    HW136560   1.093   0.147  12.918  0.6293 -0.6696  1.0595
 8308SOL    HW236561   0.950   0.113  12.921  1.0438  1.9046 -0.8244
 8309SOL     OW36562   3.071   3.299   4.765 -0.3436  0.0023  0.1232
 8309SOL    HW136563   3.106   3.211   4.779 -2.0723 -0.4382  1.5917
 8309SOL    HW236564   3.051   3.289   4.672  0.3976 -2.1371  0.1922
 8310SOL     OW36565   0.091   0.112   7.088 -0.5563  0.7352 -0.3452
 8310SOL    HW136566   0.063   0.130   6.998  0.6281 -0.0212 -0.8674
 8310SOL    HW236567   0.163   0.050   7.076 -1.6874 -0.2552 -2.1052
 8311SOL     OW36568   3.065   3.536   5.949  0.1279  0.7074 -0.3985
 8311SOL    HW136569   3.036   3.555   5.859 -1.6841 -2.8120 -0.5449
 8311SOL    HW236570   3.158   3.525   5.933 -0.2969  0.5559 -2.8820
 8312SOL     OW36571   0.532   1.971   2.597 -0.0697 -0.0073 -0.3892
 8312SOL    HW136572   0.505   1.943   2.684  2.0819  1.0175  0.6235
 8312SOL    HW236573   0.519   2.066   2.602 -2.3521 -0.2855 -1.1098
 8313SOL     OW36574   3.750   0.375   1.140 -0.0524 -0.2079 -0.3744
 8313SOL    HW136575   3.685   0.344   1.077  1.7821 -1.5748 -1.5855
 8313SOL    HW236576   3.822   0.312   1.140 -1.2142 -1.5420  2.6876
 8314SOL     OW36577   3.316   0.493   7.779  0.2977 -0.5905  0.1612
 8314SOL    HW136578   3.256   0.438   7.729  0.6317 -0.7815 -0.0261
 8314SOL    HW236579   3.243   0.545   7.814  1.1645 -0.2710  1.5355
 8315SOL     OW36580   3.714   3.908   5.052 -0.1846  0.0622 -0.6193
 8315SOL    HW136581   3.769   3.986   5.057 -0.2841 -0.0200  1.7392
 8315SOL    HW236582   3.627   3.949   5.046  0.2680  0.9731 -0.9622
 8316SOL     OW36583   4.147   2.147   3.594  0.6217 -0.1429 -0.1172
 8316SOL    HW136584   4.114   2.120   3.508 -1.3715 -1.5459  1.0799
 8316SOL    HW236585   4.235   2.113   3.579  0.6033  0.1470 -0.9124
 8317SOL     OW36586   1.527   2.710   8.924 -0.1307 -0.5646  0.4441
 8317SOL    HW136587   1.606   2.764   8.930 -1.6185  1.7547 -0.7650
 8317SOL    HW236588   1.503   2.712   9.016  1.5942  2.3323  0.8259
 8318SOL     OW36589   4.727   0.981   3.895 -0.2376 -0.3952 -0.2952
 8318SOL    HW136590   4.669   0.905   3.902 -0.1335 -0.4008  0.5690
 8318SOL    HW236591   0.058   0.952   3.955  1.3870  1.8181 -1.0743
 8319SOL     OW36592   3.788   1.971   8.153  0.4231  0.0493  0.7206
 8319SOL    HW136593   3.847   2.044   8.137  0.2026  0.0571 -0.0419
 8319SOL    HW236594   3.754   1.996   8.239 -1.4382  1.0689 -0.2978
 8320SOL     OW36595   0.382   0.473   1.391 -0.7587 -0.4917 -0.5105
 8320SOL    HW136596   0.448   0.535   1.423 -1.8882  0.0319  0.7832
 8320SOL    HW236597   0.429   0.391   1.380 -1.5550 -0.6866 -2.5000
 8321SOL     OW36598   3.745   1.211   8.190  0.1010 -0.1841 -0.2525
 8321SOL    HW136599   3.696   1.251   8.118  0.4588 -0.2504 -0.5317
 8321SOL    HW236600   3.818   1.188   8.134 -1.0433 -1.1163 -1.3665
 8322SOL     OW36601   4.527   0.344   5.209  0.0573 -0.3765 -0.6525
 8322SOL    HW136602   4.598   0.405   5.188  0.1851 -0.8989 -1.6979
 8322SOL    HW236603   4.535   0.285   5.135  1.5029 -0.1299 -0.6984
 8323SOL     OW36604   0.569   4.293   9.341 -0.2271  0.4241  0.0612
 8323SOL    HW136605   0.580   4.388   9.337  1.6229  0.2004 -0.1679
 8323SOL    HW236606   0.533   4.263   9.258  1.3685 -3.2287  0.6816
 8324SOL     OW36607   0.697   1.097   7.971  0.5023 -0.6010  0.2069
 8324SOL    HW136608   0.756   1.170   7.954  3.2180 -3.1204 -1.0547
 8324SOL    HW236609   0.752   1.028   8.009  0.5972  0.1164  1.3738
 8325SOL     OW36610   0.639   0.613  10.802  0.3686 -0.2054  0.9765
 8325SOL    HW136611   0.677   0.695  10.834  0.3223  0.7596 -1.4743
 8325SOL    HW236612   0.662   0.613  10.709  1.1001 -2.1127  1.1502
 8326SOL     OW36613   1.754   3.232   8.507 -0.0614  0.8337 -0.7750
 8326SOL    HW136614   1.812   3.155   8.513 -0.0337  0.8319 -1.1053
 8326SOL    HW236615   1.799   3.287   8.444  0.3098  0.9987 -0.3718
 8327SOL     OW36616   1.746   3.502   3.608 -0.9585 -0.1531 -0.8139
 8327SOL    HW136617   1.660   3.541   3.596 -0.1813  2.2557  1.4393
 8327SOL    HW236618   1.793   3.582   3.586 -1.6539  0.9478  1.7018
 8328SOL     OW36619   0.095   0.419   8.446 -0.4770 -0.0117 -0.5232
 8328SOL    HW136620   0.096   0.366   8.367  1.6748 -1.2905  0.3626
 8328SOL    HW236621   0.036   0.483   8.407  1.8631  1.7895 -1.1098
 8329SOL     OW36622   2.922   0.047   8.850  0.0179 -0.3037  0.0119
 8329SOL    HW136623   2.847   0.091   8.809  0.0279 -1.9156 -1.7607
 8329SOL    HW236624   2.927   0.078   8.940  2.2969 -1.2148  0.1891
 8330SOL     OW36625   2.449   1.020  13.226  0.1786  0.3580 -0.0610
 8330SOL    HW136626   2.435   1.102  13.178  1.2020 -0.7562 -2.2231
 8330SOL    HW236627   2.523   0.972  13.190  0.0072  0.6279 -0.7659
 8331SOL     OW36628   2.708   2.939   2.527  0.1142 -0.1497  0.4718
 8331SOL    HW136629   2.653   2.924   2.451 -0.6288  0.1142  0.9621
 8331SOL    HW236630   2.781   2.882   2.502  0.5419  0.5237  0.2053
 8332SOL     OW36631   4.336   1.259   2.674  0.3787 -0.0792 -0.0103
 8332SOL    HW136632   4.318   1.349   2.647  0.6898 -0.0311 -0.0675
 8332SOL    HW236633   4.265   1.213   2.628 -0.4281  2.5107 -1.3402
 8333SOL     OW36634   1.200   2.151   5.603  0.0797  0.1871  0.0240
 8333SOL    HW136635   1.212   2.063   5.637 -0.4701 -0.1861 -0.7535
 8333SOL    HW236636   1.117   2.135   5.558 -0.3326 -0.3346  0.9789
 8334SOL     OW36637   0.384   4.606   5.485  0.4569  0.5120  0.2793
 8334SOL    HW136638   0.419   4.521   5.510 -0.3051  0.3210  0.6958
 8334SOL    HW236639   0.314   4.588   5.422 -0.7284 -1.3865  2.1814
 8335SOL     OW36640   2.185   2.675   3.516  0.0771  0.6925 -0.7873
 8335SOL    HW136641   2.157   2.753   3.565  0.8690 -0.4646  1.4963
 8335SOL    HW236642   2.257   2.713   3.465 -0.5971  3.2227  0.1116
 8336SOL     OW36643   4.410   2.305   1.120  0.1665  0.2275  0.1982
 8336SOL    HW136644   4.436   2.221   1.080  1.2218 -0.5096  2.4309
 8336SOL    HW236645   4.336   2.272   1.170 -1.1102  2.8586  0.0144
 8337SOL     OW36646   4.006   3.918   3.383  0.0222 -0.3175 -0.5426
 8337SOL    HW136647   4.044   3.921   3.471  0.1784  1.1966 -0.6759
 8337SOL    HW236648   4.004   3.822   3.379  0.0516 -0.2587 -1.8819
 8338SOL     OW36649   2.589   1.977  17.483 -0.1284 -0.2298 -0.7968
 8338SOL    HW136650   2.588   1.886  17.512 -0.9122  0.2012  0.5222
 8338SOL    HW236651   2.563   2.012  17.568  1.6175 -0.7033 -0.0626
 8339SOL     OW36652   4.274   2.583   3.456 -0.2529  0.0471  0.1033
 8339SOL    HW136653   4.218   2.659   3.468 -1.5659 -1.1644  1.5760
 8339SOL    HW236654   4.244   2.555   3.370 -0.5517  1.7238 -0.3274
 8340SOL     OW36655   1.735   3.029   6.065 -0.2775 -0.6078  0.2668
 8340SOL    HW136656   1.712   3.108   6.113  1.6040  0.4169 -0.5193
 8340SOL    HW236657   1.668   3.024   5.998 -0.1059  0.8962 -0.0028
 8341SOL     OW36658   0.071   1.904   3.388 -0.6649 -0.1115 -0.4471
 8341SOL    HW136659   0.011   1.895   3.461  2.0357  1.0777  1.8857
 8341SOL    HW236660   0.065   1.997   3.369 -3.4689  0.0228  1.2610
 8342SOL     OW36661   3.843   3.605   7.407  0.0166 -0.1916 -0.6490
 8342SOL    HW136662   3.899   3.588   7.483 -1.7313 -0.1333  0.6487
 8342SOL    HW236663   3.772   3.658   7.443  1.8942  0.9741  1.3415
 8343SOL     OW36664   4.235   2.578  11.491 -0.5479  0.6728 -0.1297
 8343SOL    HW136665   4.169   2.587  11.423 -0.0316 -3.0198 -1.1477
 8343SOL    HW236666   4.187   2.556  11.571 -2.6076  2.3296 -0.9307
 8344SOL     OW36667   1.552   1.686  11.896  0.2797  0.3935  0.5004
 8344SOL    HW136668   1.521   1.661  11.809  0.1691  0.7903  0.4276
 8344SOL    HW236669   1.467   1.674  11.938 -0.1283 -0.6639 -0.5950
 8345SOL     OW36670   3.460   4.073   4.393 -0.6244  0.2071  0.2513
 8345SOL    HW136671   3.389   4.038   4.339  1.6283 -0.5244 -2.2328
 8345SOL    HW236672   3.522   4.000   4.396 -1.9884 -0.9709 -0.1674
 8346SOL     OW36673   2.924   4.538  10.382 -0.2716  0.4086 -0.0521
 8346SOL    HW136674   2.927   4.534  10.478 -0.3860  0.7113 -0.0360
 8346SOL    HW236675   2.873   4.618  10.370  0.1361  0.6834  0.0120
 8347SOL     OW36676   2.760   2.449   8.243 -0.1819  0.2325 -0.0996
 8347SOL    HW136677   2.787   2.477   8.156 -1.3294 -1.5274 -1.0335
 8347SOL    HW236678   2.758   2.354   8.228 -1.7215  0.0077  1.5354
 8348SOL     OW36679   0.550   2.642  15.707  0.4219  0.1004 -0.2749
 8348SOL    HW136680   0.620   2.693  15.749  0.4421 -0.4450  0.3515
 8348SOL    HW236681   0.524   2.593  15.785 -0.0281 -0.4032 -0.7456
 8349SOL     OW36682   0.999   2.854   9.280  0.1756 -0.3320 -0.0997
 8349SOL    HW136683   1.003   2.946   9.254  1.8018 -0.0751  1.0806
 8349SOL    HW236684   0.912   2.847   9.319  0.6361 -4.4523  0.1241
 8350SOL     OW36685   4.352   3.125   9.599 -0.4615  0.0327 -0.1353
 8350SOL    HW136686   4.412   3.196   9.573 -1.1959  0.0342 -1.8077
 8350SOL    HW236687   4.405   3.055   9.559 -3.0214 -0.4012 -2.7615
 8351SOL     OW36688   3.954   4.470   4.932  0.5885  0.4801  0.0854
 8351SOL    HW136689   3.964   4.554   4.977  0.1654 -0.5295  2.0615
 8351SOL    HW236690   4.039   4.427   4.932 -0.9274 -2.5085  0.4454
 8352SOL     OW36691   0.862   0.173   5.418 -0.5565  0.7264  0.1298
 8352SOL    HW136692   0.774   0.143   5.439 -0.4102  0.3291  0.1724
 8352SOL    HW236693   0.877   0.244   5.481 -0.1079  1.3140 -0.6355
 8353SOL     OW36694   2.097   1.575   2.678 -0.0371  0.5609 -0.0198
 8353SOL    HW136695   2.085   1.545   2.588  0.7303 -3.3956  1.1892
 8353SOL    HW236696   2.031   1.523   2.724 -0.7123  0.0148 -1.5825
 8354SOL     OW36697   0.663   0.535  10.451 -0.3864  0.4136 -0.0681
 8354SOL    HW136698   0.579   0.578  10.467 -0.1859  0.6767  0.2710
 8354SOL    HW236699   0.726   0.594  10.491 -0.9831  2.1301 -1.6697
 8355SOL     OW36700   1.127   4.313   6.936  0.4397  0.0460 -0.1124
 8355SOL    HW136701   1.106   4.406   6.935  0.2093 -0.0132 -1.3390
 8355SOL    HW236702   1.041   4.276   6.952  0.8164 -0.7408  0.1068
 8356SOL     OW36703   1.913   1.665  10.281 -0.3733  0.0059  0.1778
 8356SOL    HW136704   1.905   1.642  10.374 -1.4252  0.7187  0.2641
 8356SOL    HW236705   1.825   1.698  10.262  0.0637  0.0696 -1.6973
 8357SOL     OW36706   2.739   3.405   5.225 -0.4929  0.8019  0.0486
 8357SOL    HW136707   2.823   3.375   5.259 -1.3671  1.3480  2.7060
 8357SOL    HW236708   2.694   3.451   5.296 -0.2873  1.0351  0.0268
 8358SOL     OW36709   1.590   3.965   5.736 -0.4331  0.6277 -0.2255
 8358SOL    HW136710   1.572   3.910   5.814  2.9045  0.8916  0.7089
 8358SOL    HW236711   1.505   3.963   5.692 -0.1350  1.6085 -0.8381
 8359SOL     OW36712   1.954   3.009   8.547 -0.2336 -0.0461 -0.3646
 8359SOL    HW136713   1.985   2.968   8.628  0.7505  1.2829 -0.0584
 8359SOL    HW236714   2.015   3.081   8.531  0.5795 -1.4213 -3.4895
 8360SOL     OW36715   2.214   3.992  12.353 -0.4661 -0.9217  0.2370
 8360SOL    HW136716   2.299   4.035  12.351  0.2334 -2.2869  0.1520
 8360SOL    HW236717   2.241   3.916  12.405  0.5381  0.5889  1.8831
 8361SOL     OW36718   2.871   1.932   3.955 -0.3716  0.2072  0.1224
 8361SOL    HW136719   2.919   1.914   4.036  0.8238 -0.2380 -0.6717
 8361SOL    HW236720   2.891   1.854   3.903 -2.0072 -0.3725  0.3810
 8362SOL     OW36721   2.532   0.132  16.471  0.1335  0.6076 -0.2199
 8362SOL    HW136722   2.591   0.057  16.477  1.9274  2.1449  1.1614
 8362SOL    HW236723   2.552   0.167  16.384  1.2316 -2.1819 -1.0964
 8363SOL     OW36724   3.381   1.746   2.242  0.1613  0.4729 -0.0099
 8363SOL    HW136725   3.414   1.661   2.215 -1.0186  0.2084 -0.6121
 8363SOL    HW236726   3.457   1.772   2.295 -0.4274 -0.4792  1.3202
 8364SOL     OW36727   2.816   4.214   4.850  0.0119  0.2396  0.2269
 8364SOL    HW136728   2.742   4.155   4.864  0.3816 -0.2488  0.1342
 8364SOL    HW236729   2.888   4.167   4.893 -0.3875  1.4690  2.2521
 8365SOL     OW36730   1.580   1.508   4.223  0.2603  0.3464 -1.0396
 8365SOL    HW136731   1.643   1.445   4.258  1.0460  0.9662 -1.3524
 8365SOL    HW236732   1.644   1.557   4.171 -0.6763  2.7464  0.0498
 8366SOL     OW36733   1.880   0.446  15.234  0.9179 -0.0710  0.1365
 8366SOL    HW136734   1.808   0.406  15.283 -1.1355  1.1661 -1.8724
 8366SOL    HW236735   1.842   0.530  15.206  1.5054  0.6525  1.5186
 8367SOL     OW36736   3.887   2.357   4.379  0.1934 -0.2707 -0.7652
 8367SOL    HW136737   3.808   2.397   4.415  0.3387 -1.0723  0.4272
 8367SOL    HW236738   3.860   2.366   4.287 -0.2778  0.4361 -0.5599
 8368SOL     OW36739   4.636   1.984   9.768 -0.2700 -0.0989  0.5714
 8368SOL    HW136740   4.604   1.971   9.679 -0.6715 -0.7784  0.8103
 8368SOL    HW236741   4.694   2.058   9.755  1.3638 -1.5796 -0.5203
 8369SOL     OW36742   4.083   4.157  15.252 -0.0382 -0.0508 -0.3464
 8369SOL    HW136743   4.004   4.102  15.257  1.0062 -1.5265 -0.2364
 8369SOL    HW236744   4.046   4.245  15.241 -2.2319 -0.8623  0.5229
 8370SOL     OW36745   3.751   3.144  15.340  0.0181 -0.6887  0.1129
 8370SOL    HW136746   3.738   3.121  15.248  1.4139 -0.1361 -0.2144
 8370SOL    HW236747   3.766   3.060  15.383 -0.6888  0.3902  2.4275
 8371SOL     OW36748   0.520   3.431   3.263 -0.6463  0.4066 -0.1217
 8371SOL    HW136749   0.501   3.392   3.178  0.7256  0.5047 -0.4634
 8371SOL    HW236750   0.432   3.439   3.299 -0.8147  2.1831 -0.9040
 8372SOL     OW36751   0.025   1.950  11.639 -0.0700  0.1435  0.1907
 8372SOL    HW136752   4.732   1.911  11.721 -1.1468  0.3474 -0.1064
 8372SOL    HW236753   4.683   1.938  11.587  0.9500  0.5883 -1.4772
 8373SOL     OW36754   1.120   1.648   5.389  0.5412 -0.0910 -0.0152
 8373SOL    HW136755   1.119   1.591   5.312 -0.6935 -0.9566  0.6511
 8373SOL    HW236756   1.168   1.593   5.451 -0.2958  0.2516  0.9388
 8374SOL     OW36757   0.753   2.490   4.726  0.2302  0.1424 -0.1404
 8374SOL    HW136758   0.747   2.398   4.699  2.8031 -0.6837  2.1473
 8374SOL    HW236759   0.737   2.487   4.820  0.6761 -0.4544 -0.0839
 8375SOL     OW36760   2.423   2.257   0.689 -0.3089 -0.2796 -0.4957
 8375SOL    HW136761   2.449   2.277   0.599  1.6394 -3.5472 -0.6326
 8375SOL    HW236762   2.429   2.345   0.727  2.5146 -0.7242  0.1139
 8376SOL     OW36763   4.176   2.231  12.359 -0.3656  0.3441  0.1162
 8376SOL    HW136764   4.270   2.238  12.369 -0.0269 -2.5045 -0.9072
 8376SOL    HW236765   4.139   2.232  12.447  0.2085 -1.4734  0.3818
 8377SOL     OW36766   4.557   1.485  12.231 -0.7989 -0.1396 -0.4461
 8377SOL    HW136767   4.555   1.401  12.185  0.9188  0.8637 -2.3244
 8377SOL    HW236768   4.483   1.525  12.186 -0.5439 -3.1582 -3.4998
 8378SOL     OW36769   1.940   4.508   6.564 -0.6378  0.4799  0.0662
 8378SOL    HW136770   1.899   4.470   6.487  3.6587 -0.9947 -1.4854
 8378SOL    HW236771   1.996   4.436   6.594 -0.2592  1.2836  1.2981
 8379SOL     OW36772   1.206   1.729   8.380  0.0189 -0.2465  0.5340
 8379SOL    HW136773   1.263   1.661   8.345 -2.1112 -0.1931 -3.0438
 8379SOL    HW236774   1.270   1.800   8.392 -0.4716  0.0250  1.4856
 8380SOL     OW36775   3.637   1.617   3.482 -0.0026  0.0442 -0.4629
 8380SOL    HW136776   3.634   1.689   3.418  0.8957 -0.3450 -0.9453
 8380SOL    HW236777   3.569   1.650   3.541  0.8369  2.1806 -0.6784
 8381SOL     OW36778   0.669   2.424   8.148 -0.1530 -0.1242  0.3045
 8381SOL    HW136779   0.740   2.488   8.150  0.7998 -1.2341  1.4760
 8381SOL    HW236780   0.660   2.393   8.237  1.0189  0.6057  0.6758
 8382SOL     OW36781   4.688   0.029   7.348 -0.3050  0.1379  0.1055
 8382SOL    HW136782   0.012   4.723   7.406 -0.3478  0.1982  0.1962
 8382SOL    HW236783   0.004   0.047   7.271 -1.4664  0.8120 -0.5652
 8383SOL     OW36784   2.049   2.969   7.693 -0.2602  0.4915 -0.4038
 8383SOL    HW136785   1.971   3.004   7.734  0.0369  2.2245 -1.3299
 8383SOL    HW236786   2.085   2.900   7.749 -0.7735  1.0958  0.6645
 8384SOL     OW36787   1.598   4.538   2.769  0.4378  0.0407 -0.7218
 8384SOL    HW136788   1.509   4.541   2.804  1.2253 -1.2189  1.3666
 8384SOL    HW236789   1.594   4.460   2.713 -3.1508 -0.2696 -0.0569
 8385SOL     OW36790   4.414   3.804   9.088 -0.9137  0.8369  0.0497
 8385SOL    HW136791   4.358   3.732   9.116 -0.8227  0.7666  0.0533
 8385SOL    HW236792   4.364   3.874   9.130 -0.1050  1.7463 -0.5012
 8386SOL     OW36793   2.878   2.391   3.287 -0.2405 -0.1772 -0.0425
 8386SOL    HW136794   2.873   2.430   3.374  2.3201  1.1061 -0.4770
 8386SOL    HW236795   2.789   2.408   3.256  0.6319 -2.6705 -3.9585
 8387SOL     OW36796   0.738   2.938   0.909  0.4609 -0.2881 -0.6333
 8387SOL    HW136797   0.787   2.987   0.975 -2.4655  0.2002  1.2030
 8387SOL    HW236798   0.719   3.016   0.858  0.9541  1.1213  1.3457
 8388SOL     OW36799   0.398   1.473   1.866  0.0422  0.5769 -0.2320
 8388SOL    HW136800   0.415   1.380   1.847  0.3212  0.4565  0.6208
 8388SOL    HW236801   0.378   1.500   1.776 -0.0234 -0.1555 -0.4412
 8389SOL     OW36802   2.355   3.261  10.043  1.1907  0.2181 -0.5038
 8389SOL    HW136803   2.408   3.335  10.013 -0.2322  0.1306 -3.2290
 8389SOL    HW236804   2.380   3.273  10.135 -2.6813 -1.1591  0.7228
 8390SOL     OW36805   1.774   0.446  12.584 -0.5066 -0.1561 -0.3569
 8390SOL    HW136806   1.818   0.395  12.516 -1.4681 -1.1875 -0.2090
 8390SOL    HW236807   1.712   0.499  12.532 -3.0914 -0.6295  2.2634
 8391SOL     OW36808   0.072   1.019   0.723  0.3393  0.2672 -0.0500
 8391SOL    HW136809   0.129   0.958   0.769  1.9109  2.2880  0.7081
 8391SOL    HW236810   0.045   1.084   0.788  2.9786  2.2765 -0.9365
 8392SOL     OW36811   1.752   1.347   3.540  0.2889 -0.1412  0.0225
 8392SOL    HW136812   1.660   1.348   3.514  0.1235  0.2420  0.6029
 8392SOL    HW236813   1.756   1.268   3.594 -3.3726 -1.1102 -1.1062
 8393SOL     OW36814   4.022   0.031   1.351  0.0847  0.1569 -0.0939
 8393SOL    HW136815   4.113   0.061   1.359  0.7524 -1.7976 -0.4559
 8393SOL    HW236816   4.030   4.688   1.302 -0.1623 -0.7656  1.3839
 8394SOL     OW36817   0.542   3.618   9.541  0.1278 -0.1065  0.0316
 8394SOL    HW136818   0.484   3.679   9.495 -1.6589  0.1647  2.6321
 8394SOL    HW236819   0.608   3.603   9.474 -1.0312 -0.3895 -1.0428
 8395SOL     OW36820   1.495   2.521   4.960  0.0317  0.1272 -0.0486
 8395SOL    HW136821   1.535   2.463   5.025 -0.3287 -1.6968 -1.4531
 8395SOL    HW236822   1.557   2.593   4.949  0.8961 -0.6428 -0.2596
 8396SOL     OW36823   3.752   0.073  16.611 -0.0045  0.1418  0.4045
 8396SOL    HW136824   3.790   0.159  16.626  1.1852 -0.6446  1.8945
 8396SOL    HW236825   3.727   0.051  16.700 -0.2831  0.4424  0.4000
 8397SOL     OW36826   3.681   4.240   1.611 -0.1713  0.1850 -0.5061
 8397SOL    HW136827   3.625   4.184   1.665 -0.2249  0.8579  0.1308
 8397SOL    HW236828   3.759   4.189   1.590 -0.8656 -1.0417 -0.1056
 8398SOL     OW36829   4.691   1.352   0.330 -0.8044  0.2953 -0.0788
 8398SOL    HW136830   4.611   1.383   0.288 -0.2258  0.0829 -1.3345
 8398SOL    HW236831   4.655   1.293   0.396 -0.0937 -0.9228 -0.7752
 8399SOL     OW36832   2.442   3.890   6.518  0.0516  0.2127  0.2783
 8399SOL    HW136833   2.532   3.911   6.492 -0.1825  1.4231  0.4719
 8399SOL    HW236834   2.442   3.795   6.509 -0.1172  0.1882  0.5427
 8400SOL     OW36835   3.361   4.735   1.335 -0.0733  0.6329 -1.0459
 8400SOL    HW136836   3.406   4.650   1.326 -3.2327 -1.1622  0.1411
 8400SOL    HW236837   3.360   0.027   1.244 -1.2127  2.8681 -0.2850
 8401SOL     OW36838   0.581   4.068  16.985 -0.1405 -0.1162 -0.5263
 8401SOL    HW136839   0.662   4.021  16.969 -0.3504 -0.7633  0.3073
 8401SOL    HW236840   0.588   4.136  16.917  1.9420 -1.2096 -1.3790
 8402SOL     OW36841   2.170   4.094   2.051  0.1787 -0.0791 -0.2203
 8402SOL    HW136842   2.245   4.045   2.083  0.2563 -0.2548 -0.6669
 8402SOL    HW236843   2.159   4.159   2.121  0.1742  0.0696 -0.3596
 8403SOL     OW36844   3.032   3.556   7.687 -0.2159 -0.2754  0.4175
 8403SOL    HW136845   2.949   3.581   7.729  0.1905 -0.8865  1.5872
 8403SOL    HW236846   3.039   3.630   7.627 -2.1852 -0.0652  0.4458
 8404SOL     OW36847   2.566   0.439   2.241  0.1140 -0.8762  0.3144
 8404SOL    HW136848   2.642   0.387   2.214  1.0463  0.5958  0.1266
 8404SOL    HW236849   2.496   0.374   2.248  0.2643 -0.7434  3.1442
 8405SOL     OW36850   2.932   1.971   7.406  0.4226 -0.6693 -0.1335
 8405SOL    HW136851   3.022   1.982   7.375  0.6453  2.0526  1.4947
 8405SOL    HW236852   2.942   1.955   7.499 -0.6460  1.4051  0.3529
 8406SOL     OW36853   4.016   3.257   2.530  0.2975 -0.2856 -0.0649
 8406SOL    HW136854   3.998   3.216   2.445  5.1071 -2.2247 -0.1461
 8406SOL    HW236855   3.929   3.272   2.565  0.5879 -0.2964  0.6607
 8407SOL     OW36856   1.759   3.488   7.736  0.1412  0.7719 -0.7899
 8407SOL    HW136857   1.726   3.578   7.740 -0.3204  0.6204 -1.2034
 8407SOL    HW236858   1.839   3.488   7.683 -0.3630  0.0339 -1.5478
 8408SOL     OW36859   0.755   3.268   7.714 -0.5732 -1.0306  0.3838
 8408SOL    HW136860   0.719   3.308   7.793  0.1973  0.1072  0.1708
 8408SOL    HW236861   0.674   3.263   7.664  1.1214 -2.7118 -2.2117
 8409SOL     OW36862   0.220   2.623   6.582  0.2443  0.4834 -0.0274
 8409SOL    HW136863   0.143   2.621   6.638  0.1432  1.3923 -0.1377
 8409SOL    HW236864   0.188   2.660   6.500 -0.5968 -0.4807 -0.1380
 8410SOL     OW36865   0.793   2.559   3.426 -0.3613  0.9330  0.1074
 8410SOL    HW136866   0.742   2.481   3.405  1.6393 -0.5757  0.7282
 8410SOL    HW236867   0.731   2.611   3.477  0.8718  0.2411  2.3413
 8411SOL     OW36868   3.052   1.367   9.192  0.0603 -0.5217  0.1875
 8411SOL    HW136869   3.137   1.408   9.174 -0.0559  0.6389  2.3124
 8411SOL    HW236870   3.044   1.382   9.286 -0.2515 -0.2339  0.1133
 8412SOL     OW36871   2.093   3.418   6.459 -0.4928  0.0918 -1.1135
 8412SOL    HW136872   2.020   3.479   6.444 -1.4916 -0.7569  0.3498
 8412SOL    HW236873   2.030   3.347   6.472 -1.4544  0.9727 -0.9599
 8413SOL     OW36874   4.256   2.530   5.938  0.0889  0.0299  0.6160
 8413SOL    HW136875   4.219   2.618   5.947  0.8419  0.2806  1.2486
 8413SOL    HW236876   4.327   2.525   6.002  0.3877 -0.1595  0.2714
 8414SOL     OW36877   2.198   1.848   2.004  0.2335  0.0833 -0.1959
 8414SOL    HW136878   2.152   1.867   1.922  1.7228 -2.6155 -1.6650
 8414SOL    HW236879   2.269   1.911   1.997  0.2757  0.0780  0.1537
 8415SOL     OW36880   2.943   2.471   7.721  0.6053  0.8444  0.3227
 8415SOL    HW136881   2.954   2.426   7.804  0.7502 -3.7170 -2.1441
 8415SOL    HW236882   2.929   2.396   7.663  0.3500  1.4201 -0.3657
 8416SOL     OW36883   4.643   3.095  10.162 -0.3945 -0.1250  0.0258
 8416SOL    HW136884   4.682   3.183  10.168  1.1938 -0.7623 -0.8591
 8416SOL    HW236885   4.624   3.102  10.068 -0.8066  2.1406  0.2612
 8417SOL     OW36886   3.358   0.002   2.933  0.1957  0.3260  0.0942
 8417SOL    HW136887   3.338   4.706   2.846 -1.0394  1.5949 -0.1149
 8417SOL    HW236888   3.282   0.057   2.952  0.7764  1.3689 -0.5872
 8418SOL     OW36889   1.985   4.219   4.021 -0.0901  0.6722 -0.6686
 8418SOL    HW136890   2.048   4.269   4.073  0.3137 -1.3064  0.7527
 8418SOL    HW236891   1.987   4.137   4.071  2.4513  0.3085 -1.3912
 8419SOL     OW36892   4.462   4.302  15.370  0.5012  0.1340 -0.1074
 8419SOL    HW136893   4.557   4.300  15.360  0.2233 -0.2155 -2.7102
 8419SOL    HW236894   4.457   4.319  15.464 -4.1848 -0.7961 -0.1956
 8420SOL     OW36895   4.071   2.307   5.118  0.1897 -0.6978 -0.5714
 8420SOL    HW136896   4.111   2.279   5.036  2.2451  1.8257 -0.4445
 8420SOL    HW236897   4.081   2.401   5.105  2.0373 -1.1379 -2.4000
 8421SOL     OW36898   1.972   3.199   4.107 -0.3290 -0.1473  0.0366
 8421SOL    HW136899   1.933   3.245   4.181  1.0731  2.6770 -0.9737
 8421SOL    HW236900   2.062   3.230   4.102 -1.1142  2.2142  0.4144
 8422SOL     OW36901   2.360   2.626  13.184  0.1395  0.6510 -0.6744
 8422SOL    HW136902   2.342   2.653  13.274 -1.1405 -1.4186 -0.3222
 8422SOL    HW236903   2.300   2.554  13.169 -0.8821  1.3878 -0.1032
 8423SOL     OW36904   2.230   0.805   3.529 -0.2852  0.2036 -0.4162
 8423SOL    HW136905   2.308   0.752   3.515  0.2686  0.8622  0.1648
 8423SOL    HW236906   2.228   0.858   3.449  1.1079 -1.0516 -1.2709
 8424SOL     OW36907   2.771   4.502   5.105 -0.0081  0.0985 -0.2695
 8424SOL    HW136908   2.863   4.487   5.125  0.9111  3.2362 -2.0702
 8424SOL    HW236909   2.766   4.589   5.145  1.2128  0.9059 -1.8712
 8425SOL     OW36910   4.164   3.913   6.046 -0.3153 -0.2118  0.6780
 8425SOL    HW136911   4.167   3.825   6.009 -0.5535 -0.1675  0.5556
 8425SOL    HW236912   4.103   3.950   5.982  1.1245 -0.6358 -0.9498
 8426SOL     OW36913   3.417   4.045   3.848  0.3485 -0.5506  0.4792
 8426SOL    HW136914   3.326   4.020   3.863  0.9721 -1.9752  1.7951
 8426SOL    HW236915   3.460   3.995   3.916  1.8398  0.3839  0.2147
 8427SOL     OW36916   3.139   2.358   8.858 -0.3735  0.0934  0.0467
 8427SOL    HW136917   3.073   2.365   8.789  0.0757  1.3149 -0.2498
 8427SOL    HW236918   3.207   2.422   8.836  0.3004 -1.3328 -1.9501
 8428SOL     OW36919   0.772   2.368   1.784  0.0913 -0.0834 -0.0547
 8428SOL    HW136920   0.856   2.332   1.811 -0.5240 -2.0431 -0.7463
 8428SOL    HW236921   0.759   2.318   1.703  2.7796  0.0269 -0.5547
 8429SOL     OW36922   1.817   0.728   7.955  0.6275 -0.7249  0.3760
 8429SOL    HW136923   1.740   0.706   7.904 -0.2023  0.4075  1.1292
 8429SOL    HW236924   1.877   0.778   7.900  1.1019  0.0049  1.5467
 8430SOL     OW36925   2.416   1.834  10.227 -0.1376  0.2297 -0.2454
 8430SOL    HW136926   2.339   1.791  10.190 -0.0927  0.8865 -1.0913
 8430SOL    HW236927   2.489   1.802  10.174  2.1804  1.9682  1.9064
 8431SOL     OW36928   3.951   4.108   9.058 -0.0277  0.2805 -0.4322
 8431SOL    HW136929   3.870   4.120   9.107  0.8891 -2.5139  1.7734
 8431SOL    HW236930   3.952   4.180   8.994 -1.3668  1.4970  0.9180
 8432SOL     OW36931   2.706   1.622   7.101  0.0354  0.4045  0.4831
 8432SOL    HW136932   2.670   1.710   7.103  0.4454  0.5799  0.1605
 8432SOL    HW236933   2.754   1.622   7.184  1.0780 -1.4366 -0.1057
 8433SOL     OW36934   3.951   1.379   9.307 -0.4437  0.1359  0.1110
 8433SOL    HW136935   3.896   1.429   9.246 -0.7047 -0.9087 -0.5056
 8433SOL    HW236936   3.897   1.302   9.323 -0.1897 -0.1256 -0.3036
 8434SOL     OW36937   0.263   4.335   3.645 -0.0073 -0.3252 -0.4712
 8434SOL    HW136938   0.315   4.327   3.724 -0.3914  1.3294 -0.0374
 8434SOL    HW236939   0.316   4.405   3.607 -0.2457 -0.5566 -1.2359
 8435SOL     OW36940   1.574   4.691   3.232  0.4063 -0.0904 -0.3929
 8435SOL    HW136941   1.504   0.017   3.216  0.3308 -0.5905 -2.0729
 8435SOL    HW236942   1.530   4.614   3.194  0.0207 -0.4747  0.8347
 8436SOL     OW36943   3.927   1.044   8.813 -0.3658 -0.5558 -0.2429
 8436SOL    HW136944   3.919   1.026   8.906  0.2657 -0.5453 -0.1919
 8436SOL    HW236945   4.020   1.037   8.795 -0.0158  0.9661  1.0330
 8437SOL     OW36946   1.021   4.559   5.400 -0.5575  0.1624  0.6993
 8437SOL    HW136947   0.984   4.629   5.346  2.3400  0.3523 -1.0401
 8437SOL    HW236948   0.985   4.584   5.485  0.7504 -0.9325  1.5676
 8438SOL     OW36949   4.559   1.350   6.696 -0.1931  0.7385  0.3138
 8438SOL    HW136950   4.482   1.333   6.750 -0.7616 -0.0687 -0.7508
 8438SOL    HW236951   4.620   1.282   6.725  0.3686  1.7291  1.4876
 8439SOL     OW36952   0.486   2.302   2.477  0.2018  0.2645  0.0655
 8439SOL    HW136953   0.410   2.283   2.422  1.2157 -2.3464 -0.4325
 8439SOL    HW236954   0.552   2.246   2.436 -1.5313 -2.4138  0.8827
 8440SOL     OW36955   0.747   1.145   5.128 -0.0913  0.4179 -0.3698
 8440SOL    HW136956   0.760   1.239   5.139  0.6169 -0.0750  2.7392
 8440SOL    HW236957   0.768   1.117   5.217  0.4795 -2.6353 -1.4744
 8441SOL     OW36958   3.733   2.429   4.671 -0.5661 -0.0001  0.2918
 8441SOL    HW136959   3.755   2.341   4.702 -1.0931 -0.2237  0.0327
 8441SOL    HW236960   3.641   2.412   4.649 -0.3593 -1.5380  0.6016
 8442SOL     OW36961   2.927   4.724  16.063  0.2687  0.5160 -0.0208
 8442SOL    HW136962   2.979   0.064  16.082 -0.7560  2.0131 -3.3130
 8442SOL    HW236963   2.987   4.670  16.011 -0.9528  0.3302 -1.2512
 8443SOL     OW36964   3.285   0.573   1.660  0.4199 -0.4099  0.3840
 8443SOL    HW136965   3.278   0.487   1.619 -1.3879  1.0936 -2.4237
 8443SOL    HW236966   3.368   0.556   1.704  0.8887 -1.7016 -1.0006
 8444SOL     OW36967   0.933   3.716  17.402  0.4740 -0.4298  0.4607
 8444SOL    HW136968   0.916   3.786  17.340 -2.5217 -2.4420 -0.9728
 8444SOL    HW236969   0.857   3.659  17.388  0.1484 -0.2621  1.5342
 8445SOL     OW36970   3.657   1.847  14.640  0.6017  0.6093  0.1189
 8445SOL    HW136971   3.726   1.912  14.626  0.3625  1.5154  3.2161
 8445SOL    HW236972   3.592   1.894  14.587  0.3030 -0.4706 -0.4632
 8446SOL     OW36973   1.907   2.935  15.838  0.3509 -0.3831 -0.2035
 8446SOL    HW136974   1.969   2.907  15.771  0.7966  0.0673  0.0121
 8446SOL    HW236975   1.892   2.846  15.870 -3.1975 -0.2110 -1.3943
 8447SOL     OW36976   1.167   0.621  14.756 -0.4598  0.5619  0.2919
 8447SOL    HW136977   1.142   0.614  14.663  2.1547  1.3682 -0.4909
 8447SOL    HW236978   1.174   0.527  14.775 -1.2181  0.2661 -0.8672
 8448SOL     OW36979   2.886   2.568   7.352 -0.0223 -0.0503  0.0111
 8448SOL    HW136980   2.852   2.629   7.285  0.8349  1.8386  1.2865
 8448SOL    HW236981   2.882   2.609   7.438 -0.7200  2.0520 -1.0183
 8449SOL     OW36982   2.095   4.606   7.995  0.4020  0.2182 -0.6660
 8449SOL    HW136983   2.023   4.598   8.058  1.7348 -1.0300  0.6841
 8449SOL    HW236984   2.113   4.700   8.005  0.0964  0.0499  1.6399
 8450SOL     OW36985   0.449   3.266   2.917  0.1913  0.3672 -0.1501
 8450SOL    HW136986   0.519   3.328   2.894 -0.7803  1.5475  0.0833
 8450SOL    HW236987   0.430   3.238   2.828 -1.3804  1.1414 -0.0513
 8451SOL     OW36988   3.852   4.422  11.737 -0.4163  0.0112 -0.2676
 8451SOL    HW136989   3.922   4.356  11.739 -0.3303  0.0870 -0.9815
 8451SOL    HW236990   3.845   4.440  11.831  0.6745 -2.1410  0.2279
 8452SOL     OW36991   1.214   2.662   4.257 -0.3462 -0.5013  0.6875
 8452SOL    HW136992   1.223   2.599   4.186  3.2154  0.6236  0.1675
 8452SOL    HW236993   1.119   2.666   4.267 -0.1200 -0.2182  2.7354
 8453SOL     OW36994   0.810   1.077   3.198 -0.4926  0.0080 -0.0016
 8453SOL    HW136995   0.729   1.025   3.199 -0.6500  0.2269 -0.9989
 8453SOL    HW236996   0.791   1.146   3.134 -0.6887 -0.5594 -0.5542
 8454SOL     OW36997   3.519   0.194   0.539  0.0583 -0.3259  0.1600
 8454SOL    HW136998   3.482   0.167   0.456 -0.8584  1.8132 -0.1412
 8454SOL    HW236999   3.508   0.121   0.600  2.0623  0.6851  1.7609
 8455SOL     OW37000   4.382   4.204   3.196 -0.3556  0.1599  0.0990
 8455SOL    HW137001   4.402   4.297   3.205 -0.5715  0.4271 -2.0692
 8455SOL    HW237002   4.302   4.200   3.248  0.7785  1.2205  1.9417
 8456SOL     OW37003   2.752   4.687  15.845 -0.5148 -0.6044 -0.5110
 8456SOL    HW137004   2.775   4.709  15.935 -0.6414  2.2619 -1.1810
 8456SOL    HW237005   2.822   0.001  15.806  0.8036 -1.6446  0.5182
 8457SOL     OW37006   3.168   4.079   5.583  0.1150  0.2600  0.2974
 8457SOL    HW137007   3.156   4.051   5.492 -1.3891 -0.4646  0.7301
 8457SOL    HW237008   3.215   4.163   5.578  1.0748 -0.1225  2.7585
 8458SOL     OW37009   3.321   2.796   4.239  0.1801 -0.2435  0.0175
 8458SOL    HW137010   3.296   2.712   4.201  1.1563 -0.1153 -0.9158
 8458SOL    HW237011   3.273   2.865   4.192  1.0551  1.6937  1.9368
 8459SOL     OW37012   0.920   0.917  14.281 -0.2485 -0.6011 -0.2772
 8459SOL    HW137013   0.975   0.840  14.294  0.3754 -0.0584  0.2890
 8459SOL    HW237014   0.851   0.909  14.348  1.4753  0.5787  1.6332
 8460SOL     OW37015   1.345   3.460  12.385 -0.0154 -0.1058  0.3233
 8460SOL    HW137016   1.362   3.432  12.475 -2.2459  0.0735  0.8016
 8460SOL    HW237017   1.291   3.383  12.364 -1.3809  0.4214  1.8791
 8461SOL     OW37018   4.639   4.192   6.422 -0.5196 -0.0272 -0.0509
 8461SOL    HW137019   4.730   4.167   6.431 -0.2735  1.1296  0.7396
 8461SOL    HW237020   4.638   4.285   6.397  1.6381 -0.0195 -0.0758
 8462SOL     OW37021   3.891   3.550   2.938 -0.2272 -0.5574  0.0665
 8462SOL    HW137022   3.795   3.544   2.937 -0.2021 -0.9692  0.7621
 8462SOL    HW237023   3.920   3.562   2.847  2.0472 -0.4649  0.8174
 8463SOL     OW37024   4.511   3.154  17.471  0.1752 -0.3869 -0.0877
 8463SOL    HW137025   4.586   3.166  17.413  0.3840  1.7579  0.5997
 8463SOL    HW237026   4.447   3.170  17.402  0.2553  0.6518  0.0771
 8464SOL     OW37027   1.919   4.421   0.695  0.8096  0.2208 -0.1162
 8464SOL    HW137028   1.970   4.354   0.741 -0.8564 -0.4774  0.7072
 8464SOL    HW237029   1.953   4.499   0.739  0.8503 -0.2091  0.6139
 8465SOL     OW37030   2.405   1.830   4.840 -0.1983 -0.2550 -0.0464
 8465SOL    HW137031   2.381   1.799   4.753  0.5193 -0.1053 -0.2983
 8465SOL    HW237032   2.321   1.830   4.887 -0.0125  2.1897  0.2880
 8466SOL     OW37033   1.371   0.097   1.222 -0.0734 -0.0364  0.0975
 8466SOL    HW137034   1.319   0.029   1.265  0.6087 -0.9007 -0.4595
 8466SOL    HW237035   1.297   0.143   1.182 -0.5520 -0.6550  0.2628
 8467SOL     OW37036   2.198   3.324  17.558  0.4221 -0.2193 -0.1422
 8467SOL    HW137037   2.265   3.290  17.498  1.3750  0.5065  0.4992
 8467SOL    HW237038   2.120   3.284  17.521 -1.3357  1.4899  1.6723
 8468SOL     OW37039   3.217   4.526  17.205  0.1159 -0.5188 -0.5322
 8468SOL    HW137040   3.131   4.566  17.195  0.8111  0.8362 -1.0163
 8468SOL    HW237041   3.206   4.463  17.276  1.5397  0.1342  0.2738
 8469SOL     OW37042   0.306   1.293   8.991  0.0971  0.2583  0.1097
 8469SOL    HW137043   0.282   1.384   9.006 -0.8212  0.3830 -2.1152
 8469SOL    HW237044   0.246   1.252   9.055  0.1247 -0.8223 -0.5535
 8470SOL     OW37045   0.703   4.560   2.939  0.4351 -0.8850  0.3894
 8470SOL    HW137046   0.607   4.563   2.940  0.4922  1.8922 -0.5783
 8470SOL    HW237047   0.729   4.605   3.020 -2.5168  3.0677 -0.8603
 8471SOL     OW37048   0.348   2.515   3.079  0.1980  0.5235  0.0184
 8471SOL    HW137049   0.387   2.571   3.146  0.0927 -0.1643  0.6551
 8471SOL    HW237050   0.390   2.536   2.996  1.5060 -2.2346 -0.0128
 8472SOL     OW37051   4.331   1.852  12.484 -0.4250 -0.1808 -0.1354
 8472SOL    HW137052   4.242   1.887  12.481 -0.9408 -1.2804  2.2928
 8472SOL    HW237053   4.352   1.919  12.549  1.6045 -0.5200 -0.4450
 8473SOL     OW37054   1.906   0.308   6.149 -0.0673  0.0638 -0.3173
 8473SOL    HW137055   1.874   0.374   6.088  0.2056  0.5845  0.1062
 8473SOL    HW237056   1.979   0.353   6.191 -0.0440 -0.4046  0.1524
 8474SOL     OW37057   4.532   3.717   8.829 -0.2198  0.0101  0.4039
 8474SOL    HW137058   4.467   3.687   8.765 -0.6075  1.1081  0.2893
 8474SOL    HW237059   4.512   3.677   8.914 -1.2639 -1.7722 -0.6830
 8475SOL     OW37060   2.071   1.620   5.661 -0.0705  0.3247  0.6761
 8475SOL    HW137061   1.980   1.610   5.634  0.6747  0.6013 -1.9437
 8475SOL    HW237062   2.057   1.571   5.742 -0.3233 -2.5526 -1.0943
 8476SOL     OW37063   0.049   4.134  17.393 -0.2887 -0.6422 -0.2885
 8476SOL    HW137064   0.044   4.114  17.487  0.5249 -0.5935 -0.2331
 8476SOL    HW237065   0.142   4.138  17.373 -0.3509 -2.7925 -1.0050
 8477SOL     OW37066   1.110   1.148   8.625 -0.3356 -0.3595  0.1094
 8477SOL    HW137067   1.173   1.094   8.673 -0.0497  0.5342  0.7552
 8477SOL    HW237068   1.107   1.114   8.536  2.6848 -0.7978  0.1982
 8478SOL     OW37069   2.742   4.185   2.768 -0.1277 -0.5897 -0.3015
 8478SOL    HW137070   2.780   4.143   2.845 -0.1315 -0.9659 -0.5076
 8478SOL    HW237071   2.649   4.167   2.774 -1.0089  4.2134  0.0867
 8479SOL     OW37072   3.431   0.271  11.043  1.1607 -0.2851 -0.6815
 8479SOL    HW137073   3.434   0.203  10.976  1.8313  0.4867 -1.4279
 8479SOL    HW237074   3.355   0.233  11.087  0.0743 -1.5477 -3.7187
 8480SOL     OW37075   3.753   0.741   8.421 -0.4786 -0.1090 -0.0182
 8480SOL    HW137076   3.760   0.833   8.394  0.0086 -0.2524 -0.3933
 8480SOL    HW237077   3.799   0.744   8.505  3.2530 -0.2849 -2.0275
 8481SOL     OW37078   3.822   2.184   3.059 -0.0141 -0.6486 -0.4903
 8481SOL    HW137079   3.863   2.231   3.132 -1.5475  2.1111 -1.4195
 8481SOL    HW237080   3.734   2.220   3.071  0.0522 -0.7830  0.4218
 8482SOL     OW37081   2.028   1.950  12.442  0.4639  0.5224 -0.1428
 8482SOL    HW137082   2.058   1.979  12.356 -1.1701  1.6586 -0.3121
 8482SOL    HW237083   1.944   1.909  12.422 -0.7906  3.0187  0.1000
 8483SOL     OW37084   2.713   3.845   3.067  0.1286 -0.0830 -0.1171
 8483SOL    HW137085   2.753   3.846   2.980  0.6093  1.3511  0.1080
 8483SOL    HW237086   2.793   3.841   3.119 -1.1107 -4.8028  1.3682
 8484SOL     OW37087   0.790   3.423   2.803 -0.1774  0.4282  0.0605
 8484SOL    HW137088   0.802   3.361   2.731  1.6945 -0.2075  0.9364
 8484SOL    HW237089   0.720   3.470   2.757 -2.0366 -0.0677  2.4103
 8485SOL     OW37090   3.953   3.418   4.282  0.4286 -0.5450  0.6803
 8485SOL    HW137091   3.883   3.462   4.235  0.5804  0.7383  1.6617
 8485SOL    HW237092   3.910   3.337   4.311 -1.5684 -0.7883 -2.9008
 8486SOL     OW37093   1.620   3.447  11.784 -0.6511 -0.0278 -0.2653
 8486SOL    HW137094   1.706   3.487  11.775 -0.5722  0.0020  0.5567
 8486SOL    HW237095   1.575   3.488  11.710 -1.6875  2.0517  1.5127
 8487SOL     OW37096   1.696   0.777   8.404  0.3302 -0.1034  0.5290
 8487SOL    HW137097   1.773   0.737   8.445  0.5097  2.0130  2.2902
 8487SOL    HW237098   1.696   0.722   8.325  2.6409  0.6994 -0.0504
 8488SOL     OW37099   1.095   4.370   1.927 -0.0885 -0.2633  0.6500
 8488SOL    HW137100   1.045   4.368   1.846  0.5327  0.2224  0.2619
 8488SOL    HW237101   1.178   4.332   1.898  0.8005  2.3097 -0.1548
 8489SOL     OW37102   4.284   0.729   7.138 -0.1416  0.6317  0.2193
 8489SOL    HW137103   4.348   0.733   7.067 -0.4859 -0.5260 -0.1642
 8489SOL    HW237104   4.340   0.767   7.205  1.5307  0.5560 -1.1489
 8490SOL     OW37105   1.703   2.434  16.470 -0.5219  0.6742 -0.2733
 8490SOL    HW137106   1.693   2.502  16.404  0.1060 -0.0124 -1.0733
 8490SOL    HW237107   1.738   2.471  16.551  1.5723 -2.1560  0.1145
 8491SOL     OW37108   3.689   3.018   2.008  0.5298 -0.2681 -0.1553
 8491SOL    HW137109   3.765   3.004   2.065  0.1088 -0.2319  0.4128
 8491SOL    HW237110   3.648   2.932   2.021 -0.2296  0.1204  0.0406
 8492SOL     OW37111   4.511   0.785   3.612  0.3223  0.1577  0.0359
 8492SOL    HW137112   4.518   0.873   3.575  1.1128 -0.5251 -1.4475
 8492SOL    HW237113   4.423   0.779   3.649  0.3657  1.0165  0.2737
 8493SOL     OW37114   2.010   2.841   2.052  0.5010 -0.6862  0.3989
 8493SOL    HW137115   2.026   2.900   2.126 -2.1265  0.9862 -0.3503
 8493SOL    HW237116   2.051   2.759   2.082  1.3588 -0.4684 -0.1971
 8494SOL     OW37117   3.618   2.772   5.633  0.1060  0.4532  0.2069
 8494SOL    HW137118   3.607   2.687   5.675 -1.5439  0.6613  0.1878
 8494SOL    HW237119   3.687   2.752   5.570 -0.9617  0.6380 -1.0210
 8495SOL     OW37120   3.937   3.357   3.106  0.3341 -0.6954 -0.0811
 8495SOL    HW137121   3.909   3.446   3.086  1.7567  0.0322  1.1529
 8495SOL    HW237122   4.011   3.345   3.046 -1.7091  0.6102 -2.8869
 8496SOL     OW37123   0.525   4.427  12.504  0.0770  0.0768  0.2431
 8496SOL    HW137124   0.575   4.493  12.552  0.2151  0.9006 -1.0365
 8496SOL    HW237125   0.571   4.348  12.533  2.1991  1.0784 -0.3448
 8497SOL     OW37126   3.272   0.400   8.946 -0.4594  0.0093 -0.2300
 8497SOL    HW137127   3.271   0.477   9.003 -1.0841  0.0905 -0.3470
 8497SOL    HW237128   3.209   0.347   8.993 -0.0753 -0.1015  0.1564
 8498SOL     OW37129   3.143   1.414  10.236 -0.4211  0.0816 -0.0228
 8498SOL    HW137130   3.153   1.415  10.332  0.6430 -2.1189 -0.1004
 8498SOL    HW237131   3.139   1.509  10.223 -1.1694  0.7425  4.9147
 8499SOL     OW37132   3.406   1.045   7.404 -0.1500 -0.1685  0.1323
 8499SOL    HW137133   3.452   0.995   7.472 -0.5547  0.8515  1.1722
 8499SOL    HW237134   3.470   1.115   7.406  1.9355 -2.0503 -0.3943
 8500SOL     OW37135   2.195   2.418   4.568 -0.1817  0.1230  0.0140
 8500SOL    HW137136   2.190   2.511   4.544  0.1842  0.2218  0.3103
 8500SOL    HW237137   2.115   2.381   4.532  1.0290 -1.3497 -1.1895
 8501SOL     OW37138   1.568   2.837   3.049  0.4260 -0.5870 -0.3890
 8501SOL    HW137139   1.600   2.758   3.006 -1.3355 -3.1789  2.9653
 8501SOL    HW237140   1.648   2.888   3.037  0.8796 -1.1814  0.1303
 8502SOL     OW37141   1.853   2.654  16.590 -0.0654 -0.5576 -0.4310
 8502SOL    HW137142   1.772   2.697  16.617 -0.6227 -1.2758 -0.9639
 8502SOL    HW237143   1.887   2.700  16.513 -1.1306 -1.0383 -1.1769
 8503SOL     OW37144   3.216   2.705   9.751 -1.1216 -0.4431 -0.0464
 8503SOL    HW137145   3.127   2.706   9.785 -0.8056  2.6137  0.7089
 8503SOL    HW237146   3.224   2.643   9.679 -0.8821  0.1195 -0.5074
 8504SOL     OW37147   2.856   1.829   0.676  0.4121  0.5189  0.0602
 8504SOL    HW137148   2.852   1.877   0.758 -1.6093 -0.7793  0.7474
 8504SOL    HW237149   2.945   1.825   0.642 -0.3216 -0.6946 -1.7355
 8505SOL     OW37150   0.013   4.041   7.035  0.5435 -0.0409 -0.4857
 8505SOL    HW137151   4.695   3.992   6.974  0.3312 -0.5783  0.1462
 8505SOL    HW237152   4.717   3.995   7.112  1.0660  0.1935 -0.1184
 8506SOL     OW37153   2.635   3.862   5.477  0.0575  0.1380  0.1848
 8506SOL    HW137154   2.684   3.944   5.475 -0.8079  0.6797  1.1305
 8506SOL    HW237155   2.645   3.847   5.571 -0.5214  0.3884  0.2847
 8507SOL     OW37156   2.687   1.412   4.454  0.1378  0.2666 -0.3753
 8507SOL    HW137157   2.747   1.354   4.501  0.1113 -0.2175 -0.9411
 8507SOL    HW237158   2.701   1.376   4.367 -1.2799  1.6346 -1.1796
 8508SOL     OW37159   0.181   3.152   9.091  0.2412  0.1028 -0.3938
 8508SOL    HW137160   0.261   3.111   9.057 -0.0836 -1.2801  0.5123
 8508SOL    HW237161   0.148   3.087   9.154  0.7152 -0.0609 -0.3116
 8509SOL     OW37162   0.858   3.686   2.208  0.9333  0.4963 -1.2276
 8509SOL    HW137163   0.797   3.732   2.265  0.6863 -0.6245 -0.6094
 8509SOL    HW237164   0.860   3.762   2.150 -0.9596 -0.8762 -3.0683
 8510SOL     OW37165   0.411   1.972   2.215 -0.0995 -0.2914  0.4016
 8510SOL    HW137166   0.340   1.939   2.269  2.0178 -1.9965  2.1647
 8510SOL    HW237167   0.454   2.035   2.274 -0.9513 -0.6519  1.4086
 8511SOL     OW37168   0.753   0.954   1.996 -0.1306  0.1860 -0.1083
 8511SOL    HW137169   0.841   0.930   1.967  0.3339 -1.9996  3.1171
 8511SOL    HW237170   0.770   1.038   2.039 -1.3829  0.8357 -0.8896
 8512SOL     OW37171   0.496   2.534   9.266 -0.4131 -0.1720 -0.2615
 8512SOL    HW137172   0.571   2.514   9.211  1.0692  0.3213  1.5663
 8512SOL    HW237173   0.470   2.450   9.302  0.1636 -0.1610  0.1829
 8513SOL     OW37174   2.852   3.877   9.045 -0.1825  0.1048 -0.2592
 8513SOL    HW137175   2.860   3.952   8.988 -1.7879 -0.7216 -1.5761
 8513SOL    HW237176   2.773   3.893   9.097 -0.4709 -0.8902 -0.3823
 8514SOL     OW37177   4.653   0.216   8.910 -0.8008 -0.2542  0.7894
 8514SOL    HW137178   4.687   0.294   8.867  1.6264 -1.2056  0.9454
 8514SOL    HW237179   4.640   0.241   9.002 -1.8475  0.3023  0.4816
 8515SOL     OW37180   0.685   1.830  17.666 -0.4271 -0.8733  0.4232
 8515SOL    HW137181   0.622   1.832  17.737  0.3050  0.8106  1.0250
 8515SOL    HW237182   0.744   1.755  17.674 -1.5913 -1.8202  0.2225
 8516SOL     OW37183   3.499   3.361   5.152  0.1774  0.1491  0.3946
 8516SOL    HW137184   3.451   3.421   5.095  0.5343 -1.5116 -1.7035
 8516SOL    HW237185   3.558   3.423   5.194 -2.1950  2.7195 -0.1359
 8517SOL     OW37186   0.654   4.620   6.653  0.5810  0.2497  0.4490
 8517SOL    HW137187   0.571   4.653   6.687  0.5285 -0.0749  0.6341
 8517SOL    HW237188   0.648   4.619   6.557  2.4549  1.1379  0.3225
 8518SOL     OW37189   4.189   1.357  12.334  0.5583  0.1105  0.1589
 8518SOL    HW137190   4.115   1.327  12.387 -0.3941 -0.9197 -1.7663
 8518SOL    HW237191   4.197   1.451  12.354 -0.5644  0.1103  0.5860
 8519SOL     OW37192   2.224   2.765  12.622 -0.2330  0.1505 -0.3318
 8519SOL    HW137193   2.166   2.783  12.696  1.0857  1.3797  0.3971
 8519SOL    HW237194   2.165   2.769  12.546 -0.7594 -2.9501 -0.1100
 8520SOL     OW37195   1.052   4.123  13.436  0.4915 -0.1924 -0.2869
 8520SOL    HW137196   1.137   4.149  13.471  0.6611 -0.9812 -0.1066
 8520SOL    HW237197   1.022   4.053  13.495 -0.2423 -0.3119 -0.8015
 8521SOL     OW37198   2.085   2.862   8.725  0.0818 -0.0791  0.1259
 8521SOL    HW137199   2.066   2.828   8.813  0.3886  2.1506  1.0555
 8521SOL    HW237200   2.179   2.880   8.729 -0.2196  1.9374 -1.8386
 8522SOL     OW37201   0.493   3.060   4.944  0.0097  0.0502  0.5671
 8522SOL    HW137202   0.413   3.021   4.979 -0.9220  1.9234  0.5190
 8522SOL    HW237203   0.560   3.011   4.992 -0.9788 -1.5566  0.3131
 8523SOL     OW37204   4.114   3.640  17.025  0.2501 -0.4148 -0.2072
 8523SOL    HW137205   4.127   3.733  17.006 -1.5481 -0.0533  0.3761
 8523SOL    HW237206   4.121   3.611  16.934 -1.0911  1.5133 -0.9279
 8524SOL     OW37207   3.634   1.889   2.324 -0.4674  0.2080  0.1188
 8524SOL    HW137208   3.616   1.874   2.417 -1.4519  2.0048  0.2097
 8524SOL    HW237209   3.635   1.984   2.319 -0.3666  0.2324  0.6106
 8525SOL     OW37210   2.422   2.669   0.333  0.0358  0.0014 -0.1097
 8525SOL    HW137211   2.502   2.677   0.385 -0.3253 -2.0088  0.7793
 8525SOL    HW237212   2.421   2.742   0.271 -3.1892  0.1867  0.1632
 8526SOL     OW37213   4.599   1.005  11.151 -0.2157 -0.2447  0.3853
 8526SOL    HW137214   4.578   0.949  11.226  2.4298  0.0279  1.3131
 8526SOL    HW237215   4.517   1.046  11.122 -0.8776 -0.2609  2.2533
 8527SOL     OW37216   2.920   0.895  13.323 -0.1866 -0.2276  0.2583
 8527SOL    HW137217   2.999   0.941  13.296 -1.7385  2.0459 -0.4713
 8527SOL    HW237218   2.956   0.827  13.379 -0.2509 -1.1226 -0.7920
 8528SOL     OW37219   1.042   3.704  13.303 -0.6427 -0.0132  0.6721
 8528SOL    HW137220   0.957   3.703  13.349 -1.0435  1.7846 -0.0517
 8528SOL    HW237221   1.069   3.795  13.305 -0.8329  0.0458  0.5710
 8529SOL     OW37222   3.201   1.592   2.545  0.0134  0.3981 -0.1547
 8529SOL    HW137223   3.286   1.563   2.579 -0.3193  1.8531  1.8643
 8529SOL    HW237224   3.180   1.656   2.613  0.5680 -1.6542  1.9125
 8530SOL     OW37225   4.475   3.239   1.985  0.4371 -0.1905 -0.2767
 8530SOL    HW137226   4.501   3.222   2.076 -2.2583 -1.8241  0.1844
 8530SOL    HW237227   4.452   3.332   1.990 -1.6942 -0.7366  0.0794
 8531SOL     OW37228   0.627   3.515  16.331 -0.1060  0.2403 -0.0449
 8531SOL    HW137229   0.585   3.499  16.247 -2.0432 -0.2035  0.9937
 8531SOL    HW237230   0.583   3.452  16.389 -0.3243 -2.5308 -3.2863
 8532SOL     OW37231   1.848   4.252   2.662  0.1541  0.1252  0.1327
 8532SOL    HW137232   1.754   4.271   2.661  0.3239  0.8917 -2.0139
 8532SOL    HW237233   1.887   4.306   2.731  1.2227  1.2082 -1.3189
 8533SOL     OW37234   0.945   1.700   7.563 -0.3023  0.0712  0.4404
 8533SOL    HW137235   1.016   1.695   7.499  0.9627  1.1195  1.7663
 8533SOL    HW237236   0.942   1.793   7.586 -0.0991  0.2140 -0.0953
 8534SOL     OW37237   3.787   1.618   3.732 -0.0359 -0.2700  0.1391
 8534SOL    HW137238   3.789   1.567   3.652  0.5076 -2.3722  1.5100
 8534SOL    HW237239   3.763   1.701   3.690 -2.9273 -0.9367  0.4876
 8535SOL     OW37240   4.612   1.488   6.203  0.2712 -0.0527 -0.7821
 8535SOL    HW137241   4.559   1.473   6.282  0.3515  0.3777 -0.6433
 8535SOL    HW237242   4.574   1.561   6.153  2.0449  1.9252  0.7330
 8536SOL     OW37243   3.275   2.915   6.400 -0.2302  0.0245  0.0394
 8536SOL    HW137244   3.208   2.982   6.385  1.2669  1.0484 -2.0624
 8536SOL    HW237245   3.287   2.898   6.307 -0.2376  0.9990 -0.1395
 8537SOL     OW37246   1.250   4.685   5.141  0.1292  0.2680  0.2383
 8537SOL    HW137247   1.235   0.028   5.092 -1.3678  0.8855  1.6860
 8537SOL    HW237248   1.161   4.669   5.173  0.6337 -1.3110  0.8265
 8538SOL     OW37249   0.402   4.436   1.491 -0.0525 -0.2354  0.1868
 8538SOL    HW137250   0.429   4.374   1.559 -0.4014 -1.5734 -0.8795
 8538SOL    HW237251   0.350   4.375   1.438 -2.6127 -0.6389  3.1436
 8539SOL     OW37252   0.154   2.011   3.716  0.3266  0.1822  0.2573
 8539SOL    HW137253   0.103   2.001   3.796  2.5090 -1.9270  1.3691
 8539SOL    HW237254   0.092   2.054   3.657  1.4084 -1.2987 -2.0019
 8540SOL     OW37255   4.297   2.872   4.567 -0.5958  0.1141  0.2239
 8540SOL    HW137256   4.305   2.947   4.508  0.2614 -0.4459 -0.3545
 8540SOL    HW237257   4.261   2.910   4.648 -2.2687 -0.9180 -0.0366
 8541SOL     OW37258   4.530   2.383   7.450  0.6355 -0.1736 -0.4788
 8541SOL    HW137259   4.471   2.437   7.504 -0.8919 -0.1979 -2.1524
 8541SOL    HW237260   4.615   2.388   7.495  0.2198 -0.7074  0.3725
 8542SOL     OW37261   0.995   1.042   9.038  0.2198 -0.6273  0.1272
 8542SOL    HW137262   1.071   1.008   9.085 -0.6239 -1.7764  0.6680
 8542SOL    HW237263   0.937   1.064   9.111  0.6773  0.1821  0.2515
 8543SOL     OW37264   1.150   0.640   7.508  0.4995 -0.4053 -0.3267
 8543SOL    HW137265   1.128   0.621   7.599  0.0962  1.2869 -0.0752
 8543SOL    HW237266   1.244   0.620   7.511  0.1284 -1.5062  3.7071
 8544SOL     OW37267   4.198   1.193  11.685 -0.0099 -0.0324 -0.0682
 8544SOL    HW137268   4.156   1.214  11.769 -0.4554 -0.5399 -0.1664
 8544SOL    HW237269   4.122   1.191  11.628 -1.0796 -0.6150  1.3746
 8545SOL     OW37270   3.732   2.185  10.321 -0.2943 -0.5787  0.3490
 8545SOL    HW137271   3.661   2.172  10.258  0.1658 -0.9658 -0.1026
 8545SOL    HW237272   3.797   2.209  10.254  0.0826  1.3465  1.4151
 8546SOL     OW37273   1.192   1.694   7.429 -0.2703 -0.3507  0.4046
 8546SOL    HW137274   1.250   1.618   7.433 -0.6014 -0.6420 -0.3585
 8546SOL    HW237275   1.249   1.760   7.390 -0.5752 -2.0714 -2.9240
 8547SOL     OW37276   0.986   4.696  11.759  0.0149  0.2483 -0.4711
 8547SOL    HW137277   1.039   4.727  11.685  2.0059 -1.2299  0.3640
 8547SOL    HW237278   0.976   0.044  11.799 -1.4923 -0.1304 -0.0476
 8548SOL     OW37279   4.581   3.660   5.857  0.0458 -0.7321 -0.1479
 8548SOL    HW137280   4.603   3.631   5.946  0.7718 -1.8077 -0.6848
 8548SOL    HW237281   4.658   3.631   5.808  0.4510  2.3609 -1.3856
 8549SOL     OW37282   0.748   3.688  11.998  0.3562  0.0157 -0.7346
 8549SOL    HW137283   0.752   3.627  11.924 -2.1659 -0.4766 -0.4718
 8549SOL    HW237284   0.828   3.657  12.040  0.0515  1.7504  1.1113
 8550SOL     OW37285   1.866   1.735   6.452  0.1378  0.6547  0.1036
 8550SOL    HW137286   1.911   1.811   6.488  2.6217 -1.8622  2.3422
 8550SOL    HW237287   1.934   1.668   6.449 -0.4396  0.0957 -0.5269
 8551SOL     OW37288   4.187   2.874   6.319  0.2784 -0.1107 -0.5173
 8551SOL    HW137289   4.261   2.936   6.316 -0.6243  1.0594  0.9886
 8551SOL    HW237290   4.141   2.903   6.240 -0.1726 -1.1360 -0.6256
 8552SOL     OW37291   1.701   0.408   6.642  0.2956  0.2260  0.0015
 8552SOL    HW137292   1.649   0.370   6.713  1.2046  2.5318  1.9290
 8552SOL    HW237293   1.687   0.500   6.664 -1.1103 -0.2270  0.9787
 8553SOL     OW37294   1.542   0.011   0.794  0.1031  0.2109 -0.1664
 8553SOL    HW137295   1.555   0.095   0.837  1.8202 -0.5922  0.8967
 8553SOL    HW237296   1.523   4.690   0.867 -0.0340  1.5425  0.8582
 8554SOL     OW37297   0.047   2.257   4.048 -0.0462  0.2526  0.2199
 8554SOL    HW137298   0.030   2.258   4.143  1.4809  1.6184  0.4820
 8554SOL    HW237299   0.007   2.171   4.038 -0.0707  0.4480 -1.2310
 8555SOL     OW37300   2.155   2.718   6.023  0.2349 -0.1250 -0.6365
 8555SOL    HW137301   2.203   2.636   6.010  0.3396 -0.1969  0.2206
 8555SOL    HW237302   2.211   2.778   5.975 -0.4659  1.3286  0.3808
 8556SOL     OW37303   0.551   2.803  16.141 -0.3628  0.2049 -0.0588
 8556SOL    HW137304   0.521   2.721  16.179 -0.5547  0.7374  0.9315
 8556SOL    HW237305   0.560   2.781  16.048  0.8195 -1.3357  0.4276
 8557SOL     OW37306   1.347   1.401  12.922 -0.2179 -0.5602 -0.3220
 8557SOL    HW137307   1.339   1.428  12.830 -1.8213  0.1042  0.0244
 8557SOL    HW237308   1.442   1.403  12.929 -0.3564 -0.0187  1.3253
 8558SOL     OW37309   1.830   3.296   8.759  0.1514  0.5384  0.5769
 8558SOL    HW137310   1.777   3.375   8.756 -0.4583  0.0191 -2.4083
 8558SOL    HW237311   1.791   3.241   8.691  1.1112  1.7578 -0.9441
 8559SOL     OW37312   0.302   3.118   6.804 -0.3963 -0.5017  0.6347
 8559SOL    HW137313   0.357   3.077   6.738 -0.6526  0.3195 -0.0975
 8559SOL    HW237314   0.221   3.071   6.784  0.3735 -1.5249 -0.0532
 8560SOL     OW37315   1.941   3.983   3.153 -0.2295 -0.7162 -0.4815
 8560SOL    HW137316   1.987   3.901   3.135 -1.2187 -1.3154 -0.2824
 8560SOL    HW237317   1.978   4.035   3.082 -0.4453  0.8812  0.5981
 8561SOL     OW37318   3.739   2.573  17.013 -0.3992  0.1567  0.2390
 8561SOL    HW137319   3.654   2.543  16.981 -1.3887  2.2197  0.9510
 8561SOL    HW237320   3.719   2.666  17.003 -2.0208 -0.2602 -0.3346
 8562SOL     OW37321   3.472   0.153  13.060  0.1472 -0.3048  0.3138
 8562SOL    HW137322   3.451   0.198  12.978  1.0724  1.3615  0.9867
 8562SOL    HW237323   3.418   0.075  13.047  0.2426 -0.3307  0.0734
 8563SOL     OW37324   1.951   2.468  15.487  0.8826  0.3951  0.0109
 8563SOL    HW137325   1.967   2.507  15.401  0.4617 -0.7273 -0.5705
 8563SOL    HW237326   1.905   2.390  15.457  0.8296  0.4120  0.0496
 8564SOL     OW37327   1.013   0.196   6.204  0.2019 -0.3658 -0.1077
 8564SOL    HW137328   1.046   0.181   6.115  1.4693 -0.4060  0.3598
 8564SOL    HW237329   1.026   0.290   6.213 -1.2990 -0.4767  3.0167
 8565SOL     OW37330   0.618   2.317  13.731  0.8525  0.1944  0.7014
 8565SOL    HW137331   0.605   2.403  13.691 -0.1753 -0.3304 -0.0940
 8565SOL    HW237332   0.615   2.346  13.822 -1.2799  1.5648  0.2116
 8566SOL     OW37333   2.104   1.216   0.885  0.1540  0.4988 -0.3842
 8566SOL    HW137334   2.025   1.269   0.894  0.1190  0.6094 -1.3184
 8566SOL    HW237335   2.136   1.255   0.803  0.6830 -1.7719 -1.2643
 8567SOL     OW37336   2.734   3.401   7.827  0.2393  0.1673  0.0285
 8567SOL    HW137337   2.699   3.375   7.912  1.2683 -0.3557  0.2894
 8567SOL    HW237338   2.790   3.328   7.799  1.4380  0.8945  0.5357
 8568SOL     OW37339   4.449   4.618  13.214  0.4314 -0.2380  0.2984
 8568SOL    HW137340   4.497   4.685  13.164 -0.7030 -1.2722 -2.1933
 8568SOL    HW237341   4.488   4.548  13.162 -0.6079 -1.8457  1.6824
 8569SOL     OW37342   0.650   3.929  14.778 -0.1221  0.0030  1.2839
 8569SOL    HW137343   0.610   3.876  14.709 -0.7245  2.3010 -0.1071
 8569SOL    HW237344   0.722   3.869  14.800 -0.4720 -0.7329  0.4218
 8570SOL     OW37345   1.637   1.674  15.641 -0.6425 -0.4192  1.0659
 8570SOL    HW137346   1.610   1.653  15.551  1.6480  1.5723 -0.0730
 8570SOL    HW237347   1.654   1.768  15.643 -3.0349  0.0390  0.5971
 8571SOL     OW37348   1.324   0.265   7.234 -0.2557  0.0787  0.2674
 8571SOL    HW137349   1.409   0.302   7.209 -0.6120  0.7434  0.0278
 8571SOL    HW237350   1.349   0.252   7.326  1.1993 -2.2413 -0.4679
 8572SOL     OW37351   3.859   1.419   9.602 -0.0661 -0.9684 -0.5879
 8572SOL    HW137352   3.857   1.328   9.574  1.5580 -0.7763 -1.3981
 8572SOL    HW237353   3.932   1.413   9.663  0.2273 -1.1120 -0.9497
 8573SOL     OW37354   2.385   3.978   1.554  0.2148 -0.1558 -0.1476
 8573SOL    HW137355   2.331   3.981   1.633 -1.3072  0.0554 -1.1857
 8573SOL    HW237356   2.455   4.043   1.562  0.0046  0.0794 -0.2299
 8574SOL     OW37357   2.388   1.059   3.633  0.6314  0.3010  0.3057
 8574SOL    HW137358   2.336   1.109   3.570 -2.3385  1.2747  3.5429
 8574SOL    HW237359   2.343   0.976   3.644  0.9841  0.0261 -0.3407
 8575SOL     OW37360   4.365   1.213  10.432 -0.2020 -0.0603  0.0593
 8575SOL    HW137361   4.376   1.302  10.465 -1.8685  0.4070 -0.6669
 8575SOL    HW237362   4.293   1.174  10.481  0.7463 -0.6664  0.9705
 8576SOL     OW37363   4.379   3.329   4.951  0.2587 -0.3075  0.2943
 8576SOL    HW137364   4.390   3.252   5.007 -0.8135 -0.2196  0.6177
 8576SOL    HW237365   4.413   3.394   5.013  1.9785  0.7855 -1.8008
 8577SOL     OW37366   1.502   2.582   2.159  0.1808 -0.3256  0.0433
 8577SOL    HW137367   1.587   2.561   2.196  0.4652 -0.7974 -0.8658
 8577SOL    HW237368   1.514   2.673   2.132  0.9656  0.3172  2.6114
 8578SOL     OW37369   4.123   4.098   2.754  0.1065 -0.0701  0.2488
 8578SOL    HW137370   4.213   4.102   2.786  0.0709 -0.7072  0.4359
 8578SOL    HW237371   4.099   4.190   2.766  2.4561  0.7780 -1.4473
 8579SOL     OW37372   2.467   2.248   9.237 -0.0093 -0.0140 -0.2021
 8579SOL    HW137373   2.430   2.164   9.265 -1.9923  0.8841 -0.1532
 8579SOL    HW237374   2.515   2.220   9.159  4.1445  4.2749  0.8191
 8580SOL     OW37375   4.275   4.265   9.266  0.0367 -0.6399 -0.6385
 8580SOL    HW137376   4.285   4.344   9.212  1.9354 -0.4200  0.0664
 8580SOL    HW237377   4.266   4.312   9.349 -0.3494 -0.8887 -0.5391
 8581SOL     OW37378   0.060   1.912  16.724  0.0026 -0.0549 -0.3613
 8581SOL    HW137379   0.014   1.835  16.758  0.5600 -0.2801 -0.1163
 8581SOL    HW237380   0.006   1.984  16.757  0.3577  0.1927 -0.3180
 8582SOL     OW37381   1.094   3.187   8.086 -0.3057  0.7163  0.4678
 8582SOL    HW137382   1.009   3.202   8.128 -0.0552  1.2306  0.7784
 8582SOL    HW237383   1.116   3.266   8.039  2.5091 -0.0593  0.4940
 8583SOL     OW37384   2.472   2.658   6.308 -0.4945  0.0114  0.1119
 8583SOL    HW137385   2.409   2.602   6.262  0.2851  1.0899 -2.2819
 8583SOL    HW237386   2.406   2.692   6.369  1.4992  1.1212  1.6227
 8584SOL     OW37387   4.416   1.350   3.762  0.4216 -0.2070  1.0913
 8584SOL    HW137388   4.507   1.373   3.743  0.8587 -2.6860  0.2863
 8584SOL    HW237389   4.413   1.257   3.742 -1.9620  0.1799 -0.3031
 8585SOL     OW37390   2.406   4.672  14.881  0.4624  0.7851 -0.2001
 8585SOL    HW137391   2.340   4.670  14.811  0.7573  0.8349 -0.4767
 8585SOL    HW237392   2.421   4.577  14.878 -0.1620  0.8248 -4.1383
 8586SOL     OW37393   3.969   3.250   0.132  0.6083  0.2757  0.1554
 8586SOL    HW137394   3.973   3.232   0.038  0.2860 -1.4913  0.4780
 8586SOL    HW237395   4.018   3.331   0.142  0.9781 -0.0588  1.0253
 8587SOL     OW37396   3.083   4.591   7.626 -0.2889  0.2628 -0.0402
 8587SOL    HW137397   3.045   4.504   7.613  1.7950 -0.6956  0.3256
 8587SOL    HW237398   3.174   4.563   7.637 -0.1144  0.6157 -0.5629
 8588SOL     OW37399   2.540   2.742   4.022  0.4224  0.4237  0.2539
 8588SOL    HW137400   2.630   2.761   3.995  0.3398 -0.7229 -0.8186
 8588SOL    HW237401   2.539   2.802   4.097 -0.0421 -2.0647  2.2323
 8589SOL     OW37402   1.949   4.199   3.490  0.1392  0.5592 -0.3353
 8589SOL    HW137403   1.973   4.288   3.519  0.3744  0.9584 -1.7626
 8589SOL    HW237404   2.029   4.178   3.441 -0.2224 -1.7717  0.0841
 8590SOL     OW37405   0.527   1.461   3.554 -0.5813  0.1886  0.1324
 8590SOL    HW137406   0.513   1.393   3.620  2.9756  0.0769  0.7315
 8590SOL    HW237407   0.485   1.535   3.598  1.3048  0.7594  0.9656
 8591SOL     OW37408   1.502   4.049   5.431 -0.0825 -0.0186 -0.2624
 8591SOL    HW137409   1.425   4.073   5.378  0.4246  1.5303 -0.3015
 8591SOL    HW237410   1.477   3.960   5.454  2.8003 -0.2852  1.8395
 8592SOL     OW37411   1.049   0.631   9.517 -0.5490 -0.4073 -0.5312
 8592SOL    HW137412   0.978   0.639   9.452 -0.6083  0.2319 -0.3900
 8592SOL    HW237413   0.991   0.622   9.593 -0.5119  2.9664 -0.0955
 8593SOL     OW37414   4.070   2.657   6.479 -0.2208 -0.6016 -0.7051
 8593SOL    HW137415   4.157   2.620   6.465  0.7475  1.6364 -0.5392
 8593SOL    HW237416   4.086   2.742   6.438  0.1080  0.4332  1.5853
 8594SOL     OW37417   4.436   0.449   2.974  0.3893  0.1895 -0.1950
 8594SOL    HW137418   4.501   0.393   2.932 -1.0032 -1.2441 -0.4331
 8594SOL    HW237419   4.437   0.431   3.067 -0.0794 -1.1646 -0.4556
 8595SOL     OW37420   1.030   3.207   7.715 -0.5117 -0.2196 -0.6622
 8595SOL    HW137421   1.027   3.130   7.772  0.0291 -0.4403 -0.9402
 8595SOL    HW237422   0.938   3.232   7.703 -0.1404  1.0213 -0.9045
 8596SOL     OW37423   0.411   4.313   5.555 -0.3240  0.2311  0.2646
 8596SOL    HW137424   0.439   4.226   5.529 -3.0955 -0.3262 -0.8713
 8596SOL    HW237425   0.332   4.292   5.604 -0.6339  1.7431  0.4331
 8597SOL     OW37426   3.115   3.110   1.866  0.4751 -0.0116 -0.8297
 8597SOL    HW137427   3.042   3.167   1.841 -1.1689 -0.7307  2.2233
 8597SOL    HW237428   3.079   3.029   1.830 -1.1674  0.7944 -1.0308
 8598SOL     OW37429   0.793   2.841   3.312  0.0185  0.3689 -0.3624
 8598SOL    HW137430   0.853   2.769   3.292  0.0356  0.0763  0.7377
 8598SOL    HW237431   0.795   2.842   3.408  0.6551  0.8787 -0.3803
 8599SOL     OW37432   3.464   2.307  16.612 -0.0306  0.3254  0.1040
 8599SOL    HW137433   3.436   2.373  16.548 -0.2352 -2.1178 -2.3025
 8599SOL    HW237434   3.492   2.236  16.555 -1.0560 -0.3751  0.4753
 8600SOL     OW37435   2.558   1.836  13.938 -0.3983 -0.0062  0.5158
 8600SOL    HW137436   2.520   1.752  13.911 -0.3413 -0.5307  2.0973
 8600SOL    HW237437   2.611   1.854  13.860 -0.5059 -1.2567  0.1507
 8601SOL     OW37438   4.233   2.021  11.043  0.6190 -0.4791 -0.0625
 8601SOL    HW137439   4.251   1.968  11.121  0.6948  1.8208  1.4908
 8601SOL    HW237440   4.152   1.981  11.010  0.0186  2.8893 -2.5820
 8602SOL     OW37441   0.577   0.329   3.002  0.2883 -0.0911  0.8332
 8602SOL    HW137442   0.511   0.392   3.033  0.0345 -0.4031  0.9277
 8602SOL    HW237443   0.587   0.265   3.073 -0.7753  0.3330  1.3671
 8603SOL     OW37444   0.074   1.578   4.923  0.1476  0.3486  0.0015
 8603SOL    HW137445   0.002   1.637   4.946 -1.3109 -2.6188  2.9921
 8603SOL    HW237446   0.033   1.522   4.857  2.6857  0.0086 -1.3103
 8604SOL     OW37447   3.647   1.935  10.117  0.6821 -0.2960 -0.0185
 8604SOL    HW137448   3.674   1.925  10.026 -1.1952  2.1951 -0.8558
 8604SOL    HW237449   3.609   2.023  10.112  0.6110 -0.3714 -0.8060
 8605SOL     OW37450   2.407   3.341  12.351 -0.3818  0.5019 -0.1088
 8605SOL    HW137451   2.404   3.254  12.390 -1.5931  0.7344  0.3051
 8605SOL    HW237452   2.497   3.342  12.317 -0.3328 -1.1558 -0.0175
 8606SOL     OW37453   1.621   3.856   3.366 -0.2360 -0.2362 -0.1020
 8606SOL    HW137454   1.533   3.863   3.402 -0.3863  0.2632 -0.5754
 8606SOL    HW237455   1.642   3.947   3.346 -1.5138 -0.0085 -0.4015
 8607SOL     OW37456   4.629   1.272   9.722 -0.1797 -0.3863 -0.0183
 8607SOL    HW137457   4.611   1.222   9.802 -0.0344  0.2795  0.4279
 8607SOL    HW237458   4.634   1.361   9.756  0.4934 -1.2408  2.1502
 8608SOL     OW37459   1.791   1.301   4.087  0.4575 -0.4839 -0.6471
 8608SOL    HW137460   1.727   1.261   4.028  0.7793 -0.4037 -1.0433
 8608SOL    HW237461   1.853   1.339   4.025  1.2812 -0.1277  0.4048
 8609SOL     OW37462   2.890   2.165  16.902 -0.2949  0.4221 -0.2146
 8609SOL    HW137463   2.907   2.248  16.946  2.6435  1.1173 -2.6598
 8609SOL    HW237464   2.870   2.094  16.963 -2.4898  1.6929  0.5464
 8610SOL     OW37465   4.403   4.489   5.769 -0.3351  0.0074  0.1010
 8610SOL    HW137466   4.372   4.461   5.684  2.3444  0.4490 -1.0366
 8610SOL    HW237467   4.407   4.584   5.756 -0.9043  0.1791  1.1640
 8611SOL     OW37468   4.362   3.035   2.655  0.1101  0.0425  0.0993
 8611SOL    HW137469   4.353   2.966   2.721 -0.0987 -0.0758 -0.0559
 8611SOL    HW237470   4.415   2.999   2.583 -0.5615 -0.3869 -0.1756
 8612SOL     OW37471   3.579   3.293  15.592 -0.0873  0.4138 -0.2022
 8612SOL    HW137472   3.592   3.347  15.670  0.8949 -0.4624  0.2367
 8612SOL    HW237473   3.598   3.205  15.624  2.0707  1.0096  0.1806
 8613SOL     OW37474   1.156   2.946  16.921 -0.6457 -0.0948 -0.1220
 8613SOL    HW137475   1.100   2.946  16.998  1.4336 -0.8168  1.3790
 8613SOL    HW237476   1.108   2.993  16.853  2.1146  1.7338 -0.8551
 8614SOL     OW37477   3.096   4.731   7.396  0.0777  0.2440  0.3527
 8614SOL    HW137478   3.184   4.698   7.412 -0.2491 -0.5412  0.5507
 8614SOL    HW237479   3.045   4.692   7.467 -0.6992  0.5634 -0.0309
 8615SOL     OW37480   3.232   0.563  17.466  0.4687 -0.6881  0.1963
 8615SOL    HW137481   3.241   0.525  17.553 -0.3573 -3.1440 -0.7833
 8615SOL    HW237482   3.279   0.645  17.478  1.2106 -1.0782 -0.0671
 8616SOL     OW37483   0.902   2.326   7.923 -0.0969 -0.0407 -0.4927
 8616SOL    HW137484   0.884   2.381   8.000  1.0518 -1.1739  0.5849
 8616SOL    HW237485   0.824   2.271   7.926 -1.2221  1.4490 -3.1781
 8617SOL     OW37486   1.344   1.691  13.708  0.2871  0.0734 -0.1898
 8617SOL    HW137487   1.283   1.711  13.637  1.3018 -1.1890 -1.4310
 8617SOL    HW237488   1.427   1.676  13.663 -0.7098 -0.5513 -1.8185
 8618SOL     OW37489   0.959   1.983   4.772  0.1464  0.0752  0.4272
 8618SOL    HW137490   1.025   1.929   4.729 -1.0720 -1.1510  0.0922
 8618SOL    HW237491   0.900   1.912   4.798  0.8421 -1.4781 -2.2776
 8619SOL     OW37492   4.524   1.003   3.150 -0.1001 -0.0424 -1.1744
 8619SOL    HW137493   4.472   0.994   3.070 -2.0174 -1.4831  0.2244
 8619SOL    HW237494   4.484   1.086   3.176  2.9173  1.4477 -1.3523
 8620SOL     OW37495   2.754   2.871   1.009 -0.0780  0.1147  0.3677
 8620SOL    HW137496   2.712   2.956   1.021  1.1662  0.7648  0.0653
 8620SOL    HW237497   2.842   2.890   1.041 -0.5703  4.1768 -0.8142
 8621SOL     OW37498   3.664   3.969   8.385  0.2786  0.3687 -0.5334
 8621SOL    HW137499   3.670   4.064   8.387 -0.2995  0.4130 -0.7153
 8621SOL    HW237500   3.749   3.955   8.425 -1.2329 -2.5808  1.7085
 8622SOL     OW37501   2.245   4.216  12.033 -0.2920 -0.0375  0.4416
 8622SOL    HW137502   2.327   4.181  11.999 -0.2551  1.5051 -1.0847
 8622SOL    HW237503   2.186   4.141  12.043 -0.8093  0.1046 -1.4801
 8623SOL     OW37504   4.614   2.845  11.919 -0.0583  0.0374 -0.7626
 8623SOL    HW137505   4.686   2.823  11.860  0.2336  0.2061 -0.4648
 8623SOL    HW237506   4.561   2.766  11.912 -1.4443  0.7208  2.3086
 8624SOL     OW37507   0.235   1.411   7.195 -0.4255  0.3626  0.1052
 8624SOL    HW137508   0.201   1.342   7.137  0.9189 -0.7494  0.6316
 8624SOL    HW237509   0.308   1.366   7.239 -0.1252  0.0387 -0.7390
 8625SOL     OW37510   2.530   4.403   0.889  0.7391  0.4223  0.2221
 8625SOL    HW137511   2.548   4.495   0.907  0.0039  0.1463  2.2708
 8625SOL    HW237512   2.451   4.394   0.942  1.7408 -0.6634  1.5434
 8626SOL     OW37513   4.663   4.541   3.109 -0.4488 -0.6216  0.0859
 8626SOL    HW137514   0.014   4.510   3.089  0.1120  1.5402 -0.8379
 8626SOL    HW237515   4.651   4.556   3.015  0.7540 -0.7745 -0.1046
 8627SOL     OW37516   2.106   2.053   3.556  0.0499  0.4202 -0.5168
 8627SOL    HW137517   2.183   2.016   3.600  0.9027  2.8141  0.0027
 8627SOL    HW237518   2.051   1.975   3.562  0.5313  0.2806  2.3241
 8628SOL     OW37519   3.851   3.745  16.556  0.5626 -0.4166 -0.2271
 8628SOL    HW137520   3.758   3.721  16.552  0.1457  1.4829 -2.2382
 8628SOL    HW237521   3.849   3.838  16.578 -3.2215 -0.5039 -0.2011
 8629SOL     OW37522   2.141   3.765   8.840 -0.0936 -0.3356  0.8403
 8629SOL    HW137523   2.065   3.753   8.898 -0.6042  0.0480  0.2478
 8629SOL    HW237524   2.158   3.671   8.828  0.3665 -0.3369  1.5185
 8630SOL     OW37525   2.428   0.612   2.916  0.3111  0.0949  0.2008
 8630SOL    HW137526   2.522   0.615   2.896  0.2904 -0.6954 -0.0139
 8630SOL    HW237527   2.389   0.653   2.839 -0.7322  0.4780  0.9356
 8631SOL     OW37528   3.976   2.348  13.183 -0.0378 -0.2099 -0.3216
 8631SOL    HW137529   3.972   2.277  13.247 -2.8166  0.8188  0.6559
 8631SOL    HW237530   3.916   2.307  13.121  1.5955 -1.1426 -1.2818
 8632SOL     OW37531   2.626   0.783  14.629 -0.2486  0.1157  0.0770
 8632SOL    HW137532   2.721   0.785  14.639 -0.0878  3.1247 -2.1959
 8632SOL    HW237533   2.623   0.771  14.534  3.0306 -0.8653  0.1239
 8633SOL     OW37534   2.940   3.427  10.190 -0.0911  0.1744  0.0177
 8633SOL    HW137535   2.888   3.507  10.201  0.1893  0.4879 -0.9274
 8633SOL    HW237536   2.875   3.365  10.157 -0.5067  0.0483  1.0789
 8634SOL     OW37537   3.375   4.360   8.580  0.0832 -0.3226 -0.0182
 8634SOL    HW137538   3.434   4.390   8.511 -0.0448 -2.4426 -1.0507
 8634SOL    HW237539   3.308   4.318   8.527 -0.9508  1.3733 -0.0329
 8635SOL     OW37540   4.125   3.079   9.769 -0.3891 -0.0999  0.2846
 8635SOL    HW137541   4.204   3.122   9.738  0.8911 -1.5329  1.5408
 8635SOL    HW237542   4.148   2.994   9.807  0.7673 -1.1329 -2.7331
 8636SOL     OW37543   3.388   3.748   3.296  0.4407 -0.0367  0.7512
 8636SOL    HW137544   3.445   3.804   3.348 -1.4371  0.2609  2.4879
 8636SOL    HW237545   3.445   3.678   3.264  0.5842  0.2337  0.4134
 8637SOL     OW37546   3.519   3.651  14.615 -0.4538 -0.2903 -0.2061
 8637SOL    HW137547   3.452   3.712  14.648  1.4829  1.6903  0.0268
 8637SOL    HW237548   3.501   3.586  14.682  1.6806 -0.8905 -0.2168
 8638SOL     OW37549   4.151   3.648   7.881  0.3007  0.0828 -0.0878
 8638SOL    HW137550   4.194   3.732   7.868 -0.2075 -0.0153 -2.3731
 8638SOL    HW237551   4.167   3.612   7.793  1.3916  0.9376 -0.2428
 8639SOL     OW37552   1.306   0.481  11.663  0.9441  0.6664 -0.3403
 8639SOL    HW137553   1.402   0.490  11.661  1.3207 -3.9208 -1.7629
 8639SOL    HW237554   1.282   0.570  11.635 -2.7247  0.2515  1.5165
 8640SOL     OW37555   1.593   1.101   2.774  0.0992 -0.2457  0.1461
 8640SOL    HW137556   1.574   1.042   2.701 -0.3494  0.0830 -0.0033
 8640SOL    HW237557   1.543   1.066   2.848 -2.3728  1.4291 -0.7296
 8641SOL     OW37558   2.686   0.893   2.826  0.1389 -0.5659 -0.1695
 8641SOL    HW137559   2.777   0.919   2.841 -0.8352  2.2320  0.8738
 8641SOL    HW237560   2.693   0.797   2.828 -1.1210 -0.6306  1.0954
 8642SOL     OW37561   2.475   3.339  13.753 -0.3930  0.8142  0.3214
 8642SOL    HW137562   2.486   3.428  13.720  1.8269  0.2538 -0.4580
 8642SOL    HW237563   2.380   3.326  13.750 -0.2526  0.1743 -1.1936
 8643SOL     OW37564   0.262   3.252   8.289  0.7531  0.1829  0.1705
 8643SOL    HW137565   0.327   3.254   8.359  0.4909 -0.7335  0.4368
 8643SOL    HW237566   0.184   3.219   8.332  0.7215  1.3072  0.9901
 8644SOL     OW37567   4.731   1.114   6.774 -0.3459 -0.2284 -0.1670
 8644SOL    HW137568   4.679   1.139   6.850 -0.4663  0.7709 -0.5774
 8644SOL    HW237569   4.690   1.036   6.737 -1.6962  0.4014  0.0315
 8645SOL     OW37570   0.553   1.824   6.597  0.6122 -0.6930 -0.4079
 8645SOL    HW137571   0.550   1.751   6.534 -1.4929  0.3015 -1.4492
 8645SOL    HW237572   0.460   1.826   6.622  0.2817 -0.4741 -1.6430
 8646SOL     OW37573   2.285   3.351   3.049  0.6763  0.3864  0.1835
 8646SOL    HW137574   2.199   3.378   3.016  0.9396 -0.4142 -1.1518
 8646SOL    HW237575   2.339   3.410   2.997 -1.1263 -0.0773 -2.2217
 8647SOL     OW37576   4.053   1.929  14.588 -0.2419  0.3641 -0.1698
 8647SOL    HW137577   3.988   1.897  14.651 -0.6221 -0.7066 -1.1244
 8647SOL    HW237578   4.006   1.939  14.506  0.5240 -0.3087 -0.6927
 8648SOL     OW37579   4.510   2.775   4.902 -0.2309 -0.1996 -0.3188
 8648SOL    HW137580   4.478   2.826   4.827  1.6536  1.3203 -0.0887
 8648SOL    HW237581   4.478   2.832   4.972 -1.0993 -1.3708  0.2324
 8649SOL     OW37582   0.332   0.340   3.625 -0.2467 -0.4971  0.4859
 8649SOL    HW137583   0.408   0.289   3.598 -0.3928 -1.4287  1.8287
 8649SOL    HW237584   0.361   0.370   3.711 -0.3568 -0.3901  0.4861
 8650SOL     OW37585   3.783   0.558   2.880 -0.1589  0.0905  0.0014
 8650SOL    HW137586   3.810   0.549   2.971  0.2008 -0.6823 -0.1813
 8650SOL    HW237587   3.862   0.599   2.846 -0.4002 -0.0130 -0.6757
 8651SOL     OW37588   0.206   0.356   8.718  0.6553 -0.0605  0.2724
 8651SOL    HW137589   0.293   0.331   8.689  0.0903  0.8687 -2.2982
 8651SOL    HW237590   0.153   0.359   8.638  0.0821 -1.6393  0.5931
 8652SOL     OW37591   3.591   3.792   1.812  0.2543 -0.1153 -0.2062
 8652SOL    HW137592   3.680   3.782   1.778  0.2185  0.5639 -0.4889
 8652SOL    HW237593   3.607   3.820   1.903 -0.9795 -0.1653  0.0268
 8653SOL     OW37594   3.536   3.876   6.644 -0.0115  0.1628  0.1074
 8653SOL    HW137595   3.454   3.926   6.653 -1.2906 -1.2469 -3.4860
 8653SOL    HW237596   3.592   3.929   6.700  0.1892  0.2520 -0.1804
 8654SOL     OW37597   2.239   0.546  16.030 -0.3701 -0.6144  0.9022
 8654SOL    HW137598   2.257   0.572  16.120  2.3612  1.3742 -0.1953
 8654SOL    HW237599   2.168   0.605  16.007 -0.9573 -1.6869 -0.0608
 8655SOL     OW37600   1.463   3.969   2.343 -0.6124 -0.1777  0.7019
 8655SOL    HW137601   1.411   4.002   2.416  1.3199  2.8406  0.7133
 8655SOL    HW237602   1.547   3.987   2.385  0.2208 -0.5620 -0.7701
 8656SOL     OW37603   4.246   3.405   2.459  0.0629  0.5157 -0.2246
 8656SOL    HW137604   4.221   3.496   2.442  0.0421  0.2215 -1.7638
 8656SOL    HW237605   4.163   3.363   2.479  0.0866  0.3715 -0.4258
 8657SOL     OW37606   0.114   2.774   6.987  0.4585 -0.3736 -0.5937
 8657SOL    HW137607   0.095   2.680   6.994 -0.0016 -0.2355  0.0418
 8657SOL    HW237608   0.096   2.808   7.074 -1.1405  0.8576 -1.3899
 8658SOL     OW37609   4.687   0.957  11.604  0.2179  0.4021 -0.1819
 8658SOL    HW137610   0.018   0.895  11.581  0.3265 -0.3049  2.0796
 8658SOL    HW237611   4.722   0.979  11.690 -0.4409 -0.1352  0.2223
 8659SOL     OW37612   2.174   0.849   8.595  0.4883  0.1872  0.0636
 8659SOL    HW137613   2.235   0.921   8.611 -1.1179  1.6561 -0.4433
 8659SOL    HW237614   2.098   0.864   8.652  0.7349  0.6361  0.2672
 8660SOL     OW37615   1.104   0.526   4.137 -0.5768 -0.0865  0.0245
 8660SOL    HW137616   1.094   0.549   4.045 -0.0168  0.8554  0.1954
 8660SOL    HW237617   1.018   0.556   4.167 -0.1203 -0.0292  1.3032
 8661SOL     OW37618   3.750   2.680   6.005  0.0699 -0.3554  0.0426
 8661SOL    HW137619   3.790   2.672   6.092  2.3000 -1.8710 -1.1672
 8661SOL    HW237620   3.786   2.759   5.965  0.3969 -1.7817 -2.4211
 8662SOL     OW37621   1.920   0.969  14.492 -0.0759 -0.3679 -0.0544
 8662SOL    HW137622   2.002   1.019  14.488  0.7792 -1.7092  0.7667
 8662SOL    HW237623   1.879   1.039  14.542  1.5322 -0.2036  1.0192
 8663SOL     OW37624   0.870   0.654  11.241  0.4290 -0.1708  0.1760
 8663SOL    HW137625   0.788   0.632  11.197 -0.5521  0.4212  1.6794
 8663SOL    HW237626   0.856   0.742  11.276 -1.7168 -0.3906 -0.1312
 8664SOL     OW37627   3.952   0.835   3.270 -0.1155  0.4094 -0.0453
 8664SOL    HW137628   3.939   0.906   3.334  1.7670  1.3973 -0.7651
 8664SOL    HW237629   4.017   0.775   3.306 -0.9869  0.5539  1.7722
 8665SOL     OW37630   3.122   2.452   7.285  0.4463  0.2892 -0.1966
 8665SOL    HW137631   3.171   2.512   7.341 -1.3237  0.3978  1.2295
 8665SOL    HW237632   3.034   2.484   7.302  0.7321  0.4735  0.9207
 8666SOL     OW37633   4.387   4.263  14.321 -0.5810 -0.3472 -0.0638
 8666SOL    HW137634   4.294   4.259  14.344 -1.1783  2.6815 -1.8953
 8666SOL    HW237635   4.379   4.245  14.227  0.7898 -2.0718  0.1511
 8667SOL     OW37636   4.487   3.249   3.892  0.0915 -0.2775 -0.9500
 8667SOL    HW137637   4.531   3.263   3.976  0.4555 -2.0652 -0.8527
 8667SOL    HW237638   4.564   3.217   3.845  0.7737 -1.9765  1.3500
 8668SOL     OW37639   2.252   3.482   5.517 -0.5534 -0.4587 -0.2357
 8668SOL    HW137640   2.247   3.471   5.612  1.7907 -1.1274 -0.1674
 8668SOL    HW237641   2.205   3.561   5.490 -2.0580 -0.7337  1.6222
 8669SOL     OW37642   3.295   2.066  16.096 -0.3717 -0.0294  0.2679
 8669SOL    HW137643   3.332   2.108  16.018  2.4678 -0.3888  1.4033
 8669SOL    HW237644   3.203   2.072  16.074 -0.4444  2.2738  1.1587
 8670SOL     OW37645   0.223   1.853   8.785  0.3997  0.1324  0.1490
 8670SOL    HW137646   0.156   1.833   8.719 -1.1938  0.4745  1.6790
 8670SOL    HW237647   0.295   1.797   8.759 -1.3877 -1.5852 -1.1292
 8671SOL     OW37648   0.874   0.781   7.206  0.1643  0.4540  0.2923
 8671SOL    HW137649   0.945   0.719   7.186  1.8764  2.4956  0.1067
 8671SOL    HW237650   0.858   0.761   7.298 -1.2225  0.5807  0.0813
 8672SOL     OW37651   0.833   3.684   3.131 -0.0310 -0.3170  0.5449
 8672SOL    HW137652   0.913   3.733   3.147 -0.8270  0.8543  0.9438
 8672SOL    HW237653   0.803   3.740   3.059  2.4612 -0.0236 -0.2665
 8673SOL     OW37654   3.609   3.408   9.098 -0.3466  0.2215  0.0428
 8673SOL    HW137655   3.574   3.454   9.175  0.4549  2.8320 -1.1573
 8673SOL    HW237656   3.594   3.319   9.128 -0.4184  1.3549  3.3901
 8674SOL     OW37657   0.088   2.630  10.605 -0.4492 -0.4628 -0.6939
 8674SOL    HW137658   4.737   2.593  10.596 -1.2894  0.5792  3.1143
 8674SOL    HW237659   0.083   2.622  10.700  3.1411  0.2225 -0.4863
 8675SOL     OW37660   1.310   4.260   1.812 -0.1822 -0.0028  0.3475
 8675SOL    HW137661   1.395   4.298   1.790  0.5414 -1.3591  0.7609
 8675SOL    HW237662   1.332   4.170   1.837 -1.0001 -0.6019 -1.1262
 8676SOL     OW37663   2.555   0.871   4.277 -0.0043  0.1876 -0.3894
 8676SOL    HW137664   2.534   0.788   4.319 -0.2790  0.2480 -0.4091
 8676SOL    HW237665   2.636   0.895   4.322  0.3235 -0.3285 -0.7200
 8677SOL     OW37666   1.878   0.299   3.096 -0.5086  0.4473 -0.0537
 8677SOL    HW137667   1.865   0.214   3.137 -2.2192  0.7272 -0.0143
 8677SOL    HW237668   1.812   0.304   3.026 -1.4692 -2.3638  0.6344
 8678SOL     OW37669   2.564   2.908   6.246 -0.0102 -0.3118  0.2514
 8678SOL    HW137670   2.486   2.936   6.199  0.9686  0.7815 -0.7171
 8678SOL    HW237671   2.544   2.815   6.257 -2.4893 -0.2246 -3.8786
 8679SOL     OW37672   2.941   2.650   0.180 -0.0658  0.0782 -0.1772
 8679SOL    HW137673   3.022   2.682   0.140 -0.8505  1.0745 -0.9947
 8679SOL    HW237674   2.921   2.728   0.231 -1.1665 -0.3897  0.0979
 8680SOL     OW37675   4.352   4.029   8.583  0.1224  0.2480  0.0531
 8680SOL    HW137676   4.357   4.034   8.678 -0.2012 -1.4955  0.1536
 8680SOL    HW237677   4.379   3.939   8.567 -0.0911  0.0916  0.5803
 8681SOL     OW37678   4.015   4.467   5.753  0.0672 -0.2174 -0.0875
 8681SOL    HW137679   4.012   4.375   5.725  1.3766 -0.5288  0.7917
 8681SOL    HW237680   4.023   4.464   5.848  0.2366 -2.0630 -0.1467
 8682SOL     OW37681   0.707   3.243   5.242 -0.4739 -0.0846 -0.1719
 8682SOL    HW137682   0.663   3.187   5.306 -1.1240  0.8627  0.2101
 8682SOL    HW237683   0.777   3.182   5.221 -1.7084 -1.4270 -0.3841
 8683SOL     OW37684   2.244   2.411   5.993  0.0096 -0.0936 -0.0517
 8683SOL    HW137685   2.325   2.448   5.957  2.3622 -1.8407  3.4815
 8683SOL    HW237686   2.256   2.316   5.989  1.9610  0.0830  1.3761
 8684SOL     OW37687   4.384   0.306   5.754 -0.3522  0.0405 -0.5096
 8684SOL    HW137688   4.417   0.384   5.797  1.1350  0.4875 -2.4494
 8684SOL    HW237689   4.381   0.345   5.667  4.5253  0.1545 -0.6049
 8685SOL     OW37690   0.898   3.888   3.874 -0.5155  0.4707  0.3361
 8685SOL    HW137691   0.917   3.812   3.819 -1.5265 -0.8011  1.7648
 8685SOL    HW237692   0.971   3.884   3.936  0.6068  1.2545 -0.9225
 8686SOL     OW37693   3.534   2.075  15.602  0.5215 -0.4536  0.7113
 8686SOL    HW137694   3.452   2.117  15.578  1.7327  1.5766  0.1326
 8686SOL    HW237695   3.543   2.076  15.697 -2.2959  2.2318  0.9467
 8687SOL     OW37696   2.291   0.293  17.749  0.0356 -0.2400 -0.1889
 8687SOL    HW137697   2.311   0.201  17.731  0.4822 -0.2223  0.2119
 8687SOL    HW237698   2.287   0.327  17.660 -0.5810 -1.5741 -0.6762
 8688SOL     OW37699   2.867   1.640  12.865  0.3456 -0.3611 -0.5142
 8688SOL    HW137700   2.819   1.563  12.893 -0.8608 -0.0510 -1.7051
 8688SOL    HW237701   2.797   1.704  12.848 -0.7493 -1.5021 -0.2503
 8689SOL     OW37702   2.496   3.859   8.286 -0.1067 -0.6011 -0.0744
 8689SOL    HW137703   2.568   3.822   8.336 -0.1399  0.5948  0.8609
 8689SOL    HW237704   2.549   3.906   8.222  0.6764 -2.7835 -1.0163
 8690SOL     OW37705   0.542   4.160   7.360 -0.1009 -0.5935 -0.3039
 8690SOL    HW137706   0.536   4.201   7.274  0.3857  1.7332  0.7617
 8690SOL    HW237707   0.631   4.125   7.354 -0.3104 -1.1208 -0.3503
 8691SOL     OW37708   4.593   0.963  12.069 -0.5860 -0.1694  0.2581
 8691SOL    HW137709   4.637   0.921  11.995 -1.1343 -0.6502  0.2034
 8691SOL    HW237710   4.638   0.925  12.144  1.0268  2.1048  0.4188
 8692SOL     OW37711   0.963   1.952   2.978 -0.1070  0.0591 -0.3114
 8692SOL    HW137712   0.955   2.023   2.915 -0.6073 -1.3834 -1.8823
 8692SOL    HW237713   1.031   1.899   2.937 -1.2690 -2.5547  1.1340
 8693SOL     OW37714   2.943   3.488  13.378  0.2717  0.7059  0.1867
 8693SOL    HW137715   3.030   3.504  13.415  0.8526 -1.0912 -0.3808
 8693SOL    HW237716   2.949   3.403  13.333 -0.3797  0.1697  1.1119
 8694SOL     OW37717   3.825   0.403  16.434  0.0352 -0.1209  0.2500
 8694SOL    HW137718   3.892   0.342  16.404 -0.2463 -1.6449  2.7153
 8694SOL    HW237719   3.798   0.375  16.521 -0.7112 -3.1113 -0.9392
 8695SOL     OW37720   0.567   0.284   1.361 -0.0761  0.3813  0.0261
 8695SOL    HW137721   0.622   0.324   1.294 -0.0749 -0.5712 -0.5396
 8695SOL    HW237722   0.570   0.196   1.324 -3.5442  0.7258 -1.0750
 8696SOL     OW37723   1.295   2.348   2.469 -0.0853  0.7620 -0.1342
 8696SOL    HW137724   1.208   2.310   2.453  0.8205 -1.3783 -0.0294
 8696SOL    HW237725   1.292   2.435   2.430 -0.7017  0.3552 -1.0002
 8697SOL     OW37726   0.471   3.363   9.923  0.0078 -0.4657  0.4455
 8697SOL    HW137727   0.527   3.286   9.933 -2.1324 -2.1354 -0.3172
 8697SOL    HW237728   0.388   3.314   9.923  0.7626 -1.7605 -1.0693
 8698SOL     OW37729   1.000   2.415   5.566 -0.2854  0.1289  0.1213
 8698SOL    HW137730   0.965   2.326   5.575 -0.1319  0.1624  0.9896
 8698SOL    HW237731   1.089   2.413   5.600  0.3254 -1.6031 -1.5916
 8699SOL     OW37732   3.261   0.139   8.592 -0.5307  0.0642 -0.4874
 8699SOL    HW137733   3.218   0.135   8.677  0.4046 -0.8237 -0.0589
 8699SOL    HW237734   3.200   0.194   8.543 -0.2246  1.8477  1.1011
 8700SOL     OW37735   1.227   2.137   4.775 -0.1328  0.2834 -0.0528
 8700SOL    HW137736   1.294   2.204   4.762 -0.6562  1.0106  1.0330
 8700SOL    HW237737   1.178   2.146   4.693  0.3002 -0.5483 -0.4079
 8701SOL     OW37738   0.129   2.646  14.983 -0.2433  0.1817  0.1955
 8701SOL    HW137739   0.195   2.703  15.021 -0.5536  0.3958  0.4111
 8701SOL    HW237740   0.167   2.559  14.996  1.4020  0.8707  0.0216
 8702SOL     OW37741   4.159   0.240   8.804  0.0077  0.4611  0.1544
 8702SOL    HW137742   4.185   0.258   8.713  1.6036 -0.2902  0.4608
 8702SOL    HW237743   4.186   0.313   8.859 -0.2807  0.8014 -0.1551
 8703SOL     OW37744   3.778   2.235   6.002  0.6623  0.0491 -0.1002
 8703SOL    HW137745   3.847   2.298   5.980  0.8281  0.4523  1.6104
 8703SOL    HW237746   3.780   2.180   5.923  2.2536  1.6382 -1.1750
 8704SOL     OW37747   4.194   2.184   6.591  0.1031 -0.1359  0.1455
 8704SOL    HW137748   4.168   2.094   6.610 -1.9634  0.4028 -0.1605
 8704SOL    HW237749   4.134   2.200   6.518 -0.5737 -1.3652  0.4328
 8705SOL     OW37750   2.901   2.816   9.810 -0.0929  0.3495  0.0595
 8705SOL    HW137751   2.926   2.909   9.801  2.3461 -0.3797 -0.7740
 8705SOL    HW237752   2.886   2.818   9.904 -0.3977  0.7073  0.0042
 8706SOL     OW37753   3.306   3.301   3.373 -0.8420 -0.3494  0.0571
 8706SOL    HW137754   3.238   3.258   3.424 -1.2663 -2.2746 -2.1432
 8706SOL    HW237755   3.291   3.253   3.292  1.6350 -0.3389 -0.4256
 8707SOL     OW37756   2.380   0.592   6.902  0.3208  0.4773 -0.2004
 8707SOL    HW137757   2.465   0.635   6.888  0.1448  0.9703  0.2736
 8707SOL    HW237758   2.351   0.573   6.813  3.1508  0.1462 -1.0661
 8708SOL     OW37759   2.703   3.664   4.053  1.1019 -0.0340  0.6265
 8708SOL    HW137760   2.748   3.747   4.069 -0.3086  1.0148 -0.9405
 8708SOL    HW237761   2.609   3.683   4.055  1.3485  1.6246 -3.9727
 8709SOL     OW37762   3.321   4.704  11.420 -0.1378  0.4253  0.3526
 8709SOL    HW137763   3.416   4.714  11.410 -0.6677  3.3447 -1.4735
 8709SOL    HW237764   3.292   0.002  11.336  1.5112  0.0465 -0.3837
 8710SOL     OW37765   4.630   1.620   6.723 -0.0860 -0.7884 -0.3967
 8710SOL    HW137766   4.550   1.652   6.766  0.3980  1.4193 -1.1032
 8710SOL    HW237767   4.600   1.538   6.686  0.0335 -2.1222  2.4307
 8711SOL     OW37768   3.217   2.718   7.386  0.1916 -0.6886  0.0098
 8711SOL    HW137769   3.152   2.771   7.339  0.3470  0.2758  0.8766
 8711SOL    HW237770   3.185   2.701   7.475  1.7853  0.8705  0.8841
 8712SOL     OW37771   3.915   1.260  11.571 -0.6006  1.0421 -0.3112
 8712SOL    HW137772   3.875   1.264  11.658 -0.0201  2.0766 -0.0875
 8712SOL    HW237773   3.857   1.211  11.512  0.4325  0.0985 -0.5317
 8713SOL     OW37774   4.513   1.636  11.493 -0.5160  0.2831  0.3687
 8713SOL    HW137775   4.600   1.611  11.524 -0.5389 -0.8971 -0.4940
 8713SOL    HW237776   4.468   1.552  11.503 -0.3775 -0.0434 -1.5779
 8714SOL     OW37777   2.905   1.737   3.776 -0.0699 -0.2763  0.0074
 8714SOL    HW137778   2.835   1.707   3.719  0.8816 -1.0281 -0.7812
 8714SOL    HW237779   2.947   1.651   3.785 -2.9434 -1.7218 -0.6242
 8715SOL     OW37780   1.802   0.269  13.044 -0.0744 -0.7407 -0.0836
 8715SOL    HW137781   1.759   0.222  12.973  0.1823 -0.9873 -0.0744
 8715SOL    HW237782   1.875   0.314  13.002 -1.1117  0.2811 -0.8006
 8716SOL     OW37783   1.182   1.384   5.505  0.6026 -0.0706 -0.2759
 8716SOL    HW137784   1.107   1.368   5.563 -0.5087 -0.9939 -1.9710
 8716SOL    HW237785   1.245   1.319   5.534  0.4259 -0.3404 -0.4992
 8717SOL     OW37786   1.010   2.474  13.611  0.5359 -0.0282  0.3782
 8717SOL    HW137787   0.953   2.486  13.687  0.6712  0.7876  0.3523
 8717SOL    HW237788   1.066   2.551  13.627  1.1810 -0.9575  2.5604
 8718SOL     OW37789   1.842   2.332   2.672  0.3716 -0.1883 -0.1312
 8718SOL    HW137790   1.864   2.368   2.586 -1.6816 -0.5252 -0.7892
 8718SOL    HW237791   1.921   2.351   2.723 -0.3601 -0.4413  1.0838
 8719SOL     OW37792   0.566   3.272  15.067 -0.5599 -0.4269 -0.2809
 8719SOL    HW137793   0.619   3.234  14.997 -0.6298  0.7253 -0.9506
 8719SOL    HW237794   0.625   3.275  15.142  1.1702  0.2187 -1.6786
 8720SOL     OW37795   4.657   0.279   2.894  0.6351  0.3782  0.6456
 8720SOL    HW137796   4.736   0.273   2.841 -0.4284 -1.6120 -0.6868
 8720SOL    HW237797   4.681   0.234   2.975  1.4093 -0.3591  0.0064
 8721SOL     OW37798   1.771   2.420   6.549  0.5739 -0.1693 -0.4157
 8721SOL    HW137799   1.750   2.335   6.510  1.0337  0.0162 -1.0793
 8721SOL    HW237800   1.842   2.384   6.602  0.5502 -0.6440 -0.7072
 8722SOL     OW37801   3.197   2.541   4.221 -0.1866 -0.0405  0.0791
 8722SOL    HW137802   3.125   2.563   4.280  1.1609  1.1316  1.2969
 8722SOL    HW237803   3.202   2.447   4.239 -0.9982 -0.0614  0.1991
 8723SOL     OW37804   4.528   4.727   5.892  0.9858  0.1883 -0.0076
 8723SOL    HW137805   4.505   4.664   5.960  2.1140  1.2283  1.3350
 8723SOL    HW237806   4.601   0.027   5.941  1.9968  1.4460 -2.4987
 8724SOL     OW37807   1.789   2.490   8.641 -0.2790  0.2029  0.1296
 8724SOL    HW137808   1.703   2.464   8.611  0.2990  1.8582 -2.9555
 8724SOL    HW237809   1.786   2.446   8.726 -2.3883  0.2046  0.0405
 8725SOL     OW37810   3.875   1.799   7.763  0.4832 -0.1512  0.1546
 8725SOL    HW137811   3.832   1.835   7.686  1.3484  0.2733 -0.1274
 8725SOL    HW237812   3.808   1.815   7.830  1.6702 -0.8882  1.5135
 8726SOL     OW37813   3.997   3.548   2.668 -0.2986 -0.2929 -0.1189
 8726SOL    HW137814   4.042   3.630   2.649  0.9302 -0.3251  2.6781
 8726SOL    HW237815   3.926   3.529   2.606  0.1789 -3.4232  0.2729
 8727SOL     OW37816   2.219   3.803   5.281  0.0845  0.2725 -0.4500
 8727SOL    HW137817   2.206   3.842   5.368  0.0735 -1.2728  0.2415
 8727SOL    HW237818   2.303   3.847   5.263  0.4106 -0.7948 -1.5084
 8728SOL     OW37819   4.556   2.696  16.041 -0.0171  0.1295 -0.2766
 8728SOL    HW137820   4.520   2.766  16.096  0.3419  0.0956  0.0064
 8728SOL    HW237821   4.474   2.652  16.021  0.6447 -0.1357 -2.3806
 8729SOL     OW37822   2.978   4.484   0.413  0.5941 -0.2768  0.1330
 8729SOL    HW137823   3.061   4.530   0.428 -0.2264  1.0205  0.7005
 8729SOL    HW237824   2.944   4.478   0.502  1.3617 -1.2006  0.3599
 8730SOL     OW37825   2.459   4.359   3.632  0.1257  0.2456  0.0867
 8730SOL    HW137826   2.456   4.454   3.616  1.2822 -0.1607 -2.6254
 8730SOL    HW237827   2.538   4.330   3.586  1.0263  0.9224  1.2222
 8731SOL     OW37828   3.525   4.327   3.319  0.1504  0.1986  0.2546
 8731SOL    HW137829   3.453   4.386   3.295  1.1189  1.0686 -0.5158
 8731SOL    HW237830   3.534   4.364   3.407 -0.9378  1.8583 -0.3104
 8732SOL     OW37831   1.822   0.544  13.630 -0.0922 -0.0254 -0.2313
 8732SOL    HW137832   1.784   0.459  13.652  0.4818  0.6803  3.4762
 8732SOL    HW237833   1.917   0.543  13.645 -0.3470  2.1560  1.5586
 8733SOL     OW37834   1.366   1.474   3.740 -0.6409 -0.5338  0.1379
 8733SOL    HW137835   1.377   1.417   3.816 -1.3521  1.3536  1.6814
 8733SOL    HW237836   1.271   1.476   3.737 -0.4950  2.1562 -3.4349
 8734SOL     OW37837   2.563   1.529  13.571 -0.2111  0.0064 -0.0015
 8734SOL    HW137838   2.564   1.509  13.477 -0.0135  1.2039 -0.2550
 8734SOL    HW237839   2.630   1.464  13.593  1.1880  0.4982 -2.7365
 8735SOL     OW37840   3.881   3.131  14.567 -0.3571  0.1616 -0.3911
 8735SOL    HW137841   3.893   3.216  14.523  1.8429  0.2172  0.3429
 8735SOL    HW237842   3.959   3.130  14.621 -0.5651 -0.8500 -0.1138
 8736SOL     OW37843   3.501   1.632   0.149 -0.5074 -0.1784  0.5398
 8736SOL    HW137844   3.486   1.674   0.064 -1.2366  2.4967  1.9756
 8736SOL    HW237845   3.578   1.576   0.138 -0.1908  0.1076  1.2719
 8737SOL     OW37846   4.405   1.711   5.004 -0.2933 -0.0565  0.2037
 8737SOL    HW137847   4.344   1.705   5.078 -1.5247 -0.9372 -0.8850
 8737SOL    HW237848   4.471   1.652   5.041  0.4117  0.6421  0.0611
 8738SOL     OW37849   0.208   3.540   8.385 -0.1332  0.7175 -0.2891
 8738SOL    HW137850   0.168   3.540   8.298 -1.1819  2.7303  0.1929
 8738SOL    HW237851   0.220   3.446   8.396  3.2062  1.0906 -0.8422
 8739SOL     OW37852   0.279   3.465   6.538  0.5503  0.0410 -0.4744
 8739SOL    HW137853   0.225   3.409   6.593  1.0984  0.1180  0.1415
 8739SOL    HW237854   0.367   3.431   6.552 -0.0037 -1.0167  0.3640
 8740SOL     OW37855   0.835   4.428   0.724  0.2040  0.0624  0.0630
 8740SOL    HW137856   0.754   4.410   0.772 -2.1116  0.8433 -3.6457
 8740SOL    HW237857   0.896   4.382   0.781 -0.7181 -2.4844 -1.0043
 8741SOL     OW37858   4.677   0.104   1.132 -0.0703  0.1224 -0.2906
 8741SOL    HW137859   4.693   0.184   1.082 -0.2798  1.9230  2.5395
 8741SOL    HW237860   4.696   0.038   1.065 -1.2133 -0.2375 -0.2623
 8742SOL     OW37861   0.222   1.430   0.344 -0.5356 -0.1050  0.5492
 8742SOL    HW137862   0.132   1.404   0.328 -0.0646 -0.5950 -1.2089
 8742SOL    HW237863   0.220   1.434   0.440  0.6340  0.5901  0.5519
 8743SOL     OW37864   4.276   2.523   5.171  0.4101  0.6378 -0.0920
 8743SOL    HW137865   4.339   2.499   5.102  2.6876  0.4880  2.0430
 8743SOL    HW237866   4.191   2.544   5.132 -0.1134 -0.7891  0.2843
 8744SOL     OW37867   2.996   1.127   6.789 -0.5905  0.1283 -0.0766
 8744SOL    HW137868   2.984   1.063   6.860  2.1202 -0.8363 -0.4810
 8744SOL    HW237869   2.979   1.208   6.836 -1.0925  0.9268 -1.6719
 8745SOL     OW37870   1.869   2.600  17.302  0.5276  0.0437  0.4802
 8745SOL    HW137871   1.906   2.540  17.238  0.2503  0.2250  0.1481
 8745SOL    HW237872   1.796   2.642  17.255 -1.9807 -1.8102  2.7062
 8746SOL     OW37873   3.353   4.285   7.728  0.4373 -0.8759 -0.8698
 8746SOL    HW137874   3.349   4.247   7.641  0.6439  3.4328 -2.7520
 8746SOL    HW237875   3.332   4.213   7.788 -1.0414  1.1776  1.0812
 8747SOL     OW37876   3.146   1.223   4.780  0.1155  0.1384 -0.1875
 8747SOL    HW137877   3.096   1.256   4.856  1.1582  0.1007  0.5142
 8747SOL    HW237878   3.186   1.305   4.752  0.0467  0.2542  0.0454
 8748SOL     OW37879   4.394   3.125   8.606  0.0566  0.1779 -0.1868
 8748SOL    HW137880   4.363   3.129   8.516  3.4869  0.8085 -1.3395
 8748SOL    HW237881   4.408   3.216   8.630  2.3284  0.1118 -1.2919
 8749SOL     OW37882   3.640   0.040   6.777  0.6806 -0.3833  0.5352
 8749SOL    HW137883   3.642   4.720   6.853 -0.9761 -0.9928  0.1013
 8749SOL    HW237884   3.569   0.099   6.801 -0.3241 -0.7674 -1.5174
 8750SOL     OW37885   2.289   2.816  10.834 -0.9805  0.5021 -0.1660
 8750SOL    HW137886   2.316   2.880  10.900  3.2897 -2.3403  0.8896
 8750SOL    HW237887   2.371   2.766  10.832 -1.5630 -0.4373 -0.2383
 8751SOL     OW37888   0.826   3.515   4.008 -0.3157  0.5347  0.0867
 8751SOL    HW137889   0.769   3.507   4.085  0.6458 -0.1450  0.7361
 8751SOL    HW237890   0.812   3.427   3.974 -0.0669  1.4226 -2.2581
 8752SOL     OW37891   1.234   1.739   6.722  0.0516  0.0477 -0.1762
 8752SOL    HW137892   1.187   1.821   6.706  0.8824  0.3832 -0.8733
 8752SOL    HW237893   1.208   1.722   6.813  2.2340 -1.4826  0.1642
 8753SOL     OW37894   3.759   2.767  12.691  0.5176 -0.5998 -0.5594
 8753SOL    HW137895   3.836   2.738  12.642  1.1670 -2.0873  1.3326
 8753SOL    HW237896   3.704   2.691  12.669  0.4885 -0.7383  0.0014
 8754SOL     OW37897   1.789   2.512   2.212  0.6263  0.5042  0.1763
 8754SOL    HW137898   1.819   2.479   2.127 -0.0841 -0.7214  0.4205
 8754SOL    HW237899   1.790   2.438   2.273 -1.7990 -0.4118 -0.9209
 8755SOL     OW37900   1.778   1.066   8.052 -0.5510  0.1535  0.2838
 8755SOL    HW137901   1.805   1.155   8.031 -0.3306  0.3424  1.3338
 8755SOL    HW237902   1.801   1.067   8.145 -0.1611  0.9058  0.1751
 8756SOL     OW37903   1.975   0.221  17.331 -0.1011 -0.2593  0.4013
 8756SOL    HW137904   1.960   0.270  17.412  0.5392  0.2703  0.2047
 8756SOL    HW237905   1.916   0.147  17.345 -0.6311 -0.4161 -2.8091
 8757SOL     OW37906   0.576   3.438   4.555  0.4506 -0.4331 -0.5181
 8757SOL    HW137907   0.560   3.380   4.630  1.1217 -0.3397 -0.2949
 8757SOL    HW237908   0.493   3.427   4.510  0.6898 -0.8202 -0.8736
 8758SOL     OW37909   1.204   4.365   6.616 -0.3418  0.2991  0.0837
 8758SOL    HW137910   1.149   4.309   6.671  2.6796 -1.5502  1.1835
 8758SOL    HW237911   1.291   4.340   6.646 -0.1010  1.5662  0.4372
 8759SOL     OW37912   2.319   0.722   1.547  0.2041 -0.0940 -0.6932
 8759SOL    HW137913   2.264   0.794   1.579  0.1514 -1.3658  2.0949
 8759SOL    HW237914   2.290   0.643   1.593  0.2657  0.2612 -0.0449
 8760SOL     OW37915   0.642   1.716   5.060  0.8860  0.0839  0.7250
 8760SOL    HW137916   0.710   1.727   5.126  0.4285 -1.9471  1.5528
 8760SOL    HW237917   0.606   1.628   5.073  0.4743  0.2121  0.4830
 8761SOL     OW37918   4.333   4.720   4.195 -0.1730 -0.2292  0.0844
 8761SOL    HW137919   4.380   4.637   4.204  0.7384  0.2412 -0.3430
 8761SOL    HW237920   4.298   4.692   4.111  0.7014  0.6918 -0.5913
 8762SOL     OW37921   0.231   0.946   9.388  0.5297  0.0175  0.4299
 8762SOL    HW137922   0.263   0.914   9.472 -2.5475 -3.2950  0.3648
 8762SOL    HW237923   0.143   0.981   9.403  0.4966  0.2793 -0.3780
 8763SOL     OW37924   3.724   3.084   5.473  0.1544 -0.1119  0.2085
 8763SOL    HW137925   3.636   3.107   5.503 -0.3809  1.3617 -2.5352
 8763SOL    HW237926   3.726   2.988   5.474 -0.9481 -0.1357  0.2606
 8764SOL     OW37927   0.096   2.320  16.981 -0.4831  0.3375  0.5293
 8764SOL    HW137928   0.177   2.355  16.944  0.6880 -2.7176  0.2137
 8764SOL    HW237929   0.056   2.393  17.029 -3.4162 -0.5618 -0.5711
 8765SOL     OW37930   1.727   0.130   0.080  0.5908 -0.1036 -0.2109
 8765SOL    HW137931   1.788   0.093   0.016  1.2003  1.1409 -0.3501
 8765SOL    HW237932   1.715   0.054   0.137  0.3243 -0.9451 -1.4058
 8766SOL     OW37933   0.499   2.966   7.258  0.2237  0.6653 -0.2064
 8766SOL    HW137934   0.421   2.935   7.303  0.1519 -0.9578 -1.4815
 8766SOL    HW237935   0.554   3.000   7.329 -1.1199 -2.9086  2.5245
 8767SOL     OW37936   0.114   2.038  11.389  0.0813  0.1799  0.0904
 8767SOL    HW137937   0.090   1.986  11.467 -0.0934 -2.2352 -1.5565
 8767SOL    HW237938   0.184   1.978  11.365  1.4806  1.5413  0.8055
 8768SOL     OW37939   4.562   1.963  10.037  0.4255  0.9636  0.1240
 8768SOL    HW137940   4.566   1.978   9.943  0.0827 -1.5890 -0.3014
 8768SOL    HW237941   4.622   2.027  10.076 -0.1358  1.1842  0.6304
 8769SOL     OW37942   1.110   0.164   8.902  0.1805  0.0630 -0.0072
 8769SOL    HW137943   1.132   0.255   8.882 -1.8406  0.3635 -0.8792
 8769SOL    HW237944   1.126   0.120   8.819  2.0489 -0.8933  0.8549
 8770SOL     OW37945   2.628   4.649   7.918 -1.0366 -0.0886  0.1388
 8770SOL    HW137946   2.660   4.560   7.932 -0.5123  0.3534  1.6992
 8770SOL    HW237947   2.543   4.630   7.877 -2.2202  3.4963  0.9667
 8771SOL     OW37948   2.061   3.108   5.518  0.1366  0.1654  0.0466
 8771SOL    HW137949   2.077   3.103   5.612  1.4307  3.8565  0.0257
 8771SOL    HW237950   1.974   3.146   5.515 -0.5943 -1.7132 -2.9680
 8772SOL     OW37951   2.174   4.405  11.830 -1.0416  0.5702  0.1249
 8772SOL    HW137952   2.203   4.344  11.898  0.6972  2.0408  0.7252
 8772SOL    HW237953   2.129   4.347  11.770  1.6461  0.0462 -1.3919
 8773SOL     OW37954   3.609   1.714   4.087 -0.5923  0.3738  0.1136
 8773SOL    HW137955   3.697   1.680   4.102 -0.3269  0.6937 -0.7583
 8773SOL    HW237956   3.594   1.767   4.165  1.9486  0.9280  0.2301
 8774SOL     OW37957   2.150   2.237   4.343 -0.0575 -0.2254  0.2083
 8774SOL    HW137958   2.203   2.174   4.392 -0.6308 -1.4394 -0.7379
 8774SOL    HW237959   2.062   2.230   4.380  0.8126  0.2156  2.3395
 8775SOL     OW37960   1.126   3.523   9.279 -1.0307 -0.1523 -0.0737
 8775SOL    HW137961   1.044   3.474   9.271 -0.7394 -0.5359 -0.6774
 8775SOL    HW237962   1.071   3.601   9.269 -0.0778  0.2434 -2.2071
 8776SOL     OW37963   1.223   1.250  12.380 -0.2671 -0.3504 -0.1620
 8776SOL    HW137964   1.182   1.198  12.449  1.0672 -0.6712  0.3903
 8776SOL    HW237965   1.148   1.239  12.321 -0.3069 -0.4681 -0.0894
 8777SOL     OW37966   2.346   2.001   4.079  0.0607  0.2462 -0.7348
 8777SOL    HW137967   2.270   1.961   4.120  0.4555 -0.3723 -0.6003
 8777SOL    HW237968   2.311   2.085   4.049 -2.1154 -0.1914  0.5816
 8778SOL     OW37969   3.018   1.703  12.148 -0.1481  0.6142 -0.2824
 8778SOL    HW137970   3.026   1.662  12.234 -1.9589 -0.9163 -0.8448
 8778SOL    HW237971   3.052   1.637  12.088 -0.4251  1.2956 -1.1839
 8779SOL     OW37972   3.970   2.833  13.933 -0.0990  0.7130 -0.0636
 8779SOL    HW137973   3.933   2.854  13.848  2.6276  1.3868 -1.1033
 8779SOL    HW237974   4.018   2.752  13.913  2.9603  1.9157  2.3522
 8780SOL     OW37975   2.704   2.023  11.435  0.2576 -0.6967  0.6767
 8780SOL    HW137976   2.653   1.943  11.444 -1.4893  0.1502 -1.7170
 8780SOL    HW237977   2.664   2.079  11.500  0.3443  0.1482 -0.0035
 8781SOL     OW37978   1.495   2.998   8.172  0.0178 -0.7740  0.1487
 8781SOL    HW137979   1.498   3.040   8.258 -2.0398 -0.9228  0.2950
 8781SOL    HW237980   1.516   2.909   8.202 -1.2700 -1.4226 -0.8674
 8782SOL     OW37981   0.159   1.058  12.123 -0.0496 -0.3001 -0.1929
 8782SOL    HW137982   0.095   0.995  12.155 -0.0100 -0.7813 -1.0448
 8782SOL    HW237983   0.157   1.122  12.194 -2.5972  0.8835 -1.3302
 8783SOL     OW37984   1.059   3.349   6.800 -0.1937  0.3812 -0.2302
 8783SOL    HW137985   1.041   3.314   6.713 -1.1621  1.6632 -0.5442
 8783SOL    HW237986   1.128   3.284   6.814  1.1198  1.9048  0.3288
 8784SOL     OW37987   0.358   2.843   3.968  0.3625 -0.1299  0.5089
 8784SOL    HW137988   0.401   2.923   3.939  0.4369 -1.3030 -2.6346
 8784SOL    HW237989   0.423   2.776   3.949  0.8239  0.4178  0.1693
 8785SOL     OW37990   1.139   1.256  16.905  0.1644 -0.5703  0.1816
 8785SOL    HW137991   1.151   1.298  16.820 -0.0827 -0.7828  0.0426
 8785SOL    HW237992   1.189   1.314  16.962  2.5969 -0.4230 -2.0728
 8786SOL     OW37993   1.738   3.653   4.626 -0.4661  0.0560 -0.0900
 8786SOL    HW137994   1.742   3.559   4.609  1.5403  0.6080 -2.6274
 8786SOL    HW237995   1.828   3.684   4.612 -0.9015 -0.2212 -3.5022
 8787SOL     OW37996   3.998   3.191   9.050 -0.0946  0.4480 -0.2486
 8787SOL    HW137997   3.951   3.207   9.131 -3.2263  0.6876 -2.1241
 8787SOL    HW237998   4.088   3.210   9.077  0.3799 -0.9485 -0.8766
 8788SOL     OW37999   3.814   0.070   5.688 -0.0074 -0.1842  0.0812
 8788SOL    HW138000   3.858   0.079   5.603 -0.1871  1.6224  0.1884
 8788SOL    HW238001   3.735   0.019   5.672  0.5407 -0.2233 -2.5398
 8789SOL     OW38002   3.496   2.952   3.118  0.4868  0.0071  0.3138
 8789SOL    HW138003   3.422   2.895   3.141  0.2887 -0.3324 -1.1814
 8789SOL    HW238004   3.491   2.942   3.023 -0.4039  0.4307  0.3151
 8790SOL     OW38005   0.151   4.077   8.538 -0.5467 -0.0009  0.1975
 8790SOL    HW138006   0.077   4.044   8.589  0.3080 -3.2057 -0.6136
 8790SOL    HW238007   0.178   4.142   8.602  1.2316  1.9460 -2.5304
 8791SOL     OW38008   2.906   4.098   3.003 -0.3498  0.1423  1.0241
 8791SOL    HW138009   2.931   4.186   3.031  1.8965  0.8763 -3.3499
 8791SOL    HW238010   2.968   4.040   3.046  0.2971  1.3180  1.6802
 8792SOL     OW38011   2.198   1.781   8.262  0.1174 -0.4854  0.1473
 8792SOL    HW138012   2.149   1.861   8.280  0.9039  0.0432 -0.0842
 8792SOL    HW238013   2.243   1.766   8.346  2.3807  0.0168 -0.9865
 8793SOL     OW38014   3.872   3.121  17.343 -0.2214 -0.4082  0.0796
 8793SOL    HW138015   3.928   3.085  17.274  0.9555  1.7513 -0.0708
 8793SOL    HW238016   3.819   3.188  17.300  1.0039 -0.4814 -1.5370
 8794SOL     OW38017   1.683   1.551  10.771 -0.4304  0.2697 -0.1969
 8794SOL    HW138018   1.637   1.513  10.846 -1.7065  2.5086  0.1545
 8794SOL    HW238019   1.614   1.562  10.705  0.4573  1.6947 -0.8672
 8795SOL     OW38020   2.812   4.294  17.412  0.1667 -0.4637  0.1394
 8795SOL    HW138021   2.854   4.380  17.414  0.8399 -0.7409 -3.0804
 8795SOL    HW238022   2.862   4.244  17.477  0.9945 -0.6875 -0.6666
 8796SOL     OW38023   0.916   0.049  12.557  0.2872 -0.2302  0.3733
 8796SOL    HW138024   0.888   0.071  12.468 -2.0974 -1.8150  0.7098
 8796SOL    HW238025   0.896   0.126  12.609 -0.6455 -1.5044  1.9007
 8797SOL     OW38026   3.490   1.666   5.523  0.9706 -0.3563  0.3450
 8797SOL    HW138027   3.416   1.607   5.507  0.5574  0.1898  0.2494
 8797SOL    HW238028   3.518   1.655   5.614  2.7651 -0.6368 -0.2324
 8798SOL     OW38029   4.730   3.544  15.588  0.3156 -0.2724 -0.0479
 8798SOL    HW138030   4.657   3.607  15.582  0.0032 -0.7994 -1.8084
 8798SOL    HW238031   0.044   3.559  15.509 -0.3380  1.0311 -0.2492
 8799SOL     OW38032   2.661   4.043   2.517  0.5170 -0.4120 -0.2710
 8799SOL    HW138033   2.748   4.044   2.477 -0.0468  0.1612 -1.4808
 8799SOL    HW238034   2.672   4.113   2.582  1.0361 -1.1431  0.4236
 8800SOL     OW38035   2.995   0.657   3.948  0.1237  0.3339 -0.1907
 8800SOL    HW138036   2.917   0.618   3.987 -0.1955 -0.7942 -1.9715
 8800SOL    HW238037   2.968   0.744   3.977  0.9484  0.6894 -0.4927
 8801SOL     OW38038   2.268   3.991   5.523 -0.1524  0.1254  0.6407
 8801SOL    HW138039   2.334   4.020   5.586  0.1783 -0.0729  0.3768
 8801SOL    HW238040   2.291   4.059   5.460 -1.8502 -0.5448 -0.7197
 8802SOL     OW38041   3.080   4.222  13.160  0.1277 -0.0513 -0.4061
 8802SOL    HW138042   3.051   4.244  13.248  1.7642  2.0108 -0.3752
 8802SOL    HW238043   3.174   4.209  13.151 -0.1081 -2.0594  0.1002
 8803SOL     OW38044   0.214   4.456   4.831  0.0576 -0.0746  0.4570
 8803SOL    HW138045   0.149   4.462   4.761  0.2455 -0.7456  0.2213
 8803SOL    HW238046   0.159   4.435   4.906  0.1632  0.7289  0.7599
 8804SOL     OW38047   1.897   3.865   5.938  0.0998  0.5334  0.2146
 8804SOL    HW138048   1.930   3.885   5.850  0.8764 -0.9818  0.1687
 8804SOL    HW238049   1.816   3.821   5.913  0.1627  0.2045  0.5905
 8805SOL     OW38050   0.687   0.894   7.489 -0.0898 -0.4817 -0.1906
 8805SOL    HW138051   0.681   0.952   7.413  1.2899 -1.8773 -1.3435
 8805SOL    HW238052   0.665   0.955   7.559  0.1072  0.5902 -1.0608
 8806SOL     OW38053   3.216   1.385   5.926 -0.2372 -0.5842  0.0006
 8806SOL    HW138054   3.181   1.437   5.999  1.2951 -1.7932  1.5920
 8806SOL    HW238055   3.176   1.302   5.952 -2.6774  0.9456  1.1170
 8807SOL     OW38056   2.027   2.715   5.683  0.6419 -1.0580  0.2462
 8807SOL    HW138057   2.033   2.747   5.593 -1.0387  1.2731  0.9660
 8807SOL    HW238058   2.045   2.798   5.726 -1.8900  0.4826 -1.7094
 8808SOL     OW38059   3.635   0.010   8.690 -0.6778  0.3632 -0.0524
 8808SOL    HW138060   3.684   0.088   8.713 -1.2784  0.2144  1.7829
 8808SOL    HW238061   3.587   0.039   8.613 -2.0969  1.3097  1.1816
 8809SOL     OW38062   0.014   1.697   6.484  0.7848  0.1629  0.0628
 8809SOL    HW138063   4.735   1.681   6.577 -3.0875 -0.4588 -0.7373
 8809SOL    HW238064   4.672   1.741   6.456  1.1859  0.4410 -0.6465
 8810SOL     OW38065   2.038   2.333  16.522  0.1039 -0.0748  0.0643
 8810SOL    HW138066   1.991   2.389  16.461  0.8731  0.3816 -0.1139
 8810SOL    HW238067   2.124   2.373  16.536  0.0007  1.4334 -3.4943
 8811SOL     OW38068   0.916   4.336   8.803  0.4386 -0.9918 -0.2839
 8811SOL    HW138069   0.899   4.292   8.886 -0.3069  1.4801  0.8834
 8811SOL    HW238070   0.951   4.263   8.751  0.4796 -0.9232 -0.3519
 8812SOL     OW38071   0.154   4.357   8.986 -0.0186  0.3501 -0.4464
 8812SOL    HW138072   0.109   4.441   8.978 -1.0777  0.0856  2.6900
 8812SOL    HW238073   0.081   4.307   9.023 -0.7028  0.1221 -2.1031
 8813SOL     OW38074   3.596   2.874   4.286  0.9410 -0.1235 -0.2968
 8813SOL    HW138075   3.589   2.937   4.214  1.0457 -1.0623 -1.1308
 8813SOL    HW238076   3.512   2.829   4.277 -0.2255  2.1161 -0.5715
 8814SOL     OW38077   3.899   2.656   3.252 -0.0438 -0.6905 -0.2261
 8814SOL    HW138078   3.848   2.724   3.208  0.2864 -0.6669 -0.5753
 8814SOL    HW238079   3.853   2.574   3.237 -2.2060  0.5449 -0.3052
 8815SOL     OW38080   4.719   1.140   0.978 -0.0022 -0.0327 -0.3821
 8815SOL    HW138081   4.625   1.141   0.996 -0.0461  1.9318 -0.7465
 8815SOL    HW238082   0.008   1.116   1.066 -1.3710  1.9089  0.5810
 8816SOL     OW38083   1.545   0.514  17.594  0.4737  0.3196 -0.3611
 8816SOL    HW138084   1.608   0.475  17.655 -0.9280  0.4436  1.1708
 8816SOL    HW238085   1.507   0.582  17.649  1.3066 -0.3055  0.9960
 8817SOL     OW38086   3.052   0.233  16.269  0.5030  0.7572  0.0829
 8817SOL    HW138087   3.144   0.209  16.282  0.3719 -0.1656 -0.7333
 8817SOL    HW238088   3.009   0.197  16.346  0.0084  0.2488 -0.4352
 8818SOL     OW38089   0.536   3.981   7.717 -0.0218  0.2329 -0.0360
 8818SOL    HW138090   0.487   3.932   7.651  0.1132  0.3818 -0.2440
 8818SOL    HW238091   0.623   3.981   7.677 -0.1026 -1.2467 -0.2337
 8819SOL     OW38092   1.323   1.398  16.096 -0.1395 -0.5936 -0.3335
 8819SOL    HW138093   1.261   1.463  16.064  0.0253 -0.7286 -0.9375
 8819SOL    HW238094   1.260   1.339  16.137 -0.5394  0.5818  0.7191
 8820SOL     OW38095   3.147   0.255   7.438  0.1835  0.4526  0.2113
 8820SOL    HW138096   3.135   0.161   7.426 -0.9825  0.2937  2.6893
 8820SOL    HW238097   3.108   0.284   7.355 -0.1590 -1.9443 -0.4694
 8821SOL     OW38098   2.226   0.074   7.522 -0.1023 -0.1906 -0.6830
 8821SOL    HW138099   2.215   0.164   7.552 -1.5168 -0.7046  0.3524
 8821SOL    HW238100   2.213   0.022   7.602  2.1756  0.6493  0.2308
 8822SOL     OW38101   1.101   0.612   7.235 -0.1622 -0.3883  0.2648
 8822SOL    HW138102   1.119   0.533   7.183  1.2711  1.1768 -1.6292
 8822SOL    HW238103   1.120   0.574   7.320  0.7756 -0.1467  0.1698
 8823SOL     OW38104   0.052   4.442   2.520 -0.1552  0.0555  0.0004
 8823SOL    HW138105   0.146   4.429   2.521 -0.5701 -2.8326 -0.0858
 8823SOL    HW238106   0.041   4.501   2.445 -1.3600 -0.5479 -0.3059
 8824SOL     OW38107   1.152   3.351   1.603  0.3453 -0.1507  0.4907
 8824SOL    HW138108   1.124   3.418   1.541  0.5982  0.7258  1.3169
 8824SOL    HW238109   1.126   3.377   1.692 -1.2252 -0.4939  0.1303
 8825SOL     OW38110   1.445   4.471   1.252 -0.4210  0.3975  0.2420
 8825SOL    HW138111   1.540   4.477   1.268 -0.4856  0.4288  0.6036
 8825SOL    HW238112   1.407   4.493   1.337  2.1198  0.8570  1.2744
 8826SOL     OW38113   2.192   3.792   4.361  0.2834  0.0063 -0.4499
 8826SOL    HW138114   2.277   3.836   4.371  0.3258 -0.1452 -0.1370
 8826SOL    HW238115   2.201   3.747   4.277  1.0507 -1.1753  0.2601
 8827SOL     OW38116   0.789   1.289  17.071 -0.1387 -0.0452  0.3665
 8827SOL    HW138117   0.806   1.219  17.008 -0.6039 -0.0540  0.2466
 8827SOL    HW238118   0.835   1.354  17.018  1.6977 -1.2570  0.5041
 8828SOL     OW38119   3.762   3.426  12.038  0.1909 -0.1851 -0.2731
 8828SOL    HW138120   3.793   3.423  12.128  3.6330 -1.3140 -1.4880
 8828SOL    HW238121   3.833   3.387  11.987  0.0284  0.6160 -1.1143
 8829SOL     OW38122   2.182   3.752   1.935 -0.1859 -0.2251 -0.1596
 8829SOL    HW138123   2.269   3.726   1.965  0.2643 -0.0781 -1.3379
 8829SOL    HW238124   2.191   3.728   1.843 -2.4174  0.2554 -0.4930
 8830SOL     OW38125   4.569   1.082   4.932  0.1544  0.1013 -0.1950
 8830SOL    HW138126   4.517   1.043   4.861  0.9710  0.0979 -0.7914
 8830SOL    HW238127   4.614   1.004   4.966  1.4907  2.1498  2.6581
 8831SOL     OW38128   3.247   3.361   2.712 -0.1119  0.1729 -0.0568
 8831SOL    HW138129   3.342   3.355   2.700 -0.0478  1.4454 -0.1410
 8831SOL    HW238130   3.224   3.278   2.671  0.2792 -0.3319  0.7501
 8832SOL     OW38131   0.500   0.824  13.088  0.1160 -0.1099  0.0199
 8832SOL    HW138132   0.452   0.742  13.077 -0.2565 -0.0535  1.1603
 8832SOL    HW238133   0.562   0.831  13.016  0.7846 -0.0990  0.5924
 8833SOL     OW38134   3.614   1.105  15.766  0.1950  0.5094 -0.0180
 8833SOL    HW138135   3.702   1.086  15.732  0.4139 -0.7469  1.2724
 8833SOL    HW238136   3.587   1.027  15.814 -0.0892  1.0536  0.7082
 8834SOL     OW38137   4.042   2.903   3.901 -0.3544  0.0462  0.5102
 8834SOL    HW138138   4.108   2.835   3.889  0.6672  1.4761 -2.0583
 8834SOL    HW238139   4.033   2.932   3.810 -2.7046 -2.7465 -0.1431
 8835SOL     OW38140   2.009   2.553  12.247 -0.1913  0.2683 -0.0193
 8835SOL    HW138141   2.090   2.512  12.276 -0.0279  1.8699  1.7808
 8835SOL    HW238142   1.943   2.505  12.296  1.8767 -1.4872  1.0477
 8836SOL     OW38143   0.347   0.558   4.796 -0.3163  0.3372  0.2029
 8836SOL    HW138144   0.432   0.551   4.754 -0.9172  2.3694 -1.3378
 8836SOL    HW238145   0.335   0.478   4.847  0.9809 -0.2955 -0.4953
 8837SOL     OW38146   4.038   4.201   6.142  0.0497 -0.0167 -0.3157
 8837SOL    HW138147   3.965   4.153   6.103  1.1730 -1.6452 -0.3990
 8837SOL    HW238148   4.069   4.133   6.202  0.1033  0.5037  0.2440
 8838SOL     OW38149   2.161   1.306  12.341 -0.7617 -0.6582  0.3566
 8838SOL    HW138150   2.143   1.372  12.407  0.1983 -0.7343  0.6975
 8838SOL    HW238151   2.198   1.349  12.264  1.8127  1.9933  3.0920
 8839SOL     OW38152   0.126   4.507   4.179  0.6195 -0.4082 -0.4801
 8839SOL    HW138153   0.138   4.439   4.114 -0.1987 -0.6908 -0.3367
 8839SOL    HW238154   0.159   4.459   4.255 -0.3633  2.7235  1.9324
 8840SOL     OW38155   2.760   1.776   4.340 -0.0645 -0.0439  0.8554
 8840SOL    HW138156   2.818   1.702   4.322  0.6429  0.7155  0.0322
 8840SOL    HW238157   2.706   1.748   4.414 -2.5514  2.1641 -0.1189
 8841SOL     OW38158   3.101   0.114   5.727  0.5669 -0.9384  0.3933
 8841SOL    HW138159   3.161   0.141   5.657  0.2850  1.0402  0.9287
 8841SOL    HW238160   3.016   0.131   5.687  0.1524  1.2202  2.2042
 8842SOL     OW38161   0.291   1.295   4.469  0.2194 -0.2455  0.1356
 8842SOL    HW138162   0.282   1.241   4.548  2.5275 -1.5769 -0.5139
 8842SOL    HW238163   0.352   1.238   4.421  0.4868  0.2681 -0.1393
 8843SOL     OW38164   3.968   1.007   8.156  0.2274  0.3301 -0.8945
 8843SOL    HW138165   4.001   1.024   8.244  0.6574 -1.5936 -0.6876
 8843SOL    HW238166   4.042   0.957   8.123  0.8922 -0.5560  1.9800
 8844SOL     OW38167   0.067   3.637  15.332  0.1790  0.1777 -0.4099
 8844SOL    HW138168   0.012   3.707  15.299  2.4926  1.5697 -1.2896
 8844SOL    HW238169   0.057   3.571  15.264 -1.9488  1.3629 -1.2327
 8845SOL     OW38170   1.816   2.220  16.260  0.1740 -0.2896  0.1717
 8845SOL    HW138171   1.813   2.204  16.355  2.3868 -1.2038  0.0726
 8845SOL    HW238172   1.757   2.153  16.224  0.0894  0.6097 -1.3470
 8846SOL     OW38173   3.655   1.366   6.076  0.4790 -0.6027  0.2905
 8846SOL    HW138174   3.704   1.354   6.157  0.1067 -1.0873  0.4492
 8846SOL    HW238175   3.583   1.424   6.098  0.5276 -1.2608  2.1836
 8847SOL     OW38176   2.732   1.557   9.562  0.5429 -0.2871 -0.2508
 8847SOL    HW138177   2.740   1.539   9.655  1.2237  3.0985  0.3197
 8847SOL    HW238178   2.656   1.503   9.536  0.4405  0.0169 -0.5930
 8848SOL     OW38179   3.295   1.419   4.588 -0.0910 -0.2458  0.1759
 8848SOL    HW138180   3.331   1.506   4.571  1.3055 -1.3156 -2.4341
 8848SOL    HW238181   3.364   1.366   4.549  1.2598  0.4030  1.6907
 8849SOL     OW38182   0.208   4.037  16.996 -0.1456  0.6663  0.4260
 8849SOL    HW138183   0.166   4.034  17.082 -1.6170 -3.1162 -0.4278
 8849SOL    HW238184   0.271   3.966  17.008 -1.3801 -0.2918  1.1504
 8850SOL     OW38185   4.047   1.644   3.794  0.8066 -0.2161  0.4950
 8850SOL    HW138186   4.088   1.563   3.823 -0.1715 -0.5164  1.0293
 8850SOL    HW238187   3.957   1.626   3.767  0.0665  1.8894  1.5426
 8851SOL     OW38188   4.302   1.765   4.302  0.2297 -0.1113 -0.1214
 8851SOL    HW138189   4.230   1.826   4.285  1.1028  1.1786  0.8214
 8851SOL    HW238190   4.346   1.812   4.372 -0.2710 -1.3920  1.0600
 8852SOL     OW38191   0.995   1.516  11.106 -0.0259 -0.2065 -0.1732
 8852SOL    HW138192   0.949   1.586  11.152  0.3738 -0.8416  1.2079
 8852SOL    HW238193   0.968   1.448  11.167  1.8868 -2.1325 -1.4392
 8853SOL     OW38194   1.778   1.015  15.211 -0.3746 -0.3142 -0.3476
 8853SOL    HW138195   1.713   1.036  15.278  0.5924 -0.5064  0.6426
 8853SOL    HW238196   1.789   1.099  15.167  3.4165 -1.2481 -1.1748
 8854SOL     OW38197   0.379   4.704   0.392 -0.1296 -0.4056 -0.0062
 8854SOL    HW138198   0.285   4.696   0.374  0.3517 -2.0908 -1.6707
 8854SOL    HW238199   0.405   0.028   0.324 -1.5486 -1.3413 -1.4017
 8855SOL     OW38200   0.536   2.853   7.893 -0.4072  0.3857 -1.0170
 8855SOL    HW138201   0.552   2.832   7.801  1.0459 -2.9025  0.0098
 8855SOL    HW238202   0.619   2.883   7.932  0.1703 -2.3762 -0.1171
 8856SOL     OW38203   1.619   4.209  11.995  0.0022  0.4246  0.3332
 8856SOL    HW138204   1.618   4.116  12.019  2.3643  0.2890 -0.0383
 8856SOL    HW238205   1.713   4.231  11.997  0.2030 -0.4024 -0.0179
 8857SOL     OW38206   2.893   2.233   1.971  0.0964 -0.1876 -0.3644
 8857SOL    HW138207   2.880   2.289   1.894 -0.6025 -2.8487 -2.1897
 8857SOL    HW238208   2.925   2.299   2.033 -1.4021  0.0325  0.1731
 8858SOL     OW38209   1.448   2.517   4.303 -0.0676  0.1573  0.0614
 8858SOL    HW138210   1.379   2.535   4.239 -1.3969  1.6174  1.9271
 8858SOL    HW238211   1.510   2.580   4.267  0.3990 -1.0683 -1.2779
 8859SOL     OW38212   1.962   4.361  10.071 -0.1957 -0.5982  0.0093
 8859SOL    HW138213   2.014   4.282  10.086  1.9850  1.0162  0.9177
 8859SOL    HW238214   1.986   4.374   9.979 -0.5446  0.8405  0.1294
 8860SOL     OW38215   2.770   3.826   2.774 -0.4922 -0.1302 -0.3141
 8860SOL    HW138216   2.780   3.814   2.679 -0.9982 -4.0070  0.1291
 8860SOL    HW238217   2.857   3.800   2.804  0.1085  1.2236 -0.8570
 8861SOL     OW38218   0.459   2.072   4.405  0.6418  0.4700  0.4934
 8861SOL    HW138219   0.434   1.981   4.392  2.0225  0.0047  1.1532
 8861SOL    HW238220   0.407   2.100   4.480 -1.0865 -1.0963 -0.1376
 8862SOL     OW38221   3.836   1.868   3.535  0.7774  0.3423 -0.3358
 8862SOL    HW138222   3.773   1.924   3.490  0.4412  1.1172  1.0770
 8862SOL    HW238223   3.831   1.907   3.622 -0.1803  0.3926 -0.4115
 8863SOL     OW38224   2.453   3.783  12.527  0.1368 -0.1273  0.3766
 8863SOL    HW138225   2.530   3.737  12.493 -0.6477 -0.6444 -0.6914
 8863SOL    HW238226   2.464   3.874  12.497  0.0931 -0.4845 -0.7104
 8864SOL     OW38227   1.342   0.107   1.618 -0.3642  0.4758  0.4015
 8864SOL    HW138228   1.310   0.106   1.528 -1.7978  0.4535  0.9146
 8864SOL    HW238229   1.264   0.139   1.663  0.8582  1.7820  1.6019
 8865SOL     OW38230   0.289   3.457  11.377  0.2290 -0.8273  0.2780
 8865SOL    HW138231   0.244   3.431  11.296 -3.3410  0.5213  1.8365
 8865SOL    HW238232   0.378   3.446  11.342  0.3823  0.4713  0.2633
 8866SOL     OW38233   2.138   3.698   7.446 -0.4493  0.2811  0.1046
 8866SOL    HW138234   2.214   3.746   7.414 -2.5583  2.1417 -2.0744
 8866SOL    HW238235   2.116   3.743   7.527 -0.9283  0.1020  0.0734
 8867SOL     OW38236   4.407   0.098   4.933 -0.2978  0.7558  0.4602
 8867SOL    HW138237   4.465   0.169   4.960  0.4919  1.2663 -2.5653
 8867SOL    HW238238   4.394   0.120   4.841 -1.9643  0.6290  0.6704
 8868SOL     OW38239   3.226   1.244  13.771  0.6226 -0.2124  0.2285
 8868SOL    HW138240   3.156   1.268  13.832 -0.5222 -1.5538 -0.5479
 8868SOL    HW238241   3.212   1.150  13.758  1.9767 -0.1672 -1.5333
 8869SOL     OW38242   0.984   2.072  17.261 -0.7189  0.1692 -0.5198
 8869SOL    HW138243   0.917   2.012  17.294  0.9633 -1.7814 -0.6264
 8869SOL    HW238244   1.042   2.014  17.211 -0.2606 -0.3206  0.5771
 8870SOL     OW38245   1.975   2.909   0.938 -0.0856  0.7163 -0.3488
 8870SOL    HW138246   2.030   2.836   0.909 -1.6125 -1.1740  1.5278
 8870SOL    HW238247   1.991   2.896   1.032  4.1259 -1.0539 -1.3265
 8871SOL     OW38248   0.154   2.347   5.016 -0.4551  0.0506  0.1249
 8871SOL    HW138249   0.090   2.342   4.945 -0.6289 -0.0751  0.2891
 8871SOL    HW238250   0.233   2.327   4.966 -0.5015  0.9891 -0.3225
 8872SOL     OW38251   4.283   1.174   6.450 -0.4562 -0.2587  0.2237
 8872SOL    HW138252   4.199   1.138   6.421  0.6187 -0.9727 -1.9873
 8872SOL    HW238253   4.348   1.146   6.386 -0.7908 -0.3276 -0.0831
 8873SOL     OW38254   2.537   2.725   9.976  0.1016  0.2470 -0.3316
 8873SOL    HW138255   2.576   2.740  10.062 -1.2198 -0.7319  0.4555
 8873SOL    HW238256   2.448   2.758   9.986 -0.2959 -1.2511  1.1428
 8874SOL     OW38257   3.875   3.400   8.425 -0.7163  0.1353  0.2693
 8874SOL    HW138258   3.782   3.401   8.448 -0.8818 -2.9494 -0.2607
 8874SOL    HW238259   3.883   3.478   8.370  1.0718 -0.1248  0.1749
 8875SOL     OW38260   0.909   2.283   2.824  0.3514  0.3086  0.2365
 8875SOL    HW138261   0.993   2.318   2.797 -0.3701  1.7375 -0.1482
 8875SOL    HW238262   0.906   2.204   2.769 -0.7717  0.1542  0.5193
 8876SOL     OW38263   2.640   2.954   7.387  0.3216  0.6400 -0.6725
 8876SOL    HW138264   2.696   2.979   7.461  1.6315 -2.2272 -0.6913
 8876SOL    HW238265   2.703   2.952   7.315  0.7848 -1.6915 -0.1971
 8877SOL     OW38266   0.289   2.396   6.804 -0.1649 -0.0634 -0.0249
 8877SOL    HW138267   0.280   2.447   6.884 -1.6575  1.3199 -1.0772
 8877SOL    HW238268   0.196   2.383   6.788 -0.1894 -1.5284  1.3365
 8878SOL     OW38269   0.479   4.105  13.139  0.5074  0.7984  0.0093
 8878SOL    HW138270   0.422   4.163  13.189 -0.4989  0.4178 -0.6874
 8878SOL    HW238271   0.563   4.099  13.185  1.2057 -1.9718 -1.6173
 8879SOL     OW38272   1.339   1.237   8.901  0.2190 -0.0371  0.0349
 8879SOL    HW138273   1.353   1.153   8.945 -0.7415  0.9434  2.1828
 8879SOL    HW238274   1.338   1.198   8.813  0.3503  1.0165 -0.4421
 8880SOL     OW38275   0.392   4.136   2.989 -0.8347  0.0200  0.0585
 8880SOL    HW138276   0.299   4.116   2.979 -0.7598  0.5624 -1.7036
 8880SOL    HW238277   0.428   4.059   3.034 -1.0084 -1.5796 -2.5106
 8881SOL     OW38278   3.679   1.405   7.672 -0.4004 -0.1374 -0.4559
 8881SOL    HW138279   3.774   1.413   7.666 -0.0357 -2.5478  1.9413
 8881SOL    HW238280   3.655   1.497   7.672  2.1791  0.5310  0.7301
 8882SOL     OW38281   3.257   0.295   2.724  0.4508  0.1809  0.4808
 8882SOL    HW138282   3.219   0.378   2.693  0.1156 -0.3394 -0.5068
 8882SOL    HW238283   3.220   0.234   2.660  2.2581  3.3437 -3.6757
 8883SOL     OW38284   4.524   3.377   4.582  0.3624  0.1758  0.5778
 8883SOL    HW138285   4.604   3.415   4.546  0.7337 -0.1193  1.1015
 8883SOL    HW238286   4.500   3.448   4.641  0.6390  1.0684 -0.3776
 8884SOL     OW38287   0.798   0.371  10.998 -0.4995 -0.6094 -0.0426
 8884SOL    HW138288   0.845   0.447  10.963  0.5358 -0.3256  1.9440
 8884SOL    HW238289   0.736   0.422  11.050 -2.3260 -1.8285 -1.0272
 8885SOL     OW38290   4.419   0.187   7.923 -0.4029 -0.2602  0.1377
 8885SOL    HW138291   4.362   0.194   8.000 -0.7702 -0.5828 -0.1047
 8885SOL    HW238292   4.419   0.093   7.905 -1.5706 -0.5168  1.4482
 8886SOL     OW38293   4.684   0.058  15.903 -0.0380  0.1163  0.8664
 8886SOL    HW138294   4.610   0.118  15.897 -1.0898 -1.3353 -0.4668
 8886SOL    HW238295   0.023   0.112  15.927  0.3065 -0.4015  0.9326
 8887SOL     OW38296   1.509   0.838   2.662 -0.2805 -0.3913  0.0700
 8887SOL    HW138297   1.558   0.812   2.739  0.5837  3.0157  0.6890
 8887SOL    HW238298   1.423   0.808   2.689 -0.3483 -2.3687 -2.3602
 8888SOL     OW38299   4.685   4.035  15.036 -0.0444 -0.2588  0.5086
 8888SOL    HW138300   4.647   3.988  14.961 -0.3070 -0.6457  0.8817
 8888SOL    HW238301   4.651   4.124  15.031  0.1665 -0.3189 -1.8288
 8889SOL     OW38302   3.010   0.845   4.775  0.5407 -0.4509  0.1836
 8889SOL    HW138303   3.058   0.766   4.749  0.4105 -0.9001  1.3086
 8889SOL    HW238304   3.066   0.906   4.726 -0.4504 -0.1322 -0.5514
 8890SOL     OW38305   2.010   0.333   0.088  0.2401 -0.1426 -0.3327
 8890SOL    HW138306   2.105   0.343   0.073  0.2518 -2.3817 -1.8338
 8890SOL    HW238307   1.979   0.423   0.092  1.8178  0.3311  1.3250
 8891SOL     OW38308   0.569   1.690   7.006 -0.3517 -0.4372  0.0905
 8891SOL    HW138309   0.546   1.650   7.089  3.0350 -1.1977  0.6822
 8891SOL    HW238310   0.546   1.613   6.953 -0.9070 -0.1880 -0.0305
 8892SOL     OW38311   1.885   3.772   4.317  0.0897 -0.1073  0.8695
 8892SOL    HW138312   1.889   3.850   4.262 -0.9231 -0.5100  0.2425
 8892SOL    HW238313   1.967   3.776   4.368  0.0172 -0.0807  0.9848
 8893SOL     OW38314   1.254   3.572   6.457  0.3212 -0.3046 -0.5049
 8893SOL    HW138315   1.291   3.620   6.383  1.8075 -2.0913 -0.9334
 8893SOL    HW238316   1.275   3.479   6.445 -0.9257 -0.6060 -0.3315
 8894SOL     OW38317   0.796   2.412   8.853 -0.0735 -0.5368  0.2636
 8894SOL    HW138318   0.800   2.319   8.830  0.0493 -0.6529  0.7581
 8894SOL    HW238319   0.811   2.451   8.767 -2.3929  0.4324  0.3037
 8895SOL     OW38320   4.453   1.888   7.004  0.1634 -0.2009 -0.2346
 8895SOL    HW138321   4.413   1.811   6.962 -0.3650 -0.3901  0.6206
 8895SOL    HW238322   4.512   1.912   6.932  3.4475 -2.1992  1.7911
 8896SOL     OW38323   2.032   3.921  16.214 -0.1816  0.7160 -0.0229
 8896SOL    HW138324   1.973   3.861  16.169  1.0665 -0.1170 -0.5293
 8896SOL    HW238325   2.089   3.864  16.266 -0.1389 -0.5182 -1.4253
 8897SOL     OW38326   3.313   1.884   9.054  0.2785  0.1638 -0.4789
 8897SOL    HW138327   3.285   1.865   9.144  3.4727 -1.4044  0.1818
 8897SOL    HW238328   3.265   1.965   9.035 -1.2109 -0.5412  0.3257
 8898SOL     OW38329   2.942   4.216   2.584 -0.1925  0.8326 -0.4089
 8898SOL    HW138330   2.889   4.208   2.663  1.1491  1.0759  0.5155
 8898SOL    HW238331   3.028   4.205   2.624 -1.4310 -1.2922  1.6207
 8899SOL     OW38332   2.551   0.682   7.820  0.5367 -0.2974  0.1468
 8899SOL    HW138333   2.524   0.773   7.818  0.7174 -0.2594 -0.4114
 8899SOL    HW238334   2.644   0.691   7.801  0.6899 -1.0194  0.5368
 8900SOL     OW38335   3.276   3.017   8.463 -0.0542  0.0759 -0.1049
 8900SOL    HW138336   3.333   2.983   8.394 -0.2321  0.9739 -0.6920
 8900SOL    HW238337   3.325   2.995   8.542 -1.2192  2.6299  1.3494
 8901SOL     OW38338   4.185   0.405   2.427  0.1268  0.9326 -0.2590
 8901SOL    HW138339   4.187   0.340   2.498  0.7271  2.6101  1.2767
 8901SOL    HW238340   4.095   0.437   2.438 -0.8836 -1.6004 -1.2555
 8902SOL     OW38341   0.952   3.022  14.731  0.3530 -0.0530 -0.2968
 8902SOL    HW138342   0.859   3.007  14.710  0.1253  1.9450 -0.6480
 8902SOL    HW238343   0.989   2.936  14.752  0.6637  0.1029 -0.2046
 8903SOL     OW38344   2.355   2.604   7.831 -0.0001 -0.2636 -0.2243
 8903SOL    HW138345   2.312   2.560   7.758  1.2675 -0.9027 -0.5836
 8903SOL    HW238346   2.427   2.642   7.781  0.5870  1.7885  2.1615
 8904SOL     OW38347   2.700   2.207   4.738 -0.2418  0.3291  0.3360
 8904SOL    HW138348   2.607   2.220   4.753 -0.6492 -1.7134 -0.3987
 8904SOL    HW238349   2.699   2.230   4.645 -0.2629 -2.2300 -0.2998
 8905SOL     OW38350   0.439   2.612   7.988 -0.1786 -0.5663 -0.1453
 8905SOL    HW138351   0.459   2.703   7.966 -3.5557  0.4504  0.9228
 8905SOL    HW238352   0.438   2.613   8.084 -1.7565  0.1927 -0.1732
 8906SOL     OW38353   1.402   3.555   9.326 -0.3858 -0.6357  0.4388
 8906SOL    HW138354   1.400   3.564   9.422 -0.7082  0.8937  0.2783
 8906SOL    HW238355   1.316   3.514   9.313 -0.8078 -0.0656  1.3848
 8907SOL     OW38356   1.513   1.926   6.680  0.4883 -0.4033 -0.3895
 8907SOL    HW138357   1.550   1.885   6.758 -3.1816 -3.0817 -0.0375
 8907SOL    HW238358   1.540   2.017   6.689  0.7170 -0.4976 -0.1344
 8908SOL     OW38359   0.634   3.471   0.913 -0.4490  0.8610  0.6799
 8908SOL    HW138360   0.594   3.528   0.848  0.7149 -0.1558 -0.9552
 8908SOL    HW238361   0.729   3.470   0.901 -0.5179 -1.3996  0.3150
 8909SOL     OW38362   2.230   3.087   4.691  0.3699 -0.3020  0.0746
 8909SOL    HW138363   2.165   3.103   4.759  0.6191 -1.4693  0.5829
 8909SOL    HW238364   2.243   2.993   4.703 -0.4032 -0.0825  2.5346
 8910SOL     OW38365   1.325   0.989   8.715 -0.5044  0.1023  0.1319
 8910SOL    HW138366   1.300   0.899   8.732  1.0047 -0.3878 -0.2593
 8910SOL    HW238367   1.408   0.983   8.666  0.2292  2.0603  1.1249
 8911SOL     OW38368   2.711   3.457   8.119 -0.0243 -0.1985  0.5047
 8911SOL    HW138369   2.631   3.509   8.126  0.2595  0.2817  0.1732
 8911SOL    HW238370   2.757   3.466   8.202 -0.1825 -1.2764  0.7085
 8912SOL     OW38371   0.543   2.817   1.805 -0.1653 -0.1906 -0.3832
 8912SOL    HW138372   0.589   2.901   1.799  1.8120 -1.2735 -0.4384
 8912SOL    HW238373   0.615   2.764   1.839  0.5525 -1.0725 -3.2496
 8913SOL     OW38374   4.727   0.377   6.102  0.2594  0.6676 -0.2713
 8913SOL    HW138375   4.719   0.386   6.197  0.1073  1.0425 -0.3202
 8913SOL    HW238376   0.003   0.463   6.064 -0.9482  0.4369 -1.2434
 8914SOL     OW38377   0.627   2.543   6.117 -0.3072 -0.1429 -0.1368
 8914SOL    HW138378   0.722   2.539   6.127 -0.3072  0.9578  0.2377
 8914SOL    HW238379   0.599   2.451   6.115 -1.5438  0.2335 -0.3121
 8915SOL     OW38380   1.925   4.022   2.319  0.7257  0.1723 -0.3476
 8915SOL    HW138381   1.939   3.947   2.261  2.6779  0.1063  0.2209
 8915SOL    HW238382   2.005   4.014   2.369  0.8727  1.5640 -0.3729
 8916SOL     OW38383   1.763   0.843  12.300  0.0757 -0.0776  0.0424
 8916SOL    HW138384   1.740   0.859  12.208  2.9573 -0.2320 -0.7299
 8916SOL    HW238385   1.830   0.908  12.319 -1.6745  1.8390 -0.3313
 8917SOL     OW38386   4.300   4.245   6.569 -0.3771  0.3962 -0.1978
 8917SOL    HW138387   4.266   4.278   6.486 -0.3009  1.9282  0.3686
 8917SOL    HW238388   4.219   4.251   6.619  0.1986 -0.8304  0.8553
 8918SOL     OW38389   2.710   0.627   2.831 -0.0630 -0.0310  0.0682
 8918SOL    HW138390   2.791   0.639   2.781 -0.6042 -0.0067 -0.8091
 8918SOL    HW238391   2.710   0.532   2.841 -0.2058  0.1959  2.2620
 8919SOL     OW38392   1.610   1.030   7.017  0.0557 -0.1943  0.2421
 8919SOL    HW138393   1.677   1.096   7.001 -0.5283  0.7672  1.8065
 8919SOL    HW238394   1.613   1.006   7.109 -3.4229  1.0512  0.6903
 8920SOL     OW38395   1.913   0.435  17.543 -0.1993 -0.1459 -0.2442
 8920SOL    HW138396   2.004   0.447  17.567 -0.3365 -2.9889  1.6805
 8920SOL    HW238397   1.892   0.524  17.513  0.2554 -0.6134 -1.9544
 8921SOL     OW38398   3.258   3.272   7.480  0.5301 -0.5440 -0.2321
 8921SOL    HW138399   3.174   3.265   7.435 -0.0569  0.5123  0.6911
 8921SOL    HW238400   3.299   3.334   7.419 -0.1998  0.1229 -0.0394
 8922SOL     OW38401   2.866   1.272   3.820 -0.3849  0.2154  0.3029
 8922SOL    HW138402   2.902   1.242   3.736 -0.2527  0.3547  0.3105
 8922SOL    HW238403   2.933   1.334   3.847 -0.5719 -0.6971  2.8582
 8923SOL     OW38404   4.447   4.331  17.051  0.1572 -0.1372 -0.0299
 8923SOL    HW138405   4.385   4.355  17.120  2.1350  2.6395  0.7502
 8923SOL    HW238406   4.530   4.330  17.100  0.9606 -2.0332 -1.4172
 8924SOL     OW38407   2.535   1.412  15.858  0.5318 -0.2312  0.0541
 8924SOL    HW138408   2.452   1.434  15.816  0.5016  1.3692  0.9980
 8924SOL    HW238409   2.591   1.449  15.790  0.2661 -0.1906 -0.1445
 8925SOL     OW38410   1.936   2.179   3.293  0.1681 -0.1691  0.2062
 8925SOL    HW138411   2.020   2.195   3.336 -0.1918  1.7873  0.1784
 8925SOL    HW238412   1.882   2.132   3.357  0.8307  3.2638  3.2911
 8926SOL     OW38413   0.691   4.400   0.978 -0.5163 -0.0210 -0.0234
 8926SOL    HW138414   0.596   4.410   0.982 -0.3578  1.8656 -0.8383
 8926SOL    HW238415   0.710   4.451   1.056  2.0540 -1.3236  0.1896
 8927SOL     OW38416   2.102   1.415  11.015  0.0328  0.2514  0.2466
 8927SOL    HW138417   2.075   1.463  11.094  1.8962  3.2984 -0.9777
 8927SOL    HW238418   2.111   1.490  10.955  1.7044 -0.0499  0.1388
 8928SOL     OW38419   0.849   0.044   6.748 -0.0279 -0.1239  0.1265
 8928SOL    HW138420   0.792   4.706   6.730 -0.9444  0.7212 -0.5469
 8928SOL    HW238421   0.840   0.044   6.843  2.1370 -0.2284  0.3149
 8929SOL     OW38422   1.438   1.400   5.649  0.1999  0.3405  0.2675
 8929SOL    HW138423   1.428   1.447   5.565  2.1051  0.2360 -0.0060
 8929SOL    HW238424   1.524   1.360   5.640 -0.4376 -1.0698  0.5410
 8930SOL     OW38425   0.039   2.689   2.079  0.0455  0.0212  0.4480
 8930SOL    HW138426   0.132   2.712   2.078  0.1379 -0.4026 -0.9905
 8930SOL    HW238427   4.726   2.766   2.052  0.8246  0.5196  0.4042
 8931SOL     OW38428   2.542   4.630   4.011 -0.6155  0.5504  0.3965
 8931SOL    HW138429   2.450   4.608   3.996  0.0505 -2.3082  0.5214
 8931SOL    HW238430   2.531   4.697   4.078 -1.0748  1.3985 -0.5202
 8932SOL     OW38431   4.430   4.341   9.865  0.1371  0.0288 -0.0504
 8932SOL    HW138432   4.443   4.394   9.786  0.2412  0.7539  0.4455
 8932SOL    HW238433   4.444   4.251   9.838  3.9053  1.2661 -2.2279
 8933SOL     OW38434   2.879   4.031   5.681  0.0061 -0.1002  0.1033
 8933SOL    HW138435   2.963   4.028   5.635  1.1958 -1.1736  2.3638
 8933SOL    HW238436   2.907   3.976   5.754 -4.3289 -1.8430  0.4510
 8934SOL     OW38437   3.613   2.997   1.609 -0.5725 -0.1098  0.2570
 8934SOL    HW138438   3.611   2.992   1.514  0.3461  2.7614  0.0752
 8934SOL    HW238439   3.707   3.013   1.617 -0.9363  1.2447  1.8577
 8935SOL     OW38440   0.563   1.636   3.271 -0.3233  0.1288 -1.1037
 8935SOL    HW138441   0.656   1.640   3.294 -0.9447  1.6108  1.0962
 8935SOL    HW238442   0.529   1.587   3.346  3.4135  1.7762  1.6307
 8936SOL     OW38443   3.535   4.014   8.138 -0.1813 -0.1935  0.2843
 8936SOL    HW138444   3.476   4.088   8.154 -1.8366 -1.3209 -0.6936
 8936SOL    HW238445   3.577   4.009   8.225 -1.3077  0.8514  0.8897
 8937SOL     OW38446   0.356   1.203   8.738  0.1031 -0.0627  0.0753
 8937SOL    HW138447   0.427   1.138   8.738  0.3390  0.1976  0.1140
 8937SOL    HW238448   0.360   1.228   8.831  1.2035  1.1188 -0.2899
 8938SOL     OW38449   2.835   2.797  10.085  0.5328 -0.6596  0.2667
 8938SOL    HW138450   2.803   2.732  10.148  1.8840  0.1468  1.7913
 8938SOL    HW238451   2.828   2.879  10.133  1.6068 -0.5082  0.1617
 8939SOL     OW38452   4.514   1.189   4.529 -0.0685  0.7650 -1.1019
 8939SOL    HW138453   4.466   1.129   4.473 -1.5127  0.2537  0.6691
 8939SOL    HW238454   4.576   1.215   4.461 -0.2027  2.0483 -0.7382
 8940SOL     OW38455   2.908   1.202   8.813  0.4792 -0.6871 -0.3889
 8940SOL    HW138456   2.832   1.213   8.756 -0.0014 -2.5015 -0.0699
 8940SOL    HW238457   2.939   1.127   8.762 -0.1977  0.0096 -1.8430
 8941SOL     OW38458   3.163   4.439   1.056  0.2151  0.4275 -0.3623
 8941SOL    HW138459   3.141   4.443   1.149 -1.4542  0.6620 -0.7668
 8941SOL    HW238460   3.258   4.451   1.054  0.2374  0.3603  0.2094
 8942SOL     OW38461   0.870   0.379   3.724  0.1070  0.2215  0.0907
 8942SOL    HW138462   0.851   0.473   3.732  0.7529  0.2628  1.0566
 8942SOL    HW238463   0.841   0.342   3.807 -0.1116 -1.7587 -0.8679
 8943SOL     OW38464   3.509   1.736   7.356  0.0054 -0.0165 -0.2193
 8943SOL    HW138465   3.446   1.693   7.298 -1.9724  0.5182  1.5496
 8943SOL    HW238466   3.569   1.765   7.287  0.9999 -0.9851  0.2446
 8944SOL     OW38467   4.097   3.172  10.218  0.1779  0.2657 -0.0136
 8944SOL    HW138468   4.042   3.190  10.295  0.5889  0.1745  0.3045
 8944SOL    HW238469   4.071   3.081  10.210  0.5061  0.2367 -0.7375
 8945SOL     OW38470   3.748   2.606   5.448  0.5751 -0.1365 -0.1631
 8945SOL    HW138471   3.731   2.516   5.475 -1.8153  0.1594 -0.6025
 8945SOL    HW238472   3.723   2.601   5.355 -3.8587  2.4251  0.8586
 8946SOL     OW38473   1.294   1.131   5.943  0.0025  0.2022 -0.3360
 8946SOL    HW138474   1.250   1.061   5.991 -0.7380  0.8325 -0.1064
 8946SOL    HW238475   1.227   1.163   5.884 -1.0759 -3.0306 -0.9033
 8947SOL     OW38476   1.175   2.305   3.628 -0.2239  0.5839  0.0763
 8947SOL    HW138477   1.154   2.282   3.537  1.1000 -0.9999  0.1740
 8947SOL    HW238478   1.268   2.323   3.613 -0.0661 -1.7826 -1.8403
 8948SOL     OW38479   1.977   3.778   2.872  0.2550 -0.1689  0.0897
 8948SOL    HW138480   1.941   3.689   2.879 -2.4911  0.7920 -1.9433
 8948SOL    HW238481   1.993   3.793   2.965  0.6560 -2.4510  0.3789
 8949SOL     OW38482   0.521   0.017   9.428  0.1539  0.0864  0.0812
 8949SOL    HW138483   0.480   0.053   9.507  0.0566 -0.7171  0.3874
 8949SOL    HW238484   0.589   0.080   9.402  1.0381 -0.3191  1.4194
 8950SOL     OW38485   3.011   4.105  17.537  0.0761 -0.6772 -0.3146
 8950SOL    HW138486   3.045   4.076  17.452 -1.0887 -0.4492 -0.8461
 8950SOL    HW238487   3.090   4.112  17.591  1.0089  0.8938 -1.9089
 8951SOL     OW38488   2.673   0.666  15.945  0.3396 -0.2217 -0.6740
 8951SOL    HW138489   2.766   0.664  15.966 -0.0351  0.6291  1.0681
 8951SOL    HW238490   2.639   0.634  16.028  0.1454  0.6339 -0.4229
 8952SOL     OW38491   2.721   3.004  15.146  0.4649 -0.8068 -0.4266
 8952SOL    HW138492   2.691   3.062  15.215 -0.6048  1.0858 -2.5020
 8952SOL    HW238493   2.787   3.061  15.107  0.6387 -0.7446 -0.0371
 8953SOL     OW38494   1.713   3.140   9.950  0.6078 -0.8215 -0.1703
 8953SOL    HW138495   1.620   3.121   9.964  0.6134  0.1479  1.1809
 8953SOL    HW238496   1.720   3.216  10.008 -0.1551 -0.9237  0.0587
 8954SOL     OW38497   0.498   4.197   5.891 -0.2877 -0.1447 -0.3997
 8954SOL    HW138498   0.505   4.111   5.850 -2.6597 -0.0769 -0.9119
 8954SOL    HW238499   0.405   4.206   5.908 -0.4008 -0.5046 -0.8241
 8955SOL     OW38500   2.115   2.480   5.083  0.3702 -0.6424  0.4569
 8955SOL    HW138501   2.040   2.537   5.101  1.1184  0.3777  0.3282
 8955SOL    HW238502   2.095   2.461   4.992 -0.7049 -0.5813  0.6732
 8956SOL     OW38503   3.798   2.346   0.168 -0.2700 -0.5367  0.0732
 8956SOL    HW138504   3.714   2.387   0.187  1.2048  1.6361  1.9914
 8956SOL    HW238505   3.772   2.254   0.173  4.2383 -1.8521 -0.5754
 8957SOL     OW38506   3.674   2.169   2.564 -0.4001 -0.4019  0.1071
 8957SOL    HW138507   3.672   2.181   2.469 -1.9231 -2.8166 -0.1729
 8957SOL    HW238508   3.594   2.117   2.578 -0.5965  0.3494  1.7266
 8958SOL     OW38509   4.301   1.687   2.902 -0.4286 -0.1781 -0.0749
 8958SOL    HW138510   4.240   1.735   2.958  1.3713  0.5391  1.2569
 8958SOL    HW238511   4.252   1.619   2.855 -1.1840  1.0055 -1.0144
 8959SOL     OW38512   0.770   0.953  14.498  0.2539  0.2013  0.2922
 8959SOL    HW138513   0.692   0.908  14.531  0.3124 -1.4266 -1.7465
 8959SOL    HW238514   0.805   1.011  14.566 -0.3827  0.8714  0.0486
 8960SOL     OW38515   4.442   4.446   3.287  0.6721 -0.2984 -0.0127
 8960SOL    HW138516   4.478   4.449   3.375  1.2430 -2.9321 -0.1620
 8960SOL    HW238517   4.504   4.508   3.248  0.2742  0.1981  0.1447
 8961SOL     OW38518   1.051   3.838   2.888 -0.4575  0.0417 -0.0033
 8961SOL    HW138519   1.122   3.902   2.889 -0.1398 -0.2999 -0.1458
 8961SOL    HW238520   1.085   3.781   2.818 -0.5059 -0.2392  0.2019
 8962SOL     OW38521   1.400   1.458  11.676 -0.3218 -0.7586 -0.2505
 8962SOL    HW138522   1.478   1.450  11.621 -0.4146  0.5002 -0.5675
 8962SOL    HW238523   1.437   1.465  11.764  2.3450 -3.3993 -1.1642
 8963SOL     OW38524   0.530   2.914   2.299  0.0492 -0.0311 -0.4558
 8963SOL    HW138525   0.538   2.952   2.386 -1.1325  0.1785 -0.4389
 8963SOL    HW238526   0.557   2.826   2.321  1.3405  0.7688  1.1137
 8964SOL     OW38527   3.394   2.215   3.290  0.4582 -1.0106  0.1874
 8964SOL    HW138528   3.357   2.127   3.287  0.8242 -1.1201 -0.8623
 8964SOL    HW238529   3.440   2.223   3.374  0.2281  0.3544  0.1836
 8965SOL     OW38530   2.184   0.934   1.681  0.2906 -0.2597 -0.2067
 8965SOL    HW138531   2.123   0.923   1.607 -2.1253  0.2755  1.7017
 8965SOL    HW238532   2.118   0.945   1.750  1.6182 -1.0957  1.1639
 8966SOL     OW38533   3.711   2.015   8.407  0.2601 -0.4454  0.3979
 8966SOL    HW138534   3.692   2.093   8.460  0.3897  0.5646 -1.0299
 8966SOL    HW238535   3.657   1.950   8.451  1.3154 -2.1211 -0.7571
 8967SOL     OW38536   0.009   0.231  13.074  0.5190 -0.2824  0.2569
 8967SOL    HW138537   0.063   0.156  13.047 -1.4218 -2.0751  1.3287
 8967SOL    HW238538   0.069   0.306  13.070 -0.6994  0.7279  1.0607
 8968SOL     OW38539   0.134   0.003   7.952 -0.2166  0.4604  0.1055
 8968SOL    HW138540   0.200   0.045   8.007 -0.7072 -0.8025  1.6307
 8968SOL    HW238541   0.076   0.076   7.929 -0.0774  0.7233  0.5928
 8969SOL     OW38542   2.920   2.836   8.563  0.1743  0.0304  0.1827
 8969SOL    HW138543   2.981   2.798   8.500  1.1774  1.9256  0.0041
 8969SOL    HW238544   2.975   2.893   8.616  0.6375  1.3074 -1.6530
 8970SOL     OW38545   0.189   1.635  14.198  0.0640 -0.3424  0.2167
 8970SOL    HW138546   0.249   1.687  14.146  1.2837 -1.4399  0.5465
 8970SOL    HW238547   0.169   1.563  14.138  1.3981  0.1628 -0.8187
 8971SOL     OW38548   4.030   4.720  14.920 -0.4265  0.0729 -0.5848
 8971SOL    HW138549   4.026   0.077  14.907 -0.7173  0.2777  0.9845
 8971SOL    HW238550   4.112   4.722  14.970 -0.8098  2.2525 -0.0311
 8972SOL     OW38551   4.085   2.113   7.467  0.1622 -0.3489  0.4246
 8972SOL    HW138552   4.146   2.085   7.399 -0.5037 -2.5608  0.7563
 8972SOL    HW238553   4.014   2.139   7.408  0.5011 -3.3681 -1.3191
 8973SOL     OW38554   1.896   1.434  15.817  0.3121  0.6744 -0.0382
 8973SOL    HW138555   1.917   1.394  15.901  0.8295  0.8649 -0.0767
 8973SOL    HW238556   1.964   1.501  15.808  0.4030  0.6602  0.5846
 8974SOL     OW38557   2.806   2.488  12.572 -0.3196 -0.4067  0.2362
 8974SOL    HW138558   2.811   2.442  12.656 -1.5340 -1.2774 -0.1684
 8974SOL    HW238559   2.798   2.576  12.607 -1.4484  0.7912 -3.0459
 8975SOL     OW38560   4.159   2.541   3.194 -0.9755 -0.0185  0.3140
 8975SOL    HW138561   4.068   2.571   3.185 -0.8314 -0.0199 -1.1305
 8975SOL    HW238562   4.168   2.473   3.127 -0.6174  0.0953  0.2509
 8976SOL     OW38563   1.987   3.015  14.959  0.2535  0.0016 -0.3562
 8976SOL    HW138564   1.941   2.953  15.016 -0.4625  0.9429  0.0945
 8976SOL    HW238565   2.002   2.945  14.895 -1.5265 -0.2450 -0.5072
 8977SOL     OW38566   2.006   0.841   7.789  0.6674  0.0941 -0.4053
 8977SOL    HW138567   2.084   0.806   7.832 -0.4789 -2.0425 -0.0715
 8977SOL    HW238568   2.041   0.864   7.703 -0.4379  4.1508  0.1809
 8978SOL     OW38569   1.197   0.954   6.870 -0.0006 -0.3105  0.0051
 8978SOL    HW138570   1.234   0.933   6.956 -1.3846  1.6743  1.0775
 8978SOL    HW238571   1.233   1.043   6.859 -0.3966 -0.3375 -1.4910
 8979SOL     OW38572   0.992   2.671   5.729 -0.0492 -0.4317 -0.1423
 8979SOL    HW138573   1.064   2.621   5.768  0.1676 -0.2971 -0.3701
 8979SOL    HW238574   0.940   2.599   5.696 -0.4464 -0.2907  0.1759
 8980SOL     OW38575   1.034   3.870   3.164  0.5680  0.4650 -0.5626
 8980SOL    HW138576   0.998   3.955   3.138  0.5227  1.1273  1.6711
 8980SOL    HW238577   1.080   3.845   3.083  0.5468  0.6565 -0.6336
 8981SOL     OW38578   0.535   1.993   7.521  0.1142 -0.1595  0.5451
 8981SOL    HW138579   0.550   2.088   7.527 -0.4584 -0.1376  1.6911
 8981SOL    HW238580   0.574   1.980   7.435  0.6626  2.1127  0.4537
 8982SOL     OW38581   1.800   2.876   1.452  0.0527 -0.1018 -0.0852
 8982SOL    HW138582   1.832   2.947   1.507  1.2092 -1.3568  0.8794
 8982SOL    HW238583   1.848   2.878   1.369  1.4608  0.2257  0.7482
 8983SOL     OW38584   2.393   3.526   9.082  0.4174  0.1967  0.6573
 8983SOL    HW138585   2.329   3.499   9.148  1.4216 -0.1257  1.5059
 8983SOL    HW238586   2.392   3.622   9.088 -2.5997  0.3554 -2.8966
 8984SOL     OW38587   3.680   4.061   2.754  0.1717 -0.3312  0.1879
 8984SOL    HW138588   3.705   3.975   2.790 -0.9739  0.1315  2.0565
 8984SOL    HW238589   3.702   4.031   2.665  2.1510  2.4087 -0.2162
 8985SOL     OW38590   2.207   2.754   6.287  0.5445 -0.9347  0.3050
 8985SOL    HW138591   2.113   2.747   6.304  0.0895  2.2497 -0.8713
 8985SOL    HW238592   2.198   2.755   6.192 -3.4113  1.7444  0.7211
 8986SOL     OW38593   2.136   1.240   5.018 -0.2010  0.5301 -0.3159
 8986SOL    HW138594   2.213   1.182   5.022  0.1447  1.1578  1.8296
 8986SOL    HW238595   2.095   1.222   4.933  0.5071 -0.2985 -0.4834
 8987SOL     OW38596   1.802   4.075   6.517  0.2028  0.6661  0.1282
 8987SOL    HW138597   1.732   4.038   6.463  0.1435  0.6737  0.1999
 8987SOL    HW238598   1.856   3.996   6.519  0.9196  1.2160  2.6019
 8988SOL     OW38599   1.391   2.244  12.018  0.2700  0.0927  0.1505
 8988SOL    HW138600   1.354   2.198  11.944  0.5344  0.9450 -0.5167
 8988SOL    HW238601   1.480   2.208  12.015  0.3652  0.3471 -0.1002
 8989SOL     OW38602   3.051   2.884   3.844  0.6443 -0.7798  0.5138
 8989SOL    HW138603   3.087   2.888   3.932  1.3390  0.3027  0.1794
 8989SOL    HW238604   3.026   2.793   3.827  0.8490 -0.5783 -0.9448
 8990SOL     OW38605   3.975   0.699   2.447  0.3132  0.3082 -0.5691
 8990SOL    HW138606   4.062   0.732   2.467 -0.4354  0.4755  2.4738
 8990SOL    HW238607   3.943   0.781   2.409 -0.5533  0.5096  0.5813
 8991SOL     OW38608   4.085   2.831   2.470 -0.4942  0.5001 -0.2290
 8991SOL    HW138609   4.177   2.817   2.490 -1.2451 -0.2158  2.7301
 8991SOL    HW238610   4.057   2.851   2.559 -0.7482 -0.7621 -0.0227
 8992SOL     OW38611   1.520   0.551   4.701 -0.1501  0.3520 -0.1198
 8992SOL    HW138612   1.503   0.591   4.616  0.3999  0.8486  0.0004
 8992SOL    HW238613   1.606   0.511   4.690  0.0785  1.0714 -1.0416
 8993SOL     OW38614   3.986   4.387  13.120 -0.2088  0.0340 -0.6275
 8993SOL    HW138615   3.961   4.295  13.111 -2.1494  0.3853  1.2723
 8993SOL    HW238616   4.065   4.391  13.174 -0.1231 -1.9420 -0.5962
 8994SOL     OW38617   4.282   3.585   9.420  0.7798  0.1058  0.1292
 8994SOL    HW138618   4.342   3.605   9.493 -0.2983 -1.0713  1.3288
 8994SOL    HW238619   4.291   3.490   9.408 -0.6446  0.0981 -0.8445
 8995SOL     OW38620   3.549   3.290   3.693 -0.1474  0.3137  0.0378
 8995SOL    HW138621   3.607   3.250   3.759  1.5735 -1.2881 -2.4263
 8995SOL    HW238622   3.465   3.269   3.734 -0.4444  3.4602  1.0201
 8996SOL     OW38623   0.470   2.986  12.585 -0.5557 -0.1362 -0.3075
 8996SOL    HW138624   0.479   2.979  12.490 -0.4345  0.6610 -0.3554
 8996SOL    HW238625   0.377   3.009  12.594 -0.4702 -0.0399  0.3425
 8997SOL     OW38626   0.885   3.236   4.359  0.7083 -0.4106 -0.6746
 8997SOL    HW138627   0.827   3.235   4.283  0.1745  1.1709 -0.2891
 8997SOL    HW238628   0.846   3.179   4.424 -0.9125  0.8674 -0.5203
 8998SOL     OW38629   3.534   2.059   6.681  0.0265 -0.5490 -0.1710
 8998SOL    HW138630   3.457   2.041   6.736 -0.8173  1.2098 -0.7674
 8998SOL    HW238631   3.498   2.121   6.618  1.5064  1.0039  0.5221
 8999SOL     OW38632   2.495   3.485   9.978 -0.5257 -0.1659  0.8433
 8999SOL    HW138633   2.523   3.516   9.892  0.5151  0.0244  1.2522
 8999SOL    HW238634   2.518   3.555  10.039  0.5083  0.0957  0.1592
 9000SOL     OW38635   1.614   0.535   3.980  0.1565 -0.2767  0.3056
 9000SOL    HW138636   1.522   0.524   4.005 -0.3117  2.2644 -0.3339
 9000SOL    HW238637   1.612   0.542   3.885  1.9921 -2.1609  0.1373
 9001SOL     OW38638   3.905   3.991   0.124 -0.3551 -0.3031  0.2958
 9001SOL    HW138639   3.890   3.940   0.044 -0.9859 -0.5566  0.5752
 9001SOL    HW238640   3.977   4.049   0.100 -0.8618  0.1516 -0.1455
 9002SOL     OW38641   3.774   0.662   1.596 -0.1091  0.1864 -0.0972
 9002SOL    HW138642   3.736   0.738   1.552 -1.6049  1.0471  2.7632
 9002SOL    HW238643   3.721   0.596   1.552 -1.0815  2.0949 -1.8074
 9003SOL     OW38644   1.160   2.948  10.281 -0.7614 -0.2529  0.6303
 9003SOL    HW138645   1.168   2.978  10.371 -1.7683 -2.3450  1.4262
 9003SOL    HW238646   1.171   3.029  10.231  0.2886 -1.0583 -0.4640
 9004SOL     OW38647   3.961   0.707   6.421  0.3291  0.0413  0.5777
 9004SOL    HW138648   3.971   0.619   6.386  1.4052  0.2393  0.3874
 9004SOL    HW238649   3.891   0.741   6.365  1.1383  2.1630  0.8388
 9005SOL     OW38650   0.390   3.231   8.805 -0.0095  0.2461  0.0288
 9005SOL    HW138651   0.306   3.265   8.836 -0.8107 -3.6172  2.0165
 9005SOL    HW238652   0.401   3.167   8.875  3.8385  0.9207  0.0277
 9006SOL     OW38653   1.442   4.458   3.187  0.1445 -0.3786 -0.7588
 9006SOL    HW138654   1.487   4.375   3.203  1.2481  0.3250 -0.2132
 9006SOL    HW238655   1.364   4.454   3.243  0.2617 -0.1398 -0.5787
 9007SOL     OW38656   0.416   1.375   7.416 -0.1954  0.3657  0.1425
 9007SOL    HW138657   0.393   1.286   7.441  1.2929 -0.1577 -0.3372
 9007SOL    HW238658   0.449   1.413   7.498  0.6296 -5.2968  2.4418
 9008SOL     OW38659   3.477   0.702   7.818  0.0082 -0.0350  0.4576
 9008SOL    HW138660   3.417   0.639   7.778 -0.0366  0.3302 -0.0652
 9008SOL    HW238661   3.562   0.659   7.825 -0.1074 -0.1727  1.0025
 9009SOL     OW38662   1.547   4.241  13.340  0.4064  0.6072  0.4908
 9009SOL    HW138663   1.637   4.211  13.330 -0.0145 -1.0656  1.6439
 9009SOL    HW238664   1.532   4.260  13.248  0.1083 -0.4707  0.3108
 9010SOL     OW38665   4.254   3.419  12.689  0.2599  0.4282 -0.0265
 9010SOL    HW138666   4.245   3.390  12.779  1.3872  0.0178 -0.0506
 9010SOL    HW238667   4.319   3.487  12.705  1.3281 -0.4232 -0.7589
 9011SOL     OW38668   3.564   3.635  16.972  0.0063  0.2686 -0.1264
 9011SOL    HW138669   3.525   3.677  16.895  0.8271 -0.5027 -0.9564
 9011SOL    HW238670   3.658   3.646  16.955 -0.2368  0.9298 -1.0197
 9012SOL     OW38671   3.804   4.403   6.255  0.2576  0.1448  0.2855
 9012SOL    HW138672   3.718   4.368   6.275 -0.2803  3.4605  3.6616
 9012SOL    HW238673   3.838   4.324   6.213 -0.0580 -1.2534  2.6682
 9013SOL     OW38674   0.581   2.272   7.496  0.0417 -0.0030  0.6554
 9013SOL    HW138675   0.643   2.221   7.444 -2.1218 -1.7085 -0.2613
 9013SOL    HW238676   0.614   2.360   7.478 -1.9311  1.0825  2.3800
 9014SOL     OW38677   3.348   1.482   6.570  0.1672 -0.0002 -0.8954
 9014SOL    HW138678   3.298   1.554   6.532 -1.9085 -0.3642  1.1785
 9014SOL    HW238679   3.287   1.409   6.556 -0.8074  0.3355  1.5104
 9015SOL     OW38680   0.556   1.029   8.731  0.2032 -0.5741 -0.0906
 9015SOL    HW138681   0.628   1.077   8.773  0.9469 -1.0444 -0.8335
 9015SOL    HW238682   0.549   0.963   8.800 -3.5425 -0.0655  0.0151
 9016SOL     OW38683   3.828   3.712   4.074  0.0276  0.1010 -0.2158
 9016SOL    HW138684   3.915   3.673   4.066 -0.6699 -1.3901 -0.5757
 9016SOL    HW238685   3.837   3.797   4.116 -0.8791  0.4492 -0.7032
 9017SOL     OW38686   1.924   2.153   4.009 -1.0657 -0.2810  0.0105
 9017SOL    HW138687   1.925   2.248   4.002 -0.4189 -0.3043 -0.1854
 9017SOL    HW238688   1.881   2.121   3.929 -1.5643  0.8020 -0.1589
 9018SOL     OW38689   2.409   3.989   4.293 -0.5264 -1.0819 -0.6763
 9018SOL    HW138690   2.416   4.051   4.220 -1.0667  1.7174  1.6744
 9018SOL    HW238691   2.483   4.015   4.346 -1.0258  1.7875 -1.3872
 9019SOL     OW38692   4.232   1.883   6.690  0.0764  0.0712  0.7074
 9019SOL    HW138693   4.294   1.815   6.714 -1.4904 -1.4659  0.3990
 9019SOL    HW238694   4.178   1.831   6.630 -1.2612  1.4197  0.7120
 9020SOL     OW38695   2.398   3.995   7.050  0.0460 -0.2422 -0.0057
 9020SOL    HW138696   2.313   4.038   7.045 -0.0224 -0.1864  1.7176
 9020SOL    HW238697   2.425   4.029   7.135 -0.6883  1.2161 -0.3600
 9021SOL     OW38698   2.080   2.900   9.306  0.4839 -0.2667  0.3985
 9021SOL    HW138699   2.083   2.993   9.331  1.5987  0.0115 -0.7373
 9021SOL    HW238700   2.169   2.902   9.272  0.7854 -0.9514  1.1420
 9022SOL     OW38701   2.671   1.989   1.759 -0.4292  0.6696  0.4524
 9022SOL    HW138702   2.732   2.012   1.689 -1.5822  0.5248 -0.6007
 9022SOL    HW238703   2.706   1.904   1.786  0.6944  0.7779 -0.6237
 9023SOL     OW38704   0.951   1.217   7.126  0.1798 -0.0379 -0.3877
 9023SOL    HW138705   1.046   1.204   7.128  0.3306  1.1628  0.1157
 9023SOL    HW238706   0.930   1.133   7.085  1.3348 -0.7250  0.4279
 9024SOL     OW38707   0.987   4.160   0.769 -0.5184 -0.4052  0.0326
 9024SOL    HW138708   0.899   4.150   0.733 -0.4064  1.5363 -0.7864
 9024SOL    HW238709   1.030   4.151   0.684  1.5193  0.6617  0.9499
 9025SOL     OW38710   0.048   0.435   7.963 -0.2404 -0.1768 -0.7458
 9025SOL    HW138711   4.706   0.469   8.003 -0.5578 -3.3879  1.3023
 9025SOL    HW238712   0.090   0.402   8.043  3.2052  0.4806 -2.3163
 9026SOL     OW38713   4.241   1.210   0.292 -0.1861  0.1890  0.2250
 9026SOL    HW138714   4.316   1.265   0.270 -0.4623  1.1319  1.5821
 9026SOL    HW238715   4.199   1.272   0.352  1.1436  1.5513 -0.2409
 9027SOL     OW38716   0.649   1.554   4.019  0.0222  0.4945 -0.2275
 9027SOL    HW138717   0.629   1.633   4.070 -0.2571  0.7594 -0.7424
 9027SOL    HW238718   0.563   1.550   3.977  0.0682  0.6362 -0.3338
 9028SOL     OW38719   2.476   1.463  15.568 -0.6298 -0.3297 -1.1358
 9028SOL    HW138720   2.519   1.378  15.574  1.5394  0.8605  0.3506
 9028SOL    HW238721   2.467   1.475  15.474  0.5494  1.8155 -0.9784
 9029SOL     OW38722   1.495   3.636   3.628  0.0080  0.7882 -0.1304
 9029SOL    HW138723   1.446   3.689   3.565  2.0448  0.2312 -2.2044
 9029SOL    HW238724   1.430   3.621   3.697 -0.7746 -1.4112 -1.3196
 9030SOL     OW38725   1.852   2.088   0.183 -0.2426 -0.3025  0.0796
 9030SOL    HW138726   1.929   2.048   0.143 -0.4745 -1.1086  0.4367
 9030SOL    HW238727   1.785   2.036   0.138 -0.1636 -0.0971 -0.2712
 9031SOL     OW38728   1.258   3.145  15.150  0.1072 -0.2467  0.1112
 9031SOL    HW138729   1.197   3.139  15.076  1.3966 -1.4853 -0.8461
 9031SOL    HW238730   1.331   3.087  15.129  0.3642 -0.5641  1.9374
 9032SOL     OW38731   2.926   2.441  16.245 -0.0019 -0.0851 -0.1407
 9032SOL    HW138732   2.861   2.402  16.304 -0.3569  0.1585 -0.3741
 9032SOL    HW238733   3.000   2.381  16.252 -1.4565 -1.7610  0.8817
 9033SOL     OW38734   1.189   4.356   2.186  0.5467  0.3789 -0.7876
 9033SOL    HW138735   1.149   4.386   2.105  0.7626  1.2224 -0.5875
 9033SOL    HW238736   1.193   4.263   2.166  2.2330  0.1723  0.4462
 9034SOL     OW38737   1.721   3.858   7.272 -0.0037  0.6270 -0.1258
 9034SOL    HW138738   1.643   3.880   7.220 -0.2646  0.5874  0.2435
 9034SOL    HW238739   1.689   3.793   7.334  0.7149 -2.0299 -2.5453
 9035SOL     OW38740   0.499   2.546   2.597 -0.1541 -0.8136 -0.3508
 9035SOL    HW138741   0.564   2.598   2.549  0.0802  0.1379  1.0079
 9035SOL    HW238742   0.501   2.473   2.535  1.1056 -0.5619 -0.6156
 9036SOL     OW38743   3.695   2.592   7.348 -0.0742  0.0042 -0.1743
 9036SOL    HW138744   3.753   2.639   7.408 -2.1827  2.6173 -0.1815
 9036SOL    HW238745   3.623   2.655   7.347 -0.2396 -0.1590  1.1519
 9037SOL     OW38746   1.481   0.303   8.011 -0.8371 -0.5328  0.7704
 9037SOL    HW138747   1.486   0.376   8.072  2.6884  0.0629 -0.2191
 9037SOL    HW238748   1.398   0.316   7.966 -0.0366  0.4690 -0.3789
 9038SOL     OW38749   3.990   1.200   0.176  0.4276  0.2353  0.4185
 9038SOL    HW138750   3.984   1.105   0.164  1.0232  0.5248 -2.0731
 9038SOL    HW238751   4.076   1.197   0.217  1.0025  3.0253 -0.6232
 9039SOL     OW38752   3.831   2.455   2.333  0.1210  0.7012 -0.1800
 9039SOL    HW138753   3.878   2.530   2.297  1.8548 -0.4142 -0.2513
 9039SOL    HW238754   3.879   2.441   2.415 -0.5443 -0.1710  0.0584
 9040SOL     OW38755   3.525   1.160   4.559  0.1433  0.0877 -0.5057
 9040SOL    HW138756   3.589   1.215   4.604 -1.8962  0.8795  1.4364
 9040SOL    HW238757   3.503   1.106   4.635  2.4464 -1.2737 -0.8078
 9041SOL     OW38758   4.000   0.560  16.208  0.2939 -0.2196  0.1894
 9041SOL    HW138759   4.047   0.613  16.143 -0.5727 -0.3720 -0.5650
 9041SOL    HW238760   3.913   0.598  16.197  1.0784  1.5360 -0.0035
 9042SOL     OW38761   4.692   0.632   8.377 -0.0485 -0.6529  0.1261
 9042SOL    HW138762   4.685   0.640   8.282  0.9661  0.5428  0.1547
 9042SOL    HW238763   4.713   0.722   8.404 -0.5260 -0.5470  0.1438
 9043SOL     OW38764   0.082   3.252   9.771  0.4744  0.5776  0.0275
 9043SOL    HW138765   0.160   3.219   9.816 -0.6782  1.4871  2.6874
 9043SOL    HW238766   0.098   3.344   9.792  0.9037  0.6708 -0.7107
 9044SOL     OW38767   2.509   0.224   7.502 -0.0398  0.2804 -0.5898
 9044SOL    HW138768   2.558   0.207   7.582  0.7378 -0.2020 -1.1638
 9044SOL    HW238769   2.572   0.176   7.448  2.1188  1.3584  0.9642
 9045SOL     OW38770   4.296   0.915  16.044  0.3250  0.2782 -0.2240
 9045SOL    HW138771   4.367   0.935  15.983  1.3026  1.1602  1.1791
 9045SOL    HW238772   4.314   0.977  16.115 -2.7952 -0.0501  0.8536
 9046SOL     OW38773   3.945   3.877   6.850  0.1645  0.5253  0.3248
 9046SOL    HW138774   3.977   3.787   6.841 -0.5126  0.0749  2.3828
 9046SOL    HW238775   3.949   3.897   6.944 -0.7507  1.7748  0.0951
 9047SOL     OW38776   1.675   0.049   2.667 -0.0359  0.2315  0.0311
 9047SOL    HW138777   1.649   4.711   2.720  1.7335  0.4949  1.2739
 9047SOL    HW238778   1.677   4.737   2.585  0.4193 -0.3034  0.3601
 9048SOL     OW38779   3.970   0.349   7.301 -0.2187  0.3791 -0.2168
 9048SOL    HW138780   3.882   0.378   7.276 -0.1433  1.1207  0.3586
 9048SOL    HW238781   3.961   0.314   7.390 -0.1848 -1.1263 -0.8061
 9049SOL     OW38782   4.319   0.199  11.277 -0.4058  0.4171  0.1204
 9049SOL    HW138783   4.275   0.116  11.263  0.9332 -0.6209  1.9886
 9049SOL    HW238784   4.287   0.245  11.200 -1.3003 -0.6793 -0.1497
 9050SOL     OW38785   0.853   1.133   0.637 -0.1000 -0.1770 -0.6222
 9050SOL    HW138786   0.904   1.178   0.705 -0.4873 -1.6505  0.6264
 9050SOL    HW238787   0.892   1.155   0.552 -0.9303 -1.4933 -1.3420
 9051SOL     OW38788   2.151   3.238   3.343 -0.3276  0.2837 -0.4930
 9051SOL    HW138789   2.064   3.275   3.333 -0.9940 -1.7143 -1.9668
 9051SOL    HW238790   2.132   3.151   3.307  1.2588 -0.4857  0.4902
 9052SOL     OW38791   0.822   1.052   5.395  0.0106 -0.2530 -0.1581
 9052SOL    HW138792   0.745   1.074   5.448 -0.3787  0.3631 -0.9682
 9052SOL    HW238793   0.883   1.049   5.468 -0.5399 -2.1044  0.2084
 9053SOL     OW38794   0.264   2.013   8.180 -0.5544 -0.6886  0.2789
 9053SOL    HW138795   0.288   2.105   8.178  1.1402 -1.1125  1.4141
 9053SOL    HW238796   0.268   1.990   8.273 -2.4540  0.5159  0.6648
 9054SOL     OW38797   0.277   4.496  12.762 -0.1133  0.2289 -0.2994
 9054SOL    HW138798   0.255   4.513  12.854 -2.1360 -1.6199 -0.4309
 9054SOL    HW238799   0.373   4.494  12.764 -0.1317  1.4924  1.5353
 9055SOL     OW38800   3.461   3.492   3.189 -0.1498  0.0223 -0.0684
 9055SOL    HW138801   3.386   3.458   3.239 -0.1596 -1.6895 -1.2317
 9055SOL    HW238802   3.510   3.410   3.183  2.8002  1.7344  0.6796
 9056SOL     OW38803   0.366   0.278  14.415  0.2675 -0.2883 -0.2999
 9056SOL    HW138804   0.331   0.199  14.375  2.5951 -0.8286 -1.2936
 9056SOL    HW238805   0.366   0.337  14.339  3.2974  1.0770  0.7294
 9057SOL     OW38806   4.169   2.979   6.655  0.2122  0.3611  0.6571
 9057SOL    HW138807   4.167   2.944   6.566 -0.4399  2.2119 -0.0454
 9057SOL    HW238808   4.082   2.941   6.670  0.3062 -0.1144  0.0152
 9058SOL     OW38809   0.484   0.152   4.014 -0.4343 -0.2631  0.0345
 9058SOL    HW138810   0.400   0.136   4.057 -0.5001  0.3964  0.1519
 9058SOL    HW238811   0.536   0.083   4.054  0.6328  0.0201 -0.8786
 9059SOL     OW38812   2.900   2.833   7.513 -0.6746 -0.2462  0.1738
 9059SOL    HW138813   2.835   2.855   7.580 -0.1586 -0.0468  0.6078
 9059SOL    HW238814   2.973   2.862   7.568 -0.9302  2.3016 -0.8410
 9060SOL     OW38815   3.016   2.003   8.914  0.8080  0.0914  0.3840
 9060SOL    HW138816   3.025   1.911   8.890  1.4943  0.7838 -1.9414
 9060SOL    HW238817   3.061   2.035   8.836 -1.5697 -1.2974 -1.5438
 9061SOL     OW38818   0.965   4.117  11.557  0.7155  0.2648  0.3837
 9061SOL    HW138819   1.020   4.117  11.479  3.8643 -1.0456  2.6314
 9061SOL    HW238820   1.000   4.046  11.611 -1.8765  0.2599  2.0541
 9062SOL     OW38821   4.316   3.826   7.100  0.3691  0.5401 -0.4784
 9062SOL    HW138822   4.403   3.852   7.070 -0.4275  2.8593 -0.7115
 9062SOL    HW238823   4.318   3.742   7.054 -0.6194  0.4392 -0.3355
 9063SOL     OW38824   0.493   1.737   4.681  0.7564  0.7441 -0.3206
 9063SOL    HW138825   0.570   1.724   4.736 -1.0998 -0.9997  1.8594
 9063SOL    HW238826   0.448   1.654   4.698 -0.6200  1.5423 -0.0779
 9064SOL     OW38827   2.392   1.237   7.041  0.4561 -0.4018  0.2957
 9064SOL    HW138828   2.418   1.301   7.107  0.1245 -0.6659  0.6781
 9064SOL    HW238829   2.427   1.158   7.083 -0.7670  0.7954  3.5845
 9065SOL     OW38830   0.560   2.017   4.063 -0.1783  0.5376 -0.3018
 9065SOL    HW138831   0.484   2.051   4.016 -0.4311  2.3454  1.4104
 9065SOL    HW238832   0.629   2.035   4.000  1.1808 -2.1206  0.4434
 9066SOL     OW38833   2.054   1.662  13.672 -0.4588 -0.0094 -0.5052
 9066SOL    HW138834   1.982   1.693  13.617  0.8659 -1.0603 -2.8161
 9066SOL    HW238835   2.090   1.747  13.699  0.8074 -0.7589  0.1716
 9067SOL     OW38836   4.519   2.979   1.634  0.6019 -0.4442  0.3186
 9067SOL    HW138837   4.498   2.917   1.565 -1.0534 -1.5971  1.8582
 9067SOL    HW238838   4.586   2.931   1.684  0.9768  0.4501  0.6737
 9068SOL     OW38839   0.509   3.972   8.515  0.8047  0.3526  0.4460
 9068SOL    HW138840   0.499   3.892   8.462  2.7255  0.8758 -0.6971
 9068SOL    HW238841   0.438   3.949   8.575 -0.8850  2.7908 -0.6025
 9069SOL     OW38842   1.367   3.258  16.466  0.6512 -0.6152  0.6767
 9069SOL    HW138843   1.320   3.304  16.536  1.0050  1.4135 -0.4266
 9069SOL    HW238844   1.324   3.297  16.390  0.3463  1.4089  1.8741
 9070SOL     OW38845   2.208   1.774   6.318  0.8844  0.0166 -0.0571
 9070SOL    HW138846   2.288   1.809   6.279 -0.4417  1.3280 -1.6572
 9070SOL    HW238847   2.189   1.713   6.248  1.1441 -1.0431  0.8016
 9071SOL     OW38848   0.896   3.607   2.489  0.1618  0.0486  0.0509
 9071SOL    HW138849   0.896   3.511   2.496  1.9126 -0.0944 -2.0832
 9071SOL    HW238850   0.921   3.620   2.398 -1.1252 -3.0144 -0.7312
 9072SOL     OW38851   3.909   2.660  13.123 -0.1544 -0.4872 -0.4559
 9072SOL    HW138852   3.892   2.572  13.157  0.8465 -0.8646 -0.9215
 9072SOL    HW238853   3.852   2.665  13.046 -0.8418  2.5888  0.2651
 9073SOL     OW38854   4.465   0.646  16.093 -0.4036  0.2342 -0.2023
 9073SOL    HW138855   4.545   0.627  16.142 -0.6208 -0.1404  0.0053
 9073SOL    HW238856   4.401   0.677  16.158 -1.6423  0.3718 -1.4973
 9074SOL     OW38857   1.390   0.499   5.641 -0.1073  0.1907 -0.1551
 9074SOL    HW138858   1.474   0.496   5.596  0.0065  1.0464 -0.0059
 9074SOL    HW238859   1.373   0.405   5.639 -2.3522  0.5759  0.6762
 9075SOL     OW38860   0.441   0.067   6.747  0.4818 -0.2035 -0.0289
 9075SOL    HW138861   0.484   0.102   6.668 -1.4526 -3.4139 -2.5384
 9075SOL    HW238862   0.358   0.036   6.712 -0.5872  1.5307  0.9834
 9076SOL     OW38863   1.154   3.638   6.842 -0.5201 -0.4285 -0.8677
 9076SOL    HW138864   1.087   3.687   6.796  0.0154  0.0353 -1.1573
 9076SOL    HW238865   1.115   3.552   6.855 -2.0962  0.5441  0.8620
 9077SOL     OW38866   3.912   2.862  14.379  0.2135  0.1715  0.8782
 9077SOL    HW138867   3.952   2.932  14.432 -1.4071  1.2370  0.6830
 9077SOL    HW238868   3.972   2.847  14.306 -0.2756 -0.2091  0.5553
 9078SOL     OW38869   0.199   0.074   1.027  0.5123  0.3706  0.0348
 9078SOL    HW138870   0.294   0.067   1.040  0.6365 -0.4460 -1.3482
 9078SOL    HW238871   0.183   0.159   1.068 -0.9952  0.3966 -0.6255
 9079SOL     OW38872   3.355   0.877   4.847  0.3093 -0.1074 -0.0487
 9079SOL    HW138873   3.441   0.910   4.821  0.6576 -2.0448 -1.3033
 9079SOL    HW238874   3.355   0.907   4.938  1.3733  1.8062 -0.6702
 9080SOL     OW38875   4.242   1.266   5.796 -0.1056  0.4144 -0.2154
 9080SOL    HW138876   4.202   1.352   5.811 -2.4423 -0.3567 -1.9590
 9080SOL    HW238877   4.165   1.216   5.770  0.6766  0.1203 -1.9710
 9081SOL     OW38878   2.452   2.411   4.412 -0.0514 -0.0587  0.4862
 9081SOL    HW138879   2.482   2.496   4.444  0.3469  0.0513 -0.1762
 9081SOL    HW238880   2.368   2.406   4.458 -0.2904 -0.2764  0.0312
 9082SOL     OW38881   4.478   0.984   1.965 -0.4338  0.4635 -0.1410
 9082SOL    HW138882   4.473   1.074   1.998 -1.9552  0.2656  0.1889
 9082SOL    HW238883   4.514   0.943   2.044 -1.3854 -0.4653 -0.1737
 9083SOL     OW38884   3.102   3.307   9.712  0.2545  1.1771 -0.5869
 9083SOL    HW138885   3.026   3.364   9.703 -0.1667  0.7366  0.1254
 9083SOL    HW238886   3.113   3.307   9.807 -1.3337  1.9865 -0.4010
 9084SOL     OW38887   0.339   3.812  17.081  0.1295 -0.1281  0.2101
 9084SOL    HW138888   0.417   3.836  17.131  0.5274 -1.0668  0.0345
 9084SOL    HW238889   0.293   3.761  17.147  0.9609  1.9335  2.3921
 9085SOL     OW38890   1.279   3.656   3.808  0.0777 -0.1565 -0.5961
 9085SOL    HW138891   1.315   3.744   3.821 -1.1245  0.2539 -0.0893
 9085SOL    HW238892   1.192   3.677   3.841  0.4523  0.7724 -0.1829
 9086SOL     OW38893   4.392   1.066   7.678  0.2187  0.0701 -0.1850
 9086SOL    HW138894   4.317   1.022   7.639  0.2621  0.3838 -0.6183
 9086SOL    HW238895   4.450   0.992   7.699  1.1218  0.6888 -0.5050
 9087SOL     OW38896   0.542   2.913   2.747  0.0781  0.2601  0.0590
 9087SOL    HW138897   0.506   2.948   2.829 -1.8644 -0.3397 -0.5335
 9087SOL    HW238898   0.469   2.910   2.685 -0.2637 -0.1271  0.4764
 9088SOL     OW38899   0.938   3.386   5.459 -0.0588  0.2910 -0.0180
 9088SOL    HW138900   0.960   3.467   5.506  1.8508  0.8918 -1.8875
 9088SOL    HW238901   0.845   3.408   5.465 -0.1600 -0.3709  0.8498
 9089SOL     OW38902   0.465   1.445   4.706 -0.5811  0.0949  0.2587
 9089SOL    HW138903   0.422   1.402   4.632 -0.2654 -1.1541  0.7832
 9089SOL    HW238904   0.457   1.372   4.767  2.3705  0.2418  0.8392
 9090SOL     OW38905   1.250   2.064  10.455 -0.0264 -0.4646 -0.6805
 9090SOL    HW138906   1.161   2.099  10.458  0.7856  1.4960  0.2811
 9090SOL    HW238907   1.298   2.131  10.504 -1.5931  0.6664 -0.6823
 9091SOL     OW38908   4.703   3.779   0.658 -0.5457  0.1349 -0.1924
 9091SOL    HW138909   0.012   3.702   0.625 -2.2562 -0.5359 -1.0617
 9091SOL    HW238910   4.617   3.744   0.680 -0.5211 -0.1892 -0.6130
 9092SOL     OW38911   1.491   2.225   7.269  0.1842  0.6368 -0.7438
 9092SOL    HW138912   1.423   2.191   7.212 -1.2298  2.8421 -0.3791
 9092SOL    HW238913   1.440   2.285   7.325  0.7848 -1.4066  1.9729
 9093SOL     OW38914   1.949   1.446   7.522 -0.0579 -0.4720 -0.1967
 9093SOL    HW138915   2.010   1.460   7.449  0.4619 -2.3518 -0.1208
 9093SOL    HW238916   1.895   1.522   7.503  0.5725  0.4635  1.7941
 9094SOL     OW38917   2.526   3.793   3.639  0.3232 -0.3994 -0.1853
 9094SOL    HW138918   2.452   3.733   3.650  2.9414 -3.8292 -1.4077
 9094SOL    HW238919   2.599   3.735   3.618 -0.7816 -2.0907  0.6408
 9095SOL     OW38920   1.883   4.455  11.510  0.1079  0.2851 -0.2391
 9095SOL    HW138921   1.878   4.447  11.606 -0.1850 -0.1728 -0.2930
 9095SOL    HW238922   1.837   4.382  11.469 -0.4050  0.5755 -0.1763
 9096SOL     OW38923   1.735   2.024   4.652  0.0985 -0.1806  0.0771
 9096SOL    HW138924   1.693   2.057   4.572 -0.5000  0.7064  0.7547
 9096SOL    HW238925   1.684   1.946   4.675 -0.7343  0.5548  0.7040
 9097SOL     OW38926   2.261   3.937   1.181  0.4064  0.4605  0.1688
 9097SOL    HW138927   2.345   3.981   1.190 -0.1480  1.5680 -0.0191
 9097SOL    HW238928   2.281   3.856   1.133  0.2630 -0.1739  1.1840
 9098SOL     OW38929   4.029   2.954   7.532 -0.1648 -0.0563 -0.7015
 9098SOL    HW138930   4.009   3.041   7.499 -0.3470  0.1323 -0.0830
 9098SOL    HW238931   4.107   2.938   7.479 -0.3866 -1.5081 -0.5976
 9099SOL     OW38932   0.577   4.485   2.331 -0.2770 -0.0786 -0.2405
 9099SOL    HW138933   0.663   4.503   2.294 -1.6314  0.9278 -2.9627
 9099SOL    HW238934   0.563   4.392   2.314  2.7101 -0.4038 -0.8281
 9100SOL     OW38935   3.739   0.519   3.438  0.8511 -0.8437 -0.2297
 9100SOL    HW138936   3.677   0.562   3.497 -0.3693  0.0456 -2.1463
 9100SOL    HW238937   3.809   0.509   3.502 -1.1564  0.2120  2.1123
 9101SOL     OW38938   2.274   3.113  14.926 -0.5109 -1.0245  0.1025
 9101SOL    HW138939   2.178   3.113  14.927 -0.5068 -0.1764  1.0789
 9101SOL    HW238940   2.295   3.022  14.904 -0.2049 -1.0816  0.6268
 9102SOL     OW38941   1.001   3.591   1.467  0.8272  0.3413  0.6184
 9102SOL    HW138942   0.938   3.609   1.536 -0.0395  0.1826 -0.1229
 9102SOL    HW238943   1.083   3.614   1.509  0.8070 -0.0306  0.8634
 9103SOL     OW38944   0.485   0.129   1.019  0.0990 -0.3589  0.5907
 9103SOL    HW138945   0.543   0.108   0.946  0.9145  0.4772  0.9968
 9103SOL    HW238946   0.532   0.091   1.094 -1.1098 -0.4258  1.3065
 9104SOL     OW38947   3.613   3.153  17.665  0.1228  0.1159  0.0531
 9104SOL    HW138948   3.586   3.141  17.574 -1.9801 -0.5286  0.7578
 9104SOL    HW238949   3.702   3.120  17.674  0.3648  0.3485 -1.5760
 9105SOL     OW38950   2.225   2.473   5.666 -0.5482  0.1058  0.3285
 9105SOL    HW138951   2.140   2.431   5.656 -0.4213 -0.6264  2.3822
 9105SOL    HW238952   2.195   2.558   5.696 -2.2257 -0.9506  1.6268
 9106SOL     OW38953   1.389   3.328   2.379 -0.2008  0.2167  0.1924
 9106SOL    HW138954   1.464   3.382   2.355 -0.3919  0.7584  0.8135
 9106SOL    HW238955   1.417   3.238   2.361 -0.9216  0.7354 -3.6312
 9107SOL     OW38956   3.569   0.650   3.621 -0.5021 -0.5994 -0.1411
 9107SOL    HW138957   3.594   0.563   3.653  1.3455  0.4167  1.1488
 9107SOL    HW238958   3.501   0.668   3.687  0.6448  1.1053  0.5702
 9108SOL     OW38959   2.197   0.396   9.119  0.1005  0.2428  0.7325
 9108SOL    HW138960   2.254   0.397   9.196  0.5353 -0.2180  0.4119
 9108SOL    HW238961   2.110   0.388   9.158 -0.2382  2.3204  0.4053
 9109SOL     OW38962   3.053   1.102   1.784 -0.0963 -0.0137  0.2091
 9109SOL    HW138963   3.006   1.045   1.722  1.9544  0.4865 -1.8008
 9109SOL    HW238964   2.997   1.082   1.859 -1.0299  2.8115  0.2533
 9110SOL     OW38965   3.156   3.201   9.148  0.1657  0.2002  0.2785
 9110SOL    HW138966   3.207   3.169   9.222  0.6490  1.5281  0.5170
 9110SOL    HW238967   3.170   3.296   9.156 -0.7071  0.5811 -2.6456
 9111SOL     OW38968   3.953   4.594  16.472  0.8733 -0.1246 -0.1092
 9111SOL    HW138969   3.991   4.611  16.386  0.6307  1.1109  0.0275
 9111SOL    HW238970   3.873   4.645  16.463  0.9038  0.3150  2.0826
 9112SOL     OW38971   3.744   2.418   6.377  0.2035  0.0094  0.2338
 9112SOL    HW138972   3.805   2.351   6.346 -0.6097  0.7304 -2.9029
 9112SOL    HW238973   3.762   2.409   6.470 -1.8360  0.5643  0.6691
 9113SOL     OW38974   3.710   0.143  14.283  0.7131  0.0528 -0.3541
 9113SOL    HW138975   3.651   0.074  14.254  1.6174 -1.2987  0.9945
 9113SOL    HW238976   3.754   0.174  14.203 -0.8051  0.4845 -1.0095
 9114SOL     OW38977   2.925   0.129  15.710  0.4020  0.1799  0.0739
 9114SOL    HW138978   2.956   0.157  15.624 -2.9449 -2.6240 -2.0270
 9114SOL    HW238979   2.948   0.202  15.768  0.7550 -0.1690  0.3685
 9115SOL     OW38980   0.043   2.676   7.593  0.3136  0.1122  0.2583
 9115SOL    HW138981   0.040   2.635   7.507 -0.2838  0.3539  0.1570
 9115SOL    HW238982   0.133   2.667   7.624  0.0460 -0.2356  0.9402
 9116SOL     OW38983   2.850   1.521   5.653  0.4751 -0.0472 -0.4602
 9116SOL    HW138984   2.829   1.513   5.746  1.9061 -1.8273 -0.2957
 9116SOL    HW238985   2.872   1.614   5.647  0.3361  0.0046 -0.1478
 9117SOL     OW38986   3.289   2.974  12.690 -0.3959  0.6659 -0.2645
 9117SOL    HW138987   3.244   2.915  12.629 -2.1361 -1.1100  2.7390
 9117SOL    HW238988   3.344   2.911  12.735  0.4844  0.9864 -0.9035
 9118SOL     OW38989   0.987   0.623  15.738  0.3745 -0.2343  0.3264
 9118SOL    HW138990   1.037   0.554  15.783 -0.5196  0.3725  2.2487
 9118SOL    HW238991   0.956   0.578  15.659 -3.0425 -2.4693  2.9697
 9119SOL     OW38992   2.070   1.907   4.120 -0.3668  0.2913 -0.2881
 9119SOL    HW138993   2.014   1.981   4.098  0.3111  0.2764 -2.0503
 9119SOL    HW238994   2.059   1.850   4.044  2.4858  1.0283 -1.2363
 9120SOL     OW38995   2.683   2.916   8.966 -0.0946  0.3542  0.2127
 9120SOL    HW138996   2.657   2.945   8.878  2.0450  1.0890 -0.1539
 9120SOL    HW238997   2.631   2.984   9.007 -2.6686 -1.2310 -0.3795
 9121SOL     OW38998   1.234   1.378   7.833 -0.0651 -0.2260 -0.3724
 9121SOL    HW138999   1.321   1.363   7.797 -0.1933 -1.2257 -0.2845
 9121SOL    HW239000   1.185   1.322   7.773  0.7200  2.5348 -3.5614
 9122SOL     OW39001   0.305   2.209   7.539 -0.3686 -0.6199  0.2454
 9122SOL    HW139002   0.389   2.244   7.510 -0.8974  0.4327  0.0197
 9122SOL    HW239003   0.334   2.177   7.625 -0.2678 -0.0399  0.4269
 9123SOL     OW39004   2.724   1.338  13.667  0.7030  0.4448  0.6081
 9123SOL    HW139005   2.738   1.290  13.749 -2.0481 -1.7329 -0.1954
 9123SOL    HW239006   2.811   1.375  13.653  0.2602  0.9909 -0.6898
 9124SOL     OW39007   1.483   2.566   9.794 -0.4383  0.0652  0.1083
 9124SOL    HW139008   1.567   2.524   9.811 -0.3257  0.4587  0.5342
 9124SOL    HW239009   1.457   2.538   9.707 -0.5042 -2.0256  0.8150
 9125SOL     OW39010   4.427   2.511   4.965 -0.2788  0.8657  0.4273
 9125SOL    HW139011   4.457   2.595   4.933  1.7102 -0.0701 -0.1419
 9125SOL    HW239012   4.458   2.449   4.899 -1.2018  2.5420 -1.5674
 9126SOL     OW39013   4.035   3.045   3.666  0.0045 -0.2033  0.0812
 9126SOL    HW139014   4.101   3.112   3.683  0.1690 -0.3047 -0.1592
 9126SOL    HW239015   3.978   3.103   3.615  0.2516 -0.2165 -0.2127
 9127SOL     OW39016   2.902   0.121   8.386 -0.0855  0.5261 -0.7450
 9127SOL    HW139017   2.857   0.195   8.345 -0.4722  1.8762  2.1224
 9127SOL    HW239018   2.988   0.163   8.399 -0.0338  1.0063 -2.6724
 9128SOL     OW39019   2.791   1.966  13.759 -0.0199 -0.6801  0.0986
 9128SOL    HW139020   2.883   1.966  13.732 -0.3699  1.2811 -1.0539
 9128SOL    HW239021   2.789   2.025  13.834 -1.1401 -0.0073 -0.4657
 9129SOL     OW39022   4.304   3.303   2.724 -0.3211  0.1428 -0.4857
 9129SOL    HW139023   4.313   3.208   2.714  0.3632  0.1726 -0.1591
 9129SOL    HW239024   4.330   3.334   2.637 -0.2521 -1.7392 -1.1525
 9130SOL     OW39025   0.361   1.649  11.345  0.8782  0.2948 -1.0110
 9130SOL    HW139026   0.283   1.605  11.379  1.2069  0.4499 -0.0607
 9130SOL    HW239027   0.428   1.585  11.371  0.1869 -0.3982 -0.9342
 9131SOL     OW39028   0.030   0.019   4.761  0.1567 -0.0190  0.2035
 9131SOL    HW139029   4.737   4.674   4.723  0.3429  0.1334 -0.2809
 9131SOL    HW239030   0.125   0.007   4.762 -0.1133 -2.0870  0.7086
 9132SOL     OW39031   2.719   2.979   5.693 -0.0615  0.0310  0.4591
 9132SOL    HW139032   2.699   2.890   5.666  2.2095 -0.0637 -0.9368
 9132SOL    HW239033   2.689   3.031   5.618 -1.1447 -0.2546  0.6997
 9133SOL     OW39034   3.253   3.386  11.591  0.0329  0.1807  0.1122
 9133SOL    HW139035   3.345   3.391  11.614 -0.5449  1.8855  2.0283
 9133SOL    HW239036   3.226   3.327  11.662  0.4760 -2.7906 -2.1524
 9134SOL     OW39037   1.399   1.480  13.937 -0.0200  0.3529  0.5022
 9134SOL    HW139038   1.327   1.522  13.892 -0.7499  1.4121  2.6847
 9134SOL    HW239039   1.349   1.444  14.010  1.7532 -1.2788  0.9343
 9135SOL     OW39040   3.846   0.799   6.982  0.1340 -0.1386 -0.2186
 9135SOL    HW139041   3.865   0.710   6.955  0.3335  0.0010 -0.5478
 9135SOL    HW239042   3.911   0.809   7.052  0.7374 -2.0316 -0.5152
 9136SOL     OW39043   2.695   1.344   3.460 -0.2814 -0.0526 -0.9823
 9136SOL    HW139044   2.610   1.326   3.420 -1.1128 -0.7623  1.0686
 9136SOL    HW239045   2.749   1.321   3.384 -0.2530 -0.7261 -0.7547
 9137SOL     OW39046   3.992   1.208  13.566 -0.5250  0.2773  0.7731
 9137SOL    HW139047   4.033   1.292  13.547 -0.4594 -0.2485 -1.4340
 9137SOL    HW239048   4.061   1.152  13.602  2.0297  1.6869 -1.9876
 9138SOL     OW39049   1.947   2.120   7.469  0.3627  0.0949 -0.4041
 9138SOL    HW139050   2.038   2.144   7.486  0.2479  0.4357 -0.2852
 9138SOL    HW239051   1.958   2.085   7.381  2.5226  0.3562 -0.2452
 9139SOL     OW39052   1.372   0.145   2.932  0.4462 -0.1895 -0.4342
 9139SOL    HW139053   1.363   0.120   2.840  2.1185 -0.4408 -0.5309
 9139SOL    HW239054   1.312   0.219   2.933 -1.8334 -2.0152 -0.8380
 9140SOL     OW39055   3.619   3.914   3.062  0.2581  0.0576 -0.0786
 9140SOL    HW139056   3.582   3.991   3.019 -0.9707  0.9169  2.5021
 9140SOL    HW239057   3.679   3.955   3.125  3.3677 -0.6095 -2.6318
 9141SOL     OW39058   3.946   1.677   4.551 -0.0923 -0.3444  0.2225
 9141SOL    HW139059   3.985   1.630   4.625 -0.2974  1.0613  1.2266
 9141SOL    HW239060   4.005   1.751   4.536 -1.7199  1.4780  2.7809
 9142SOL     OW39061   0.589   0.976   9.022  1.1751 -0.1601  0.4369
 9142SOL    HW139062   0.625   1.045   9.078  2.3136  1.0285 -1.7627
 9142SOL    HW239063   0.523   0.929   9.073  1.1982 -1.1556 -0.4389
 9143SOL     OW39064   4.187   0.617  17.109 -0.0539  0.1503  0.1606
 9143SOL    HW139065   4.165   0.538  17.060  0.1621  0.2678 -0.1273
 9143SOL    HW239066   4.260   0.586  17.162 -1.3527 -2.2179  0.5625
 9144SOL     OW39067   1.122   0.937   0.585 -0.0779 -0.0126 -0.4238
 9144SOL    HW139068   1.096   1.000   0.518  1.6640 -0.6415 -1.6935
 9144SOL    HW239069   1.152   0.999   0.651  0.8588  1.4176 -2.1933
 9145SOL     OW39070   0.638   0.657   6.263  0.4064 -0.4507  0.5326
 9145SOL    HW139071   0.641   0.726   6.329  3.0759 -1.1476  1.1548
 9145SOL    HW239072   0.652   0.580   6.318 -0.4046 -2.1906 -1.6480
 9146SOL     OW39073   2.462   1.277  13.084 -0.5778 -0.0058  0.0382
 9146SOL    HW139074   2.455   1.348  13.020 -0.7484 -0.1350 -0.0824
 9146SOL    HW239075   2.441   1.204  13.027 -1.0519  1.7965 -2.1163
 9147SOL     OW39076   4.066   1.376  11.376  0.0723 -0.5147 -0.1986
 9147SOL    HW139077   4.066   1.468  11.405  1.3441 -0.7802  0.6153
 9147SOL    HW239078   3.998   1.348  11.438  0.4415  0.2831  0.5725
 9148SOL     OW39079   1.616   2.490   4.714 -0.3669  0.2530  0.2580
 9148SOL    HW139080   1.613   2.401   4.750  0.3638  0.1437  0.0572
 9148SOL    HW239081   1.532   2.523   4.744 -0.7139  1.9845 -2.6849
 9149SOL     OW39082   1.879   3.833  14.541 -0.4100 -0.9482  0.0610
 9149SOL    HW139083   1.862   3.749  14.500  0.6274 -1.2853  0.3167
 9149SOL    HW239084   1.885   3.886  14.461  2.0938  0.9595  1.5011
 9150SOL     OW39085   2.599   3.774   2.023 -0.4578 -0.2252 -0.2990
 9150SOL    HW139086   2.631   3.707   2.084  0.4558  0.2336 -0.2782
 9150SOL    HW239087   2.636   3.741   1.941 -2.6948 -0.9853 -1.0062
 9151SOL     OW39088   0.780   0.623   7.533 -0.4120  0.1087  0.3914
 9151SOL    HW139089   0.730   0.566   7.476  0.4518 -1.0582  0.8038
 9151SOL    HW239090   0.730   0.704   7.521 -1.7935 -0.9384 -0.7405
 9152SOL     OW39091   1.657   1.037   3.629  0.0774 -0.4065 -0.1763
 9152SOL    HW139092   1.679   0.949   3.659 -4.9542 -2.0924 -1.4347
 9152SOL    HW239093   1.634   1.024   3.537  0.0642 -0.1609 -0.2080
 9153SOL     OW39094   2.828   4.096   0.513 -0.3021 -0.5933  0.4644
 9153SOL    HW139095   2.820   4.052   0.429  1.2518  1.4906 -0.7568
 9153SOL    HW239096   2.786   4.177   0.484  0.2333 -0.9411 -1.2668
 9154SOL     OW39097   3.985   1.399   2.293  0.2763 -0.3279  0.0061
 9154SOL    HW139098   4.059   1.458   2.307  0.9219 -1.3114  0.7715
 9154SOL    HW239099   4.026   1.343   2.226  0.4269  1.0887 -1.1070
 9155SOL     OW39100   2.612   3.773   8.785 -0.3060  0.3571  0.1626
 9155SOL    HW139101   2.683   3.837   8.776  0.0818  0.0037  0.7426
 9155SOL    HW239102   2.658   3.689   8.789 -1.3772 -0.0770  3.0994
 9156SOL     OW39103   0.574   4.658   9.795  0.2464  0.4437 -0.0113
 9156SOL    HW139104   0.495   4.615   9.762  0.0940 -0.0059  0.9327
 9156SOL    HW239105   0.557   0.014   9.801  2.3179  0.8161  0.1216
 9157SOL     OW39106   4.490   1.186   9.962  0.3838  0.3051  0.5023
 9157SOL    HW139107   4.446   1.119  10.013 -0.7275  0.9908  0.4612
 9157SOL    HW239108   4.489   1.252  10.031  1.5358  0.0802  0.7192
 9158SOL     OW39109   0.706   3.457   9.739  0.7955  0.0849 -0.0062
 9158SOL    HW139110   0.660   3.431   9.819 -1.3766 -1.5417 -1.7896
 9158SOL    HW239111   0.638   3.461   9.672  1.2357 -0.8400 -0.5051
 9159SOL     OW39112   3.786   2.757  17.296 -0.3455 -0.2642 -0.3597
 9159SOL    HW139113   3.755   2.788  17.212  1.2921 -1.5142 -1.4282
 9159SOL    HW239114   3.709   2.707  17.326  1.7012 -2.0299  1.9636
 9160SOL     OW39115   2.472   4.712   7.170 -0.0605 -0.2903  0.0557
 9160SOL    HW139116   2.556   4.706   7.216 -0.2344 -0.9393  0.2833
 9160SOL    HW239117   2.449   0.062   7.202  0.2632  1.2422 -3.7973
 9161SOL     OW39118   0.215   1.035   2.452  0.2448  0.1827 -0.4250
 9161SOL    HW139119   0.189   1.007   2.539  0.6089  1.4957  0.1022
 9161SOL    HW239120   0.237   1.127   2.464  3.2870 -0.5951 -0.1202
 9162SOL     OW39121   1.399   0.829   7.917  0.4350  0.3291  0.1078
 9162SOL    HW139122   1.331   0.884   7.956 -0.1957  0.4050 -1.1288
 9162SOL    HW239123   1.463   0.828   7.989  0.9033  1.3675 -0.2909
 9163SOL     OW39124   3.267   0.160   3.949 -0.3616  0.1103 -0.1232
 9163SOL    HW139125   3.360   0.136   3.949 -0.3163  0.2704  0.8858
 9163SOL    HW239126   3.262   0.209   3.867  0.1241 -1.1099 -0.8858
 9164SOL     OW39127   2.331   1.578   9.006  0.3044  0.3820 -0.0973
 9164SOL    HW139128   2.309   1.559   9.097 -0.0460  0.1846 -0.2245
 9164SOL    HW239129   2.374   1.664   9.015 -0.1666  0.5492  0.5663
 9165SOL     OW39130   0.006   4.321  12.839  0.6507 -0.1667  0.2819
 9165SOL    HW139131   4.696   4.239  12.849 -3.1572  1.9239 -0.5363
 9165SOL    HW239132   4.715   4.345  12.751  0.9841 -2.3805 -0.4286
 9166SOL     OW39133   1.455   2.052  16.896 -0.1128  0.3847  0.4970
 9166SOL    HW139134   1.410   1.999  16.962 -2.2083  0.1227 -1.1558
 9166SOL    HW239135   1.418   2.015  16.817 -0.8164 -0.7623  1.3599
 9167SOL     OW39136   3.981   3.647  11.031  0.2041 -0.4363  0.5463
 9167SOL    HW139137   4.067   3.637  10.991 -1.3609 -1.4071 -2.5515
 9167SOL    HW239138   4.010   3.721  11.084 -0.0415 -0.5416  0.8295
 9168SOL     OW39139   2.458   3.274   4.720 -0.7021  0.3202 -0.0873
 9168SOL    HW139140   2.392   3.205   4.721  0.8916 -1.2305 -2.1397
 9168SOL    HW239141   2.459   3.290   4.815  1.4804  0.3009 -0.1196
 9169SOL     OW39142   1.565   2.565   2.996  0.2792  0.0800 -0.1325
 9169SOL    HW139143   1.617   2.561   3.076 -1.0118  2.9746  0.8479
 9169SOL    HW239144   1.603   2.488   2.954 -0.7502 -0.8489  0.6289
 9170SOL     OW39145   1.985   2.887   7.440 -0.4817 -0.3933  0.7636
 9170SOL    HW139146   1.968   2.802   7.479 -0.9339 -0.5615  0.2066
 9170SOL    HW239147   1.992   2.930   7.525 -2.2846 -0.6382  1.0519
 9171SOL     OW39148   4.411   2.514   2.791  0.3158  0.1465 -0.0424
 9171SOL    HW139149   4.484   2.568   2.822  1.2129 -0.0589 -1.7783
 9171SOL    HW239150   4.393   2.462   2.869 -0.4486  1.4536  0.6396
 9172SOL     OW39151   3.894   2.846   8.672 -0.0739 -0.2156  0.0026
 9172SOL    HW139152   3.988   2.862   8.686 -0.0419 -0.5134  0.1110
 9172SOL    HW239153   3.885   2.802   8.588 -1.2439  3.9426 -2.0610
 9173SOL     OW39154   2.785   3.473   6.262 -0.2232  0.1735 -1.0944
 9173SOL    HW139155   2.720   3.530   6.221 -0.3266  0.9634  0.1406
 9173SOL    HW239156   2.831   3.447   6.183 -0.9325 -2.7011 -0.5687
 9174SOL     OW39157   2.215   0.081   3.908  0.6512  0.1543 -0.1274
 9174SOL    HW139158   2.272   0.147   3.947 -0.6332  0.9553  0.3997
 9174SOL    HW239159   2.165   0.053   3.984 -0.0155 -1.7158 -1.2467
 9175SOL     OW39160   0.778   0.219   8.556 -0.2846  0.0198  0.0921
 9175SOL    HW139161   0.807   0.283   8.491  2.0535  0.4712  1.5636
 9175SOL    HW239162   0.778   0.272   8.636 -0.0016 -0.3024  0.3055
 9176SOL     OW39163   1.824   3.658   6.430 -0.0899  0.0257  0.1507
 9176SOL    HW139164   1.873   3.738   6.449  0.2771 -0.6005  1.7852
 9176SOL    HW239165   1.791   3.637   6.517 -0.6752 -2.4944 -0.6968
 9177SOL     OW39166   0.051   2.647  11.456  0.3632 -0.0924  0.1849
 9177SOL    HW139167   0.106   2.647  11.377  2.4341 -0.6281  1.6413
 9177SOL    HW239168   4.736   2.568  11.447  0.2379 -0.2434  2.3469
 9178SOL     OW39169   1.593   2.805   2.060 -0.2861  0.2020  0.1000
 9178SOL    HW139170   1.669   2.784   2.005 -0.5222  0.4359 -0.3066
 9178SOL    HW239171   1.616   2.895   2.082  0.4751  0.3073 -1.1164
 9179SOL     OW39172   1.379   1.151   6.937  0.2550 -0.4280 -0.4074
 9179SOL    HW139173   1.420   1.214   6.878 -1.5458  1.9356  0.8847
 9179SOL    HW239174   1.454   1.119   6.987 -0.3850  2.8079  2.5915
 9180SOL     OW39175   1.703   0.676  13.425 -0.0752 -0.1375 -0.2313
 9180SOL    HW139176   1.763   0.644  13.493  0.9752  1.5550 -0.3509
 9180SOL    HW239177   1.647   0.727  13.483  1.3899 -0.4293  1.4461
 9181SOL     OW39178   1.119   3.317   2.428  0.2733  0.5084  0.0718
 9181SOL    HW139179   1.124   3.231   2.385 -1.2827 -0.1681  1.2428
 9181SOL    HW239180   1.202   3.360   2.405 -0.1700  1.2900 -0.0500
 9182SOL     OW39181   3.582   0.723  17.488 -0.9391 -0.0965  0.2259
 9182SOL    HW139182   3.635   0.669  17.545 -0.3157 -1.4116 -1.5876
 9182SOL    HW239183   3.643   0.787  17.451 -0.2997  0.0224  1.5111
 9183SOL     OW39184   4.206   4.370  16.404 -0.2471  0.4425 -0.5643
 9183SOL    HW139185   4.260   4.382  16.482  0.3439  0.4791 -0.9767
 9183SOL    HW239186   4.266   4.364  16.330 -0.0409  1.1950 -0.4556
 9184SOL     OW39187   3.434   3.874   7.300  0.4724  0.2046  0.4972
 9184SOL    HW139188   3.507   3.916   7.345  0.1112  1.5611 -0.1911
 9184SOL    HW239189   3.462   3.783   7.300  1.2948  0.4552  0.6145
 9185SOL     OW39190   3.557   1.823  11.540  0.5677 -0.5877 -1.0219
 9185SOL    HW139191   3.603   1.849  11.620 -2.1385  0.2352  0.2784
 9185SOL    HW239192   3.484   1.884  11.550  0.0940 -1.3222 -0.0430
 9186SOL     OW39193   0.993   3.776   8.549 -0.2356  0.3914  0.7924
 9186SOL    HW139194   0.915   3.822   8.518 -3.5452 -4.9309  1.1549
 9186SOL    HW239195   1.034   3.766   8.464 -1.3549  1.0209  0.1846
 9187SOL     OW39196   1.733   2.371  12.113  0.3518  0.2647  0.0873
 9187SOL    HW139197   1.716   2.316  12.190 -1.2858 -0.5076 -0.8184
 9187SOL    HW239198   1.695   2.310  12.051  0.2527  1.8545 -1.4077
 9188SOL     OW39199   3.681   2.269   8.806 -0.1298 -0.3321 -0.3040
 9188SOL    HW139200   3.696   2.183   8.845  0.2366 -0.2077 -0.1744
 9188SOL    HW239201   3.592   2.282   8.838 -0.3884  1.2670 -1.6762
 9189SOL     OW39202   2.267   1.048   8.976 -0.0187 -0.6871  0.1371
 9189SOL    HW139203   2.296   1.119   8.918 -1.3539 -0.4503 -0.2268
 9189SOL    HW239204   2.222   1.093   9.048  0.7818 -0.1305  0.2973
 9190SOL     OW39205   2.489   3.593   8.572  0.2768 -0.3993 -0.1083
 9190SOL    HW139206   2.396   3.598   8.551  0.1901  1.2089  0.6534
 9190SOL    HW239207   2.506   3.672   8.623  2.1942 -1.3861  0.7811
 9191SOL     OW39208   0.751   1.980   9.908 -0.4317  0.2911 -0.1315
 9191SOL    HW139209   0.720   1.994   9.819  2.1992 -0.7041 -1.2092
 9191SOL    HW239210   0.846   1.988   9.913 -0.3036 -0.0025 -2.0365
 9192SOL     OW39211   2.787   0.571   8.136 -0.2368  0.5777 -0.3802
 9192SOL    HW139212   2.774   0.480   8.163  2.5571 -0.0510 -1.1356
 9192SOL    HW239213   2.854   0.601   8.198  0.3880  0.0474 -0.7905
 9193SOL     OW39214   1.300   1.138   5.527 -0.3677 -0.2168  0.0325
 9193SOL    HW139215   1.217   1.092   5.535  0.4090 -1.8757 -1.4595
 9193SOL    HW239216   1.353   1.085   5.587  0.0617  1.4915  1.1587
 9194SOL     OW39217   3.935   0.571  17.485 -0.2361  0.0241  0.3769
 9194SOL    HW139218   3.890   0.614  17.558 -0.5417 -2.3059  1.5690
 9194SOL    HW239219   3.899   0.483  17.482  0.9540 -0.4810  0.9537
 9195SOL     OW39220   0.788   1.266   5.861 -0.2279 -0.0565 -0.0086
 9195SOL    HW139221   0.784   1.267   5.956  1.3425  0.6772  0.0468
 9195SOL    HW239222   0.696   1.243   5.847 -0.4192  0.6042  0.1809
 9196SOL     OW39223   1.952   0.346   5.300 -0.3902  0.3330  0.7559
 9196SOL    HW139224   1.913   0.431   5.280  1.5296  1.2344  0.8784
 9196SOL    HW239225   2.037   0.376   5.331 -0.7116  1.4599  0.5503
 9197SOL     OW39226   0.866   3.286   4.889 -0.3436  0.2839  0.2320
 9197SOL    HW139227   0.832   3.209   4.844  0.4409 -0.0672  0.2484
 9197SOL    HW239228   0.887   3.343   4.816  1.0176  2.4855  2.3385
 9198SOL     OW39229   2.660   0.096  17.212 -1.1225 -0.1506  0.1188
 9198SOL    HW139230   2.651   0.135  17.125  2.2609 -1.8523 -1.0325
 9198SOL    HW239231   2.696   0.009  17.194 -1.4030 -0.2698  0.1314
 9199SOL     OW39232   3.028   3.879   4.737  0.7822  0.5897  0.3247
 9199SOL    HW139233   2.983   3.886   4.653 -0.9215 -0.0054  1.1897
 9199SOL    HW239234   2.987   3.794   4.753 -0.3052  0.9630 -0.4843
 9200SOL     OW39235   2.882   0.110   9.380 -0.8825  0.2417 -0.2674
 9200SOL    HW139236   2.909   0.124   9.471  0.0937 -1.0347 -0.3523
 9200SOL    HW239237   2.787   0.108   9.388 -0.8874 -0.9339 -0.5397
 9201SOL     OW39238   0.978   3.628   3.810  0.2610 -0.3782  0.3148
 9201SOL    HW139239   0.925   3.592   3.881  1.6553 -1.2947  0.9043
 9201SOL    HW239240   0.920   3.620   3.734 -0.3066  0.1481  0.7004
 9202SOL     OW39241   4.104   3.444   1.828  0.2355  0.5180 -0.0874
 9202SOL    HW139242   4.078   3.498   1.754 -0.5980  2.0900  1.3542
 9202SOL    HW239243   4.139   3.364   1.788 -0.7945  0.8745 -1.6679
 9203SOL     OW39244   1.335   3.316   6.400  0.4030  0.2286 -0.1380
 9203SOL    HW139245   1.255   3.323   6.349  0.3844  3.2658  0.3084
 9203SOL    HW239246   1.343   3.227   6.435  1.8782  0.3613 -0.1131
 9204SOL     OW39247   3.029   4.499   5.246 -0.2988 -0.6212  0.0983
 9204SOL    HW139248   3.014   4.493   5.341 -0.5667  1.9403  0.2249
 9204SOL    HW239249   3.076   4.580   5.229  0.3750 -0.7901  1.1897
 9205SOL     OW39250   3.152   0.001   5.211  0.2179 -0.7463  0.1035
 9205SOL    HW139251   3.173   0.028   5.121  0.0743 -0.1258  0.2533
 9205SOL    HW239252   3.071   0.048   5.231 -0.2770 -1.6118  0.1254
 9206SOL     OW39253   3.859   1.853   9.399 -0.3194 -0.0719  0.7438
 9206SOL    HW139254   3.772   1.891   9.413 -1.2985 -2.1151  0.0876
 9206SOL    HW239255   3.924   1.909   9.440 -0.4728  0.5321  0.1745
 9207SOL     OW39256   3.718   2.877   6.287  0.1448 -0.4166  0.7167
 9207SOL    HW139257   3.638   2.845   6.328 -0.7632 -2.1922 -2.4968
 9207SOL    HW239258   3.776   2.803   6.301  2.5684  0.8629 -2.5642
 9208SOL     OW39259   1.398   3.801   9.157 -0.2643  0.1140 -1.0141
 9208SOL    HW139260   1.375   3.852   9.234  1.4120 -0.0206 -0.4320
 9208SOL    HW239261   1.407   3.708   9.178 -0.2966  0.2094 -0.5916
 9209SOL     OW39262   1.836   1.060  16.497 -0.4665 -0.0609  0.3322
 9209SOL    HW139263   1.767   1.021  16.550 -1.7233  1.4293 -0.1929
 9209SOL    HW239264   1.792   1.141  16.469  0.0515 -0.7447 -2.4937
 9210SOL     OW39265   1.059   0.739   1.750  0.3344 -0.6284  0.0663
 9210SOL    HW139266   1.011   0.814   1.784  1.4313  0.0645  0.1042
 9210SOL    HW239267   1.019   0.663   1.793 -0.9468  0.0398  0.0460
 9211SOL     OW39268   3.251   0.576   4.347  0.2343  0.0783  0.0534
 9211SOL    HW139269   3.328   0.559   4.402  2.4559 -0.5838 -3.2361
 9211SOL    HW239270   3.262   0.526   4.266 -0.4488 -0.2143  0.1445
 9212SOL     OW39271   1.333   3.123   5.531  0.8796  0.1421 -0.3739
 9212SOL    HW139272   1.241   3.101   5.512  0.6962  0.1988  0.4531
 9212SOL    HW239273   1.376   3.111   5.447  1.6875  0.5646 -0.0204
 9213SOL     OW39274   1.789   2.957   5.727  0.6110 -0.2680 -0.2094
 9213SOL    HW139275   1.830   2.932   5.811  0.3801 -2.0983 -0.6391
 9213SOL    HW239276   1.778   2.871   5.687  1.0306 -1.0470  1.3160
 9214SOL     OW39277   0.309   4.356   7.429 -0.2321  0.0797  0.7600
 9214SOL    HW139278   0.332   4.285   7.488  1.3168  1.5521  1.9431
 9214SOL    HW239279   0.349   4.423   7.485 -2.9393  1.6121  0.8526
 9215SOL     OW39280   4.169   2.535   7.970 -0.1232  0.0290  0.1427
 9215SOL    HW139281   4.253   2.496   7.995  0.2151  0.4399 -0.3364
 9215SOL    HW239282   4.201   2.618   7.934 -1.2526  0.1713 -0.5318
 9216SOL     OW39283   2.235   2.369   2.206 -0.0459  0.0061  0.5310
 9216SOL    HW139284   2.271   2.341   2.122 -0.8804  0.4365  0.0302
 9216SOL    HW239285   2.316   2.379   2.256 -0.2138 -1.6740  1.1263
 9217SOL     OW39286   1.873   3.996   6.181 -0.1942 -0.7928 -0.1469
 9217SOL    HW139287   1.835   3.913   6.210 -2.6013 -0.2310 -1.6788
 9217SOL    HW239288   1.881   3.986   6.086 -1.7381 -2.6539 -0.0791
 9218SOL     OW39289   1.753   2.064   3.800  0.6735  0.5786  0.0883
 9218SOL    HW139290   1.735   1.970   3.790  0.1660  0.4125  2.5290
 9218SOL    HW239291   1.673   2.091   3.847  1.1194  0.4637  0.9166
 9219SOL     OW39292   1.643   0.535   2.430 -0.5401  0.1314  0.3102
 9219SOL    HW139293   1.658   0.470   2.499  3.0010  1.7873  1.0633
 9219SOL    HW239294   1.632   0.493   2.344  0.7372  1.0589 -0.2998
 9220SOL     OW39295   3.988   1.655   9.142  0.5112  0.0083  0.7157
 9220SOL    HW139296   3.927   1.723   9.171  0.5914  1.2221 -1.9099
 9220SOL    HW239297   3.923   1.591   9.113  0.4818 -0.2355  1.3234
 9221SOL     OW39298   4.609   0.531  12.238  0.3113 -0.2496  0.0302
 9221SOL    HW139299   4.678   0.518  12.303  2.4105  2.4794 -1.6262
 9221SOL    HW239300   4.539   0.560  12.296 -2.7296 -1.3950 -3.0479
 9222SOL     OW39301   0.491   1.652   3.743 -0.3766  0.0677 -0.3753
 9222SOL    HW139302   0.575   1.697   3.751 -1.6809  1.9585  2.6532
 9222SOL    HW239303   0.442   1.724   3.702  0.0260  1.0522  0.8645
 9223SOL     OW39304   0.295   3.269   6.213  0.7001  0.1174 -0.7886
 9223SOL    HW139305   0.305   3.227   6.298 -0.9654 -0.5319 -0.8928
 9223SOL    HW239306   0.346   3.213   6.154  1.2781 -2.3600  2.0365
 9224SOL     OW39307   4.061   1.577  10.375 -0.1979  0.1996  0.3460
 9224SOL    HW139308   4.152   1.585  10.348  0.1769 -2.7366  0.6860
 9224SOL    HW239309   4.010   1.557  10.296 -0.0537  1.3727 -0.0288
 9225SOL     OW39310   2.654   0.586   9.425  0.1477  0.2677 -0.0536
 9225SOL    HW139311   2.710   0.563   9.351 -0.3896 -1.7839  0.1740
 9225SOL    HW239312   2.723   0.616   9.483  0.7342  0.9001 -1.0698
 9226SOL     OW39313   1.670   0.160   2.297 -0.4206  0.3925  0.6440
 9226SOL    HW139314   1.762   0.184   2.310  0.4434 -2.1498 -0.7417
 9226SOL    HW239315   1.634   0.246   2.273  0.3430  1.0779  1.9439
 9227SOL     OW39316   1.620   3.278   6.150 -0.6232  0.2725  0.1255
 9227SOL    HW139317   1.530   3.266   6.121 -0.7407 -2.0182  1.4589
 9227SOL    HW239318   1.614   3.345   6.218 -0.4620 -1.1978  1.5894
 9228SOL     OW39319   4.656   2.146   5.820  0.0819 -0.1155  0.0461
 9228SOL    HW139320   4.612   2.067   5.788 -0.8688  1.0289 -1.4190
 9228SOL    HW239321   4.618   2.209   5.759  0.2130 -0.3129 -0.2397
 9229SOL     OW39322   4.313   1.987   5.155  0.2298 -0.1843  0.5965
 9229SOL    HW139323   4.334   1.924   5.224  3.6648 -0.3421 -0.6331
 9229SOL    HW239324   4.242   2.036   5.197 -1.8660 -1.4370 -1.4739
 9230SOL     OW39325   2.260   0.746   5.429  0.0279 -0.2052 -0.0722
 9230SOL    HW139326   2.314   0.805   5.481  0.8972 -0.4235 -0.7376
 9230SOL    HW239327   2.296   0.765   5.342  0.6564 -1.3728 -0.0660
 9231SOL     OW39328   0.793   3.946   4.209 -0.0359 -0.6930 -0.4873
 9231SOL    HW139329   0.837   4.013   4.156 -3.2637  1.4059 -0.4992
 9231SOL    HW239330   0.721   3.998   4.245  0.6370 -0.4135  0.4662
 9232SOL     OW39331   4.199   3.767  17.728  0.1962  0.3197 -0.0753
 9232SOL    HW139332   4.187   3.673  17.734  0.5499  0.1871 -1.3955
 9232SOL    HW239333   4.176   3.800   0.066  0.0405 -0.4729  0.1821
 9233SOL     OW39334   1.458   3.571  16.528 -0.9411  0.1435 -0.3319
 9233SOL    HW139335   1.502   3.639  16.579 -1.7200  0.5972 -0.2673
 9233SOL    HW239336   1.372   3.566  16.571 -0.5437 -1.4132  0.2725
 9234SOL     OW39337   2.177   0.950   7.596 -0.0892  0.0891 -0.2637
 9234SOL    HW139338   2.171   1.038   7.632 -1.1398 -0.1245  0.0631
 9234SOL    HW239339   2.200   0.970   7.505 -0.4389 -0.9137 -0.5683
 9235SOL     OW39340   0.098   0.770   2.198  0.8370  0.1474  0.9028
 9235SOL    HW139341   0.179   0.720   2.197  0.7866  0.0671  0.3083
 9235SOL    HW239342   0.119   0.857   2.165 -1.1531  0.4316  0.3438
 9236SOL     OW39343   3.288   1.615   5.098  0.4507  0.2432  0.4465
 9236SOL    HW139344   3.305   1.532   5.144 -0.2945 -0.0833  0.1241
 9236SOL    HW239345   3.376   1.651   5.091  1.3676 -1.8113  1.3000
 9237SOL     OW39346   0.854   3.180  14.351 -0.1500  0.0627 -0.5352
 9237SOL    HW139347   0.863   3.164  14.258 -2.8913 -1.5924 -0.5244
 9237SOL    HW239348   0.883   3.094  14.381 -1.5402 -0.3260 -0.3026
 9238SOL     OW39349   4.181   1.322  16.642  0.1090 -0.0648  0.0111
 9238SOL    HW139350   4.179   1.234  16.680 -0.1670 -0.2523 -0.4385
 9238SOL    HW239351   4.276   1.318  16.628 -0.2309  0.4726 -2.5414
 9239SOL     OW39352   0.227   3.930  10.391  0.1860 -0.2038  0.3075
 9239SOL    HW139353   0.162   3.860  10.397 -1.3139  1.2733  1.3134
 9239SOL    HW239354   0.300   3.895  10.442  1.3442 -0.5012 -1.5287
 9240SOL     OW39355   4.025   0.492   3.250  0.7130  0.1031 -0.3924
 9240SOL    HW139356   3.970   0.423   3.287 -1.5617  1.3626 -1.4142
 9240SOL    HW239357   4.069   0.518   3.331 -2.4615  1.2089  0.9650
 9241SOL     OW39358   3.678   4.468   4.378 -0.2701 -0.3304  0.3177
 9241SOL    HW139359   3.684   4.398   4.444  0.6690 -1.6864 -1.2133
 9241SOL    HW239360   3.586   4.448   4.365 -0.4833  1.5724 -1.0220
 9242SOL     OW39361   1.195   4.426   6.146 -0.8896 -0.4276  0.4315
 9242SOL    HW139362   1.165   4.453   6.233 -2.3006 -0.2455 -0.1190
 9242SOL    HW239363   1.157   4.496   6.092  1.6613  0.3723 -0.3506
 9243SOL     OW39364   3.880   0.591   8.029  0.5036 -0.3993  0.2376
 9243SOL    HW139365   3.837   0.507   8.019 -3.5808  1.5701  1.2696
 9243SOL    HW239366   3.868   0.596   8.124  2.0232 -1.8628  0.5088
 9244SOL     OW39367   1.393   1.368   8.526 -0.3485 -0.0232  0.6060
 9244SOL    HW139368   1.471   1.391   8.476 -0.3502  0.8082  0.9905
 9244SOL    HW239369   1.349   1.313   8.461 -0.4186  1.7924 -0.8969
 9245SOL     OW39370   3.287   1.914   1.318 -0.2319  0.0254  0.3408
 9245SOL    HW139371   3.362   1.956   1.277  0.7588 -0.4157  1.7098
 9245SOL    HW239372   3.213   1.960   1.278  0.8288  2.4515  1.1872
 9246SOL     OW39373   2.641   4.000   5.995 -0.4953  0.0986 -0.3572
 9246SOL    HW139374   2.574   4.045   6.047  0.6648  1.4789 -0.0619
 9246SOL    HW239375   2.716   4.059   6.006  1.0664 -1.9334 -0.0343
 9247SOL     OW39376   4.014   4.687   6.982 -0.9588  0.1194 -0.4286
 9247SOL    HW139377   4.053   0.009   7.045 -3.3695  3.0444 -1.7107
 9247SOL    HW239378   3.923   4.710   7.003 -0.8865 -0.0319  0.0446
 9248SOL     OW39379   1.344   2.511   8.870  0.0725  0.2740 -0.2812
 9248SOL    HW139380   1.299   2.511   8.954 -0.6954 -0.6444 -0.6809
 9248SOL    HW239381   1.404   2.585   8.877 -0.2961  0.5077  0.3574
 9249SOL     OW39382   3.001   2.779  16.844 -0.8682  0.6189 -0.0608
 9249SOL    HW139383   3.068   2.721  16.809 -1.2001  0.7872 -0.9705
 9249SOL    HW239384   3.020   2.767  16.937  2.6120 -1.3429 -1.0081
 9250SOL     OW39385   4.393   1.248  12.658 -0.2281 -0.4223  0.1007
 9250SOL    HW139386   4.371   1.254  12.751 -0.5401 -0.1215  0.0087
 9250SOL    HW239387   4.317   1.197  12.630 -0.7136 -0.7230  1.9894
 9251SOL     OW39388   3.456   2.819   8.264 -0.4203 -0.1181  0.2339
 9251SOL    HW139389   3.521   2.792   8.329 -1.2741 -3.4519 -0.2921
 9251SOL    HW239390   3.402   2.741   8.278  2.1684 -1.7436  1.1317
 9252SOL     OW39391   1.820   0.642  14.953 -0.5040  0.1557 -0.1909
 9252SOL    HW139392   1.794   0.698  15.027 -0.8124 -0.9815  0.5590
 9252SOL    HW239393   1.914   0.657  14.950 -0.4902  0.6139  2.0078
 9253SOL     OW39394   0.125   3.380   8.867 -0.5587 -0.2937 -0.0263
 9253SOL    HW139395   0.124   3.434   8.945  4.9930  0.9088 -0.7750
 9253SOL    HW239396   0.110   3.442   8.796  0.4884  1.2149  1.0763
 9254SOL     OW39397   0.036   3.587  12.259 -0.3751  0.6593 -0.2759
 9254SOL    HW139398   0.054   3.494  12.246 -1.4308  0.6121 -1.4460
 9254SOL    HW239399   0.120   3.625  12.235 -0.6485  1.3997 -0.0650
 9255SOL     OW39400   4.461   4.571   1.254 -0.1343 -0.3307  0.1061
 9255SOL    HW139401   4.434   4.564   1.162  0.9123  0.6217 -0.2735
 9255SOL    HW239402   4.488   4.662   1.266  0.8086 -0.8121  1.5469
 9256SOL     OW39403   0.012   3.025   1.380 -0.3242 -0.1622  0.0592
 9256SOL    HW139404   4.672   3.001   1.329 -0.4887 -1.1724  0.7846
 9256SOL    HW239405   4.715   3.110   1.407  2.2005  0.1493  2.2503
 9257SOL     OW39406   2.862   3.525  10.858 -0.2091  0.6312  0.6138
 9257SOL    HW139407   2.842   3.482  10.776 -0.7081 -0.2603  1.2078
 9257SOL    HW239408   2.805   3.601  10.845  1.3993  1.6503 -0.4330
 9258SOL     OW39409   0.395   1.743   5.838  0.1625 -0.1817  0.8860
 9258SOL    HW139410   0.325   1.685   5.807  0.1597 -0.5015  1.4952
 9258SOL    HW239411   0.370   1.818   5.785  0.3291 -1.5338 -1.1343
 9259SOL     OW39412   1.079   3.610   3.529 -0.6108  0.2090  0.5656
 9259SOL    HW139413   0.997   3.656   3.546 -1.0366 -0.3928  0.1288
 9259SOL    HW239414   1.118   3.629   3.615 -0.2363  0.6238  0.2998
 9260SOL     OW39415   3.540   4.377   9.499 -0.3912  0.3955 -0.4854
 9260SOL    HW139416   3.530   4.471   9.516 -0.5231  0.4205 -0.7068
 9260SOL    HW239417   3.506   4.339   9.580  0.9722  0.4534  0.1158
 9261SOL     OW39418   0.618   1.884   0.348 -0.5622  0.5461 -0.0453
 9261SOL    HW139419   0.708   1.860   0.370  0.0835  1.7959 -1.4050
 9261SOL    HW239420   0.569   1.853   0.424 -0.1261 -1.8122 -0.7303
 9262SOL     OW39421   3.947   4.644   3.572  0.0840 -0.0364 -0.8326
 9262SOL    HW139422   3.957   4.553   3.598 -0.4118 -0.7567 -3.1879
 9262SOL    HW239423   3.954   4.684   3.659  2.2972 -1.2221 -0.4828
 9263SOL     OW39424   3.136   2.339  12.498  0.0635  0.1636  0.0882
 9263SOL    HW139425   3.123   2.264  12.440 -3.6578  3.1146 -2.9504
 9263SOL    HW239426   3.190   2.312  12.572 -0.6996 -1.3490  0.0881
 9264SOL     OW39427   1.118   1.006  16.909  0.6293  0.1562  0.0689
 9264SOL    HW139428   1.089   0.974  16.823  2.4930  0.3277 -0.6352
 9264SOL    HW239429   1.109   1.100  16.897 -0.5581  0.3088  2.2982
 9265SOL     OW39430   1.985   4.193   0.028  0.0192  0.2775  0.1646
 9265SOL    HW139431   1.941   4.118  17.736 -1.0926  0.7809  0.4344
 9265SOL    HW239432   2.030   4.154   0.103  1.1608 -0.2619 -0.8117
 9266SOL     OW39433   0.758   1.756   3.718 -0.1468 -0.2419  0.2179
 9266SOL    HW139434   0.842   1.775   3.760 -0.7098  0.3684  1.0634
 9266SOL    HW239435   0.783   1.667   3.691  3.4075  1.2801 -1.5113
 9267SOL     OW39436   1.356   1.747   3.170 -0.5845  0.5863  0.3032
 9267SOL    HW139437   1.325   1.828   3.212 -1.6991  0.8832 -1.1051
 9267SOL    HW239438   1.331   1.774   3.082  0.3312 -2.8738 -0.9984
 9268SOL     OW39439   2.069   4.051   6.822 -0.1667 -0.1928  0.1678
 9268SOL    HW139440   2.102   4.101   6.896  1.3855 -2.4421  1.0006
 9268SOL    HW239441   2.038   4.127   6.774 -1.3109 -0.6374  0.2060
 9269SOL     OW39442   4.648   3.268  11.855 -0.2391 -0.5357  0.2108
 9269SOL    HW139443   4.673   3.360  11.859 -2.2161  0.0654 -1.3860
 9269SOL    HW239444   4.720   3.230  11.804 -1.3481 -2.2904 -0.0587
 9270SOL     OW39445   2.431   0.421  15.396  0.2981 -0.4891  0.0897
 9270SOL    HW139446   2.348   0.419  15.350 -0.1580 -0.0739  0.8918
 9270SOL    HW239447   2.489   0.473  15.339  0.7295  0.6280  1.5352
 9271SOL     OW39448   1.605   1.360  13.007  0.2006 -0.2992  0.3348
 9271SOL    HW139449   1.677   1.420  12.986  0.8351 -0.7282  1.2997
 9271SOL    HW239450   1.632   1.289  12.948  2.2862  1.1032 -0.4198
 9272SOL     OW39451   2.356   4.407   5.950 -0.0319 -0.9451  0.1028
 9272SOL    HW139452   2.308   4.367   6.022  0.0635 -0.1677  0.6016
 9272SOL    HW239453   2.326   4.352   5.878  2.1468 -0.2066 -1.3847
 9273SOL     OW39454   3.581   3.145   3.343  0.4784  0.3960 -0.3327
 9273SOL    HW139455   3.552   3.084   3.275 -0.7591  1.3384 -0.6650
 9273SOL    HW239456   3.511   3.207   3.322  2.1235  1.7945 -1.6508
 9274SOL     OW39457   3.739   2.163  10.822  0.2326 -0.9586  0.4393
 9274SOL    HW139458   3.773   2.123  10.742 -0.3634  0.1315 -0.3650
 9274SOL    HW239459   3.708   2.088  10.872 -1.7233  1.2126  2.4593
 9275SOL     OW39460   2.926   0.004   7.184  0.5342 -0.4525  0.1403
 9275SOL    HW139461   2.979   4.735   7.104  1.4893  1.0189  0.6783
 9275SOL    HW239462   2.997   0.007   7.247  0.2283  2.0817  0.3555
 9276SOL     OW39463   1.805   1.244   0.565  0.0157 -0.6983 -0.0438
 9276SOL    HW139464   1.801   1.232   0.660 -0.4386  1.7819  0.2420
 9276SOL    HW239465   1.875   1.308   0.564 -2.3802  1.9314  1.0729
 9277SOL     OW39466   2.935   1.832  11.449 -0.1793  0.4423  0.5999
 9277SOL    HW139467   2.965   1.848  11.539 -0.1051 -1.0222  0.8294
 9277SOL    HW239468   2.858   1.888  11.435  0.4710  0.2793 -3.5753
 9278SOL     OW39469   4.560   2.441   6.357 -0.2275 -0.6316  0.5951
 9278SOL    HW139470   4.651   2.418   6.336  0.4678  0.9605  1.8164
 9278SOL    HW239471   4.576   2.521   6.408  0.8364 -0.8741  0.6439
 9279SOL     OW39472   3.693   0.666   7.468 -0.1059  0.5167 -0.2488
 9279SOL    HW139473   3.673   0.572   7.476 -1.3468  0.6701 -1.5807
 9279SOL    HW239474   3.717   0.671   7.376  0.4771  0.6555 -0.0878
 9280SOL     OW39475   4.483   3.605  12.767  0.0619  0.6822 -0.6251
 9280SOL    HW139476   4.489   3.579  12.859 -1.4081  1.1494 -0.3889
 9280SOL    HW239477   4.553   3.551  12.732  1.5761  2.6243 -0.5846
 9281SOL     OW39478   3.787   0.268  14.613  0.3518  0.0116 -0.2538
 9281SOL    HW139479   3.795   0.358  14.582  0.0606  0.1223 -0.0096
 9281SOL    HW239480   3.698   0.249  14.585  0.0615  1.7801 -0.5245
 9282SOL     OW39481   3.111   3.161  10.194  0.7452 -0.0977 -0.4285
 9282SOL    HW139482   3.159   3.242  10.212 -0.5845  0.0628  2.4237
 9282SOL    HW239483   3.129   3.147  10.102  1.4512  0.7022 -0.4072
 9283SOL     OW39484   0.137   0.801  15.389  0.2148  0.2142  0.2657
 9283SOL    HW139485   0.118   0.833  15.477 -0.6478 -2.2285  0.9891
 9283SOL    HW239486   0.144   0.707  15.408 -0.5825  0.9471  4.0800
 9284SOL     OW39487   3.889   2.125   9.793 -0.0991  0.0155  1.1088
 9284SOL    HW139488   3.925   2.050   9.746  3.0507  2.3841 -0.3410
 9284SOL    HW239489   3.910   2.197   9.733 -0.1284  0.6360  1.8448
 9285SOL     OW39490   2.507   4.533  15.153  0.0669 -0.2137 -0.6151
 9285SOL    HW139491   2.482   4.625  15.144  0.4342 -0.1621 -1.1044
 9285SOL    HW239492   2.422   4.492  15.133 -0.2186  0.5557 -0.9738
 9286SOL     OW39493   0.718   4.106  15.900  0.1159  0.0234  0.8073
 9286SOL    HW139494   0.724   4.152  15.817 -1.3220  0.6788  1.0661
 9286SOL    HW239495   0.801   4.120  15.946  0.3732  1.0399  0.0164
 9287SOL     OW39496   1.515   1.191  10.998 -0.2094 -0.0800  0.4917
 9287SOL    HW139497   1.542   1.168  11.087  3.0159  2.2146  0.1188
 9287SOL    HW239498   1.600   1.176  10.955  0.3561  2.1983  0.7744
 9288SOL     OW39499   3.634   1.842   3.287  0.6240 -0.5796  0.1745
 9288SOL    HW139500   3.633   1.927   3.331  2.3995 -0.8935  0.8233
 9288SOL    HW239501   3.562   1.858   3.227 -0.6411 -1.2499  1.5052
 9289SOL     OW39502   3.599   1.697  12.620  0.0853  0.1225 -0.6069
 9289SOL    HW139503   3.564   1.697  12.531  0.8572  1.0623 -0.9120
 9289SOL    HW239504   3.546   1.754  12.674 -1.5125 -0.3449 -1.6768
 9290SOL     OW39505   4.224   3.509  15.206 -0.1925  0.1849  0.3559
 9290SOL    HW139506   4.293   3.554  15.158  1.1180  0.4826  2.5731
 9290SOL    HW239507   4.174   3.586  15.234 -1.3754 -0.2193 -0.5988
 9291SOL     OW39508   1.649   2.027   4.362 -0.1397  0.0334  0.3171
 9291SOL    HW139509   1.698   1.971   4.303  0.4117  1.6214 -0.7391
 9291SOL    HW239510   1.617   2.095   4.303 -1.1500 -1.5091 -0.8871
 9292SOL     OW39511   3.596   1.740   9.782  0.2419 -0.3813  0.7140
 9292SOL    HW139512   3.639   1.750   9.697  0.4449 -2.5339  0.5599
 9292SOL    HW239513   3.605   1.831   9.810  0.2623 -0.2128  0.1604
 9293SOL     OW39514   1.431   1.623   2.214 -0.2895 -0.4913 -0.3424
 9293SOL    HW139515   1.525   1.622   2.195  0.1425 -1.2388  1.8581
 9293SOL    HW239516   1.408   1.710   2.183  1.0911 -0.4762 -1.3635
 9294SOL     OW39517   2.005   2.887  10.118  0.5176  1.4638  0.1606
 9294SOL    HW139518   2.054   2.809  10.095 -0.5121  1.0802 -0.7380
 9294SOL    HW239519   1.956   2.910  10.039  1.0832  1.8419 -0.0854
 9295SOL     OW39520   0.221   3.118  12.915 -0.0440  0.1380  0.3144
 9295SOL    HW139521   0.241   3.146  13.005  0.4503 -1.2038  0.6284
 9295SOL    HW239522   0.127   3.103  12.915  0.0145 -0.2407  1.2085
 9296SOL     OW39523   2.548   0.362   4.326 -0.2764 -0.0015 -0.0409
 9296SOL    HW139524   2.633   0.402   4.342 -0.3190  0.5820 -1.2697
 9296SOL    HW239525   2.499   0.442   4.305  0.0467  0.8635  2.4679
 9297SOL     OW39526   2.502   3.830   2.784  0.2702 -0.3745  0.8193
 9297SOL    HW139527   2.596   3.814   2.790  0.1261 -1.4128  0.3832
 9297SOL    HW239528   2.504   3.924   2.767 -1.8432 -0.7802 -1.7847
 9298SOL     OW39529   2.770   2.947  16.785 -0.2103  0.6640  0.0493
 9298SOL    HW139530   2.820   3.002  16.725  0.8671  0.3022  0.6203
 9298SOL    HW239531   2.834   2.882  16.814  0.1737  1.4611  0.9810
 9299SOL     OW39532   1.643   4.571   2.453 -0.1703 -0.2178 -0.6672
 9299SOL    HW139533   1.558   4.534   2.429 -0.8681  0.8108  0.2294
 9299SOL    HW239534   1.673   4.600   2.367 -2.1328 -0.6555 -1.4955
 9300SOL     OW39535   2.410   3.807   9.105  0.1927 -0.2185  0.3080
 9300SOL    HW139536   2.472   3.872   9.139  0.0208 -0.2135  0.6138
 9300SOL    HW239537   2.390   3.842   9.018 -0.2744  0.9364  0.8838
 9301SOL     OW39538   2.180   2.930   3.588  0.6017  0.2311 -0.0182
 9301SOL    HW139539   2.247   2.942   3.656  0.5817  2.9052 -0.4372
 9301SOL    HW239540   2.113   2.987   3.626  1.5344  1.5137 -0.2849
 9302SOL     OW39541   3.303   1.609   4.184 -0.5686 -0.6176 -0.1354
 9302SOL    HW139542   3.257   1.693   4.188  0.8599  0.1350  0.6351
 9302SOL    HW239543   3.393   1.632   4.164 -0.6107 -0.0533  0.3197
 9303SOL     OW39544   4.716   1.086   9.543  0.5487  0.7146 -0.3567
 9303SOL    HW139545   4.717   1.024   9.615  2.7412 -0.5357 -1.4571
 9303SOL    HW239546   4.711   1.170   9.588 -1.3851  2.3868 -3.6609
 9304SOL     OW39547   3.290   3.781  11.749  0.0147 -0.5803 -0.1272
 9304SOL    HW139548   3.279   3.820  11.662  0.4362 -0.2804 -0.0499
 9304SOL    HW239549   3.382   3.757  11.758 -0.4324 -2.1934 -0.0291
 9305SOL     OW39550   1.352   2.599   2.841  0.0541  0.3859  0.4056
 9305SOL    HW139551   1.433   2.614   2.889  0.9833  0.7651 -1.2760
 9305SOL    HW239552   1.379   2.606   2.749 -1.2979 -1.1009 -0.1165
 9306SOL     OW39553   4.636   2.841  15.825  0.1976  0.0498  0.1901
 9306SOL    HW139554   4.603   2.824  15.737  0.6752 -1.6927  0.3596
 9306SOL    HW239555   4.615   2.769  15.884  0.1966 -0.6500 -0.6616
 9307SOL     OW39556   4.282   4.454   1.419  0.0489 -0.3312 -0.3528
 9307SOL    HW139557   4.342   4.524   1.392 -1.1184  0.7730 -0.1207
 9307SOL    HW239558   4.295   4.409   1.336  1.1994 -1.0977  0.2406
 9308SOL     OW39559   1.007   2.172   7.502  0.0460 -0.1223  0.1265
 9308SOL    HW139560   0.940   2.118   7.543  1.5694 -0.3347  2.2857
 9308SOL    HW239561   0.998   2.251   7.555 -0.2687  0.3663 -0.6414
 9309SOL     OW39562   1.124   3.753   6.239  0.1584  0.4751  0.0493
 9309SOL    HW139563   1.064   3.708   6.298  0.6258 -0.4910 -0.2067
 9309SOL    HW239564   1.179   3.681   6.206 -1.1076 -1.2717  1.7162
 9310SOL     OW39565   1.994   3.647   9.695 -0.2964  0.0521 -0.5331
 9310SOL    HW139566   2.060   3.621   9.631 -1.2291  0.1641 -1.5611
 9310SOL    HW239567   1.987   3.562   9.738 -0.5657  1.0330  1.3771
 9311SOL     OW39568   2.730   0.591   4.862  0.9406 -0.4351  0.5523
 9311SOL    HW139569   2.795   0.562   4.926  1.9367 -1.4155 -0.9025
 9311SOL    HW239570   2.665   0.521   4.868  1.6724 -0.9229  2.6395
 9312SOL     OW39571   0.387   4.186   9.949  0.1474  0.0972 -0.2175
 9312SOL    HW139572   0.409   4.191  10.042  0.5576  0.0829 -0.3127
 9312SOL    HW239573   0.324   4.115   9.944 -0.3610  0.5516 -0.2192
 9313SOL     OW39574   4.426   3.165  11.780 -0.0879  0.1373 -0.2766
 9313SOL    HW139575   4.512   3.188  11.815  0.4622 -1.5286 -0.4996
 9313SOL    HW239576   4.444   3.080  11.740 -0.9307 -0.3887  0.4710
 9314SOL     OW39577   2.701   2.718  12.368  0.0736 -0.5768  0.1707
 9314SOL    HW139578   2.732   2.782  12.432  0.0772  0.8506 -1.2724
 9314SOL    HW239579   2.767   2.744  12.304 -1.5384 -1.7908 -1.9651
 9315SOL     OW39580   0.328   4.055  12.912  0.0455 -0.0729 -0.6135
 9315SOL    HW139581   0.409   4.081  12.957 -1.0845  1.8619  0.3059
 9315SOL    HW239582   0.262   4.074  12.978  0.7408 -0.7585  0.2783
 9316SOL     OW39583   3.724   3.061   2.579  0.1014  0.0889 -0.0716
 9316SOL    HW139584   3.729   2.977   2.534 -1.9500  0.0227 -0.1816
 9316SOL    HW239585   3.731   3.117   2.502 -3.1407  1.7336  0.8143
 9317SOL     OW39586   2.652   2.529  10.187 -0.3671 -0.2723 -0.3608
 9317SOL    HW139587   2.645   2.467  10.260  0.6289 -0.3508 -0.3313
 9317SOL    HW239588   2.560   2.546  10.167 -0.1918  0.5114 -0.4926
 9318SOL     OW39589   1.111   4.667   8.128  0.0025  0.2287 -0.0172
 9318SOL    HW139590   1.047   4.619   8.181 -1.4287  2.6975  0.5168
 9318SOL    HW239591   1.144   4.597   8.071 -0.5574  0.0623 -0.1350
 9319SOL     OW39592   1.733   4.462   6.831  0.5208  0.0304  0.5272
 9319SOL    HW139593   1.723   4.368   6.816 -1.0074 -0.2173  3.1908
 9319SOL    HW239594   1.644   4.488   6.854  0.9889  1.0592  1.2107
 9320SOL     OW39595   2.321   1.140  12.489  0.6716 -0.3755  0.1374
 9320SOL    HW139596   2.295   1.165  12.578  0.4923  0.4694 -0.1535
 9320SOL    HW239597   2.257   1.185  12.434 -0.2311 -1.5342  0.2459
 9321SOL     OW39598   3.693   1.361   4.236  0.1229 -0.9147 -0.4787
 9321SOL    HW139599   3.698   1.265   4.241 -0.1577 -0.9778 -1.3876
 9321SOL    HW239600   3.758   1.389   4.301 -1.7512  0.7535  0.6745
 9322SOL     OW39601   1.498   3.800   5.172 -0.1776 -0.3906 -0.2929
 9322SOL    HW139602   1.459   3.799   5.085 -1.5929  0.6865  0.3244
 9322SOL    HW239603   1.446   3.870   5.211 -1.4975 -1.3971 -0.2399
 9323SOL     OW39604   0.260   2.491   0.338 -0.6177  0.0874 -0.3221
 9323SOL    HW139605   0.255   2.564   0.277  1.7600 -0.4772 -1.2006
 9323SOL    HW239606   0.169   2.485   0.367 -0.3679 -1.1084  0.2289
 9324SOL     OW39607   0.671   0.020   8.715  0.2157  0.2565  0.5173
 9324SOL    HW139608   0.704   0.091   8.660 -0.4831 -1.2844 -1.9345
 9324SOL    HW239609   0.716   4.680   8.680 -0.6817  0.3578 -0.8833
 9325SOL     OW39610   2.532   2.924   3.633  0.0651  0.0182 -1.3993
 9325SOL    HW139611   2.480   2.911   3.712 -0.1773 -0.0350 -1.5655
 9325SOL    HW239612   2.479   2.991   3.590  2.0825  2.0966 -0.6169
 9326SOL     OW39613   1.524   1.340   9.855  0.1801  0.1210  0.6938
 9326SOL    HW139614   1.430   1.347   9.839  0.2927  0.4561  0.1724
 9326SOL    HW239615   1.531   1.244   9.856 -1.1301 -0.0079 -1.3116
 9327SOL     OW39616   4.677   3.836   8.248 -0.0884  0.1474  0.2631
 9327SOL    HW139617   0.015   3.892   8.234 -0.5141 -0.1136 -3.1722
 9327SOL    HW239618   4.674   3.811   8.156  0.4758 -1.9899  0.8212
 9328SOL     OW39619   1.982   1.381  12.022  0.0524 -0.2150 -0.1037
 9328SOL    HW139620   1.907   1.438  12.043 -1.7629 -3.6710  2.7416
 9328SOL    HW239621   2.057   1.432  12.051 -0.1623  0.1901 -0.2543
 9329SOL     OW39622   0.211   3.103  16.933  0.3709 -0.5239  0.0654
 9329SOL    HW139623   0.156   3.045  16.986  0.0423 -0.6978 -0.4663
 9329SOL    HW239624   0.294   3.056  16.927  1.0860  0.7506 -0.1786
 9330SOL     OW39625   2.565   2.610   1.111  0.1095  0.3955  0.4568
 9330SOL    HW139626   2.570   2.595   1.206 -0.9271  0.4332  0.5198
 9330SOL    HW239627   2.561   2.705   1.105 -0.0897  0.2543 -1.7922
 9331SOL     OW39628   4.585   2.519  10.634  0.5213  0.4247 -0.6797
 9331SOL    HW139629   4.564   2.426  10.645  2.1700 -0.2652 -3.1953
 9331SOL    HW239630   4.508   2.567  10.664 -0.9588 -0.9712 -2.2335
 9332SOL     OW39631   1.730   4.633  13.084 -0.5241 -0.1853 -0.1752
 9332SOL    HW139632   1.787   4.569  13.127 -0.7489  0.9334  1.7893
 9332SOL    HW239633   1.796   4.696  13.056  0.2464 -1.8602 -2.1881
 9333SOL     OW39634   2.026   0.489   3.235 -0.1253  0.0205 -0.3411
 9333SOL    HW139635   2.000   0.580   3.222  0.5789  0.0582 -1.4801
 9333SOL    HW239636   1.959   0.439   3.189 -1.2642 -0.6578  2.0458
 9334SOL     OW39637   4.586   2.331   9.617 -0.3392 -0.2713  0.3087
 9334SOL    HW139638   4.511   2.294   9.664 -2.0241 -1.4118 -3.2754
 9334SOL    HW239639   4.547   2.376   9.542 -1.8847 -1.7166  0.2474
 9335SOL     OW39640   4.389   1.681   8.183  0.0785 -0.3661  1.1411
 9335SOL    HW139641   4.455   1.726   8.130 -0.2235  0.1339  1.1855
 9335SOL    HW239642   4.339   1.661   8.105  0.6539  1.1688  0.3722
 9336SOL     OW39643   0.672   2.901   5.103  0.5331 -0.4950 -0.3067
 9336SOL    HW139644   0.764   2.884   5.083  0.6983  2.7771 -2.3181
 9336SOL    HW239645   0.667   2.883   5.197 -0.9104 -0.6428 -0.4112
 9337SOL     OW39646   2.235   3.452   4.930 -0.7125  0.1664  0.9286
 9337SOL    HW139647   2.148   3.467   4.891  0.3123  0.1055 -1.3760
 9337SOL    HW239648   2.222   3.469   5.023 -2.5297  1.3086  0.4755
 9338SOL     OW39649   2.253   0.813   4.631 -0.0235 -0.2922  0.4908
 9338SOL    HW139650   2.257   0.732   4.681 -1.7028  0.0941  1.2585
 9338SOL    HW239651   2.222   0.875   4.697 -1.7644  0.0097 -0.6000
 9339SOL     OW39652   0.229   3.372  16.946  0.0096  0.5651 -0.0369
 9339SOL    HW139653   0.199   3.287  16.981 -0.2603  0.4913 -0.4527
 9339SOL    HW239654   0.147   3.420  16.942  0.9185  2.0013 -1.3558
 9340SOL     OW39655   3.278   0.497  12.537  0.4465 -0.0036 -0.7184
 9340SOL    HW139656   3.262   0.402  12.543  0.4091  0.0977  0.6891
 9340SOL    HW239657   3.352   0.506  12.478  2.5403 -1.9976  1.6200
 9341SOL     OW39658   4.385   2.623   9.527 -0.2811 -0.2379  0.3917
 9341SOL    HW139659   4.372   2.718   9.526  0.5387 -0.1262  0.1607
 9341SOL    HW239660   4.362   2.601   9.617 -0.0498 -0.3230  0.4307
 9342SOL     OW39661   1.106   3.170   4.472 -0.2333  0.0853 -0.2506
 9342SOL    HW139662   1.052   3.207   4.402 -1.9084 -2.0770 -0.0969
 9342SOL    HW239663   1.166   3.118   4.418  1.1584  1.4719 -0.0537
 9343SOL     OW39664   2.235   4.562   0.620 -0.0948  0.5751  0.0733
 9343SOL    HW139665   2.153   4.603   0.595 -1.1706 -2.0526 -0.6423
 9343SOL    HW239666   2.245   4.491   0.557 -1.1506  1.8382 -1.4983
 9344SOL     OW39667   2.458   0.411   9.294  0.3805  0.2449 -0.4599
 9344SOL    HW139668   2.533   0.466   9.315  0.1006 -0.0362  1.2580
 9344SOL    HW239669   2.493   0.387   9.208  1.2137  0.5037 -0.1860
 9345SOL     OW39670   2.574   2.768   8.037 -0.1147  0.0041  0.4938
 9345SOL    HW139671   2.509   2.835   8.018 -0.1740 -0.6219 -1.5003
 9345SOL    HW239672   2.548   2.731   8.121  1.0741  1.7368  1.6263
 9346SOL     OW39673   2.805   1.613   9.270 -0.4329  0.7553  0.1487
 9346SOL    HW139674   2.786   1.553   9.342 -0.6650 -1.2391 -1.5781
 9346SOL    HW239675   2.719   1.636   9.236 -0.7071  0.2526  0.5058
 9347SOL     OW39676   1.995   0.684   6.609  0.4770  0.1544  0.2703
 9347SOL    HW139677   1.993   0.589   6.600 -1.8255  0.2739 -0.3419
 9347SOL    HW239678   1.973   0.709   6.520 -2.9369 -0.7038  0.8645
 9348SOL     OW39679   3.434   4.387   1.468 -0.1772 -1.0605 -1.1236
 9348SOL    HW139680   3.487   4.371   1.546 -0.2692 -2.0890 -1.2771
 9348SOL    HW239681   3.497   4.447   1.428  1.6687 -0.5652  2.4901
 9349SOL     OW39682   2.612   0.073   9.426 -0.6178 -0.0778  0.6743
 9349SOL    HW139683   2.517   0.070   9.427 -0.6169 -0.2825 -1.8721
 9349SOL    HW239684   2.637   4.719   9.414  0.5123  0.2412  0.5728
 9350SOL     OW39685   2.218   0.166  16.570 -0.3633  0.2401  0.2015
 9350SOL    HW139686   2.218   0.218  16.490  2.3441 -1.3251 -0.8460
 9350SOL    HW239687   2.279   0.094  16.552 -1.4968 -0.5382 -0.5113
 9351SOL     OW39688   2.365   1.504  14.367 -0.4913 -0.4590 -0.2048
 9351SOL    HW139689   2.452   1.543  14.370 -0.8110  0.1416  1.4585
 9351SOL    HW239690   2.310   1.581  14.384  1.6979  0.9947  0.2613
 9352SOL     OW39691   2.125   1.144  10.716  0.3278 -0.2591 -0.5087
 9352SOL    HW139692   2.066   1.153  10.791  1.0543 -1.0102  0.1576
 9352SOL    HW239693   2.210   1.158  10.757 -0.0569 -0.2092  0.2902
 9353SOL     OW39694   0.828   1.236   8.615 -0.0536  0.1632 -0.6192
 9353SOL    HW139695   0.800   1.223   8.705  2.9806  1.3294  0.4868
 9353SOL    HW239696   0.898   1.173   8.599  0.6214  0.9024 -0.5667
 9354SOL     OW39697   1.513   1.137   3.385  0.4595  0.0727  0.3713
 9354SOL    HW139698   1.526   1.221   3.429 -0.2036 -0.1582  0.9973
 9354SOL    HW239699   1.420   1.145   3.361  0.8397 -1.1809 -1.5355
 9355SOL     OW39700   4.627   2.545   2.395 -1.1006 -0.0087  0.9420
 9355SOL    HW139701   4.637   2.600   2.472 -1.3182 -0.3312  1.1978
 9355SOL    HW239702   4.585   2.607   2.335  0.4479 -0.1850 -0.3350
 9356SOL     OW39703   1.349   4.512   2.858  0.1310  0.2257  0.1413
 9356SOL    HW139704   1.359   4.504   2.953  2.9069  0.9072 -0.1180
 9356SOL    HW239705   1.276   4.574   2.862 -1.1998 -1.2315 -1.2452
 9357SOL     OW39706   2.405   4.086   2.733  0.2719  0.3318  0.0570
 9357SOL    HW139707   2.340   4.046   2.674 -0.4912 -0.0966  1.1972
 9357SOL    HW239708   2.382   4.078   2.825 -3.6099  1.6187 -0.7810
 9358SOL     OW39709   3.182   1.796  17.233 -0.2475 -0.2792  0.5652
 9358SOL    HW139710   3.164   1.850  17.310  1.9728  0.7597  0.3513
 9358SOL    HW239711   3.234   1.843  17.168 -0.6695 -0.2187  0.2727
 9359SOL     OW39712   0.971   4.565   2.334 -0.4557 -0.3212  0.0656
 9359SOL    HW139713   1.019   4.509   2.396 -0.8664  1.5081  2.0377
 9359SOL    HW239714   0.903   4.599   2.391 -1.2427  1.3366 -1.8789
 9360SOL     OW39715   1.767   2.665   7.781  0.0012 -0.4298  0.2801
 9360SOL    HW139716   1.823   2.693   7.853 -1.7638  0.9087  1.1272
 9360SOL    HW239717   1.696   2.726   7.798  0.6249 -0.0791  1.5992
 9361SOL     OW39718   2.536   4.348   5.137  0.1382 -0.0975  0.0086
 9361SOL    HW139719   2.628   4.355   5.112  0.3492 -0.0050  0.8366
 9361SOL    HW239720   2.526   4.427   5.190  1.3355 -0.2132  0.4076
 9362SOL     OW39721   1.280   0.727   4.968  0.0152  0.0766  0.2151
 9362SOL    HW139722   1.327   0.762   5.043  2.6578 -0.3189 -1.2377
 9362SOL    HW239723   1.288   0.799   4.905 -4.2828  0.8464  0.5513
 9363SOL     OW39724   1.459   3.257   5.280  0.3317  0.0732  0.0960
 9363SOL    HW139725   1.427   3.320   5.344  0.9924  0.3000  0.2001
 9363SOL    HW239726   1.549   3.285   5.264  1.3529 -2.2069  1.8698
 9364SOL     OW39727   2.999   1.166  15.964  0.1338  1.2397 -0.1991
 9364SOL    HW139728   2.970   1.236  15.906 -0.5802 -0.2993 -1.7044
 9364SOL    HW239729   3.019   1.093  15.906 -4.9459 -0.7912  0.5914
 9365SOL     OW39730   4.249   0.092  16.260 -0.3468  0.2490  0.1751
 9365SOL    HW139731   4.252   0.175  16.212  1.0410 -1.0821 -2.0291
 9365SOL    HW239732   4.156   0.105  16.279 -0.5455 -2.0368  0.7854
 9366SOL     OW39733   0.332   2.961   8.071 -0.9878 -0.2150  0.5666
 9366SOL    HW139734   0.352   2.946   7.979  1.2349  0.2222  0.9747
 9366SOL    HW239735   0.419   2.968   8.112  0.4382  0.6950 -2.6328
 9367SOL     OW39736   2.286   3.436   8.361  0.1008 -0.2503 -0.0441
 9367SOL    HW139737   2.250   3.398   8.281 -0.3252 -1.9615  0.9558
 9367SOL    HW239738   2.234   3.395   8.430  0.6534 -1.9999 -0.6695
 9368SOL     OW39739   1.531   0.544   4.302 -0.3788 -0.7092 -0.2733
 9368SOL    HW139740   1.504   0.597   4.227 -1.0493 -0.3524  0.2253
 9368SOL    HW239741   1.546   0.459   4.260  0.5770 -0.0230 -1.3344
 9369SOL     OW39742   4.405   0.465   6.296 -0.6681 -0.2916 -0.2817
 9369SOL    HW139743   4.428   0.555   6.319  1.8868 -0.3699 -2.5993
 9369SOL    HW239744   4.386   0.477   6.203 -1.2527 -0.6028 -0.2053
 9370SOL     OW39745   0.130   0.763  11.516 -0.1483 -0.1132  0.1625
 9370SOL    HW139746   0.093   0.675  11.521  1.3093 -0.8227 -1.9300
 9370SOL    HW239747   0.185   0.751  11.594  2.8618  1.3999 -1.7631
 9371SOL     OW39748   1.383   0.256   0.151  0.1328  0.1203 -0.3695
 9371SOL    HW139749   1.462   0.238   0.202 -0.5936 -0.5566  0.4961
 9371SOL    HW239750   1.342   0.170   0.162  0.7742 -0.0499  0.6572
 9372SOL     OW39751   2.687   3.283   9.866 -0.4794  0.8012  0.0350
 9372SOL    HW139752   2.603   3.322   9.892 -0.6474 -0.5323  1.4455
 9372SOL    HW239753   2.662   3.208   9.812 -0.7435 -0.9058  2.5198
 9373SOL     OW39754   3.205   4.494   1.572 -0.8762 -0.0698  0.1199
 9373SOL    HW139755   3.259   4.507   1.650  0.7428  0.9626 -1.1746
 9373SOL    HW239756   3.255   4.433   1.518  2.0674  1.2329  1.4074
 9374SOL     OW39757   1.395   2.393   7.449 -0.7129 -0.0760  0.0051
 9374SOL    HW139758   1.477   2.406   7.497 -0.3172  0.0395 -0.6934
 9374SOL    HW239759   1.365   2.482   7.467  2.6939  1.2746 -0.9277
 9375SOL     OW39760   2.671   3.275  12.273  0.1695  0.8498  0.7155
 9375SOL    HW139761   2.661   3.190  12.317 -0.0505  1.0703  1.0959
 9375SOL    HW239762   2.765   3.287  12.279  0.3673 -0.7845  0.9309
 9376SOL     OW39763   3.499   0.077   8.458 -0.5171 -0.4221  0.0556
 9376SOL    HW139764   3.436   0.083   8.529  0.8394  2.1760  1.0447
 9376SOL    HW239765   3.447   0.104   8.382 -1.7133 -1.4842  0.5084
 9377SOL     OW39766   1.932   0.376   2.584 -0.1646  0.2069 -0.4445
 9377SOL    HW139767   1.961   0.467   2.590 -0.1301  0.1043  1.0212
 9377SOL    HW239768   2.011   0.338   2.623 -0.8971 -1.7592 -0.8568
 9378SOL     OW39769   4.154   1.111   2.430 -0.3104 -0.2586  0.1273
 9378SOL    HW139770   4.219   1.042   2.432 -0.2361 -0.1896  0.0793
 9378SOL    HW239771   4.077   1.063   2.399 -0.7439  0.2243  0.4530
 9379SOL     OW39772   3.146   0.928   6.032 -0.1248 -0.7248  0.0562
 9379SOL    HW139773   3.218   0.867   6.051 -3.1887 -4.5843 -0.8186
 9379SOL    HW239774   3.181   0.967   5.952 -1.3923  0.0933 -0.1025
 9380SOL     OW39775   2.145   2.764   5.390  0.0021 -0.2559 -0.2900
 9380SOL    HW139776   2.174   2.676   5.367 -2.1923 -1.0589  0.0499
 9380SOL    HW239777   2.233   2.795   5.414 -0.0804 -2.2881  2.7344
 9381SOL     OW39778   0.214   2.380  11.031 -0.2512  0.6944 -0.3721
 9381SOL    HW139779   0.155   2.455  11.026 -0.1457  0.6394 -2.4792
 9381SOL    HW239780   0.166   2.327  11.095  1.3410 -1.3001 -0.8198
 9382SOL     OW39781   1.996   1.501  17.625  0.6005 -0.2213  0.0035
 9382SOL    HW139782   1.968   1.426  17.678 -1.9063  1.1654  0.6285
 9382SOL    HW239783   2.068   1.459  17.579  1.1828  0.4763  0.2868
 9383SOL     OW39784   4.143   1.254   1.572 -0.0236 -0.2824  0.2523
 9383SOL    HW139785   4.203   1.196   1.526  0.2040 -0.6598  1.0178
 9383SOL    HW239786   4.064   1.241   1.520 -0.5931  0.5269  0.9307
 9384SOL     OW39787   0.680   0.167   7.860  0.0925  0.3419 -0.2246
 9384SOL    HW139788   0.717   0.166   7.948 -0.7760 -0.1244  0.1324
 9384SOL    HW239789   0.717   0.089   7.818 -2.0715 -0.3704 -0.8112
 9385SOL     OW39790   0.714   3.549   8.327  0.2484  0.2275 -0.0899
 9385SOL    HW139791   0.748   3.632   8.295  1.5991 -0.7527 -1.2018
 9385SOL    HW239792   0.701   3.500   8.245  0.0751  0.2756 -0.0926
 9386SOL     OW39793   1.226   4.592  12.957  0.3443  0.8699  0.7217
 9386SOL    HW139794   1.173   4.609  12.879  2.2960  0.6806 -0.6659
 9386SOL    HW239795   1.314   4.627  12.941  0.6086  0.5315  1.4591
 9387SOL     OW39796   1.738   0.541   1.749 -0.6904  0.2618  0.1048
 9387SOL    HW139797   1.790   0.520   1.827  0.3638  1.9994 -0.1242
 9387SOL    HW239798   1.806   0.548   1.681 -0.2647  0.5420  0.5596
 9388SOL     OW39799   2.269   3.928   7.411  0.5271  0.3428  0.0464
 9388SOL    HW139800   2.199   3.970   7.361  0.6705 -1.1712 -1.4045
 9388SOL    HW239801   2.284   4.000   7.473  0.1742 -1.2136  1.9477
 9389SOL     OW39802   2.626   4.650  10.596 -0.7033  0.2720 -0.4386
 9389SOL    HW139803   2.695   4.660  10.662  0.9398 -3.2651 -1.5736
 9389SOL    HW239804   2.567   4.589  10.641 -0.3021  0.5335  0.4409
 9390SOL     OW39805   2.367   3.413   0.838  0.1041  0.0264  0.5404
 9390SOL    HW139806   2.345   3.446   0.751 -1.4716 -1.2778  0.4512
 9390SOL    HW239807   2.282   3.371   0.851  0.9779 -1.7880  0.4283
 9391SOL     OW39808   2.480   3.322   9.620  0.1576 -0.0293  0.2966
 9391SOL    HW139809   2.425   3.371   9.560  0.3630 -0.0772  0.0692
 9391SOL    HW239810   2.450   3.234   9.596  1.5406 -0.2431 -0.6518
 9392SOL     OW39811   1.873   1.221   5.091  0.3383  0.0689  0.2528
 9392SOL    HW139812   1.967   1.233   5.080  0.2737  0.5598  0.2443
 9392SOL    HW239813   1.876   1.150   5.155 -0.7651  0.4021  0.6677
 9393SOL     OW39814   0.781   3.824   2.907  0.3128  0.0975 -0.0028
 9393SOL    HW139815   0.746   3.817   2.818  1.3725 -1.4861 -0.3047
 9393SOL    HW239816   0.870   3.847   2.881  0.9314 -1.2520  0.9461
 9394SOL     OW39817   4.258   0.867   2.143 -0.4106  0.4059 -0.2303
 9394SOL    HW139818   4.286   0.776   2.138 -3.7204 -0.7153  1.1842
 9394SOL    HW239819   4.339   0.908   2.171  1.9628 -3.0165 -2.1220
 9395SOL     OW39820   2.884   0.105  15.032 -0.3208  0.6042 -0.2281
 9395SOL    HW139821   2.828   0.155  14.973 -0.2482  0.4984 -0.3864
 9395SOL    HW239822   2.911   0.031  14.977 -3.0108 -0.7657  0.2455
 9396SOL     OW39823   2.332   2.509  14.215 -0.1467  0.1269 -0.7057
 9396SOL    HW139824   2.294   2.554  14.290  1.1939  1.0706 -0.5813
 9396SOL    HW239825   2.249   2.482  14.176  1.5055 -2.5078 -2.4354
 9397SOL     OW39826   3.853   2.474  17.482 -0.0511 -0.4024 -0.7822
 9397SOL    HW139827   3.948   2.474  17.472 -0.0145 -3.8676 -0.5852
 9397SOL    HW239828   3.830   2.468  17.389  0.5968  0.8661 -1.0186
 9398SOL     OW39829   1.568   1.425  15.001  0.0069  0.6418  0.3247
 9398SOL    HW139830   1.534   1.378  14.925  0.7505 -1.3947  1.2502
 9398SOL    HW239831   1.489   1.466  15.037  0.0588  0.8451  0.2054
 9399SOL     OW39832   1.964   0.534  13.953 -0.5888  0.3753 -0.7722
 9399SOL    HW139833   1.963   0.625  13.982  0.7009  0.1463 -0.0033
 9399SOL    HW239834   1.880   0.507  13.989 -1.3029  1.2336 -1.7796
 9400SOL     OW39835   1.088   0.227   5.923  0.1907 -0.1729 -0.2113
 9400SOL    HW139836   1.073   0.193   5.835  0.4285 -0.6708 -0.0589
 9400SOL    HW239837   1.046   0.312   5.931 -1.9799 -1.1579 -0.9714
 9401SOL     OW39838   4.400   3.711   9.661  0.0306 -0.5079 -0.1194
 9401SOL    HW139839   4.417   3.805   9.662 -1.9027 -0.1769  2.0480
 9401SOL    HW239840   4.323   3.705   9.717 -0.9259  2.1362 -1.1767
 9402SOL     OW39841   1.340   0.134   2.666 -0.4234 -0.1295 -0.3606
 9402SOL    HW139842   1.386   0.112   2.585  1.2178  0.8918  0.2913
 9402SOL    HW239843   1.274   0.195   2.636 -0.8296 -0.0352  0.7122
 9403SOL     OW39844   0.970   1.352  10.881  0.0097 -0.1401 -0.0981
 9403SOL    HW139845   0.984   1.412  10.954 -2.0963 -0.3525  0.4971
 9403SOL    HW239846   1.050   1.371  10.832 -0.3914  1.6091 -0.0642
 9404SOL     OW39847   4.690   2.671   6.066 -0.2430  0.0810 -0.4120
 9404SOL    HW139848   4.609   2.619   6.062 -0.0974 -0.1481 -0.4120
 9404SOL    HW239849   4.661   2.758   6.040  0.6592  0.5810  0.2622
 9405SOL     OW39850   1.289   0.508   4.824 -0.0958  0.4535  0.2987
 9405SOL    HW139851   1.373   0.531   4.783  0.4023  0.5877  1.4029
 9405SOL    HW239852   1.284   0.573   4.894 -0.4369 -1.3739  1.9750
 9406SOL     OW39853   1.233   3.957  14.470 -0.1889 -0.4591  0.0387
 9406SOL    HW139854   1.191   3.884  14.515  0.7816 -1.3084 -0.4211
 9406SOL    HW239855   1.324   3.929  14.459 -0.2566 -0.0552 -1.6560
 9407SOL     OW39856   3.076   4.503   2.434  0.4916  0.0821 -0.3539
 9407SOL    HW139857   3.054   4.589   2.398 -0.4709 -0.6916 -1.6217
 9407SOL    HW239858   3.023   4.500   2.514 -0.5272  0.5667 -1.0170
 9408SOL     OW39859   4.447   2.530  12.147 -0.5384  0.0813 -0.1734
 9408SOL    HW139860   4.510   2.464  12.177  0.7012  0.7308 -1.3322
 9408SOL    HW239861   4.408   2.555  12.230 -2.8868  0.9304 -1.5110
 9409SOL     OW39862   2.303   0.378  10.887  0.0355  0.3419  0.1708
 9409SOL    HW139863   2.336   0.458  10.846 -0.9654 -0.0983 -1.4910
 9409SOL    HW239864   2.361   0.372  10.962 -2.1330 -0.5608  1.7460
 9410SOL     OW39865   3.211   1.692   0.884  0.1284 -0.3198 -0.4095
 9410SOL    HW139866   3.188   1.785   0.874  0.0232 -0.1918  1.0538
 9410SOL    HW239867   3.304   1.696   0.908  0.7735  0.7544 -3.0464
 9411SOL     OW39868   4.037   0.978   3.005 -0.2406 -0.4298 -0.1463
 9411SOL    HW139869   3.997   0.923   3.073  2.2591  0.9918  2.4773
 9411SOL    HW239870   3.985   1.058   3.001 -0.1411 -0.2700  2.0283
 9412SOL     OW39871   0.886   0.893   5.089 -0.6331 -0.0516 -0.0812
 9412SOL    HW139872   0.813   0.949   5.115 -0.0751 -0.3095  2.0478
 9412SOL    HW239873   0.963   0.948   5.079 -0.4553 -0.1045  0.9913
 9413SOL     OW39874   4.007   2.978   2.695 -0.1476  0.1777  0.8017
 9413SOL    HW139875   4.091   3.022   2.710  1.3965 -1.4870 -2.9816
 9413SOL    HW239876   3.952   3.053   2.672 -0.1697 -0.3765 -0.9257
 9414SOL     OW39877   2.328   4.569   2.520  0.1923  0.0654  0.2311
 9414SOL    HW139878   2.252   4.525   2.559  0.3206  0.2530  0.6848
 9414SOL    HW239879   2.395   4.540   2.581 -1.1044 -0.0240  1.6061
 9415SOL     OW39880   0.006   3.109   7.366 -0.4276 -0.2956 -0.5894
 9415SOL    HW139881   0.100   3.126   7.359 -0.6853  1.3464  0.1027
 9415SOL    HW239882   0.005   3.122   7.461 -0.7276  1.5017 -0.8402
 9416SOL     OW39883   2.038   4.407  14.759 -0.0240 -0.7507 -0.0973
 9416SOL    HW139884   1.949   4.381  14.734 -0.7985  0.5992  1.2308
 9416SOL    HW239885   2.040   4.395  14.854 -0.1678 -1.0596 -0.1330
 9417SOL     OW39886   1.631   0.538   5.530  0.0494  0.4638 -0.2298
 9417SOL    HW139887   1.677   0.455   5.545 -1.1559 -0.2270 -0.3708
 9417SOL    HW239888   1.643   0.547   5.435 -0.6548 -0.0779 -0.3700
 9418SOL     OW39889   3.269   1.960   6.013 -0.4560  0.0800 -0.4451
 9418SOL    HW139890   3.248   2.020   5.941  1.9563  0.5207 -0.7517
 9418SOL    HW239891   3.234   1.883   5.968  1.0233 -0.9004  0.1190
 9419SOL     OW39892   1.267   4.399  11.598  0.3162 -0.2758  0.3659
 9419SOL    HW139893   1.317   4.319  11.584 -0.9339 -0.6482 -1.9085
 9419SOL    HW239894   1.292   4.419  11.688 -1.7065 -1.1692  1.1230
 9420SOL     OW39895   2.168   2.994   6.594 -0.1836 -0.3142  0.0008
 9420SOL    HW139896   2.234   3.033   6.537  0.8002  0.0581  1.4129
 9420SOL    HW239897   2.087   2.992   6.543  1.5684  1.9086 -2.8513
 9421SOL     OW39898   0.975   2.330  10.476  0.5821  0.7124 -0.2332
 9421SOL    HW139899   0.916   2.278  10.530 -1.3919  1.2537 -1.8410
 9421SOL    HW239900   1.036   2.356  10.544 -1.5041  2.2488  1.0644
 9422SOL     OW39901   3.019   1.968  13.498  0.3785 -0.1866  0.7623
 9422SOL    HW139902   3.052   2.057  13.510  0.2214  0.0050 -0.2305
 9422SOL    HW239903   3.061   1.938  13.417 -2.4604  0.1718 -0.8556
 9423SOL     OW39904   3.365   0.429   8.317 -0.1625  0.3426 -0.2215
 9423SOL    HW139905   3.276   0.460   8.333 -0.4071  0.3512 -1.5994
 9423SOL    HW239906   3.417   0.508   8.305  2.4897 -1.0522  2.1934
 9424SOL     OW39907   2.962   0.387   9.011  0.1066 -0.4194  0.0565
 9424SOL    HW139908   2.965   0.298   9.044 -1.4468 -0.5809 -0.2225
 9424SOL    HW239909   2.926   0.432   9.087  0.6931 -1.4644  0.9488
 9425SOL     OW39910   1.920   2.679   5.179 -0.5415  0.1433 -0.2592
 9425SOL    HW139911   1.825   2.694   5.171 -0.7412 -1.5652 -1.0250
 9425SOL    HW239912   1.950   2.758   5.224 -0.5170 -0.2566  0.4314
 9426SOL     OW39913   0.803   1.398   5.251 -0.1213  0.2606 -0.3802
 9426SOL    HW139914   0.710   1.416   5.235 -0.2293 -0.5858 -0.7048
 9426SOL    HW239915   0.812   1.443   5.335 -0.5567 -0.2845 -0.0422
 9427SOL     OW39916   3.519   4.637   9.546  0.2922 -0.1970  0.0236
 9427SOL    HW139917   3.558   4.713   9.589  0.7216 -1.0544  1.1554
 9427SOL    HW239918   3.490   4.669   9.461 -0.4376  0.1032  0.3927
 9428SOL     OW39919   4.533   0.604   6.653 -0.0750  0.4426 -0.0634
 9428SOL    HW139920   4.500   0.534   6.710  1.1558 -0.3137 -0.2780
 9428SOL    HW239921   4.459   0.664   6.660  1.7215  2.8503 -1.4291
 9429SOL     OW39922   1.206   4.310  16.120 -0.1439  0.2916  0.0507
 9429SOL    HW139923   1.164   4.365  16.054  2.0591  0.3245 -1.3493
 9429SOL    HW239924   1.287   4.360  16.130 -0.1606  0.9752 -3.0133
 9430SOL     OW39925   1.666   4.366   0.602 -0.2042 -0.0082  0.2550
 9430SOL    HW139926   1.631   4.356   0.691  0.4272 -1.4729  0.3437
 9430SOL    HW239927   1.755   4.391   0.625 -0.8112  2.1149  0.2753
 9431SOL     OW39928   2.684   3.614   5.789 -0.7702 -0.1351  0.2125
 9431SOL    HW139929   2.643   3.541   5.743 -1.8030  0.3679  0.3125
 9431SOL    HW239930   2.643   3.693   5.754 -1.4986 -0.0925  1.1481
 9432SOL     OW39931   1.084   3.825   4.043 -0.1003 -0.3892  0.1747
 9432SOL    HW139932   1.097   3.869   4.128  1.3757  0.2527 -0.3914
 9432SOL    HW239933   1.086   3.732   4.064 -1.1715 -0.6822 -1.0365
 9433SOL     OW39934   3.290   1.035  13.389  0.0891  0.1206 -0.3443
 9433SOL    HW139935   3.259   1.023  13.299  0.9459  1.3651 -0.8041
 9433SOL    HW239936   3.269   0.949  13.427 -3.2798  2.0011  2.0655
 9434SOL     OW39937   0.104   3.667   9.356 -0.8600  0.0707 -0.2160
 9434SOL    HW139938   0.010   3.668   9.343 -0.8321  0.2193 -0.4181
 9434SOL    HW239939   0.115   3.746   9.409 -0.3916 -0.3077  0.2464
 9435SOL     OW39940   4.262   1.850   3.337 -0.4959  0.5269 -0.1593
 9435SOL    HW139941   4.263   1.916   3.268 -0.7561  0.5066 -0.1818
 9435SOL    HW239942   4.255   1.896   3.421 -1.9601 -1.5672  0.8742
 9436SOL     OW39943   3.493   3.439   6.483 -0.2229  0.1212  0.2030
 9436SOL    HW139944   3.586   3.446   6.462 -0.3581  2.0097  0.2679
 9436SOL    HW239945   3.488   3.357   6.532 -0.7025  0.1324  0.1700
 9437SOL     OW39946   2.996   1.962   5.890 -0.0348  0.2367 -0.0238
 9437SOL    HW139947   2.939   1.970   5.967  1.0708 -0.2281  0.8519
 9437SOL    HW239948   2.935   1.911   5.837 -0.9905 -0.0181  1.3177
 9438SOL     OW39949   0.948   2.659   7.727  0.0944  0.2162 -0.6392
 9438SOL    HW139950   1.039   2.690   7.727 -0.3099  1.3951  0.2817
 9438SOL    HW239951   0.917   2.694   7.643 -1.6865  2.8586  1.1292
 9439SOL     OW39952   2.474   4.457   0.348 -0.4427  0.4615 -0.3597
 9439SOL    HW139953   2.465   4.477   0.255 -3.1392 -2.2009 -0.6514
 9439SOL    HW239954   2.382   4.469   0.372 -0.6213  0.5794 -1.1109
 9440SOL     OW39955   2.781   2.972   7.104  0.0401  0.1182  0.6126
 9440SOL    HW139956   2.760   3.038   7.038  1.9714  0.2076  0.0695
 9440SOL    HW239957   2.725   2.904   7.066  0.3178 -0.3041  0.9558
 9441SOL     OW39958   0.942   2.198   4.350 -0.0922 -0.0236 -0.0502
 9441SOL    HW139959   0.862   2.249   4.351 -1.0601 -1.5224 -1.8357
 9441SOL    HW239960   0.971   2.210   4.260  0.0235 -4.2858 -0.5757
 9442SOL     OW39961   0.947   3.989   9.669 -0.8203 -0.4513  0.0610
 9442SOL    HW139962   1.040   4.008   9.653 -0.4250 -0.3032  2.5514
 9442SOL    HW239963   0.907   3.990   9.583 -2.1849 -2.7089  0.6651
 9443SOL     OW39964   2.897   2.834   6.243  0.4140 -0.4908  0.3268
 9443SOL    HW139965   2.844   2.913   6.239  1.0989  0.1163  3.0915
 9443SOL    HW239966   2.977   2.860   6.289 -0.8028  3.1651  0.3883
 9444SOL     OW39967   1.951   1.235   5.481 -0.2456 -0.2335  0.5190
 9444SOL    HW139968   1.972   1.148   5.446 -0.5476  0.9456 -2.5964
 9444SOL    HW239969   2.039   1.270   5.496  0.4262 -2.0417  0.8790
 9445SOL     OW39970   1.508   4.344   2.096  0.2545  0.4571 -0.0415
 9445SOL    HW139971   1.424   4.305   2.120 -0.2510  0.3019 -2.0307
 9445SOL    HW239972   1.570   4.286   2.140 -1.0018 -0.8942 -0.0257
 9446SOL     OW39973   2.537   2.986   5.023  0.0453 -0.0539  0.3594
 9446SOL    HW139974   2.533   2.958   4.931 -0.5468  0.1652  0.3215
 9446SOL    HW239975   2.449   3.016   5.045 -0.4524  0.2786 -2.1023
 9447SOL     OW39976   1.120   3.776   7.437  0.3106 -0.3654 -0.1702
 9447SOL    HW139977   1.092   3.770   7.528  0.9704  3.9151  0.3038
 9447SOL    HW239978   1.215   3.776   7.441  0.2870 -1.6279  0.4191
 9448SOL     OW39979   2.544   0.301   5.523  0.2582 -0.2515 -0.2213
 9448SOL    HW139980   2.591   0.313   5.441  0.9923 -0.4237  0.1744
 9448SOL    HW239981   2.608   0.332   5.587 -0.4233 -2.1448  1.3777
 9449SOL     OW39982   2.874   2.225   7.577 -0.2200 -0.4037  0.3165
 9449SOL    HW139983   2.832   2.197   7.496  0.4170  1.7432 -0.7623
 9449SOL    HW239984   2.964   2.231   7.544  0.0183 -0.3184  0.9690
 9450SOL     OW39985   1.548   2.648  13.736 -0.8320 -0.1858  0.1977
 9450SOL    HW139986   1.555   2.714  13.667 -1.2170 -1.6108 -1.1977
 9450SOL    HW239987   1.597   2.703  13.797 -0.2416 -0.9550  0.4073
 9451SOL     OW39988   1.342   1.851   7.277  0.3985  0.4366  0.2695
 9451SOL    HW139989   1.429   1.886   7.259  0.1875  0.3058 -1.0152
 9451SOL    HW239990   1.294   1.934   7.287  3.1980  1.8767  1.7263
 9452SOL     OW39991   0.566   3.603   6.903 -0.2486  0.7790  0.4561
 9452SOL    HW139992   0.657   3.578   6.919  0.3765  1.9920 -1.2464
 9452SOL    HW239993   0.523   3.549   6.969  0.1880  1.2667  1.1431
 9453SOL     OW39994   4.384   4.632   7.141  0.5237  0.4325  0.0227
 9453SOL    HW139995   4.342   4.552   7.111  1.7634 -0.7107  1.3249
 9453SOL    HW239996   4.462   4.595   7.099  0.1011 -2.5175  1.8806
 9454SOL     OW39997   3.953   1.770  16.671  0.5006  0.1998  0.7663
 9454SOL    HW139998   3.905   1.691  16.644  0.7779  0.7789 -1.4597
 9454SOL    HW239999   4.037   1.732  16.695  0.8264 -0.6607 -1.7474
 9455SOL     OW40000   4.117   0.628  14.662  0.3905 -0.5845 -0.2421
 9455SOL    HW140001   4.035   0.656  14.620  0.5096 -1.6177 -1.1552
 9455SOL    HW240002   4.155   0.715  14.674 -0.8448 -0.1209  0.2767
 9456SOL     OW40003   3.446   2.955   7.675  0.2851 -0.4542  0.3376
 9456SOL    HW140004   3.426   2.978   7.584 -1.5816  2.0527  1.3738
 9456SOL    HW240005   3.391   3.018   7.722 -2.1315 -1.8668 -0.6250
 9457SOL     OW40006   2.207   1.365  17.506  0.2454 -0.7812 -0.0810
 9457SOL    HW140007   2.284   1.419  17.490 -0.5010  0.0747 -0.7365
 9457SOL    HW240008   2.190   1.327  17.420  0.2789 -0.2432 -0.3201
 9458SOL     OW40009   2.375   1.865   0.806 -0.0826 -0.0212 -0.8213
 9458SOL    HW140010   2.320   1.790   0.783 -0.6275  0.7673 -2.0817
 9458SOL    HW240011   2.447   1.862   0.743  0.3024  0.1557 -0.3854
 9459SOL     OW40012   3.219   1.864   7.635 -0.0725 -0.3601 -0.0936
 9459SOL    HW140013   3.308   1.899   7.643  0.0459 -1.2852  2.8528
 9459SOL    HW240014   3.237   1.781   7.591 -0.1846 -0.7718  0.6376
 9460SOL     OW40015   1.735   2.171  16.561 -0.3279  0.3075  0.7418
 9460SOL    HW140016   1.731   2.265  16.542 -0.6554  0.3711  1.1228
 9460SOL    HW240017   1.645   2.148  16.536 -0.1619 -0.2564  0.6554
 9461SOL     OW40018   0.517   3.496   2.686  0.0819 -0.1665  0.2032
 9461SOL    HW140019   0.548   3.586   2.672  1.2376 -0.5522  0.2918
 9461SOL    HW240020   0.424   3.515   2.673  0.3244 -0.0991 -1.4126
 9462SOL     OW40021   0.085   0.147   6.391 -0.5959 -0.4215  0.0511
 9462SOL    HW140022   0.004   0.179   6.430 -1.2470 -1.4804 -0.4555
 9462SOL    HW240023   0.102   0.230   6.347 -1.8151 -0.3102 -0.1918
 9463SOL     OW40024   2.316   2.938   7.536  0.0193 -0.4265  0.0063
 9463SOL    HW140025   2.387   2.992   7.572  0.2088  0.5589 -1.8485
 9463SOL    HW240026   2.241   2.961   7.590  0.7835  1.9081  0.0710
 9464SOL     OW40027   2.918   4.470   8.553 -0.2202  0.0206  0.4296
 9464SOL    HW140028   2.940   4.389   8.507  1.0908 -0.6093  2.1562
 9464SOL    HW240029   2.843   4.499   8.502  0.0206 -0.0721  0.0232
 9465SOL     OW40030   2.507   0.779  16.232 -0.3363 -0.5691  0.5865
 9465SOL    HW140031   2.459   0.796  16.151  2.5297 -2.2348 -1.4750
 9465SOL    HW240032   2.433   0.726  16.263  0.5787 -1.6888  0.8357
 9466SOL     OW40033   4.009   1.954  17.153  0.1919  0.4031 -0.3556
 9466SOL    HW140034   3.958   2.021  17.198 -0.0777  1.1705 -1.8125
 9466SOL    HW240035   4.001   1.893  17.227 -2.5490 -0.2828 -1.1957
 9467SOL     OW40036   0.390   0.996   6.497  0.5917 -0.0493 -0.5501
 9467SOL    HW140037   0.350   1.076   6.462 -0.0876  0.8732  2.2978
 9467SOL    HW240038   0.358   0.935   6.431 -0.3549 -0.4614  0.2866
 9468SOL     OW40039   3.006   0.627   8.323  0.1841 -0.2487 -0.6659
 9468SOL    HW140040   3.005   0.590   8.411  2.8361  2.6019  0.5600
 9468SOL    HW240041   3.038   0.716   8.337 -0.7073  0.0003 -0.2069
 9469SOL     OW40042   3.471   1.629   4.593 -0.1308  0.1211  0.3131
 9469SOL    HW140043   3.447   1.718   4.618 -1.9731 -0.8784  2.0741
 9469SOL    HW240044   3.507   1.607   4.679 -1.3304  0.2583  0.8494
 9470SOL     OW40045   0.660   2.870  12.218  0.1610  0.8729  0.5235
 9470SOL    HW140046   0.633   2.795  12.271  2.0380  1.3665  2.1797
 9470SOL    HW240047   0.743   2.835  12.187  0.3225  1.9050 -0.2123
 9471SOL     OW40048   4.055   4.337   2.890 -0.3330 -0.1123  0.3651
 9471SOL    HW140049   3.986   4.342   2.957  0.2336 -0.5639  0.9786
 9471SOL    HW240050   4.084   4.428   2.888  1.1303 -0.6522 -2.4627
 9472SOL     OW40051   2.557   4.325   1.227  0.2533  0.1076 -0.1852
 9472SOL    HW140052   2.537   4.365   1.312 -0.0865 -0.6568  0.0906
 9472SOL    HW240053   2.512   4.391   1.175  0.1880  0.7676  0.7089
 9473SOL     OW40054   0.023   1.293   5.052  0.0717  0.3221 -0.3505
 9473SOL    HW140055   4.696   1.361   5.071 -2.4418 -2.1121 -0.2584
 9473SOL    HW240056   4.701   1.222   5.031  0.1918  0.0105  0.3807
 9474SOL     OW40057   3.533   0.705   2.381  0.1327 -0.0315 -0.6558
 9474SOL    HW140058   3.480   0.639   2.337 -1.3054  0.9906 -0.4307
 9474SOL    HW240059   3.593   0.733   2.312  1.7716 -2.1262 -0.0764
 9475SOL     OW40060   2.932   0.396  16.107  0.4287 -0.0545  0.6816
 9475SOL    HW140061   2.895   0.469  16.156 -0.2222 -0.3488  0.6351
 9475SOL    HW240062   2.976   0.341  16.172  2.6507  0.2760 -0.5192
 9476SOL     OW40063   0.245   1.284   2.782 -0.5492 -0.3273 -0.1703
 9476SOL    HW140064   0.157   1.281   2.819 -0.4572 -0.4408  0.0366
 9476SOL    HW240065   0.242   1.271   2.688  0.3864 -0.4638 -0.1802
 9477SOL     OW40066   1.329   0.248   6.709  0.3266  0.0581  0.4430
 9477SOL    HW140067   1.299   0.338   6.720  1.0366  0.4668 -1.0987
 9477SOL    HW240068   1.314   0.249   6.615  0.3748 -0.4283  0.4276
 9478SOL     OW40069   0.976   3.009  13.855  0.5571 -0.2864 -0.6481
 9478SOL    HW140070   0.929   3.089  13.831  0.7174 -0.3222 -1.0832
 9478SOL    HW240071   0.998   2.970  13.771  0.7025  0.4351 -0.9514
 9479SOL     OW40072   1.614   4.285  17.497 -0.3967 -0.3918  0.0637
 9479SOL    HW140073   1.708   4.297  17.511 -0.3956 -0.9781  0.5783
 9479SOL    HW240074   1.607   4.219  17.428  3.0134 -0.0057 -0.6742
 9480SOL     OW40075   3.729   4.409   5.798 -0.1917 -0.2531 -0.7273
 9480SOL    HW140076   3.665   4.399   5.727 -0.1843  1.3358 -0.9535
 9480SOL    HW240077   3.799   4.448   5.746 -0.1121  2.3761  1.3603
 9481SOL     OW40078   0.782   0.412   8.737 -0.0895 -0.5005 -0.0502
 9481SOL    HW140079   0.716   0.479   8.722  1.0978  0.3005 -1.6231
 9481SOL    HW240080   0.847   0.464   8.785 -0.7771 -1.1273  1.5608
 9482SOL     OW40081   0.291   0.804   6.321 -0.4941  0.6826  0.0886
 9482SOL    HW140082   0.336   0.761   6.248 -1.9645  1.4350 -1.2551
 9482SOL    HW240083   0.211   0.835   6.277 -1.7941 -1.7645  0.6931
 9483SOL     OW40084   2.652   4.635   3.616 -0.4052  0.6475 -0.2821
 9483SOL    HW140085   2.678   4.602   3.702  1.5979  0.0332 -1.1296
 9483SOL    HW240086   2.703   4.716   3.614  0.3055  0.2704  2.5707
 9484SOL     OW40087   3.190   1.076   6.252  0.0042 -0.9383  0.4363
 9484SOL    HW140088   3.282   1.054   6.266 -0.4875 -1.7703  2.4403
 9484SOL    HW240089   3.170   1.048   6.163  1.2885  0.3900 -0.2652
 9485SOL     OW40090   4.231   3.589   6.586 -0.0982 -0.2393 -0.1370
 9485SOL    HW140091   4.220   3.684   6.581 -0.7991 -0.4107 -2.0346
 9485SOL    HW240092   4.297   3.578   6.653  0.9857  1.5178 -0.9011
 9486SOL     OW40093   0.174   4.069   4.096 -0.1560  0.0601  0.2782
 9486SOL    HW140094   0.120   4.069   4.017  0.3455  0.5118 -0.0684
 9486SOL    HW240095   0.105   4.081   4.161  1.5195 -1.2076  2.2840
 9487SOL     OW40096   1.898   3.201   2.054  0.3507 -0.1122 -0.5543
 9487SOL    HW140097   1.890   3.124   1.998  0.1737 -1.2978  1.0973
 9487SOL    HW240098   1.890   3.275   1.993  1.2258 -0.8671 -1.5908
 9488SOL     OW40099   3.333   3.363  10.745  0.1792 -0.0339 -0.1782
 9488SOL    HW140100   3.343   3.349  10.651  1.1507 -1.8040  0.1959
 9488SOL    HW240101   3.407   3.417  10.773 -0.7452  0.0758  2.0319
 9489SOL     OW40102   1.211   2.654  13.554 -0.1563 -1.0001  0.2694
 9489SOL    HW140103   1.253   2.671  13.469  1.5667 -0.3555  1.2388
 9489SOL    HW240104   1.253   2.580  13.597  1.6184  1.3413  2.5482
 9490SOL     OW40105   1.923   0.599   1.526  0.3372 -0.1370 -0.2977
 9490SOL    HW140106   1.891   0.671   1.472  2.8820  2.7653  2.0253
 9490SOL    HW240107   1.866   0.529   1.494 -2.9987  1.9997  0.9235
 9491SOL     OW40108   0.948   4.595  15.658 -0.1922 -0.0158 -0.0791
 9491SOL    HW140109   1.004   4.564  15.730  0.5123  1.4862  0.0139
 9491SOL    HW240110   0.864   4.568  15.695  0.9276 -1.1587  1.6564
 9492SOL     OW40111   0.312   2.868   9.866 -0.7508  0.2458 -0.3155
 9492SOL    HW140112   0.392   2.843   9.820 -0.4147  0.9008 -0.0918
 9492SOL    HW240113   0.322   2.845   9.958 -0.3160 -0.2452 -0.4843
 9493SOL     OW40114   0.127   0.210  12.745 -0.7062  0.2724  0.1650
 9493SOL    HW140115   0.083   0.137  12.701  2.1731 -1.2675 -0.1201
 9493SOL    HW240116   0.061   0.277  12.764  0.2201  1.1988  0.0764
 9494SOL     OW40117   3.522   0.157   9.158  0.6112  0.4711 -0.0990
 9494SOL    HW140118   3.496   0.088   9.096 -1.5880 -0.1855  1.5711
 9494SOL    HW240119   3.492   0.128   9.244 -0.2014  1.8305  0.0768
 9495SOL     OW40120   1.807   2.772  12.454  0.2828 -0.0349  0.0594
 9495SOL    HW140121   1.735   2.739  12.401 -0.2203  0.9158  0.1372
 9495SOL    HW240122   1.783   2.744  12.542  1.2463  1.4646  0.8107
 9496SOL     OW40123   3.708   0.408   8.511  0.0985  0.7733 -0.3734
 9496SOL    HW140124   3.730   0.351   8.584 -0.3212  0.2686 -0.6428
 9496SOL    HW240125   3.645   0.461   8.559 -0.4684 -1.8217  1.6950
 9497SOL     OW40126   0.450   3.772  15.189 -0.3749  0.1688  0.4602
 9497SOL    HW140127   0.390   3.771  15.115 -0.0449 -0.2093  0.2003
 9497SOL    HW240128   0.488   3.859  15.180  1.4334 -0.7687 -0.7504
 9498SOL     OW40129   3.638   3.001  14.507  0.6958 -0.1555  0.3658
 9498SOL    HW140130   3.709   3.054  14.544  1.5252  0.7592 -2.5937
 9498SOL    HW240131   3.677   2.950  14.437 -0.6210  1.4661 -1.5529
 9499SOL     OW40132   1.626   4.267   4.773 -0.1940 -0.0765 -0.4037
 9499SOL    HW140133   1.553   4.235   4.720 -0.2996  1.3680 -1.1353
 9499SOL    HW240134   1.670   4.185   4.798 -1.4652 -0.1487  1.5671
 9500SOL     OW40135   2.048   1.140  11.886  0.8971 -0.6028  0.5386
 9500SOL    HW140136   2.045   1.221  11.937  1.4620  0.5171 -1.2188
 9500SOL    HW240137   2.122   1.092  11.926 -1.3991 -2.9371  2.0172
 9501SOL     OW40138   1.147   0.181   5.507  0.0358  0.0010 -0.3281
 9501SOL    HW140139   1.058   0.215   5.502  0.0322  0.4064  2.2595
 9501SOL    HW240140   1.198   0.248   5.463  0.7584 -0.7214 -0.6013
 9502SOL     OW40141   1.591   2.698   8.430 -0.7190 -0.5171 -0.0968
 9502SOL    HW140142   1.647   2.724   8.503  0.3670 -1.8202 -0.4623
 9502SOL    HW240143   1.502   2.693   8.465 -0.4688 -2.7623  0.2250
 9503SOL     OW40144   3.311   3.697   2.985  0.3831 -0.2723  0.5028
 9503SOL    HW140145   3.380   3.729   2.927  0.0181 -0.2994  0.0607
 9503SOL    HW240146   3.339   3.727   3.072  1.6859 -0.6103  0.2016
 9504SOL     OW40147   1.825   0.745  15.211 -0.3184 -0.1189  0.0857
 9504SOL    HW140148   1.812   0.837  15.189  3.7385 -0.4604 -3.6427
 9504SOL    HW240149   1.800   0.737  15.303  0.1949 -1.0021  0.1502
 9505SOL     OW40150   0.661   1.069  12.006  0.4897 -0.5202 -0.1904
 9505SOL    HW140151   0.616   1.111  12.079 -2.0007 -1.3232 -1.2652
 9505SOL    HW240152   0.747   1.108  12.021  0.2313  0.6779 -1.7481
 9506SOL     OW40153   4.561   0.168   3.178  0.1084 -0.0036  0.0749
 9506SOL    HW140154   4.587   0.086   3.220 -0.9871 -0.3368  0.1130
 9506SOL    HW240155   4.612   0.229   3.231 -1.8041  0.7865  1.0131
 9507SOL     OW40156   4.326   0.050   5.737  0.2663 -0.0082 -0.2387
 9507SOL    HW140157   4.346   0.143   5.727  0.4512 -0.2881 -2.3554
 9507SOL    HW240158   4.401   0.025   5.791 -0.0411 -0.0769  0.1593
 9508SOL     OW40159   3.716   2.511   7.651 -0.3762 -0.0522 -0.0225
 9508SOL    HW140160   3.643   2.573   7.637 -1.4600 -1.2069  0.5569
 9508SOL    HW240161   3.712   2.451   7.576  1.1806  1.1727 -1.0867
 9509SOL     OW40162   2.387   4.012   3.399  0.6137 -0.7413  0.1578
 9509SOL    HW140163   2.418   3.959   3.326 -1.6388 -0.2838 -1.1278
 9509SOL    HW240164   2.462   4.005   3.458 -1.1817  0.4547  2.5631
 9510SOL     OW40165   4.296   2.253   2.645 -0.7047 -0.4665 -0.1342
 9510SOL    HW140166   4.292   2.222   2.555  3.5714  0.5967 -0.6769
 9510SOL    HW240167   4.275   2.345   2.628  0.4083 -0.4854 -1.5900
 9511SOL     OW40168   2.700   2.127  15.043  0.1063  0.3468  0.1800
 9511SOL    HW140169   2.762   2.199  15.028 -1.2445  1.6415  0.8300
 9511SOL    HW240170   2.755   2.058  15.005 -0.1298 -0.1227  0.6874
 9512SOL     OW40171   1.668   3.318  10.156  0.0241  0.0348 -0.1541
 9512SOL    HW140172   1.652   3.411  10.168  2.6232  0.7300 -2.0360
 9512SOL    HW240173   1.609   3.283  10.223 -2.4926 -1.9464 -3.3533
 9513SOL     OW40174   4.724   1.326  10.283 -0.0842  0.0658  0.1607
 9513SOL    HW140175   0.003   1.418  10.262  1.2233 -0.1249  0.3352
 9513SOL    HW240176   0.049   1.318  10.355 -1.7356 -0.0325  1.5913
 9514SOL     OW40177   2.761   0.187   6.942 -0.2274 -0.3275  0.0317
 9514SOL    HW140178   2.854   0.164   6.936 -0.0650  0.6632 -1.3684
 9514SOL    HW240179   2.747   0.280   6.923  0.0488  0.0455  1.6784
 9515SOL     OW40180   3.663   1.040   7.080  1.0587  0.3720 -0.2814
 9515SOL    HW140181   3.659   0.960   7.029  2.2377  0.5809 -0.7123
 9515SOL    HW240182   3.737   1.022   7.137 -0.5536  0.5639  1.8729
 9516SOL     OW40183   2.338   4.164   7.557  0.5869  0.3378  0.2168
 9516SOL    HW140184   2.351   4.120   7.641  1.0020 -0.9085 -0.4980
 9516SOL    HW240185   2.399   4.238   7.558  0.3473  0.5640 -1.7928
 9517SOL     OW40186   4.529   1.497  14.662 -0.4551  0.3583 -0.3442
 9517SOL    HW140187   4.550   1.562  14.594  1.0447  0.2964  0.0655
 9517SOL    HW240188   4.608   1.443  14.664 -0.4816  0.2775 -1.2145
 9518SOL     OW40189   1.818   4.023   4.116 -0.1356 -0.3890  0.0908
 9518SOL    HW140190   1.801   4.110   4.153 -0.0658  0.3494 -1.6304
 9518SOL    HW240191   1.734   3.999   4.076  0.1589  0.0104 -0.7617
 9519SOL     OW40192   3.104   1.504  12.332 -0.5438  0.4166  0.0660
 9519SOL    HW140193   3.089   1.445  12.258  1.1416 -1.2585  1.0850
 9519SOL    HW240194   3.154   1.458  12.399 -2.0536  1.6834  2.0637
 9520SOL     OW40195   4.473   2.568   7.186  0.6467  0.3384  0.7496
 9520SOL    HW140196   4.389   2.524   7.178  0.9860 -0.4140  1.2931
 9520SOL    HW240197   4.539   2.498   7.194  0.0387 -0.6019 -2.2817
 9521SOL     OW40198   3.294   2.869   6.106  0.2234  0.1112 -0.1564
 9521SOL    HW140199   3.224   2.906   6.051 -0.6416 -1.0076  0.1912
 9521SOL    HW240200   3.355   2.838   6.040  0.2538 -0.4501  0.1388
 9522SOL     OW40201   1.230   0.045   8.377 -0.5696  0.0711 -0.2722
 9522SOL    HW140202   1.140   0.070   8.357 -0.8827 -0.3328  0.6032
 9522SOL    HW240203   1.257   0.005   8.294  1.1887  0.8399 -0.0608
 9523SOL     OW40204   0.302   2.662   3.335  0.0511  0.5600 -0.4399
 9523SOL    HW140205   0.251   2.645   3.414  0.3130  1.3644 -0.0925
 9523SOL    HW240206   0.299   2.758   3.339  1.6125  0.6103 -0.1818
 9524SOL     OW40207   0.437   4.465   5.222  0.2840  0.2928 -0.3183
 9524SOL    HW140208   0.495   4.465   5.299 -3.5510 -2.5447  2.5245
 9524SOL    HW240209   0.499   4.455   5.150 -1.5096 -0.8470 -1.6567
 9525SOL     OW40210   2.658   0.391   5.294 -0.0629 -0.0061 -0.5116
 9525SOL    HW140211   2.744   0.434   5.301  0.1777 -0.4543 -0.6803
 9525SOL    HW240212   2.672   0.340   5.214 -0.1855 -1.2660  0.2600
 9526SOL     OW40213   1.515   1.371   0.426  0.3054  0.0219  0.3886
 9526SOL    HW140214   1.583   1.435   0.446  0.7965 -0.1070 -0.8825
 9526SOL    HW240215   1.482   1.344   0.512 -0.7616 -1.2193 -0.4129
 9527SOL     OW40216   2.703   3.480   4.762 -0.1382 -0.9106 -0.0635
 9527SOL    HW140217   2.755   3.490   4.842 -1.8257 -0.0816  0.9505
 9527SOL    HW240218   2.715   3.385   4.753 -0.1591 -1.0005  0.8617
 9528SOL     OW40219   2.858   1.953   0.930 -0.5548 -0.1484 -0.1600
 9528SOL    HW140220   2.798   2.027   0.930  1.0211  1.1304  1.6012
 9528SOL    HW240221   2.803   1.893   0.981 -0.0880 -1.0215 -0.6956
 9529SOL     OW40222   0.268   0.148  12.953  0.2516  0.9250 -0.2849
 9529SOL    HW140223   0.214   0.178  12.880  0.4571  0.2726 -0.7154
 9529SOL    HW240224   0.234   0.061  12.978  0.2884  1.1988  0.7145
 9530SOL     OW40225   0.893   3.385   9.314  0.3201 -0.3314  0.4452
 9530SOL    HW140226   0.803   3.387   9.280 -0.4167  2.4281  2.6377
 9530SOL    HW240227   0.896   3.338   9.398  2.3850  0.9669  1.0918
 9531SOL     OW40228   2.170   3.091  10.321 -0.4421 -0.0524  0.0706
 9531SOL    HW140229   2.157   3.081  10.226 -0.8149 -0.5914  0.1799
 9531SOL    HW240230   2.251   3.142  10.315 -0.4705 -0.0777 -0.5573
 9532SOL     OW40231   1.919   4.476   0.036  0.7210 -0.1613 -0.0369
 9532SOL    HW140232   1.833   4.496  17.748  1.5754  0.0583 -1.9157
 9532SOL    HW240233   1.904   4.406   0.099  2.3611 -1.4890 -1.1301
 9533SOL     OW40234   3.306   4.598   2.683  0.1398 -0.0435  0.5053
 9533SOL    HW140235   3.242   4.527   2.683 -0.2987  0.3608 -0.6456
 9533SOL    HW240236   3.338   4.601   2.594  1.3320 -0.2784  0.9322
 9534SOL     OW40237   0.519   2.758   8.794  0.2160  0.3001  0.3281
 9534SOL    HW140238   0.511   2.664   8.812  0.2579  0.1579 -0.3985
 9534SOL    HW240239   0.492   2.793   8.878  2.0211  2.5674 -0.0364
 9535SOL     OW40240   0.277   1.708   8.187  0.1142  0.5842 -0.4931
 9535SOL    HW140241   0.280   1.669   8.100  0.8517  1.8621 -1.0240
 9535SOL    HW240242   0.301   1.636   8.245  0.6117  0.9528 -0.2473
 9536SOL     OW40243   0.855   0.036   7.020  0.0403  0.1701 -0.0313
 9536SOL    HW140244   0.830   0.122   7.051  0.2037  0.1798  0.0739
 9536SOL    HW240245   0.920   0.016   7.087 -0.6119 -0.9375  0.2731
 9537SOL     OW40246   2.058   1.735   7.225  0.1449  0.0195  0.1376
 9537SOL    HW140247   2.103   1.700   7.302  2.8353 -1.5287 -2.1589
 9537SOL    HW240248   2.037   1.823   7.257 -1.1279 -0.6803  1.1942
 9538SOL     OW40249   4.578   2.959   6.457 -0.3264 -0.8465 -0.2568
 9538SOL    HW140250   4.595   2.969   6.550 -0.1280  0.6789 -0.4623
 9538SOL    HW240251   4.655   3.003   6.422  0.1245 -1.1928  0.2957
 9539SOL     OW40252   1.763   1.332   8.609  0.0818 -0.2270 -0.1020
 9539SOL    HW140253   1.800   1.400   8.552 -1.1809 -2.2197 -3.2997
 9539SOL    HW240254   1.689   1.377   8.648  0.2723  0.9871 -1.1206
 9540SOL     OW40255   1.391   3.806   3.180  0.0026 -0.1855 -0.6803
 9540SOL    HW140256   1.324   3.744   3.210  0.9899 -1.3427 -0.8971
 9540SOL    HW240257   1.463   3.790   3.241  0.4023 -0.1132 -1.1405
 9541SOL     OW40258   0.030   4.532   8.658 -0.6271 -0.1876  0.5970
 9541SOL    HW140259   0.064   4.621   8.671 -1.3489 -0.1648  2.3198
 9541SOL    HW240260   4.736   4.507   8.744 -0.9522 -0.6454  0.3435
 9542SOL     OW40261   0.276   1.641   3.382 -0.3967 -0.2314 -0.1301
 9542SOL    HW140262   0.298   1.682   3.298  1.1806 -0.2647  0.2607
 9542SOL    HW240263   0.185   1.619   3.363 -0.5173 -0.4869  0.7529
 9543SOL     OW40264   1.766   0.137   7.490  0.0993 -0.4920 -0.8190
 9543SOL    HW140265   1.852   0.129   7.450  0.7098 -2.1534  0.8298
 9543SOL    HW240266   1.715   0.146   7.410 -0.9211 -0.3559 -0.1572
 9544SOL     OW40267   3.007   1.063   6.439 -0.6961  0.3863  0.1948
 9544SOL    HW140268   3.062   1.088   6.364  1.9928 -2.2652  1.2780
 9544SOL    HW240269   2.936   1.126   6.423 -1.2959 -0.5459 -0.8219
 9545SOL     OW40270   2.820   2.178   3.550 -0.6249 -0.1695  0.5070
 9545SOL    HW140271   2.804   2.094   3.506  2.5801 -0.4037 -0.2148
 9545SOL    HW240272   2.915   2.186   3.548 -0.7130  1.2450  1.7528
 9546SOL     OW40273   2.506   2.769   6.676 -0.1221 -0.0502  0.0268
 9546SOL    HW140274   2.427   2.760   6.623  0.1965 -0.6616 -0.3480
 9546SOL    HW240275   2.564   2.826   6.626  1.6523 -0.4287  1.6429
 9547SOL     OW40276   0.352   2.813  16.874  0.5936 -0.0520  0.7132
 9547SOL    HW140277   0.313   2.747  16.931  2.1020 -2.2373 -0.8051
 9547SOL    HW240278   0.445   2.796  16.886  0.9373 -1.2980 -3.7948
 9548SOL     OW40279   1.791   4.620   5.318 -0.5968  0.5568 -0.3040
 9548SOL    HW140280   1.729   4.576   5.261 -1.2389 -0.1384  0.9434
 9548SOL    HW240281   1.739   4.670   5.381  0.1466  3.7421 -2.1835
 9549SOL     OW40282   0.860   1.365   2.738 -0.3699 -0.3986  0.6829
 9549SOL    HW140283   0.864   1.361   2.642 -3.1296  0.4612  0.5411
 9549SOL    HW240284   0.842   1.459   2.741  0.8654 -0.0904 -1.1889
 9550SOL     OW40285   4.438   3.149   4.254  0.0732 -0.2902  0.2115
 9550SOL    HW140286   4.511   3.091   4.276  0.2310  0.5455  1.8895
 9550SOL    HW240287   4.377   3.133   4.326  1.6627  1.9946  2.0574
 9551SOL     OW40288   4.632   4.374   1.366  0.1393 -0.2656 -0.2159
 9551SOL    HW140289   4.602   4.447   1.421  1.1424  1.8025 -2.4189
 9551SOL    HW240290   4.576   4.385   1.289  1.2720  3.6462 -0.5278
 9552SOL     OW40291   1.515   2.992  13.805 -0.3433 -0.5048 -0.0368
 9552SOL    HW140292   1.479   2.937  13.874 -0.6892  0.4583  0.5522
 9552SOL    HW240293   1.456   3.067  13.807  0.7051  0.3269 -0.0688
 9553SOL     OW40294   4.728   2.430   2.674 -0.4323 -0.3812  0.3944
 9553SOL    HW140295   4.657   2.366   2.661 -0.2575 -0.6930  0.9509
 9553SOL    HW240296   0.035   2.388   2.748  0.5835 -2.8354 -1.6086
 9554SOL     OW40297   1.221   0.507   0.940 -0.0105 -0.5416  0.6078
 9554SOL    HW140298   1.129   0.533   0.932  0.5160  0.7207 -1.2543
 9554SOL    HW240299   1.273   0.586   0.928  0.4432 -1.0195 -0.4782
 9555SOL     OW40300   1.132   4.543   8.861  0.1917  0.2263 -0.0202
 9555SOL    HW140301   1.084   4.479   8.809 -1.8220 -1.2257  3.5988
 9555SOL    HW240302   1.066   4.606   8.890 -1.8523 -2.3192  0.9104
 9556SOL     OW40303   0.478   2.565   4.134  0.9824 -0.2723 -0.2699
 9556SOL    HW140304   0.455   2.473   4.130 -1.8551  0.3917  0.4630
 9556SOL    HW240305   0.402   2.611   4.098  0.1218 -1.2045  0.3842
 9557SOL     OW40306   1.872   0.098  12.382 -0.2333  0.0151 -0.3198
 9557SOL    HW140307   1.859   0.190  12.362  1.8222  0.3991  0.0770
 9557SOL    HW240308   1.947   0.080  12.325  0.2888 -0.2937  0.4688
 9558SOL     OW40309   3.778   0.652  17.693  0.1230 -0.1745 -0.1135
 9558SOL    HW140310   3.817   0.731  17.731 -0.3356  0.5057 -1.0670
 9558SOL    HW240311   3.696   0.645  17.741  0.2240  0.2538  0.1177
 9559SOL     OW40312   4.069   4.131   5.283  0.0098 -0.3927  0.2428
 9559SOL    HW140313   3.996   4.090   5.330 -0.0192 -0.7130 -0.0794
 9559SOL    HW240314   4.044   4.109   5.193 -0.8176  1.3713  0.0443
 9560SOL     OW40315   3.133   2.219   7.489 -0.2596 -0.3319  0.9337
 9560SOL    HW140316   3.144   2.269   7.408 -0.3249  1.1611  1.8244
 9560SOL    HW240317   3.208   2.160   7.483 -1.1293 -1.1811 -1.4657
 9561SOL     OW40318   0.021   4.594   6.714 -0.3939  0.6413 -0.0267
 9561SOL    HW140319   4.683   4.548   6.679  0.6469 -0.2599 -1.1086
 9561SOL    HW240320   0.083   4.521   6.719 -0.8670  0.3675  1.7537
 9562SOL     OW40321   1.500   1.398   3.502 -0.3392  0.4993  0.1504
 9562SOL    HW140322   1.450   1.410   3.582 -0.4336  1.4839 -0.0513
 9562SOL    HW240323   1.457   1.457   3.440  1.3275  0.7152 -0.8165
 9563SOL     OW40324   0.768   0.455  15.266  0.2791  0.5409  0.0886
 9563SOL    HW140325   0.853   0.463  15.222  0.8442  0.1347  1.1025
 9563SOL    HW240326   0.721   0.414  15.193 -1.9366  2.5137  0.4212
 9564SOL     OW40327   0.570   1.624   2.731  0.2408 -0.1810  0.5237
 9564SOL    HW140328   0.626   1.700   2.718 -1.7876  1.6140  2.2379
 9564SOL    HW240329   0.522   1.635   2.649 -0.1671 -1.5372  0.5752
 9565SOL     OW40330   2.684   3.174   4.405  0.2348 -0.0638 -0.6667
 9565SOL    HW140331   2.709   3.184   4.497 -0.5627  3.2487 -0.8315
 9565SOL    HW240332   2.768   3.141   4.373  0.4880  1.6890 -1.8141
 9566SOL     OW40333   0.468   3.963  15.875 -0.4698  0.4976 -0.1094
 9566SOL    HW140334   0.443   3.991  15.787 -0.4295  0.0542 -0.2600
 9566SOL    HW240335   0.556   3.999  15.886 -0.2254 -0.3010  0.5927
 9567SOL     OW40336   1.310   0.256   4.977  0.4352 -0.0841  0.5819
 9567SOL    HW140337   1.397   0.275   5.011  0.3526 -0.6560  1.1097
 9567SOL    HW240338   1.291   0.339   4.934  0.9471  0.2484  0.9917
 9568SOL     OW40339   2.523   0.621   3.587 -0.6011  0.7728  0.0512
 9568SOL    HW140340   2.601   0.671   3.562  1.1423 -1.6127  0.7302
 9568SOL    HW240341   2.538   0.538   3.543  1.5508  1.0436  0.2564
 9569SOL     OW40342   3.256   0.822   2.719 -0.7463 -0.4823  0.2442
 9569SOL    HW140343   3.271   0.901   2.667 -0.7825 -0.8148 -0.2673
 9569SOL    HW240344   3.245   0.862   2.805 -0.4346 -1.0659  0.5581
   4.73770   4.73770  17.74901
