Membrane in water
40344
    1TMC1    C1    1   2.520   0.727  11.051 -0.2993 -0.4223  1.1897
    1TMC1    C2    2   2.503   0.832  11.131 -0.1855 -0.4233 -0.1177
    1TMC1    C3    3   2.581   0.938  11.117 -0.2878 -0.2345 -0.1417
    1TMC1    C4    4   2.623   0.722  10.958 -0.8721 -0.8253  0.4254
    1TMC1    C5    5   2.699   0.836  10.952 -0.2575  0.5970 -0.8038
    1TMC1    C6    6   2.673   0.953  11.018 -0.3427 -0.1673 -1.0927
    1TMC1     C    7   2.469   0.596  11.095 -0.7093 -0.4504  0.0562
    1TMC1     O    8   2.433   0.594  11.210  0.0062  0.6240  0.5232
    1TMC1     H    9   2.436   0.829  11.216  0.6167 -0.3841  0.5208
    1TMC1    H1   10   2.658   0.632  10.908  0.4689 -0.3612  0.5245
    1TMC1    H2   11   2.745   1.033  11.032 -0.7271 -0.6275  3.5655
    1TMC1    C7   12   2.795   0.861  10.843  0.4433  0.3005  0.0323
    1TMC1    C8   13   2.554   1.051  11.207 -0.9884 -0.5172 -0.7100
    1TMC1    O1   14   2.888   0.936  10.865  0.4255  0.5531 -0.1840
    1TMC1    O2   15   2.479   1.048  11.301  0.0460 -0.4224  0.0739
    1TMC1    O3   16   2.711   0.863  10.734  0.3722  0.0456 -0.0037
    1TMC1    H3   17   2.651   0.786  10.730  1.4885 -0.8846  1.0081
    1TMC1    O5   18   2.568   1.162  11.132 -0.2830  0.0308 -0.0992
    1TMC1    H5   19   2.627   1.160  11.054 -1.2900 -3.8831 -0.7392
    2MPD2     C   20   2.305   0.109  11.022  0.3479 -0.0795  0.5344
    2MPD2    C1   21   2.343   0.180  11.129  0.3355 -0.1405  0.0296
    2MPD2    C2   22   2.380   0.319  11.120 -0.2198  0.6277  0.4301
    2MPD2    C3   23   2.390   0.382  10.998  0.7232  0.0046  0.0149
    2MPD2    C4   24   2.343   0.309  10.888  0.2233 -0.0433 -0.3433
    2MPD2    C5   25   2.291   0.180  10.902  0.1983 -0.9390 -0.3855
    2MPD2     H   26   2.392   0.377  11.211  3.8063  0.7611 -0.1812
    2MPD2    H1   27   2.347   0.357  10.791  2.4776  0.5234  0.0487
    2MPD2    H2   28   2.272   0.007  11.034  1.0133 -0.0913  2.4411
    2MPD2    H3   29   2.262   0.130  10.810 -0.1318  0.6916 -1.1652
    2MPD2     N   30   2.439   0.515  10.987 -0.4998  0.0729  0.3635
    2MPD2    H5   31   2.438   0.557  10.895 -1.0145 -2.4928 -0.8050
    2MPD2    N1   32   2.331   0.130  11.254  0.1711 -0.2459 -0.5887
    2MPD2    H7   33   2.344   0.190  11.335 -0.2111  0.0497 -0.7477
    3TMC1    C1   34   1.743   0.725  11.129 -0.3470 -0.3883 -0.1612
    3TMC1    C2   35   1.697   0.596  11.128  0.1046 -0.0570 -0.3147
    3TMC1    C3   36   1.727   0.528  11.013 -0.3421 -0.0855  0.5551
    3TMC1    C4   37   1.792   0.790  11.016  0.0206  0.7266 -0.0441
    3TMC1    C5   38   1.815   0.717  10.906  1.1005  0.0699 -0.0849
    3TMC1    C6   39   1.771   0.582  10.900 -0.0995 -0.3246  0.3410
    3TMC1     C   40   1.722   0.809  11.248 -0.1794  1.0002  0.4683
    3TMC1     O   41   1.635   0.785  11.332  0.0131 -0.2755  0.6108
    3TMC1     H   42   1.678   0.553  11.226 -1.2640 -1.4721 -1.2173
    3TMC1    H1   43   1.805   0.896  10.998 -1.2522  0.7771 -0.6536
    3TMC1    H2   44   1.777   0.525  10.808  0.0626 -0.3714  0.3811
    3TMC1    C7   45   1.862   0.780  10.784  0.4307  0.1372  0.8169
    3TMC1    C8   46   1.733   0.390  11.016  0.2831 -0.5225 -0.0720
    3TMC1    O1   47   1.827   0.899  10.760  0.2983  0.1687  0.1732
    3TMC1    O2   48   1.745   0.328  11.120  0.0006 -0.1630  0.2028
    3TMC1    O3   49   1.975   0.717  10.742  0.2126 -0.1500 -0.4815
    3TMC1    H3   50   2.003   0.647  10.805  1.8894 -0.6708 -1.8427
    3TMC1    O5   51   1.645   0.353  10.918  0.2925  0.1273  0.5488
    3TMC1    H5   52   1.619   0.421  10.852 -0.3280 -0.4956  0.1575
    4MPD2     C   53   1.734   1.264  11.476 -0.4489  0.5966 -0.4468
    4MPD2    C1   54   1.766   1.277  11.340 -0.3161  0.5026  0.7403
    4MPD2    C2   55   1.792   1.164  11.270  0.1052 -0.1068  0.2525
    4MPD2    C3   56   1.768   1.036  11.325  0.3695  0.5002  0.1413
    4MPD2    C4   57   1.726   1.029  11.456  0.3545 -0.6185 -0.2858
    4MPD2    C5   58   1.704   1.137  11.529 -0.6490  0.2099  0.1352
    4MPD2     H   59   1.837   1.170  11.171 -0.7571  1.5693 -0.0349
    4MPD2    H1   60   1.715   0.932  11.503  1.1630 -1.0028 -0.8808
    4MPD2    H2   61   1.717   1.342  11.549 -1.1008 -1.9718  2.1340
    4MPD2    H3   62   1.676   1.126  11.633  0.7212  1.0325  0.5999
    4MPD2     N   63   1.775   0.932  11.232 -0.2790  0.1570 -0.7154
    4MPD2    H5   64   1.832   0.942  11.148 -0.2070 -1.1109 -0.8159
    4MPD2    N1   65   1.771   1.398  11.275 -0.1249  0.2890 -0.2108
    4MPD2    H7   66   1.791   1.403  11.175 -1.7396  1.0181 -0.4947
    5TCq1    O1   67   3.338   2.588  12.347 -0.6521 -0.2458  0.7886
    5TCq1    C1   68   3.347   2.670  12.236 -0.5234 -0.3800 -0.1362
    5TCq1    O2   69   3.442   2.669  12.164  0.1337  0.4153 -0.2683
    5TCq1    C2   70   3.216   2.680  12.200 -0.1122 -0.2907 -0.1080
    5TCq1    C3   71   3.127   2.702  12.302 -0.3374  0.6538  0.1073
    5TCq1    C4   72   2.997   2.720  12.261 -0.0051  0.3160  0.6004
    5TCq1    C5   73   2.959   2.713  12.126  0.2288  0.4503 -0.5590
    5TCq1    C6   74   3.055   2.686  12.037  0.7496 -0.4174 -0.4611
    5TCq1    C7   75   3.185   2.673  12.071  0.4444 -0.1536  0.4053
    5TCq1    C8   76   3.044   2.690  11.897  0.1564  0.3099  0.6565
    5TCq1    O4   77   3.136   2.726  11.822  0.3202 -0.0810  0.2789
    5TCq1    C9   78   2.890   2.746  12.356 -0.5649 -0.2999  0.0318
    5TCq1    O5   79   2.777   2.748  12.310  0.2909  0.2522  0.1468
    5TCq1    O6   80   2.924   2.779  12.471 -0.0487 -0.1812  0.2536
    5TCq1    H1   81   3.249   2.549  12.363 -1.6725  2.4352  1.6876
    5TCq1    H2   82   3.157   2.724  12.404 -0.6177 -0.4407  0.4231
    5TCq1    H3   83   2.852   2.723  12.107  0.3922  0.7174 -1.3206
    5TCq1    H4   84   3.263   2.655  11.998 -0.1631  0.9497 -0.5180
    6MPD2     C   85   2.721   2.645  11.722  0.0386 -0.3352 -0.0285
    6MPD2    C1   86   2.857   2.656  11.736  0.2385 -0.5398  0.0169
    6MPD2    C2   87   2.938   2.634  11.622  0.0349  0.9176 -0.1798
    6MPD2    C3   88   2.879   2.627  11.496 -0.3090 -0.8270  0.3510
    6MPD2    C4   89   2.735   2.615  11.492  0.1111 -0.6869  0.3987
    6MPD2    C5   90   2.659   2.624  11.604  0.0768  0.3076  0.0549
    6MPD2     H   91   3.047   2.629  11.620  0.1876  3.9143  1.5273
    6MPD2    H1   92   2.682   2.612  11.397 -1.0896  1.4350  0.9884
    6MPD2    H2   93   2.664   2.646  11.814 -0.8321 -2.1429 -0.5410
    6MPD2    H3   94   2.552   2.623  11.588  0.0103 -1.2504  0.6137
    6MPD2     N   95   2.956   2.617  11.379 -0.5507  0.0305  0.1983
    6MPD2    H5   96   3.053   2.593  11.394 -0.6544 -1.1800 -1.0947
    6MPD2    N1   97   2.912   2.663  11.866 -0.2624  0.8358 -0.6660
    6MPD2    H7   98   2.854   2.637  11.945  0.5228 -0.6850 -0.5896
    7TCq1    O1   99   1.312   2.459  13.551  0.1681  0.2378 -0.3843
    7TCq1    C1  100   1.320   2.343  13.621  0.4009 -0.5109  0.3372
    7TCq1    O2  101   1.367   2.234  13.582 -0.4771  0.3428 -0.4989
    7TCq1    C2  102   1.199   2.336  13.708 -0.0775 -0.0786 -0.2331
    7TCq1    C3  103   1.136   2.447  13.745  0.3865 -0.5816 -0.3804
    7TCq1    C4  104   1.003   2.436  13.777  0.1888 -0.3244  0.3832
    7TCq1    C5  105   0.933   2.318  13.778 -0.4593 -0.4644  1.1708
    7TCq1    C6  106   1.005   2.213  13.744 -0.2484 -0.8690  0.1581
    7TCq1    C7  107   1.136   2.215  13.709  0.0131  0.6371 -0.0890
    7TCq1    C8  108   0.931   2.096  13.718  1.0300 -0.3396 -0.3359
    7TCq1    O4  109   0.829   2.079  13.785  0.1747 -0.3680 -0.4096
    7TCq1    C9  110   0.935   2.558  13.809 -0.0350 -0.5234 -0.6721
    7TCq1    O5  111   0.826   2.552  13.870  0.1392 -0.1853 -0.4867
    7TCq1    O6  112   1.002   2.667  13.804 -0.8567 -0.0505  0.0924
    7TCq1    H1  113   1.239   2.515  13.586  0.2023  0.1965 -0.2475
    7TCq1    H2  114   1.187   2.543  13.750  0.2694 -0.5025 -0.6629
    7TCq1    H3  115   0.829   2.311  13.809 -0.6998  1.4987  0.8290
    7TCq1    H4  116   1.195   2.125  13.695  1.0700  1.0664  1.6598
    8MPD2     C  117   0.752   1.813  13.341  0.4047  1.1750  0.0249
    8MPD2    C1  118   0.694   1.851  13.463  0.0848  0.0044  0.1047
    8MPD2    C2  119   0.761   1.932  13.547  0.3369 -0.1802 -0.3284
    8MPD2    C3  120   0.894   1.957  13.520 -0.1203  0.3607 -0.0607
    8MPD2    C4  121   0.961   1.904  13.410 -0.7156  0.1235  0.1231
    8MPD2    C5  122   0.885   1.841  13.312  0.0968 -0.4070 -0.6478
    8MPD2     H  123   0.707   1.969  13.633 -0.4906  1.4464 -1.5502
    8MPD2    H1  124   1.058   1.937  13.375 -0.2979 -0.0756  1.0919
    8MPD2    H2  125   0.698   1.762  13.262  0.5610  1.6155 -0.3659
    8MPD2    H3  126   0.931   1.815  13.217 -0.5213  1.5585 -1.4806
    8MPD2     N  127   0.969   2.040  13.603 -0.5222 -0.0939 -0.2329
    8MPD2    H5  128   1.051   2.080  13.558 -0.6023  1.0725  0.6532
    8MPD2    N1  129   0.558   1.832  13.490  0.7445 -0.3340  0.4414
    8MPD2    H7  130   0.515   1.899  13.552  0.0365 -0.6548  0.3073
    9TMC1    C1  131   1.568   1.728  12.259 -0.0795  0.2557  0.3785
    9TMC1    C2  132   1.692   1.773  12.218  0.0223  0.0561  0.6441
    9TMC1    C3  133   1.688   1.901  12.172  0.3487  0.4497 -0.0256
    9TMC1    C4  134   1.458   1.792  12.232  0.2045 -0.2726 -0.1784
    9TMC1    C5  135   1.462   1.910  12.169  0.0328  0.4622  0.3480
    9TMC1    C6  136   1.579   1.970  12.144 -0.4512  0.0368 -0.2720
    9TMC1     C  137   1.557   1.609  12.340  0.1336 -0.0448 -0.0504
    9TMC1     O  138   1.471   1.613  12.425  0.0321  0.0221  0.5880
    9TMC1     H  139   1.777   1.707  12.226 -1.3873 -1.9797 -1.1343
    9TMC1    H1  140   1.366   1.743  12.262  0.1434  1.6433  2.7854
    9TMC1    H2  141   1.581   2.075  12.117 -0.5662 -0.3961 -1.9541
    9TMC1    C7  142   1.355   2.007  12.184  0.5580  0.0249  0.2300
    9TMC1    C8  143   1.806   1.964  12.125  0.0512  0.0695  0.2656
    9TMC1    O1  144   1.386   2.094  12.260  0.1974 -0.4420 -0.1619
    9TMC1    O2  145   1.809   2.065  12.059  0.1054  0.3239 -0.4038
    9TMC1    O3  146   1.241   1.941  12.190  0.3427 -0.5433  0.0880
    9TMC1    H3  147   1.249   1.865  12.127 -0.5967 -0.0858 -0.5813
    9TMC1    O5  148   1.915   1.884  12.143 -0.4678  0.2755  0.4416
    9TMC1    H5  149   1.923   1.825  12.220  0.3092 -0.1533  0.0307
   10MPD2     C  150   1.617   1.363  12.492 -0.3229 -0.2289  0.7521
   10MPD2    C1  151   1.687   1.395  12.379  0.5062 -0.5549 -0.2042
   10MPD2    C2  152   1.778   1.305  12.332  0.2618 -0.1412 -0.5759
   10MPD2    C3  153   1.794   1.177  12.391 -0.2810  0.4196 -0.0858
   10MPD2    C4  154   1.714   1.145  12.494 -0.0248  0.3012 -0.1187
   10MPD2    C5  155   1.627   1.240  12.539  0.1432  0.7279  0.2866
   10MPD2     H  156   1.832   1.318  12.238 -1.8126 -1.1647 -1.8877
   10MPD2    H1  157   1.728   1.048  12.541  0.3262  0.7497  0.6807
   10MPD2    H2  158   1.549   1.431  12.542  1.7640  0.2221  3.0064
   10MPD2    H3  159   1.565   1.214  12.624  1.3469  0.1016  0.9775
   10MPD2     N  160   1.874   1.073  12.335 -0.3974 -0.6174  0.0559
   10MPD2    H5  161   1.878   0.989  12.393  3.7432 -0.2778  0.2037
   10MPD2    N1  162   1.666   1.521  12.317  0.3955  0.3864  0.3427
   10MPD2    H7  163   1.727   1.537  12.237  0.1241 -1.8098 -0.3066
   11TCq1    O1  164   3.884   0.367  14.537  0.3199 -0.2671 -0.0199
   11TCq1    C1  165   3.767   0.399  14.497 -0.1441  0.3688 -0.0078
   11TCq1    O2  166   3.662   0.353  14.542 -0.4616  0.3656  0.1544
   11TCq1    C2  167   3.776   0.512  14.399  0.0033  0.3883  0.2193
   11TCq1    C3  168   3.878   0.606  14.407 -0.1649 -0.5809 -0.5246
   11TCq1    C4  169   3.893   0.697  14.305  0.3277  0.8988 -0.2395
   11TCq1    C5  170   3.809   0.698  14.201 -1.2823  0.1456  0.6857
   11TCq1    C6  171   3.710   0.607  14.199  0.1618 -0.1071 -0.2565
   11TCq1    C7  172   3.688   0.512  14.298  0.9048  0.0044  0.5774
   11TCq1    C8  173   3.632   0.614  14.077 -0.4725  0.0040  0.6370
   11TCq1    O4  174   3.611   0.724  14.019  0.1928 -0.3829  0.0640
   11TCq1    C9  175   3.998   0.791  14.321  0.0401  0.2073 -0.4974
   11TCq1    O5  176   4.082   0.771  14.411  0.2174  0.2800 -0.1189
   11TCq1    O6  177   4.010   0.871  14.224  0.4309  0.3698  0.2623
   11TCq1    H1  178   3.951   0.406  14.476  1.4041 -0.8292  0.7989
   11TCq1    H2  179   3.956   0.594  14.482 -1.2154 -1.1473  0.4724
   11TCq1    H3  180   3.825   0.765  14.117  0.7352  0.0855  1.0045
   11TCq1    H4  181   3.605   0.442  14.296  0.6329  0.3664 -1.1303
   12MPD2     C  182   3.420   0.535  13.895 -0.0913  0.1091 -0.0744
   12MPD2    C1  183   3.505   0.445  13.953  0.3557  1.1403  0.4205
   12MPD2    C2  184   3.497   0.306  13.923  0.1941  0.0877 -0.3666
   12MPD2    C3  185   3.407   0.266  13.828  0.9560 -0.2288  0.2043
   12MPD2    C4  186   3.327   0.360  13.764  0.2140 -0.5142 -0.3130
   12MPD2    C5  187   3.341   0.496  13.792 -0.6267 -0.2261 -0.0589
   12MPD2     H  188   3.568   0.238  13.970  0.9379  2.5339  2.0826
   12MPD2    H1  189   3.256   0.331  13.687 -2.2334  0.2265  1.6603
   12MPD2    H2  190   3.427   0.643  13.907 -0.1682 -0.2139  2.9644
   12MPD2    H3  191   3.284   0.573  13.742 -0.0954 -1.3004 -2.3081
   12MPD2     N  192   3.379   0.128  13.798  0.1012 -0.1316  0.1770
   12MPD2    H5  193   3.306   0.108  13.731 -0.1068 -2.8310  1.2106
   12MPD2    N1  194   3.594   0.489  14.044  0.2989  0.1479  0.9461
   12MPD2    H7  195   3.644   0.412  14.088  1.2133 -1.2041 -2.4479
   13TCq1    O1  196   3.118   1.054  10.823 -0.5615 -0.1308 -0.7039
   13TCq1    C1  197   3.133   1.181  10.775 -0.2355 -0.2300 -0.1664
   13TCq1    O2  198   3.237   1.227  10.730 -0.1693  0.0748 -0.2127
   13TCq1    C2  199   3.004   1.199  10.703  0.1065 -0.1565  0.0632
   13TCq1    C3  200   3.006   1.200  10.565 -0.0403  1.0219 -0.0447
   13TCq1    C4  201   2.885   1.198  10.486 -0.2652 -0.2424 -0.8944
   13TCq1    C5  202   2.761   1.224  10.557  1.0440  0.0851 -0.1291
   13TCq1    C6  203   2.768   1.235  10.695  0.6515  0.6879  0.2520
   13TCq1    C7  204   2.882   1.216  10.768 -0.5142  0.7134  0.2325
   13TCq1    C8  205   2.646   1.218  10.767 -0.3332 -0.2387 -0.5784
   13TCq1    O4  206   2.643   1.250  10.884  0.6609 -0.5036  0.3790
   13TCq1    C9  207   2.895   1.222  10.349  0.1765 -0.0934  0.1487
   13TCq1    O5  208   3.009   1.224  10.296 -0.2473 -0.0452  0.3500
   13TCq1    O6  209   2.784   1.246  10.292 -0.0781  0.3905 -0.6926
   13TCq1    H1  210   3.025   1.024  10.834  0.4218 -2.3364  1.3931
   13TCq1    H2  211   3.102   1.175  10.520 -0.3009  0.9512 -0.5564
   13TCq1    H3  212   2.675   1.246  10.494 -0.0666 -1.0376  1.0125
   13TCq1    H4  213   2.885   1.208  10.876 -0.8346 -1.9026  0.0508
   14MPD2     C  214   2.397   0.953  10.695 -0.0267 -0.1901 -0.1925
   14MPD2    C1  215   2.441   1.069  10.756 -0.2981 -0.2000  0.3357
   14MPD2    C2  216   2.371   1.115  10.867  0.2356 -0.0976  0.1239
   14MPD2    C3  217   2.270   1.049  10.924  0.2988 -0.2282  0.1690
   14MPD2    C4  218   2.224   0.932  10.869 -0.2331  0.0666  0.3767
   14MPD2    C5  219   2.285   0.890  10.756  0.7647  0.0341  0.2524
   14MPD2     H  220   2.409   1.207  10.911 -1.1191  0.2886  0.4855
   14MPD2    H1  221   2.131   0.885  10.900  0.8926 -1.7217  1.0418
   14MPD2    H2  222   2.442   0.915  10.604 -0.6534  1.6426 -1.2759
   14MPD2    H3  223   2.252   0.797  10.711  0.1313 -0.8546  2.5224
   14MPD2     N  224   2.221   1.099  11.049  0.1118  0.0719  0.9944
   14MPD2    H5  225   2.258   1.189  11.078 -1.5708  1.4928 -1.3143
   14MPD2    N1  226   2.556   1.133  10.696 -0.1069 -0.2251 -0.2997
   14MPD2    H7  227   2.586   1.109  10.602  0.8800 -1.4815  0.3365
   15TCq1    O1  228   4.589   0.609   1.105  0.0473  0.0767  0.1621
   15TCq1    C1  229   4.521   0.507   1.156 -0.1742  0.6578 -0.5608
   15TCq1    O2  230   4.410   0.462   1.129  0.0637  0.0158 -0.5487
   15TCq1    C2  231   4.630   0.404   1.182 -0.5423  0.3713  0.1053
   15TCq1    C3  232   0.017   0.433   1.229  0.5518  0.5275 -0.0331
   15TCq1    C4  233   0.119   0.341   1.234 -0.6958 -0.4655 -0.1351
   15TCq1    C5  234   0.094   0.219   1.180  0.1111  0.6424 -0.3053
   15TCq1    C6  235   4.710   0.198   1.123 -0.0354 -0.0516  0.4118
   15TCq1    C7  236   4.602   0.280   1.136 -0.8889 -0.0576  0.0864
   15TCq1    C8  237   4.694   0.074   1.052  1.0058  0.8584  0.0748
   15TCq1    O4  238   0.042   4.725   1.061  0.1099  0.5530 -0.5842
   15TCq1    C9  239   0.251   0.377   1.279  0.0802 -0.4877 -0.5091
   15TCq1    O5  240   0.262   0.496   1.328 -0.3526  0.4514  0.2900
   15TCq1    O6  241   0.339   0.293   1.301  0.1850  0.1601  0.0461
   15TCq1    H1  242   4.685   0.594   1.111  0.0472  0.1259  0.2756
   15TCq1    H2  243   0.034   0.539   1.247  2.5921  0.4249 -1.2313
   15TCq1    H3  244   0.168   0.140   1.184  1.4617  2.0471  1.8186
   15TCq1    H4  245   4.499   0.267   1.106 -1.4594  2.5432  0.8765
   16MPD2     C  246   4.424   4.725   0.828  0.2687  0.0958  0.3953
   16MPD2    C1  247   4.526   4.708   0.921 -0.1274 -0.1837 -0.1541
   16MPD2    C2  248   4.556   4.578   0.961 -0.2597 -0.1892 -0.3894
   16MPD2    C3  249   4.491   4.466   0.912 -0.3833  0.5644  0.1443
   16MPD2    C4  250   4.387   4.482   0.816  0.1086 -0.2838  0.1300
   16MPD2    C5  251   4.353   4.617   0.784  0.4220 -0.2478 -0.2596
   16MPD2     H  252   4.643   4.552   1.019 -0.2339  2.4638  0.7269
   16MPD2    H1  253   4.333   4.401   0.769 -2.4580  0.8829  1.0536
   16MPD2    H2  254   4.392   0.088   0.801  2.2284  1.0233  1.4923
   16MPD2    H3  255   4.272   4.643   0.717 -1.2338  1.3254  2.3658
   16MPD2     N  256   4.558   4.345   0.932  0.1348  0.1234  0.5028
   16MPD2    H5  257   4.639   4.348   0.992  0.9680 -4.7160 -0.3799
   16MPD2    N1  258   4.585   0.086   0.967  0.1218  0.1025 -0.1896
   16MPD2    H7  259   4.528   0.170   0.958  1.3868  1.1802  1.8918
   17TMC1    C1  260   2.721   4.590  10.092  0.4642 -0.1087  0.0226
   17TMC1    C2  261   2.666   4.490  10.014  0.0891  0.5657 -0.4064
   17TMC1    C3  262   2.561   4.532   9.939  0.4947  0.0302  0.3029
   17TMC1    C4  263   2.667   4.716  10.101 -0.3252  0.2866  0.3706
   17TMC1    C5  264   2.577   0.016  10.007  0.0974  0.3685  0.2769
   17TMC1    C6  265   2.512   4.658   9.938 -0.4048 -0.1803 -0.3879
   17TMC1     C  266   2.808   4.547  10.202 -0.2566 -0.5555  0.5193
   17TMC1     O  267   2.905   4.476  10.162  0.0737  0.2533  0.6053
   17TMC1     H  268   2.706   4.389  10.009 -1.1787 -0.0617  2.0176
   17TMC1    H1  269   2.713   0.054  10.164 -1.2254  0.6191  0.6302
   17TMC1    H2  270   2.438   4.680   9.863  0.4227 -0.9695 -1.4375
   17TMC1    C7  271   2.526   0.145   9.995 -0.5216 -0.0336 -0.2655
   17TMC1    C8  272   2.479   4.430   9.872 -1.0281  0.1452 -0.1762
   17TMC1    O1  273   2.410   0.168   9.957  0.0438 -0.2388  0.4035
   17TMC1    O2  274   2.475   4.415   9.748 -0.0321 -0.0275  0.2343
   17TMC1    O3  275   2.629   0.233  10.004 -1.3601  0.1899  0.0372
   17TMC1    H3  276   2.716   0.190  10.018 -0.1898  2.5287  0.0737
   17TMC1    O5  277   2.475   4.330   9.959 -0.1220  0.2775 -0.6678
   17TMC1    H5  278   2.470   4.369  10.049 -0.7926 -3.3871  0.8644
   18MPD2     C  279   2.747   4.609  10.568 -0.7309 -0.0186 -0.0868
   18MPD2    C1  280   2.826   4.571  10.457 -0.2816  0.3745  0.1783
   18MPD2    C2  281   2.957   4.534  10.467  0.6937  0.0886 -0.2898
   18MPD2    C3  282   3.007   4.525  10.592 -0.5154 -0.0610  0.0103
   18MPD2    C4  283   2.936   4.571  10.703  0.2319  0.4544  0.4929
   18MPD2    C5  284   2.804   4.611  10.689  0.6001 -0.2021  0.7526
   18MPD2     H  285   3.011   4.493  10.382  0.3410 -0.9155 -0.0228
   18MPD2    H1  286   2.983   4.570  10.800  1.7224 -2.1185 -0.2453
   18MPD2    H2  287   2.645   4.645  10.561 -0.6060  0.2139 -0.7801
   18MPD2    H3  288   2.748   4.641  10.776  1.3680  0.9515  0.8602
   18MPD2     N  289   3.145   4.493  10.614  0.1596 -0.4415  0.2331
   18MPD2    H5  290   3.181   4.512  10.707 -0.9221  1.4871  0.2640
   18MPD2    N1  291   2.762   4.588  10.328  0.7721 -0.3471 -0.0763
   18MPD2    H7  292   2.679   4.647  10.328  0.8971 -0.1706  0.4415
   19TMC2    C1  293   4.461   0.920  14.205  0.6065 -0.0905 -0.7500
   19TMC2    C2  294   4.392   1.017  14.126  0.2805  0.4040 -0.1170
   19TMC2    C3  295   4.289   0.962  14.048 -0.2622 -0.2003  0.6429
   19TMC2    C4  296   4.434   0.786  14.203 -0.2275 -0.2849 -0.3951
   19TMC2    C5  297   4.329   0.751  14.121  1.0662 -0.3349  0.4632
   19TMC2    C6  298   4.253   0.831  14.049 -0.0623  0.0697  0.8336
   19TMC2     C  299   4.572   0.981  14.265  0.3993 -0.4498 -0.4410
   19TMC2     O  300   4.598   1.092  14.221  0.3096  0.2687  0.2745
   19TMC2     H  301   4.409   1.123  14.120  0.9758  0.3203  0.5092
   19TMC2    H1  302   4.491   0.710  14.255 -2.1136  0.1673  2.3262
   19TMC2    H2  303   4.186   0.791  13.974  0.0097  3.0682 -0.8296
   19TMC2    C7  304   4.296   0.605  14.113  0.7064  0.8423  0.0125
   19TMC2    C8  305   4.208   1.065  13.994  0.4537 -0.0612 -0.2041
   19TMC2    O1  306   4.392   0.539  14.142 -0.1219 -0.2080 -0.6904
   19TMC2    O2  307   4.255   1.176  13.971  0.2777 -0.3701 -0.5375
   19TMC2    O5  308   4.079   1.045  14.018  0.3298 -0.2582  0.1768
   19TMC2    H5  309   4.064   0.966  14.074 -0.9096  0.1334  0.3945
   20MPD2     C  310   0.082   1.048  14.427 -0.1432  0.3839  0.2019
   20MPD2    C1  311   4.735   0.942  14.448  0.8812  0.9113  0.3943
   20MPD2    C2  312   0.044   0.832  14.525 -0.1193  0.7303  0.2192
   20MPD2    C3  313   0.154   0.850  14.608  0.2043 -0.3263  0.0638
   20MPD2    C4  314   0.233   0.965  14.589 -0.3409 -0.0026  0.0288
   20MPD2    C5  315   0.201   1.061  14.494 -0.2394  0.3398  0.7168
   20MPD2     H  316   4.715   0.747  14.534  0.5343  0.0607 -1.3809
   20MPD2    H1  317   0.322   0.984  14.648  1.1850  0.3864 -2.4057
   20MPD2    H2  318   0.063   1.124  14.353  0.4894 -1.8363 -2.2545
   20MPD2    H3  319   0.267   1.142  14.468  1.5851 -1.6223 -0.7751
   20MPD2     N  320   0.200   0.765  14.711 -0.7072 -0.2139 -0.2063
   20MPD2    H5  321   0.278   0.802  14.765 -0.2391 -0.0231 -1.0116
   20MPD2    N1  322   4.624   0.907  14.371  0.0159 -0.1591  0.3527
   20MPD2    H7  323   4.566   0.829  14.400 -0.0141  0.2594  1.4187
   21TMC2    C1  324   1.809   1.030  14.574 -0.9596 -0.1861 -0.5845
   21TMC2    C2  325   1.791   0.914  14.647  0.1539 -0.1455 -0.4226
   21TMC2    C3  326   1.747   0.925  14.771 -0.4276 -0.1314 -0.4409
   21TMC2    C4  327   1.778   1.154  14.630 -0.0948 -0.0251 -0.4362
   21TMC2    C5  328   1.725   1.156  14.754 -0.0358  0.3835 -0.5071
   21TMC2    C6  329   1.719   1.043  14.833  0.6912 -0.2706  0.4580
   21TMC2     C  330   1.889   1.025  14.455 -0.0032 -0.1988  0.5288
   21TMC2     O  331   1.880   0.913  14.408 -0.3396  0.0189 -0.4412
   21TMC2     H  332   1.816   0.814  14.613  2.6786 -0.0865  1.2471
   21TMC2    H1  333   1.800   1.249  14.584  0.6082 -1.4013 -2.9203
   21TMC2    H2  334   1.692   1.051  14.937 -2.2756  1.8309 -0.4939
   21TMC2    C7  335   1.703   1.288  14.811 -0.0453  0.0187 -0.4754
   21TMC2    C8  336   1.712   0.801  14.843 -0.4924 -0.0679 -0.3634
   21TMC2    O1  337   1.718   1.294  14.932 -0.7784  0.1118 -0.3328
   21TMC2    O2  338   1.670   0.700  14.786  0.0801 -0.2147 -0.3576
   21TMC2    O5  339   1.750   0.810  14.975 -0.4001  0.0277  0.9242
   21TMC2    H5  340   1.821   0.878  14.983  1.0650 -1.4351  0.3446
   22MPD2     C  341   2.229   1.163  14.105  0.2149  0.5416 -0.4947
   22MPD2    C1  342   2.148   1.049  14.115 -0.2215  0.1009 -0.3818
   22MPD2    C2  343   2.047   1.050  14.209  0.2172  0.0481  0.2550
   22MPD2    C3  344   2.033   1.157  14.297 -0.7027  0.0938  0.6019
   22MPD2    C4  345   2.108   1.268  14.281  0.3659  0.2958 -0.1710
   22MPD2    C5  346   2.211   1.269  14.186  0.1932  0.5655  0.4870
   22MPD2     H  347   1.981   0.965  14.216 -0.6209  0.8275  1.8023
   22MPD2    H1  348   2.109   1.355  14.345  1.0889  0.1687 -0.0086
   22MPD2    H2  349   2.316   1.181  14.042 -0.2165  1.7793 -0.7431
   22MPD2    H3  350   2.277   1.355  14.183 -2.0018  2.2604  0.2155
   22MPD2     N  351   1.948   1.143  14.410  0.6439  0.0865  0.2607
   22MPD2    H5  352   1.935   1.231  14.459  1.9447 -0.1888  1.1039
   22MPD2    N1  353   2.160   0.935  14.029 -0.4913  0.3855  0.7475
   22MPD2    H7  354   2.104   0.854  14.053 -0.6455 -0.2742 -1.8910
   23TMC2    C1  355   2.949   1.802  14.504 -0.0064 -0.1672 -0.2181
   23TMC2    C2  356   2.983   1.931  14.468  0.0639  0.1472 -1.1465
   23TMC2    C3  357   2.900   2.001  14.381  0.3653 -0.5003  0.2735
   23TMC2    C4  358   2.847   1.733  14.450 -0.0899  0.7459  0.3715
   23TMC2    C5  359   2.761   1.805  14.364 -0.6599 -0.7999 -0.0880
   23TMC2    C6  360   2.783   1.943  14.342  0.2532 -0.1022  0.3310
   23TMC2     C  361   3.061   1.719  14.551 -0.3804 -0.2157 -0.0096
   23TMC2     O  362   3.132   1.762  14.639  0.3986  0.4885 -0.1303
   23TMC2     H  363   3.068   1.976  14.517 -0.9026 -0.0389  0.7071
   23TMC2    H1  364   2.817   1.637  14.488  2.7615 -0.0676  0.5484
   23TMC2    H2  365   2.720   2.009  14.284  0.9454  0.4665  0.2269
   23TMC2    C7  366   2.649   1.733  14.298 -0.3452 -0.2421  0.2481
   23TMC2    C8  367   2.969   2.087  14.287  0.2976 -0.4624 -0.2280
   23TMC2    O1  368   2.674   1.618  14.272 -0.0707  0.1615  0.2053
   23TMC2    O2  369   3.089   2.107  14.301  0.3742  0.2418 -0.5224
   23TMC2    O5  370   2.902   2.105  14.169  0.1580  0.0604  0.3274
   23TMC2    H5  371   2.807   2.084  14.181  0.1545 -0.4268 -0.5463
   24MPD2     C  372   3.365   1.307  14.464 -0.1021 -0.5602 -0.2663
   24MPD2    C1  373   3.376   1.410  14.555  0.2788  0.3201 -0.3696
   24MPD2    C2  374   3.280   1.506  14.556 -0.6255  0.4622 -0.4365
   24MPD2    C3  375   3.173   1.503  14.466  0.1982 -0.4363 -0.5905
   24MPD2    C4  376   3.166   1.398  14.373 -0.1774 -0.3939 -0.0502
   24MPD2    C5  377   3.272   1.312  14.368  0.6709  0.4322  0.5108
   24MPD2     H  378   3.269   1.577  14.637 -2.5235  0.4149 -0.6479
   24MPD2    H1  379   3.087   1.377  14.302  0.6676 -0.7630 -0.8855
   24MPD2    H2  380   3.428   1.220  14.447  0.6372 -0.3748  1.5978
   24MPD2    H3  381   3.278   1.231  14.297 -1.0814  1.3981 -0.7419
   24MPD2     N  382   3.074   1.606  14.467 -0.1734 -0.8081 -0.3052
   24MPD2    H5  383   3.009   1.600  14.390 -0.6687 -2.4311  0.2381
   24MPD2    N1  384   3.483   1.424  14.649 -0.1008  0.1554  0.6897
   24MPD2    H7  385   3.469   1.500  14.714  0.6346  2.3371 -1.6729
   25TMC2    C1  386   2.552   3.656  11.489 -0.6487  0.2873  0.6103
   25TMC2    C2  387   2.593   3.686  11.359  0.3585  0.7304 -0.3964
   25TMC2    C3  388   2.628   3.808  11.339 -0.5533  0.2157 -0.5297
   25TMC2    C4  389   2.523   3.760  11.578  0.2699  0.2404  0.6807
   25TMC2    C5  390   2.556   3.888  11.540 -0.2593 -0.1089  0.7015
   25TMC2    C6  391   2.612   3.914  11.423 -0.6195 -0.6901 -0.0672
   25TMC2     C  392   2.466   3.542  11.483  0.2356  0.0401  0.5621
   25TMC2     O  393   2.506   3.447  11.417 -0.5180 -0.6121 -0.6712
   25TMC2     H  394   2.608   3.617  11.277  1.3348 -1.8573  1.9573
   25TMC2    H1  395   2.490   3.743  11.680  1.3401 -0.1496  0.9626
   25TMC2    H2  396   2.627   4.013  11.382 -3.2444  0.4312  1.6168
   25TMC2    C7  397   2.495   3.991  11.616 -0.2445 -1.2308  0.5064
   25TMC2    C8  398   2.646   3.846  11.202  0.0633  0.4420 -0.0087
   25TMC2    O1  399   2.506   3.989  11.740  0.2735 -0.2311 -0.0350
   25TMC2    O2  400   2.721   3.929  11.153  0.0054 -0.9235  0.1028
   25TMC2    O5  401   2.524   3.813  11.143 -0.3550  0.0040 -0.2247
   25TMC2    H5  402   2.456   3.785  11.208 -0.5194  2.4692  0.6652
   26MPD2     C  403   1.998   3.362  11.502  0.0643  1.1268  0.4688
   26MPD2    C1  404   2.004   3.487  11.559  0.0532 -0.0688  0.1368
   26MPD2    C2  405   2.126   3.540  11.585 -0.2020 -0.2905 -0.3024
   26MPD2    C3  406   2.237   3.482  11.532 -0.2397  0.3671  0.2763
   26MPD2    C4  407   2.238   3.365  11.459 -0.0876 -0.1801  0.1899
   26MPD2    C5  408   2.114   3.312  11.444  0.4675 -0.2998  0.3476
   26MPD2     H  409   2.139   3.632  11.642  3.7912 -0.2997 -1.1759
   26MPD2    H1  410   2.322   3.323  11.406 -0.0894 -2.6090  2.1196
   26MPD2    H2  411   1.910   3.299  11.489  1.1453  0.6599 -4.6060
   26MPD2    H3  412   2.091   3.225  11.384 -1.1273 -0.0778  0.6207
   26MPD2     N  413   2.347   3.567  11.542  0.3584  0.3230 -0.0590
   26MPD2    H5  414   2.335   3.653  11.594 -1.6512 -1.8735  3.0404
   26MPD2    N1  415   1.891   3.549  11.615 -0.2372 -0.3143  0.1328
   26MPD2    H7  416   1.801   3.502  11.612  1.1587 -3.1061  2.1456
   27TMC2    C1  417   0.991   2.172  12.063 -0.2389  0.7041  0.1903
   27TMC2    C2  418   0.995   2.239  11.944 -0.5289 -0.2428  0.0757
   27TMC2    C3  419   1.016   2.368  11.949 -0.0587  0.2859  0.8329
   27TMC2    C4  420   0.997   2.226  12.187 -0.4657  0.4046  0.4548
   27TMC2    C5  421   1.017   2.359  12.190  1.2310 -0.2305  0.0469
   27TMC2    C6  422   1.033   2.432  12.073 -0.1698 -0.3616  0.2907
   27TMC2     C  423   0.986   2.027  12.054  0.0137 -0.6695  0.0283
   27TMC2     O  424   1.035   1.979  11.952  0.3527 -0.5871 -0.0512
   27TMC2     H  425   1.006   2.194  11.846  2.4292 -1.6689  1.0768
   27TMC2    H1  426   0.986   2.176  12.283  0.7657 -1.0508 -0.1709
   27TMC2    H2  427   1.069   2.534  12.080 -0.2435 -0.4445  1.9414
   27TMC2    C7  428   1.075   2.414  12.307  0.0068  0.0670  0.7092
   27TMC2    C8  429   1.003   2.445  11.828  0.4908 -0.7954 -0.1492
   27TMC2    O1  430   1.005   2.421  12.403  0.1354  0.2404  0.2948
   27TMC2    O2  431   1.077   2.424  11.730  0.1499  0.0846 -0.2714
   27TMC2    O5  432   0.976   2.567  11.876  0.7815 -0.3947  0.1058
   27TMC2    H5  433   0.916   2.562  11.954  0.4770 -1.1917 -0.1722
   28MPD2     C  434   0.837   1.577  12.265 -0.2638 -0.1877 -0.1417
   28MPD2    C1  435   0.809   1.683  12.355  0.0629  1.0291  0.4708
   28MPD2    C2  436   0.842   1.813  12.321 -0.1689  0.0204 -0.0571
   28MPD2    C3  437   0.902   1.838  12.200 -0.2628 -0.0235  0.0249
   28MPD2    C4  438   0.900   1.738  12.105  0.0041 -0.1737  0.4164
   28MPD2    C5  439   0.866   1.617  12.137 -0.0734  0.6940 -0.4959
   28MPD2     H  440   0.826   1.893  12.393  0.0858 -0.5804  0.6655
   28MPD2    H1  441   0.912   1.770  12.003 -1.0598  0.7720  0.5905
   28MPD2    H2  442   0.800   1.477  12.283 -2.1044  0.0653 -2.6036
   28MPD2    H3  443   0.834   1.547  12.061  1.4991  1.7227 -2.1089
   28MPD2     N  444   0.937   1.979  12.169  0.1282  0.4667 -0.6501
   28MPD2    H5  445   0.933   2.047  12.244  2.2685 -0.4806  0.3353
   28MPD2    N1  446   0.751   1.650  12.477  0.7848 -0.1878 -0.1086
   28MPD2    H7  447   0.727   1.552  12.486  1.1365 -0.3685 -1.1745
   29TMC2    C1  448   0.688   4.201  14.552  0.1766  0.1489  0.1870
   29TMC2    C2  449   0.650   4.188  14.683  0.2720 -0.9202 -0.1123
   29TMC2    C3  450   0.598   4.297  14.752  0.4568 -0.1653 -0.1565
   29TMC2    C4  451   0.680   4.327  14.494  0.1186 -0.1186  0.2380
   29TMC2    C5  452   0.651   4.431  14.571 -0.1181  0.0833  0.3048
   29TMC2    C6  453   0.598   4.422  14.699 -0.8154 -0.1897 -0.4665
   29TMC2     C  454   0.744   4.085  14.486  0.2681  0.1464 -0.8029
   29TMC2     O  455   0.810   4.016  14.561 -0.2987  0.3723 -0.0743
   29TMC2     H  456   0.669   4.091  14.728  4.6717  0.7754  1.7563
   29TMC2    H1  457   0.726   4.354  14.399 -0.8674 -1.3687 -0.5989
   29TMC2    H2  458   0.567   4.511  14.754 -0.2748 -0.8662  0.9121
   29TMC2    C7  459   0.674   4.565  14.528  0.2466  0.2216 -0.1054
   29TMC2    C8  460   0.517   4.270  14.867 -0.0930  0.0077  0.3869
   29TMC2    O1  461   0.629   4.598  14.424  0.1999  1.3635 -0.1571
   29TMC2    O2  462   0.439   4.174  14.879 -0.2567 -0.4626  0.7630
   29TMC2    O5  463   0.524   4.372  14.953 -0.2073 -0.3816 -0.2147
   29TMC2    H5  464   0.584   4.446  14.933 -0.6094  0.2964  1.0460
   30MPD2     C  465   0.856   3.784  14.096 -0.1200  0.2646 -0.2729
   30MPD2    C1  466   0.864   3.765  14.227  0.6198  0.4478  0.3672
   30MPD2    C2  467   0.830   3.862  14.311  0.3486 -0.0349  0.0429
   30MPD2    C3  468   0.783   3.981  14.263  0.1418  0.1780 -0.2766
   30MPD2    C4  469   0.763   3.993  14.135  0.2218 -0.8420 -0.3615
   30MPD2    C5  470   0.798   3.900  14.047 -0.9165  0.6586 -0.5803
   30MPD2     H  471   0.849   3.841  14.416  4.3824  2.2339 -0.2750
   30MPD2    H1  472   0.734   4.089  14.093 -1.1530 -0.2691  1.8748
   30MPD2    H2  473   0.890   3.719  14.016  0.3094  0.3842 -0.1900
   30MPD2    H3  474   0.801   3.917  13.940 -0.0235 -0.0238 -0.6566
   30MPD2     N  475   0.745   4.086  14.352  0.5442  0.3546  0.0907
   30MPD2    H5  476   0.687   4.158  14.309 -1.3133 -2.2549 -1.7841
   30MPD2    N1  477   0.921   3.643  14.280  0.2160 -0.1127 -0.2736
   30MPD2    H7  478   0.937   3.639  14.380  1.1238 -0.7946 -0.4430
   31TMC2    C1  479   3.185   2.510  14.786  0.8628 -0.5052 -0.1702
   31TMC2    C2  480   3.053   2.538  14.752 -0.4418 -0.5976 -0.6196
   31TMC2    C3  481   2.962   2.510  14.848  0.1771 -0.1601  0.4062
   31TMC2    C4  482   3.214   2.459  14.909  0.3249  0.1621 -0.9204
   31TMC2    C5  483   3.118   2.433  14.999  0.6947 -0.8354  0.0266
   31TMC2    C6  484   2.985   2.470  14.977  0.2096 -0.4027 -0.2612
   31TMC2     C  485   3.272   2.621  14.738 -0.1726  0.2664  0.9990
   31TMC2     O  486   3.208   2.702  14.671  0.1120 -0.5946 -0.0557
   31TMC2     H  487   3.025   2.597  14.666 -1.5740  0.9610  0.8154
   31TMC2    H1  488   3.320   2.449  14.932 -0.1297  0.5785  1.2926
   31TMC2    H2  489   2.904   2.432  15.037 -1.0418  1.5655 -0.7194
   31TMC2    C7  490   3.162   2.407  15.135 -0.5418 -0.0844 -0.1185
   31TMC2    C8  491   2.833   2.567  14.820  0.0418  0.0098  0.4388
   31TMC2    O1  492   3.279   2.375  15.161 -0.2025 -0.4578 -0.1784
   31TMC2    O2  493   2.804   2.596  14.706  0.1927 -0.2141  0.1000
   31TMC2    O5  494   2.765   2.599  14.928 -0.3946  0.8360 -0.3045
   31TMC2    H5  495   2.814   2.615  15.011 -1.5208  1.1525  0.3069
   32MPD2     C  496   3.712   2.848  14.626  0.4661 -0.2694 -0.0269
   32MPD2    C1  497   3.590   2.868  14.571  0.0470 -1.2859 -0.0068
   32MPD2    C2  498   3.491   2.773  14.606  0.8541  0.3956 -0.4474
   32MPD2    C3  499   3.512   2.676  14.703  0.0967  0.2366  0.1242
   32MPD2    C4  500   3.635   2.656  14.755 -0.5374  0.6016 -0.5859
   32MPD2    C5  501   3.732   2.743  14.712  0.3913  0.1179 -0.1767
   32MPD2     H  502   3.393   2.776  14.560  1.6183  0.1392 -2.0900
   32MPD2    H1  503   3.669   2.583  14.828 -0.8492  0.6142 -0.4321
   32MPD2    H2  504   3.793   2.914  14.599 -1.4199  2.0651  0.0258
   32MPD2    H3  505   3.826   2.730  14.764  0.1696  0.8078  0.3962
   32MPD2     N  506   3.406   2.599  14.759 -0.1916 -0.2994 -0.0537
   32MPD2    H5  507   3.431   2.535  14.834  0.1464 -0.5393 -0.3693
   32MPD2    N1  508   3.569   2.990  14.503  0.0421  0.1462 -0.5872
   32MPD2    H7  509   3.649   3.053  14.495  0.8130 -0.6671  0.6967
   33TMC2    C1  510   3.501   0.664  10.776  1.0624  0.0979 -0.4786
   33TMC2    C2  511   3.592   0.760  10.818  0.3353 -0.3201 -0.2098
   33TMC2    C3  512   3.561   0.893  10.785 -0.2072  0.3628  0.1256
   33TMC2    C4  513   3.385   0.707  10.713 -0.0265  0.2748 -0.1924
   33TMC2    C5  514   3.357   0.838  10.680  0.3627  0.1092  0.3567
   33TMC2    C6  515   3.449   0.930  10.712 -0.5616  0.2615  0.5864
   33TMC2     C  516   3.538   0.522  10.743 -0.0230 -0.0935 -0.0763
   33TMC2     O  517   3.450   0.445  10.714  0.4892  0.2327  0.4903
   33TMC2     H  518   3.687   0.730  10.860  0.0510  0.3891  0.9603
   33TMC2    H1  519   3.332   0.629  10.660  0.2275  0.3000 -0.4864
   33TMC2    H2  520   3.431   1.034  10.689  1.9000  0.7004  0.6211
   33TMC2    C7  521   3.257   0.873  10.575  0.6365  0.0399 -0.5874
   33TMC2    C8  522   3.652   0.999  10.832  0.3139 -1.1749  0.3161
   33TMC2    O1  523   3.285   0.968  10.505  0.2097  0.7457  0.8008
   33TMC2    O2  524   3.682   1.099  10.766  0.3666 -0.3164 -0.0184
   33TMC2    O5  525   3.714   0.959  10.942 -0.4362  0.5360  0.0397
   33TMC2    H5  526   3.666   0.895  10.999  0.7476 -0.5273 -0.1433
   34MPD2     C  527   3.887   0.158  10.681  1.2851 -0.0588  0.2881
   34MPD2    C1  528   3.751   0.142  10.692  0.1710 -1.1822  0.6581
   34MPD2    C2  529   3.678   0.257  10.706  0.1176 -0.5325 -0.0999
   34MPD2    C3  530   3.741   0.380  10.715  0.0487  0.0045  0.1960
   34MPD2    C4  531   3.877   0.390  10.720  0.0889  0.1102 -0.0684
   34MPD2    C5  532   3.951   0.276  10.705  0.2048  0.1550 -0.0036
   34MPD2     H  533   3.570   0.245  10.710  0.2044 -1.0583  0.6683
   34MPD2    H1  534   3.931   0.484  10.728 -0.5957  0.5806 -0.9460
   34MPD2    H2  535   3.950   0.069  10.685  1.5959  0.0858 -1.2244
   34MPD2    H3  536   4.057   0.279  10.681 -0.7675  1.8471 -4.1766
   34MPD2     N  537   3.674   0.507  10.737  0.0903 -0.3129  0.0517
   34MPD2    H5  538   3.735   0.587  10.750  1.0034 -0.9971  0.0120
   34MPD2    N1  539   3.705   0.007  10.684 -0.0239  0.1027 -0.4279
   34MPD2    H7  540   3.773   4.669  10.677 -0.2773 -0.2294  0.6842
   35TMC2    C1  541   4.374   2.140  11.569 -0.2149 -0.2349 -0.3574
   35TMC2    C2  542   4.261   2.213  11.573 -0.5066  0.3480  0.7320
   35TMC2    C3  543   4.144   2.148  11.598 -0.4378  0.9369  0.1928
   35TMC2    C4  544   4.374   2.004  11.567  0.1658 -0.3938 -0.5364
   35TMC2    C5  545   4.259   1.939  11.590  0.0348  0.2145 -0.8255
   35TMC2    C6  546   4.140   2.008  11.595  0.7224 -0.5696  0.2272
   35TMC2     C  547   4.502   2.211  11.555 -0.1962  0.1554  0.8624
   35TMC2     O  548   4.504   2.329  11.517  0.9875  0.1451 -0.2227
   35TMC2     H  549   4.274   2.318  11.550 -1.7028  0.3635  0.1265
   35TMC2    H1  550   4.463   1.942  11.555 -0.0583 -1.1180  1.5711
   35TMC2    H2  551   4.043   1.963  11.609  1.4705 -2.1444  0.3503
   35TMC2    C7  552   4.248   1.796  11.575  0.4485 -0.0414 -0.4049
   35TMC2    C8  553   4.013   2.219  11.603  0.0141 -0.3781  0.0954
   35TMC2    O1  554   4.148   1.753  11.520 -0.2376 -0.1822  0.2369
   35TMC2    O2  555   3.914   2.171  11.550  0.0084 -0.4460  0.0712
   35TMC2    O5  556   4.047   2.348  11.617  0.3293  0.3088 -0.2010
   35TMC2    H5  557   4.127   2.351  11.673 -0.3164  1.0364  0.6837
   36MPD2     C  558   0.241   2.286  11.718 -0.6331  0.3965 -0.3079
   36MPD2    C1  559   0.192   2.174  11.771 -1.3110 -0.3613 -1.0153
   36MPD2    C2  560   0.062   2.121  11.740 -0.1784 -0.7138  0.0459
   36MPD2    C3  561   4.727   2.188  11.647 -0.2486 -0.0510  0.3756
   36MPD2    C4  562   0.037   2.310  11.604  0.6208  0.4696  0.1122
   36MPD2    C5  563   0.159   2.365  11.639  0.2971 -0.0180  0.9630
   36MPD2     H  564   0.027   2.028  11.784 -0.3555  0.1320  1.6612
   36MPD2    H1  565   4.720   2.373  11.534 -0.1505 -0.0735  0.2151
   36MPD2    H2  566   0.345   2.312  11.728 -0.2133 -0.3854 -2.6840
   36MPD2    H3  567   0.202   2.457  11.601 -0.4572 -1.1332 -2.5543
   36MPD2     N  568   4.602   2.140  11.613  0.4052  0.3250  0.3276
   36MPD2    H5  569   4.571   2.050  11.645  3.0892 -0.8736 -0.4011
   36MPD2    N1  570   0.268   2.107  11.867 -0.5395 -0.2105 -0.0414
   36MPD2    H7  571   0.342   2.170  11.898  0.7794 -2.6281  1.6654
   37TMC2    C1  572   3.170   2.002  12.175  0.2147 -0.4023  0.2668
   37TMC2    C2  573   3.297   2.005  12.238  0.4248 -0.1989 -0.3135
   37TMC2    C3  574   3.404   1.995  12.150  1.5106  0.0748 -0.1064
   37TMC2    C4  575   3.153   1.987  12.039 -0.4188  0.3509  0.6551
   37TMC2    C5  576   3.267   1.985  11.958  0.0917  0.1266  0.1246
   37TMC2    C6  577   3.392   1.988  12.019  0.0753 -0.5188 -0.1136
   37TMC2     C  578   3.042   1.996  12.248  0.1163 -0.2694  0.2663
   37TMC2     O  579   2.950   1.954  12.182  0.3181 -0.0362 -0.5351
   37TMC2     H  580   3.309   1.995  12.345  0.9056 -1.9146 -0.5207
   37TMC2    H1  581   3.050   1.985  12.004  0.0600  2.3808 -0.8522
   37TMC2    H2  582   3.485   1.984  11.963 -0.4563 -1.2854 -0.9534
   37TMC2    C7  583   3.252   1.985  11.810  0.4005  0.2328  0.6414
   37TMC2    C8  584   3.541   2.012  12.200  0.2407 -0.4691  0.5472
   37TMC2    O1  585   3.137   1.984  11.773  0.6130 -0.3215 -0.2089
   37TMC2    O2  586   3.639   1.997  12.124  0.4813  0.0894 -0.5661
   37TMC2    O5  587   3.545   2.099  12.306  0.3207  0.0774 -0.7140
   37TMC2    H5  588   3.457   2.136  12.329  0.3498  0.4277 -1.1792
   38MPD2     C  589   2.735   2.023  12.665  0.2225 -0.2457 -0.0950
   38MPD2    C1  590   2.868   2.042  12.693 -0.5908  0.0283 -0.2297
   38MPD2    C2  591   2.967   2.045  12.596  0.3274 -1.1970  0.3611
   38MPD2    C3  592   2.932   2.038  12.466 -0.0442  0.1940  0.4907
   38MPD2    C4  593   2.801   2.012  12.428 -0.1966  1.1565 -0.4379
   38MPD2    C5  594   2.711   2.003  12.533  0.5375  0.4303 -0.0558
   38MPD2     H  595   3.072   2.060  12.618  0.1403 -1.4670  1.4465
   38MPD2    H1  596   2.758   1.999  12.329  1.6664 -0.8954 -0.9705
   38MPD2    H2  597   2.655   2.023  12.738 -0.0502  0.7006 -0.3969
   38MPD2    H3  598   2.607   1.986  12.508  0.9401  1.8767 -2.7725
   38MPD2     N  599   3.044   2.042  12.376 -0.2691  0.1407 -0.0041
   38MPD2    H5  600   3.134   2.072  12.411 -0.1794  0.2986 -0.3718
   38MPD2    N1  601   2.892   2.066  12.830 -0.4877  0.3403 -0.2613
   38MPD2    H7  602   2.816   2.044  12.894  0.9369 -0.3724  1.2054
   39TMC2    C1  603   0.712   3.898   1.524 -0.2996  0.1431 -0.7680
   39TMC2    C2  604   0.714   3.854   1.653  0.1196 -0.0820 -0.8013
   39TMC2    C3  605   0.835   3.826   1.713 -0.7162 -0.1057 -0.3599
   39TMC2    C4  606   0.834   3.908   1.453 -0.0649  0.2893  1.1641
   39TMC2    C5  607   0.951   3.896   1.529  0.3053 -0.7287 -0.6177
   39TMC2    C6  608   0.955   3.840   1.650 -0.2729 -0.4000 -0.7786
   39TMC2     C  609   0.590   3.850   1.455 -0.4858  0.3052  0.4205
   39TMC2     O  610   0.482   3.837   1.515 -0.7638  0.3088 -0.3005
   39TMC2     H  611   0.620   3.826   1.698  0.7501 -0.5279  0.2216
   39TMC2    H1  612   0.840   3.947   1.352 -0.3477 -0.5313  0.8292
   39TMC2    H2  613   1.043   3.802   1.700 -0.1737 -2.2068 -2.3598
   39TMC2    C7  614   1.081   3.927   1.470  0.1504  0.8451 -0.0794
   39TMC2    C8  615   0.830   3.798   1.857 -0.2894 -0.1387  0.5155
   39TMC2    O1  616   1.170   3.842   1.492  0.8320 -0.1338 -0.5581
   39TMC2    O2  617   0.922   3.737   1.911 -0.6747 -0.2339  0.4863
   39TMC2    O5  618   0.743   3.892   1.903 -0.4546  0.8308  0.1876
   39TMC2    H5  619   0.685   3.938   1.839 -0.1657 -0.6364 -1.1261
   40MPD2     C  620   0.555   3.770   1.093  0.7535 -0.0124 -0.5126
   40MPD2    C1  621   0.506   3.802   1.221 -0.5012 -0.3291 -0.1856
   40MPD2    C2  622   0.374   3.789   1.248  0.1398  0.5548 -0.0839
   40MPD2    C3  623   0.290   3.726   1.162  0.3064  0.2064  0.2710
   40MPD2    C4  624   0.343   3.687   1.036  0.0186 -0.1757 -0.4218
   40MPD2    C5  625   0.470   3.721   1.002  0.3281  0.3976  0.1586
   40MPD2     H  626   0.337   3.830   1.341 -2.8661 -0.0578 -1.0228
   40MPD2    H1  627   0.279   3.653   0.955 -1.9302  2.7684 -0.1400
   40MPD2    H2  628   0.656   3.799   1.066  1.7993 -1.9699  1.3352
   40MPD2    H3  629   0.503   3.719   0.898  3.6625 -1.0834  1.2466
   40MPD2     N  630   0.145   3.722   1.178 -0.0450  0.3735 -0.1312
   40MPD2    H5  631   0.095   3.692   1.095 -1.1268 -0.1586  0.7070
   40MPD2    N1  632   0.603   3.841   1.317  0.0884  0.7503 -0.4315
   40MPD2    H7  633   0.694   3.864   1.279  0.8215  0.1683  0.9593
   41TMC2    C1  634   4.526   2.206  13.192 -0.5565 -0.1888  0.6380
   41TMC2    C2  635   4.542   2.340  13.210 -0.2029  0.3884  0.1309
   41TMC2    C3  636   4.626   2.414  13.135 -0.7214 -0.5201 -0.4098
   41TMC2    C4  637   4.618   2.148  13.107 -0.8878 -0.4712  0.0765
   41TMC2    C5  638   4.720   2.225  13.049  0.0864  0.8302 -0.4509
   41TMC2    C6  639   4.726   2.363  13.057  0.0229  0.4938  0.1826
   41TMC2     C  640   4.416   2.131  13.238 -0.1793  0.8423 -0.3028
   41TMC2     O  641   4.386   2.030  13.183  0.2375  0.2461  0.5167
   41TMC2     H  642   4.467   2.399  13.262 -0.2306 -0.0343  0.5684
   41TMC2    H1  643   4.631   2.041  13.119  0.7563 -0.2092  0.7167
   41TMC2    H2  644   0.061   2.424  13.003 -1.4945  0.6642 -1.6685
   41TMC2    C7  645   0.088   2.160  12.977  0.0005  0.7044 -0.0550
   41TMC2    C8  646   4.632   2.552  13.165  0.7270  0.1843  0.5757
   41TMC2    O1  647   0.180   2.233  12.939  0.1583  0.0453  0.5295
   41TMC2    O2  648   4.541   2.620  13.208  0.4311 -0.3331 -0.0516
   41TMC2    O5  649   0.023   2.570  13.212 -0.1476  0.1785  0.1442
   41TMC2    H5  650   0.071   2.485  13.217  0.2207  0.3615 -0.2223
   42MPD2     C  651   4.149   2.083  13.383  0.0409  0.4905 -0.4420
   42MPD2    C1  652   4.259   2.160  13.425  0.1777 -0.1047  0.0313
   42MPD2    C2  653   4.245   2.233  13.541  0.4474  0.2494 -0.4018
   42MPD2    C3  654   4.137   2.220  13.628  0.2484 -0.4268  0.0333
   42MPD2    C4  655   4.039   2.136  13.591  0.6484 -0.6827  0.0598
   42MPD2    C5  656   4.044   2.067  13.470 -0.1778  0.4133  0.1236
   42MPD2     H  657   4.325   2.304  13.556 -1.1779  2.5370 -2.6014
   42MPD2    H1  658   3.958   2.119  13.661  0.3254  0.7797  0.0392
   42MPD2    H2  659   4.165   2.040  13.285  0.7353 -1.1258  0.3834
   42MPD2    H3  660   3.969   1.991  13.451  0.7935 -0.2432 -1.0996
   42MPD2     N  661   4.133   2.291  13.752  0.3827  0.9069 -0.4029
   42MPD2    H5  662   4.049   2.276  13.806  1.1526 -2.5242 -0.1667
   42MPD2    N1  663   4.374   2.187  13.356 -0.5040 -0.0964  0.3949
   42MPD2    H7  664   4.438   2.256  13.393 -0.4985 -0.5709  1.2691
   43TMC2    C1  665   0.701   0.856   0.536  0.0938  0.0749 -0.1805
   43TMC2    C2  666   0.601   0.847   0.631  0.0204 -0.7841 -0.1645
   43TMC2    C3  667   0.588   0.943   0.726 -0.0599  0.2919 -0.0666
   43TMC2    C4  668   0.791   0.958   0.533  0.8056  0.4690 -0.0002
   43TMC2    C5  669   0.782   1.046   0.639  0.6894  0.4661  0.6205
   43TMC2    C6  670   0.677   1.045   0.728  0.3823 -0.5282 -0.2531
   43TMC2     C  671   0.696   0.768   0.420  0.7999 -0.2883 -0.5877
   43TMC2     O  672   0.793   0.740   0.349  0.0684 -0.2653 -0.6262
   43TMC2     H  673   0.537   0.760   0.622 -1.3243  0.2923 -1.0483
   43TMC2    H1  674   0.860   0.970   0.451 -1.4530  2.2595 -1.6322
   43TMC2    H2  675   0.660   1.120   0.804  2.6014 -1.5148  1.2045
   43TMC2    C7  676   0.887   1.145   0.651  1.1063  0.8909  0.2339
   43TMC2    C8  677   0.468   0.939   0.807  0.0958  0.2584 -0.2239
   43TMC2    O1  678   0.948   1.167   0.546  0.0716  0.3197 -0.3837
   43TMC2    O2  679   0.384   0.857   0.774  0.6182 -0.0578  0.7117
   43TMC2    O5  680   0.506   0.984   0.927 -0.4925 -0.0964  0.1537
   43TMC2    H5  681   0.601   1.009   0.930 -0.3579 -0.7123  1.1747
   44MPD2     C  682   0.419   0.422   0.153  0.1388  0.0394  0.0414
   44MPD2    C1  683   0.547   0.422   0.196  0.1849 -0.6044  0.2096
   44MPD2    C2  684   0.607   0.527   0.266  0.0085  0.0807  0.5569
   44MPD2    C3  685   0.521   0.629   0.307 -0.3735  0.4693 -0.3679
   44MPD2    C4  686   0.385   0.616   0.279  0.0762 -0.2477  0.0292
   44MPD2    C5  687   0.328   0.514   0.205 -0.0786 -0.0572  0.1712
   44MPD2     H  688   0.714   0.536   0.275  0.2664 -1.3195 -1.0661
   44MPD2    H1  689   0.305   0.674   0.324  0.0510  1.0893 -1.7149
   44MPD2    H2  690   0.386   0.339   0.093  0.5907  0.0882 -0.2739
   44MPD2    H3  691   0.222   0.506   0.188  0.1837  0.2435 -1.5932
   44MPD2     N  692   0.564   0.733   0.391  0.5954 -0.0526  0.0496
   44MPD2    H5  693   0.495   0.794   0.435  2.2192  0.6746  1.5985
   44MPD2    N1  694   0.632   0.321   0.150  0.4314  0.0960  0.0340
   44MPD2    H7  695   0.721   0.315   0.198  0.1556 -0.5862  0.4622
   45TMC2    C1  696   1.336   2.941   9.805 -0.3584 -0.0522  0.0984
   45TMC2    C2  697   1.224   2.985   9.732 -0.0873 -0.5458  0.2956
   45TMC2    C3  698   1.195   3.120   9.724  0.4515 -0.3820  0.0858
   45TMC2    C4  699   1.417   3.036   9.875  0.1344 -0.1148 -0.0983
   45TMC2    C5  700   1.384   3.169   9.854 -0.5639  0.0343  0.2074
   45TMC2    C6  701   1.283   3.212   9.771 -0.1119  0.9814  0.6404
   45TMC2     C  702   1.334   2.809   9.866 -0.1375 -0.2396 -0.5023
   45TMC2     O  703   1.404   2.790   9.963  0.0493 -0.1396 -0.2689
   45TMC2     H  704   1.163   2.919   9.672  0.4758 -1.5487  0.8242
   45TMC2    H1  705   1.492   3.003   9.946 -0.5779  2.5718  1.9284
   45TMC2    H2  706   1.253   3.313   9.744 -1.1066  1.3038  3.0266
   45TMC2    C7  707   1.447   3.261   9.943  0.7059 -0.0647  0.2097
   45TMC2    C8  708   1.121   3.161   9.605 -0.6999  0.1093  0.0282
   45TMC2    O1  709   1.480   3.225  10.052  0.0392  0.5554 -0.6676
   45TMC2    O2  710   1.154   3.257   9.538  0.1973  0.5176 -0.1408
   45TMC2    O5  711   1.004   3.099   9.603  0.0906 -0.1800 -0.4085
   45TMC2    H5  712   0.985   3.047   9.685 -1.5837 -0.7344 -1.1378
   46MPD2     C  713   1.289   2.519   9.965  0.0607  0.2780  0.1739
   46MPD2    C1  714   1.216   2.583   9.865 -0.4164 -0.2431  0.6152
   46MPD2    C2  715   1.117   2.510   9.794  1.2504  0.0881  0.4277
   46MPD2    C3  716   1.093   2.380   9.815 -0.1866 -0.0479 -0.6764
   46MPD2    C4  717   1.166   2.316   9.912 -0.7139  0.8256 -0.0494
   46MPD2    C5  718   1.256   2.384   9.988 -0.5521  0.1182 -0.3743
   46MPD2     H  719   1.058   2.561   9.720  0.1269  1.5727  2.3536
   46MPD2    H1  720   1.157   2.209   9.925 -0.8626  0.7995 -0.3511
   46MPD2    H2  721   1.380   2.562  10.007 -0.8415  1.5129  0.8498
   46MPD2    H3  722   1.302   2.317  10.060 -0.7195 -0.2195 -0.5832
   46MPD2     N  723   1.003   2.313   9.723  0.6326  0.0847  0.3881
   46MPD2    H5  724   0.956   2.365   9.650 -2.9328 -2.4881  0.8338
   46MPD2    N1  725   1.241   2.719   9.817  0.4975 -0.6241  0.2622
   46MPD2    H7  726   1.191   2.748   9.734  0.2649  0.6149  0.8334
   47TMC2    C1  727   2.492   3.958   9.218 -0.1586 -0.0175 -0.8750
   47TMC2    C2  728   2.618   4.004   9.178 -0.2988 -0.2684  0.5246
   47TMC2    C3  729   2.723   3.918   9.191 -0.6067  0.3774  0.2563
   47TMC2    C4  730   2.474   3.837   9.271  0.7742  0.3954 -0.0588
   47TMC2    C5  731   2.581   3.748   9.277  0.7844 -0.6169  0.3278
   47TMC2    C6  732   2.711   3.787   9.235 -0.1947 -0.7669  0.2415
   47TMC2     C  733   2.375   4.046   9.192  0.3110  0.5285  0.4204
   47TMC2     O  734   2.261   3.998   9.196  0.5020 -0.0326  0.1697
   47TMC2     H  735   2.634   4.089   9.112  1.0019  0.9688  2.4540
   47TMC2    H1  736   2.369   3.811   9.275  1.0701 -0.6144  1.6031
   47TMC2    H2  737   2.797   3.721   9.243  0.9470  0.7988  1.1141
   47TMC2    C7  738   2.576   3.639   9.360  0.1955 -0.3138 -0.0067
   47TMC2    C8  739   2.853   3.953   9.130  0.0037 -0.8718 -0.2708
   47TMC2    O1  740   2.667   3.559   9.356 -0.2784 -0.1399 -0.6409
   47TMC2    O2  741   2.858   4.040   9.047  0.4346  0.1395 -0.3976
   47TMC2    O5  742   2.919   3.945   9.249 -0.6438  0.4974  0.2279
   47TMC2    H5  743   2.906   3.860   9.296  0.2821  0.1038 -0.2290
   48MPD2     C  744   2.184   4.266   9.150  0.2997  0.3343  0.1572
   48MPD2    C1  745   2.325   4.282   9.167  0.1368 -0.1958 -0.5034
   48MPD2    C2  746   2.367   4.411   9.202 -0.2883 -0.7364  0.0116
   48MPD2    C3  747   2.275   4.520   9.189 -0.4632  0.4190  0.2526
   48MPD2    C4  748   2.143   4.501   9.162 -0.3353 -0.3878  0.1555
   48MPD2    C5  749   2.097   4.375   9.147 -0.6296 -0.1472  0.4041
   48MPD2     H  750   2.471   4.418   9.232 -1.0979 -0.5433  2.7317
   48MPD2    H1  751   2.066   4.576   9.152  0.4211  0.5846  1.7155
   48MPD2    H2  752   2.140   4.168   9.134 -1.2918  1.1229 -0.2476
   48MPD2    H3  753   1.992   4.354   9.132 -1.0802  0.8697  2.1905
   48MPD2     N  754   2.335   4.645   9.221 -0.6150  0.0993  0.9262
   48MPD2    H5  755   2.435   4.646   9.236 -0.5923 -0.3458  0.8173
   48MPD2    N1  756   2.415   4.177   9.182  0.4234 -0.2998  0.2163
   48MPD2    H7  757   2.513   4.201   9.197  0.6546 -1.3146  0.3830
   49TMC2    C1  758   2.063   0.221  10.072  0.4860 -0.2357 -0.4129
   49TMC2    C2  759   2.081   0.300   9.955  0.6102  0.3294 -0.2109
   49TMC2    C3  760   2.089   0.230   9.836  0.3726 -0.5800  0.4273
   49TMC2    C4  761   2.052   0.080  10.067 -0.1502  0.0681  0.0729
   49TMC2    C5  762   2.061   0.022   9.946  0.1429 -0.5227 -0.5115
   49TMC2    C6  763   2.082   0.095   9.828  0.1942  0.1282  0.4741
   49TMC2     C  764   2.040   0.297  10.193  0.1743 -0.4537  0.0242
   49TMC2     O  765   2.053   0.422  10.197 -0.4582 -0.3617 -0.1042
   49TMC2     H  766   2.079   0.408   9.962 -1.2117  0.1948  1.4520
   49TMC2    H1  767   2.031   0.013  10.150  1.1989 -0.6404 -0.1642
   49TMC2    H2  768   2.092   0.046   9.732 -0.2610 -1.4828  1.2556
   49TMC2    C7  769   2.059   4.617   9.936  1.0748 -1.1524 -0.1758
   49TMC2    C8  770   2.093   0.312   9.714  0.9771 -0.2173  0.0226
   49TMC2    O1  771   2.029   4.565   9.832 -0.7628 -0.5349 -0.5212
   49TMC2    O2  772   2.147   0.419   9.724 -0.1606 -0.2800  0.5967
   49TMC2    O5  773   2.055   0.252   9.597  1.1099 -0.0394 -0.2285
   49TMC2    H5  774   1.999   0.175   9.621  1.4886 -1.0266 -2.5634
   50MPD2     C  775   2.006   0.366  10.481 -0.0482 -0.2798  0.5424
   50MPD2    C1  776   1.998   0.240  10.429  0.1202 -0.9301 -0.3569
   50MPD2    C2  777   1.980   0.133  10.518 -0.3884 -0.4686 -0.0507
   50MPD2    C3  778   1.947   0.157  10.651  0.5301 -0.4919  0.7921
   50MPD2    C4  779   1.952   0.282  10.694  0.0397  0.2819 -0.7454
   50MPD2    C5  780   1.987   0.384  10.612 -0.0402  0.0618 -0.5061
   50MPD2     H  781   1.957   0.037  10.475 -2.3196  0.9946 -2.3091
   50MPD2    H1  782   1.943   0.308  10.799 -3.0240 -0.2971 -0.8858
   50MPD2    H2  783   2.030   0.457  10.426  1.5834 -0.5977  0.7237
   50MPD2    H3  784   1.999   0.488  10.640  0.7019  0.1523 -1.1557
   50MPD2     N  785   1.921   0.054  10.744 -0.9091  0.3438  0.3314
   50MPD2    H5  786   1.915   0.074  10.843 -1.7631 -0.9944  0.5374
   50MPD2    N1  787   2.024   0.207  10.295 -0.4303  0.4397  0.0608
   50MPD2    H7  788   2.032   0.107  10.278 -1.1745  0.0853  1.8394
   51TMC2    C1  789   4.088   3.324   1.904  0.0538  0.7421 -0.4407
   51TMC2    C2  790   4.206   3.277   1.944  0.1966  0.9281  0.8826
   51TMC2    C3  791   4.292   3.375   1.986 -0.2018 -0.7422 -0.2168
   51TMC2    C4  792   4.060   3.463   1.907  0.4002  0.2507  0.4826
   51TMC2    C5  793   4.150   3.555   1.948  0.0847  0.4919  0.6014
   51TMC2    C6  794   4.273   3.513   1.992  0.7484  0.4661 -0.0331
   51TMC2     C  795   3.991   3.236   1.851  0.2763  0.0300  0.2760
   51TMC2     O  796   3.902   3.290   1.787 -1.2530  0.0185 -0.1320
   51TMC2     H  797   4.235   3.172   1.947 -0.8736  0.6055 -0.1686
   51TMC2    H1  798   3.979   3.500   1.846  0.7671 -0.7459 -0.6213
   51TMC2    H2  799   4.345   3.579   2.040  0.8421  1.7236 -1.9124
   51TMC2    C7  800   4.114   3.695   1.935 -0.4480  0.1881  0.0166
   51TMC2    C8  801   4.420   3.320   2.028 -0.5560  0.2849  0.8819
   51TMC2    O1  802   3.997   3.729   1.908  0.2903  0.7084 -0.0299
   51TMC2    O2  803   4.460   3.222   1.967  0.2849  0.6323 -0.1094
   51TMC2    O5  804   4.415   3.329   2.163  0.3681  0.1212  0.0052
   51TMC2    H5  805   4.339   3.386   2.189  0.0738 -0.5165  0.5278
   52MPD2     C  806   3.749   2.783   1.798  0.1285 -0.5099 -0.3397
   52MPD2    C1  807   3.745   2.900   1.720  0.0075 -0.5038  0.6004
   52MPD2    C2  808   3.828   3.003   1.747  0.2237 -0.0863  0.0878
   52MPD2    C3  809   3.922   2.992   1.851 -0.5496  0.2764  0.8643
   52MPD2    C4  810   3.942   2.867   1.900 -1.0933  0.1213  0.0441
   52MPD2    C5  811   3.857   2.771   1.881 -0.2973 -0.0102  0.2918
   52MPD2     H  812   3.813   3.090   1.684  0.4378  0.3789  0.6823
   52MPD2    H1  813   4.024   2.838   1.964 -2.0917 -2.0744  0.3425
   52MPD2    H2  814   3.703   2.688   1.776  0.5761 -0.9408  0.5736
   52MPD2    H3  815   3.870   2.673   1.925  0.3687  0.0479  0.2228
   52MPD2     N  816   4.006   3.105   1.878 -0.1612 -0.0360 -0.8617
   52MPD2    H5  817   4.065   3.092   1.960 -2.5720 -1.7887  0.5655
   52MPD2    N1  818   3.661   2.911   1.609  0.3484 -0.0780  0.2883
   52MPD2    H7  819   3.677   2.984   1.541 -1.0598  0.4610  0.5263
   53TMC2    C1  820   3.071   1.966  11.091  1.4159  0.3729  0.1822
   53TMC2    C2  821   3.029   2.068  11.009 -0.5362  0.3524 -0.5611
   53TMC2    C3  822   2.895   2.071  10.973  0.4128 -0.8009 -0.6247
   53TMC2    C4  823   2.979   1.868  11.136 -0.2104 -0.6794  0.4715
   53TMC2    C5  824   2.847   1.875  11.092  0.3730  0.1411  0.4109
   53TMC2    C6  825   2.799   1.980  11.019 -0.1030 -0.6942  0.2529
   53TMC2     C  826   3.198   1.986  11.155  0.4047 -0.1937 -0.1206
   53TMC2     O  827   3.286   2.022  11.077 -0.4817 -0.0222 -0.2471
   53TMC2     H  828   3.095   2.150  10.983  1.7704 -1.1217  0.5851
   53TMC2    H1  829   3.022   1.788  11.196 -0.2103 -1.1370 -0.1482
   53TMC2    H2  830   2.698   1.997  10.983  0.2440 -3.1399 -1.9136
   53TMC2    C7  831   2.748   1.793  11.148 -0.0152 -0.0808  0.0838
   53TMC2    C8  832   2.849   2.158  10.874  0.6466 -0.2747  0.0416
   53TMC2    O1  833   2.637   1.844  11.143 -0.1514 -0.1013  0.0961
   53TMC2    O2  834   2.806   2.116  10.770 -0.1977 -0.2900  0.1815
   53TMC2    O5  835   2.887   2.280  10.913  0.1436  0.0580  0.5951
   53TMC2    H5  836   2.933   2.289  10.999 -0.1336  0.1916  0.7267
   54MPD2     C  837   3.432   2.027  11.334  0.5664  0.0783  0.2577
   54MPD2    C1  838   3.303   1.992  11.379  0.3589 -0.1756 -0.5401
   54MPD2    C2  839   3.284   1.988  11.518 -0.4600  0.2739 -0.1061
   54MPD2    C3  840   3.387   2.021  11.605  0.4897  0.6225  0.2819
   54MPD2    C4  841   3.511   2.059  11.555 -0.1315 -0.7166 -0.4018
   54MPD2    C5  842   3.531   2.067  11.425  0.7904  0.4722  0.4298
   54MPD2     H  843   3.181   1.968  11.542 -1.0318  3.5515  0.2565
   54MPD2    H1  844   3.597   2.088  11.613 -0.6137 -0.2028  0.0536
   54MPD2    H2  845   3.463   2.037  11.230 -1.5818  1.7966 -0.2253
   54MPD2    H3  846   3.635   2.089  11.402  0.9805  1.4925  2.2744
   54MPD2     N  847   3.369   2.010  11.748 -0.5965  0.4549 -0.1464
   54MPD2    H5  848   3.449   2.024  11.809  0.3721 -3.7153 -0.5057
   54MPD2    N1  849   3.191   1.978  11.292  0.0888  0.5029 -0.0327
   54MPD2    H7  850   3.106   1.944  11.336  2.0422 -2.3610  1.5924
   55TMC2    C1  851   3.494   1.306  17.590  0.9860 -0.8693  0.3578
   55TMC2    C2  852   3.519   1.337  17.458  0.3661  0.2999  0.5721
   55TMC2    C3  853   3.626   1.273  17.403  0.4210 -0.1000 -0.2856
   55TMC2    C4  854   3.556   1.203  17.656 -0.7760 -0.6955 -0.5906
   55TMC2    C5  855   3.661   1.141  17.588  0.2359  0.1329  0.1567
   55TMC2    C6  856   3.701   1.183  17.464 -0.4260  0.1804  0.0952
   55TMC2     C  857   3.378   1.367  17.650 -0.2081  1.1564  0.0271
   55TMC2     O  858   3.331   1.316   0.003 -0.2978  0.6068  0.2010
   55TMC2     H  859   3.460   1.411  17.405  0.9169 -0.8897 -1.6996
   55TMC2    H1  860   3.538   1.197   0.016  0.6981  2.7439 -0.1729
   55TMC2    H2  861   3.783   1.137  17.410  0.2115 -1.2223  2.2655
   55TMC2    C7  862   3.719   1.022  17.647  0.9874  0.6620 -0.1239
   55TMC2    C8  863   3.682   1.332  17.282  0.4396  0.4480 -0.2594
   55TMC2    O1  864   3.791   0.961  17.570 -0.0165 -0.1675 -0.3611
   55TMC2    O2  865   3.625   1.403  17.199 -0.0914  0.3779  0.5409
   55TMC2    O5  866   3.791   1.379  17.346  0.0827 -0.2204  0.1044
   55TMC2    H5  867   3.809   1.335  17.432 -0.1320 -0.9754 -0.2353
   56MPD2     C  868   3.191   1.653  17.532 -1.0591  0.3872  0.2694
   56MPD2    C1  869   3.217   1.547  17.608 -0.1698 -0.2047  0.6347
   56MPD2    C2  870   3.121   1.511  17.704 -0.0056 -0.2230  0.0731
   56MPD2    C3  871   3.004   1.583  17.719 -0.2294 -0.4760  0.7311
   56MPD2    C4  872   2.975   1.681  17.630  0.8236  0.7285 -0.2346
   56MPD2    C5  873   3.077   1.711  17.538 -0.8486 -0.6078  0.2008
   56MPD2     H  874   3.141   1.422   0.014 -2.4080 -1.0734 -0.3842
   56MPD2    H1  875   2.892   1.750  17.639  1.7606  1.8065  0.2151
   56MPD2    H2  876   3.265   1.690  17.461 -0.9724  0.5980  0.4718
   56MPD2    H3  877   3.052   1.803  17.485 -3.8973 -2.2535 -1.2367
   56MPD2     N  878   2.910   1.527   0.065  0.3366 -0.0344 -0.3923
   56MPD2    H5  879   2.939   1.440   0.110  2.2952  0.3544 -0.8852
   56MPD2    N1  880   3.342   1.480  17.589 -0.0129 -0.3349 -0.2628
   56MPD2    H7  881   3.404   1.525  17.522  1.4002 -1.3677  0.3483
   57TMC2    C1  882   2.574   0.713  13.395 -0.0296  0.0624 -0.2240
   57TMC2    C2  883   2.554   0.580  13.362  0.2112 -0.2377 -0.0038
   57TMC2    C3  884   2.638   0.524  13.273  0.2990 -0.1604 -0.0421
   57TMC2    C4  885   2.681   0.783  13.339  0.1760 -0.7057  0.4684
   57TMC2    C5  886   2.752   0.726  13.239  0.3776 -0.2141  0.6253
   57TMC2    C6  887   2.737   0.593  13.206  0.1421  0.5328  0.0353
   57TMC2     C  888   2.479   0.788  13.470  0.5714  0.2067  0.2154
   57TMC2     O  889   2.516   0.887  13.531  0.0588 -0.0126  0.4859
   57TMC2     H  890   2.487   0.519  13.422 -0.6325 -0.7737 -1.5074
   57TMC2    H1  891   2.694   0.882  13.381 -1.1906  0.5060 -1.9488
   57TMC2    H2  892   2.799   0.552  13.126 -2.1037 -1.5162 -0.6468
   57TMC2    C7  893   2.852   0.805  13.174  0.2715 -0.4811 -0.6037
   57TMC2    C8  894   2.621   0.395  13.222 -0.0359 -0.2482 -0.1865
   57TMC2    O1  895   2.852   0.925  13.186  1.0181 -0.3876  0.2728
   57TMC2    O2  896   2.710   0.332  13.169  0.2525 -0.3844 -0.6954
   57TMC2    O5  897   2.503   0.407  13.163  0.2378 -0.1688 -0.0027
   57TMC2    H5  898   2.450   0.472  13.214 -0.1919  2.0417 -3.2572
   58MPD2     C  899   1.999   0.843  13.643 -0.1614 -0.2224  0.6703
   58MPD2    C1  900   2.103   0.930  13.641  0.7111 -0.3901  0.1504
   58MPD2    C2  901   2.224   0.889  13.585 -0.5923  0.4495 -0.0737
   58MPD2    C3  902   2.240   0.765  13.526 -0.0994  0.0968  0.2477
   58MPD2    C4  903   2.127   0.683  13.522  0.6580 -0.5491  0.2647
   58MPD2    C5  904   2.018   0.719  13.577  0.2288  0.2604  0.6363
   58MPD2     H  905   2.307   0.959  13.576 -1.2766  1.4701  1.5188
   58MPD2    H1  906   2.130   0.595  13.460  1.2084  0.4322 -1.0910
   58MPD2    H2  907   1.904   0.860  13.692 -0.9183  0.2721 -0.9519
   58MPD2    H3  908   1.938   0.646  13.563  0.8292 -0.0215 -1.2884
   58MPD2     N  909   2.360   0.720  13.465 -0.0851  0.1200  0.3915
   58MPD2    H5  910   2.346   0.641  13.403 -4.1589  1.2350 -0.0677
   58MPD2    N1  911   2.101   1.060  13.689 -0.0180  0.5381  0.3888
   58MPD2    H7  912   2.191   1.108  13.686  0.4988 -0.4743 -0.0492
   59TMC2    C1  913   0.347   0.969  12.727  0.9164  0.0083  0.4703
   59TMC2    C2  914   0.287   0.851  12.704 -0.4867  0.1219  0.2738
   59TMC2    C3  915   0.316   0.787  12.587  0.4291 -0.2822 -0.2729
   59TMC2    C4  916   0.414   1.043  12.630 -0.6254 -0.8672  0.2012
   59TMC2    C5  917   0.435   0.982  12.513  0.2703  0.9887 -0.2804
   59TMC2    C6  918   0.394   0.853  12.485  0.8201  0.0804 -0.7730
   59TMC2     C  919   0.322   1.024  12.856  0.1953 -0.0179 -0.1056
   59TMC2     O  920   0.227   0.983  12.918  0.0741 -0.1775  0.5350
   59TMC2     H  921   0.246   0.797  12.788 -2.3415  0.2648 -0.5376
   59TMC2    H1  922   0.452   1.143  12.652  3.3752 -2.2495 -0.4102
   59TMC2    H2  923   0.415   0.801  12.392  2.3234  0.5083 -0.6647
   59TMC2    C7  924   0.499   1.060  12.403 -0.0068  0.2791 -0.2176
   59TMC2    C8  925   0.254   0.663  12.561 -0.3724  0.1463  0.3387
   59TMC2    O1  926   0.559   0.983  12.329  0.1566 -0.4473 -0.4380
   59TMC2    O2  927   0.301   0.573  12.488 -0.0677  0.3183 -0.3726
   59TMC2    O5  928   0.146   0.666  12.632 -0.1462 -0.2428 -0.1014
   59TMC2    H5  929   0.116   0.754  12.665 -1.0287 -0.4510 -0.3585
   60MPD2     C  930   0.296   1.234  13.067  0.6963  0.2457  0.3611
   60MPD2    C1  931   0.411   1.213  12.991  0.7600 -0.5978 -0.0698
   60MPD2    C2  932   0.526   1.270  13.033 -0.3096  0.2911  0.4244
   60MPD2    C3  933   0.524   1.358  13.147  0.2525 -0.0309  0.1876
   60MPD2    C4  934   0.403   1.382  13.210  0.3004 -0.1906  0.0902
   60MPD2    C5  935   0.293   1.317  13.173  0.2735  0.1233  0.0325
   60MPD2     H  936   0.616   1.249  12.977 -1.0200  1.5220 -1.1811
   60MPD2    H1  937   0.398   1.450  13.294 -0.0677  2.0259 -1.6977
   60MPD2    H2  938   0.207   1.172  13.056  0.0049  1.2678  0.1388
   60MPD2    H3  939   0.205   1.318  13.236  1.4500  0.0251  1.6730
   60MPD2     N  940   0.641   1.415  13.191  0.3960  0.3633  0.1897
   60MPD2    H5  941   0.630   1.471  13.274 -1.7093  0.8777 -0.4330
   60MPD2    N1  942   0.416   1.121  12.888  0.1680 -0.4877 -0.2966
   60MPD2    H7  943   0.503   1.111  12.837 -0.7127  2.3967 -2.3393
   61TMC2    C1  944   0.178   2.477  15.499  0.1287 -0.7488  0.2363
   61TMC2    C2  945   0.172   2.408  15.612 -0.3667  0.6857 -1.1028
   61TMC2    C3  946   0.149   2.480  15.726  0.9526  1.0112 -0.5127
   61TMC2    C4  947   0.155   2.616  15.489  0.1363  0.0009 -0.1742
   61TMC2    C5  948   0.104   2.677  15.597 -0.2746 -0.6830 -0.0121
   61TMC2    C6  949   0.091   2.607  15.716 -0.3823 -0.5525  0.5357
   61TMC2     C  950   0.229   2.405  15.381  0.3211 -0.3789  0.3078
   61TMC2     O  951   0.262   2.287  15.402  0.3825  0.2438  0.3679
   61TMC2     H  952   0.197   2.302  15.615 -1.1844  0.4752 -1.5759
   61TMC2    H1  953   0.180   2.674  15.401 -0.1049 -1.2670 -1.0783
   61TMC2    H2  954   0.044   2.646  15.805  0.6134 -0.2426  0.9332
   61TMC2    C7  955   0.046   2.814  15.584 -0.7419  0.7735  0.3028
   61TMC2    C8  956   0.140   2.405  15.849 -0.4153 -0.4529  0.3890
   61TMC2    O1  957   0.051   2.867  15.470  0.4142  0.0763  0.0623
   61TMC2    O2  958   0.108   2.281  15.845 -0.0706  0.2959  0.5241
   61TMC2    O5  959   0.216   2.468  15.945 -0.3558 -0.1326 -0.0962
   61TMC2    H5  960   0.282   2.531  15.911 -0.6101 -0.4302 -1.1399
   62MPD2     C  961   0.328   2.323  15.121  0.7792 -0.6442 -0.6262
   62MPD2    C1  962   0.268   2.441  15.147  0.0237 -0.2802  0.6117
   62MPD2    C2  963   0.251   2.535  15.046  0.7549  0.5120 -0.2362
   62MPD2    C3  964   0.308   2.507  14.918  0.2792 -0.2432  0.3263
   62MPD2    C4  965   0.377   2.386  14.899  0.5660  0.5106  0.7723
   62MPD2    C5  966   0.385   2.301  14.996  0.1309  0.0323  0.4440
   62MPD2     H  967   0.217   2.637  15.064 -0.7093  0.1078 -0.7517
   62MPD2    H1  968   0.423   2.370  14.802  0.6944  0.1479  0.8925
   62MPD2    H2  969   0.325   2.238  15.188  0.7257  0.6045  0.9426
   62MPD2    H3  970   0.458   2.221  14.984 -1.7498 -1.3602 -1.7257
   62MPD2     N  971   0.302   2.601  14.813  0.0358 -0.0560 -0.8359
   62MPD2    H5  972   0.228   2.671  14.822  1.3900  1.1374  1.0155
   62MPD2    N1  973   0.224   2.481  15.267 -0.3075  0.4413 -0.4348
   62MPD2    H7  974   0.198   2.579  15.274 -0.4981  0.4862 -1.7725
   63TMC2    C1  975   3.471   2.574   9.848  0.0567 -0.9560  0.3372
   63TMC2    C2  976   3.602   2.536   9.863  0.3631 -0.7459 -0.2287
   63TMC2    C3  977   3.683   2.552   9.753  0.0739  0.5519 -0.2154
   63TMC2    C4  978   3.430   2.622   9.723  0.8331 -0.7677  0.2509
   63TMC2    C5  979   3.519   2.653   9.621  0.5678 -0.3844 -0.8997
   63TMC2    C6  980   3.646   2.602   9.630  0.8073  0.1561  1.1502
   63TMC2     C  981   3.382   2.593   9.959  0.1168  0.2541 -0.0962
   63TMC2     O  982   3.283   2.666   9.956 -0.1240  0.1016 -0.4656
   63TMC2     H  983   3.647   2.480   9.944 -0.9277  0.2111  1.1547
   63TMC2    H1  984   3.328   2.657   9.708  1.4694  0.5446 -1.0288
   63TMC2    H2  985   3.722   2.587   9.553 -0.8916 -0.9087 -0.3228
   63TMC2    C7  986   3.473   2.724   9.504  0.1369 -0.4301  0.1438
   63TMC2    C8  987   3.824   2.517   9.768 -0.6760  0.1068 -0.6946
   63TMC2    O1  988   3.356   2.760   9.511 -0.1980  0.0199  0.1416
   63TMC2    O2  989   3.886   2.471   9.677  0.7315  0.1430 -0.2115
   63TMC2    O5  990   3.867   2.627   9.830 -0.2139 -0.0194  0.0820
   63TMC2    H5  991   3.785   2.666   9.866  0.0364  0.3202  0.2787
   64MPD2     C  992   3.279   2.491  10.448  0.3240  0.3892 -0.2680
   64MPD2    C1  993   3.389   2.415  10.415 -0.0079  0.1651 -0.8153
   64MPD2    C2  994   3.445   2.432  10.289  0.8714 -0.1834 -0.1316
   64MPD2    C3  995   3.391   2.517  10.196  0.2399 -0.2487 -0.8319
   64MPD2    C4  996   3.272   2.583  10.231  0.1402 -0.2816 -0.2340
   64MPD2    C5  997   3.216   2.572  10.357  0.2482 -0.3174 -0.0644
   64MPD2     H  998   3.531   2.372  10.264  0.3826 -0.3311 -1.4550
   64MPD2    H1  999   3.215   2.639  10.159 -1.5618  0.0117  1.3462
   64MPD2    H2 1000   3.238   2.487  10.549 -0.1150 -0.9709 -0.5019
   64MPD2    H3 1001   3.124   2.626  10.375  0.0116 -0.8930  0.4740
   64MPD2     N 1002   3.439   2.527  10.065  0.1193 -0.6350 -0.1244
   64MPD2    H5 1003   3.525   2.474  10.060  0.4116 -0.0627 -1.0217
   64MPD2    N1 1004   3.430   2.322  10.510  0.0567  0.1355  0.3517
   64MPD2    H7 1005   3.379   2.309  10.597  0.7693  1.7959  1.0218
   65TMC2    C1 1006   0.616   2.152  15.473  0.2409  0.1001 -0.8299
   65TMC2    C2 1007   0.729   2.099  15.406  0.1615 -0.1063  0.4575
   65TMC2    C3 1008   0.810   2.190  15.341 -0.3867  0.7329  0.0393
   65TMC2    C4 1009   0.583   2.284  15.470  0.6782  0.1344 -0.2742
   65TMC2    C5 1010   0.651   2.361  15.377 -1.0587  0.0923  0.2057
   65TMC2    C6 1011   0.767   2.322  15.323  0.0835 -0.3769 -0.0739
   65TMC2     C 1012   0.567   2.070  15.588 -0.1385  0.3046  0.4861
   65TMC2     O 1013   0.485   2.123  15.660 -0.1020  1.0339  0.3529
   65TMC2     H 1014   0.760   1.996  15.410  1.8005  0.3372 -0.4776
   65TMC2    H1 1015   0.491   2.315  15.519  2.1020 -0.9623  3.1170
   65TMC2    H2 1016   0.832   2.396  15.276  0.6280  0.7544  2.4029
   65TMC2    C7 1017   0.632   2.506  15.384  0.3363 -0.7120  0.3755
   65TMC2    C8 1018   0.941   2.148  15.306  0.2837 -0.0488  0.0091
   65TMC2    O1 1019   0.707   2.569  15.315  0.3150  0.4875  0.0349
   65TMC2    O2 1020   1.004   2.065  15.374 -0.2441  0.4088 -0.1641
   65TMC2    O5 1021   0.991   2.236  15.220  0.2465  0.0058 -0.3371
   65TMC2    H5 1022   0.932   2.236  15.143 -0.2425 -0.1741  0.0376
   66MPD2     C 1023   0.506   1.873  15.785  0.1402 -0.1525 -0.9367
   66MPD2    C1 1024   0.522   1.838  15.651  0.4628 -0.0568  0.7557
   66MPD2    C2 1025   0.482   1.714  15.602  0.5046  0.5371 -0.0432
   66MPD2    C3 1026   0.438   1.619  15.692 -0.3522 -0.0129  0.0428
   66MPD2    C4 1027   0.421   1.650  15.826 -0.2452 -0.6850 -0.3382
   66MPD2    C5 1028   0.460   1.776  15.869  0.3723 -0.3381 -0.3569
   66MPD2     H 1029   0.497   1.697  15.496 -2.0398 -0.7767 -0.1926
   66MPD2    H1 1030   0.392   1.569  15.890  0.3134 -2.2043 -2.0084
   66MPD2    H2 1031   0.538   1.967  15.827 -1.8158  1.0679 -2.2318
   66MPD2    H3 1032   0.462   1.790  15.977  2.0039  0.8214 -0.5273
   66MPD2     N 1033   0.387   1.497  15.646  0.6978 -0.2117  0.3243
   66MPD2    H5 1034   0.356   1.426  15.712 -1.0800 -0.3368 -0.6429
   66MPD2    N1 1035   0.575   1.934  15.565 -0.4794 -0.2875  0.4324
   66MPD2    H7 1036   0.602   1.904  15.472 -0.6840 -0.3677  0.3994
   67TMC2    C1 1037   0.702   1.527  14.424 -0.4922 -0.5397  0.2843
   67TMC2    C2 1038   0.610   1.621  14.477 -0.1714  0.2766 -0.3521
   67TMC2    C3 1039   0.623   1.636  14.616  0.1107 -0.9174 -0.0137
   67TMC2    C4 1040   0.809   1.477  14.486 -0.2637 -0.1838  0.2696
   67TMC2    C5 1041   0.803   1.490  14.618 -0.2554  0.0149  0.1652
   67TMC2    C6 1042   0.711   1.571  14.683 -0.5154 -0.2034 -0.1878
   67TMC2     C 1043   0.665   1.464  14.298  0.5923  0.4019  0.1720
   67TMC2     O 1044   0.760   1.417  14.236 -0.3857  0.2710 -0.3494
   67TMC2     H 1045   0.526   1.669  14.429  0.0405  2.2282  1.2304
   67TMC2    H1 1046   0.858   1.388  14.450  0.1692  0.8540 -1.7350
   67TMC2    H2 1047   0.704   1.586  14.790  0.5764 -0.2380 -0.1109
   67TMC2    C7 1048   0.925   1.466  14.692 -0.3052 -0.1161  0.4718
   67TMC2    C8 1049   0.529   1.712  14.692  0.7788 -0.7370 -0.5245
   67TMC2    O1 1050   1.029   1.464  14.631 -0.3395  0.5290 -0.0832
   67TMC2    O2 1051   0.472   1.687  14.797  0.1514  0.3875 -0.7421
   67TMC2    O5 1052   0.515   1.829  14.621  0.5647 -0.1272 -0.0269
   67TMC2    H5 1053   0.586   1.852  14.557 -0.5505  0.7753 -0.9255
   68MPD2     C 1054   0.539   1.361  14.058 -0.6677 -0.0381 -0.2669
   68MPD2    C1 1055   0.465   1.400  14.164 -0.1210 -0.0031 -0.1932
   68MPD2    C2 1056   0.323   1.397  14.159 -0.0425 -1.0740  0.9939
   68MPD2    C3 1057   0.256   1.353  14.046  0.2157  0.8504  0.0888
   68MPD2    C4 1058   0.337   1.310  13.941 -0.3961 -0.0728 -0.2200
   68MPD2    C5 1059   0.475   1.312  13.941  0.2707  0.1183  0.0332
   68MPD2     H 1060   0.270   1.440  14.243  0.3776 -0.4555  0.9391
   68MPD2    H1 1061   0.288   1.268  13.853 -0.1517 -1.9197  0.5086
   68MPD2    H2 1062   0.647   1.371  14.052 -0.6181 -0.4174  0.0269
   68MPD2    H3 1063   0.530   1.272  13.857  0.5524  1.0985 -0.2527
   68MPD2     N 1064   0.115   1.353  14.025 -0.5193  0.6625  0.1735
   68MPD2    H5 1065   0.084   1.327  13.932 -2.6608 -2.1680  1.6615
   68MPD2    N1 1066   0.527   1.441  14.286 -0.5423  0.2299 -0.1261
   68MPD2    H7 1067   0.469   1.477  14.361  0.8536  1.0160  0.5732
   69TMC2    C1 1068   2.931   2.449  12.741  0.5267 -0.5354  0.2834
   69TMC2    C2 1069   2.801   2.422  12.739  0.0788 -0.1277  0.2571
   69TMC2    C3 1070   2.746   2.375  12.622 -0.1079 -0.2386  0.2158
   69TMC2    C4 1071   3.011   2.439  12.626 -0.0856 -0.4495  0.2557
   69TMC2    C5 1072   2.944   2.393  12.510  0.2605 -0.6765  0.2101
   69TMC2    C6 1073   2.813   2.359  12.502  0.2994  0.6907 -0.3900
   69TMC2     C 1074   2.991   2.450  12.873 -0.8809 -0.2799  0.2822
   69TMC2     O 1075   2.908   2.463  12.962 -0.2432  0.2246 -0.5743
   69TMC2     H 1076   2.742   2.421  12.831 -1.1453  0.8038 -0.5272
   69TMC2    H1 1077   3.116   2.466  12.624 -0.1767 -0.1915 -1.1538
   69TMC2    H2 1078   2.767   2.315  12.414 -0.1733  1.3882 -0.4951
   69TMC2    C7 1079   3.034   2.377  12.400 -0.2403  0.1741 -0.3007
   69TMC2    C8 1080   2.603   2.376  12.617  0.1628 -0.1758  0.4977
   69TMC2    O1 1081   3.155   2.389  12.415 -0.4458  0.2653  0.4970
   69TMC2    O2 1082   2.543   2.369  12.720 -0.0571  0.3914 -0.0967
   69TMC2    O5 1083   2.568   2.436  12.501 -0.2151  1.4779 -0.6134
   69TMC2    H5 1084   2.637   2.442  12.432 -0.7868  1.2379 -1.2017
   70MPD2     C 1085   3.344   2.468  12.970  0.2011  0.1930  0.6878
   70MPD2    C1 1086   3.206   2.455  12.988  0.6148  0.3813 -0.0968
   70MPD2    C2 1087   3.150   2.430  13.116  0.9401 -1.0308  0.0465
   70MPD2    C3 1088   3.237   2.409  13.226  0.4465  0.7469 -0.7538
   70MPD2    C4 1089   3.370   2.427  13.201 -0.0573  0.0628  0.6593
   70MPD2    C5 1090   3.422   2.465  13.084 -0.2620 -0.5081  0.0124
   70MPD2     H 1091   3.046   2.405  13.132  0.7346  0.3007  0.8111
   70MPD2    H1 1092   3.443   2.417  13.281  0.9103  1.6505 -0.0212
   70MPD2    H2 1093   3.394   2.481  12.875 -0.0446  0.6368  0.6220
   70MPD2    H3 1094   3.529   2.479  13.072 -0.0690 -1.2312  0.8728
   70MPD2     N 1095   3.198   2.401  13.365  0.9276 -0.4659 -0.7724
   70MPD2    H5 1096   3.270   2.388  13.435  0.3365  1.5151  0.1806
   70MPD2    N1 1097   3.130   2.446  12.871 -0.3792  0.2545 -0.6463
   70MPD2    H7 1098   3.181   2.447  12.784  1.5754  0.1479  0.5010
   71TMC2    C1 1099   0.305   2.561   1.538 -0.1251 -0.1644 -0.0974
   71TMC2    C2 1100   0.409   2.483   1.569 -0.0983  0.4670  1.0016
   71TMC2    C3 1101   0.399   2.396   1.681 -0.8837  0.6050 -1.1760
   71TMC2    C4 1102   0.185   2.552   1.595 -0.1124 -0.0140 -0.6614
   71TMC2    C5 1103   0.171   2.446   1.684 -0.6179  0.4432 -0.1529
   71TMC2    C6 1104   0.278   2.378   1.733 -0.1828  0.0300  0.1984
   71TMC2     C 1105   0.319   2.652   1.422  0.2368  0.4744  0.4707
   71TMC2     O 1106   0.220   2.698   1.361 -0.1120  0.1643 -0.1849
   71TMC2     H 1107   0.511   2.483   1.533 -0.4613 -0.0900 -0.0178
   71TMC2    H1 1108   0.099   2.606   1.557 -0.2696 -0.4435 -0.9109
   71TMC2    H2 1109   0.256   2.314   1.818 -1.3558  0.2554  0.0650
   71TMC2    C7 1110   0.041   2.387   1.725  0.0006  0.5834  0.2845
   71TMC2    C8 1111   0.500   2.299   1.700  0.0291  0.5340  0.5606
   71TMC2    O1 1112   0.041   2.265   1.742  0.6811 -0.2292  0.0963
   71TMC2    O2 1113   0.579   2.254   1.621  0.7332 -0.1055  0.5116
   71TMC2    O5 1114   0.503   2.262   1.828  0.0144 -0.7079  0.2055
   71TMC2    H5 1115   0.443   2.315   1.885 -1.3873 -0.4469 -1.5266
   72MPD2     C 1116   0.595   2.862   1.038 -1.1904 -0.2635  0.0578
   72MPD2    C1 1117   0.457   2.859   1.062 -0.6706 -0.0177  0.1445
   72MPD2    C2 1118   0.405   2.802   1.174  0.3139 -0.2629  0.9516
   72MPD2    C3 1119   0.490   2.751   1.263  0.0227 -0.3100 -0.4778
   72MPD2    C4 1120   0.629   2.769   1.256 -0.3207 -0.2360  0.3650
   72MPD2    C5 1121   0.681   2.828   1.140 -0.6869  0.3011  0.5872
   72MPD2     H 1122   0.297   2.806   1.184  0.0358 -0.2427 -2.0554
   72MPD2    H1 1123   0.691   2.725   1.333 -1.3670 -0.0186  1.3317
   72MPD2    H2 1124   0.638   2.899   0.945 -0.6266 -2.5491 -0.5935
   72MPD2    H3 1125   0.787   2.842   1.127 -0.7903 -0.4166 -0.9705
   72MPD2     N 1126   0.449   2.670   1.382 -0.3372 -0.6799 -0.1515
   72MPD2    H5 1127   0.518   2.613   1.430 -0.1948  0.0002  0.4547
   72MPD2    N1 1128   0.369   2.901   0.963  0.3051 -0.4405 -0.3335
   72MPD2    H7 1129   0.272   2.880   0.984  0.4249 -1.7014 -1.0488
   73TMC2    C1 1130   0.287   0.242  13.905  0.3651 -0.0436  0.3942
   73TMC2    C2 1131   0.420   0.258  13.901 -0.1605 -0.0903 -1.0182
   73TMC2    C3 1132   0.491   0.236  13.785 -0.4590  0.2920 -0.4285
   73TMC2    C4 1133   0.219   0.192  13.791 -0.4603 -0.1273 -0.3457
   73TMC2    C5 1134   0.296   0.182  13.672  0.3509  0.1623 -0.0580
   73TMC2    C6 1135   0.433   0.201  13.666  0.6907  0.1109  0.8817
   73TMC2     C 1136   0.211   0.356  13.948  0.5272  0.3229  0.0837
   73TMC2     O 1137   0.119   0.388  13.874 -0.3734 -0.1622  0.1358
   73TMC2     H 1138   0.460   0.306  13.989 -1.2567 -0.3313 -0.3977
   73TMC2    H1 1139   0.114   0.177  13.809 -0.1942  0.0569  1.3204
   73TMC2    H2 1140   0.485   0.213  13.572 -0.4393 -0.9698  0.1141
   73TMC2    C7 1141   0.234   0.245  13.561  0.6062  0.4167 -0.8299
   73TMC2    C8 1142   0.625   0.251  13.786 -0.1120 -0.2204  0.1215
   73TMC2    O1 1143   0.302   0.253  13.460  0.1411  0.4614 -0.1805
   73TMC2    O2 1144   0.694   0.256  13.684 -0.0186  0.5139  0.2824
   73TMC2    O5 1145   0.666   0.208  13.906  0.2418 -0.3005 -0.3969
   73TMC2    H5 1146   0.590   0.190  13.966  1.0690 -0.8998  0.4746
   74MPD2     C 1147   0.183   0.793  14.195  0.1004 -0.0608  0.4515
   74MPD2    C1 1148   0.110   0.744  14.085 -0.0816 -0.1957 -0.1838
   74MPD2    C2 1149   0.146   0.626  14.039  0.0075  0.3961 -0.1420
   74MPD2    C3 1150   0.239   0.548  14.100 -0.1334 -0.3926  1.2448
   74MPD2    C4 1151   0.298   0.588  14.216 -0.8897  0.1410 -0.6920
   74MPD2    C5 1152   0.264   0.712  14.264  0.5327  0.3180 -0.0617
   74MPD2     H 1153   0.098   0.598  13.946  0.5649  0.2775 -0.3924
   74MPD2    H1 1154   0.363   0.525  14.276  0.5420  1.1802 -1.1748
   74MPD2    H2 1155   0.155   0.889  14.237 -0.0912  0.6433 -1.2857
   74MPD2    H3 1156   0.316   0.740  14.355  1.1739 -0.0392 -0.3181
   74MPD2     N 1157   0.271   0.422  14.056  0.0478 -0.1387  0.0476
   74MPD2    H5 1158   0.332   0.368  14.116  0.0292 -1.5718 -1.2165
   74MPD2    N1 1159   0.018   0.835  14.031  0.8166  0.1669 -0.3898
   74MPD2    H7 1160   0.023   0.928  14.072 -0.2820 -0.6029  1.4888
   75TMC2    C1 1161   4.622   1.391  14.073  0.7958 -0.2489 -0.0357
   75TMC2    C2 1162   4.519   1.394  14.166 -0.4450 -0.6407  0.7597
   75TMC2    C3 1163   4.395   1.411  14.110 -0.6050 -0.7976  0.2771
   75TMC2    C4 1164   4.609   1.427  13.943  0.0908  0.1089 -0.2545
   75TMC2    C5 1165   4.483   1.462  13.898  0.5880  0.4679  0.4688
   75TMC2    C6 1166   4.373   1.451  13.982  0.0658  0.3190  0.4471
   75TMC2     C 1167   0.021   1.393  14.122  0.2791  0.0571  0.0540
   75TMC2     O 1168   0.034   1.401  14.245 -0.0816  0.2986  0.3273
   75TMC2     H 1169   4.527   1.367  14.271  0.2718 -0.0982  0.8466
   75TMC2    H1 1170   4.691   1.460  13.881 -1.6366  1.5017 -1.8146
   75TMC2    H2 1171   4.276   1.480  13.944  0.1287 -1.6688 -1.2489
   75TMC2    C7 1172   4.470   1.567  13.807  0.8388 -0.2886  0.2790
   75TMC2    C8 1173   4.284   1.361  14.189 -0.1140 -0.3588 -0.0301
   75TMC2    O1 1174   4.542   1.664  13.821  0.2654  0.1484  0.3215
   75TMC2    O2 1175   4.302   1.285  14.286 -1.0671 -0.4366  0.4109
   75TMC2    O5 1176   4.184   1.449  14.178 -0.8195  0.4287  0.4402
   75TMC2    H5 1177   4.204   1.531  14.127 -0.6249  0.2551  0.2333
   76TMC2    C1 1178   3.760   1.493  11.865 -0.3842  0.4774  0.5454
   76TMC2    C2 1179   3.656   1.450  11.785  0.6213  0.6365  0.3687
   76TMC2    C3 1180   3.642   1.313  11.769  0.1223  0.3824  0.2010
   76TMC2    C4 1181   3.854   1.407  11.917 -0.0938  0.0902  0.4700
   76TMC2    C5 1182   3.835   1.274  11.896 -0.3734  0.1490  0.0049
   76TMC2    C6 1183   3.729   1.215  11.823  0.0580  0.3894 -0.1169
   76TMC2     C 1184   3.794   1.633  11.861  0.0935 -0.1388  0.7633
   76TMC2     O 1185   3.704   1.708  11.821 -0.3086 -0.4652  0.3708
   76TMC2     H 1186   3.585   1.521  11.745 -1.2569 -1.2584  0.3784
   76TMC2    H1 1187   3.932   1.442  11.983 -0.3164  0.5082  0.5120
   76TMC2    H2 1188   3.724   1.109  11.803 -0.0515  0.3699  0.0157
   76TMC2    C7 1189   3.911   1.170  11.976 -0.1177 -0.3133 -0.1436
   76TMC2    C8 1190   3.516   1.280  11.714  0.4921 -0.1036  0.2323
   76TMC2    O1 1191   3.894   1.056  11.936 -0.0439  0.3697 -0.0201
   76TMC2    O2 1192   3.444   1.196  11.768  0.6503  0.7131  0.0116
   76TMC2    O5 1193   3.481   1.353  11.603 -0.0669  0.4509  0.8792
   76TMC2    H5 1194   3.561   1.404  11.577 -0.8422  0.1758 -1.9936
   77MPD2     C 1195   4.078   2.038  11.962 -0.2561  0.1986 -0.4014
   77MPD2    C1 1196   3.940   2.021  11.964 -0.1600  0.0244 -0.5465
   77MPD2    C2 1197   3.890   1.907  11.915 -1.2241  0.0634  0.6509
   77MPD2    C3 1198   3.969   1.793  11.901  0.1973  0.7330  0.1310
   77MPD2    C4 1199   4.108   1.809  11.917 -0.2132 -0.0662 -0.2769
   77MPD2    C5 1200   4.158   1.933  11.944  0.6712  0.7070 -0.4522
   77MPD2     H 1201   3.784   1.899  11.896 -0.8280  0.1607 -1.6188
   77MPD2    H1 1202   4.185   1.736  11.894  0.4858  0.5277  0.1804
   77MPD2    H2 1203   4.128   2.132  11.981 -0.1958 -0.1240  1.0187
   77MPD2    H3 1204   4.266   1.940  11.948  0.7893 -1.1781 -0.4086
   77MPD2     N 1205   3.922   1.663  11.883  0.0639  0.0483 -0.0154
   77MPD2    H5 1206   3.995   1.593  11.883  0.6425  0.6429 -1.3532
   77MPD2    N1 1207   3.852   2.133  11.978  0.0465  0.3094  0.7484
   77MPD2    H7 1208   3.753   2.117  11.996  0.2383  0.2632  1.7620
   78TMC2    C1 1209   4.325   2.219   1.418 -0.1755  0.2159  0.2560
   78TMC2    C2 1210   4.263   2.324   1.361  0.6820 -0.6786 -0.0105
   78TMC2    C3 1211   4.343   2.427   1.313  0.1764  0.1433  0.1082
   78TMC2    C4 1212   4.464   2.218   1.436 -0.0286 -0.0610  0.9125
   78TMC2    C5 1213   4.534   2.324   1.378  0.0702  0.1230  0.1085
   78TMC2    C6 1214   4.474   2.431   1.316 -0.1656 -0.0935  0.1601
   78TMC2     C 1215   4.243   2.123   1.498 -0.4492 -0.2320  0.2672
   78TMC2     O 1216   4.122   2.143   1.486 -0.0198 -0.0600  0.3258
   78TMC2     H 1217   4.156   2.329   1.353  0.8971  2.7858 -0.7175
   78TMC2    H1 1218   4.518   2.146   1.496 -1.7048 -0.9791  1.3230
   78TMC2    H2 1219   4.532   2.506   1.263 -0.8200 -0.0804 -0.5364
   78TMC2    C7 1220   4.675   2.343   1.401 -0.1002  0.5109 -0.3975
   78TMC2    C8 1221   4.275   2.546   1.261 -0.3066  0.2493 -0.9709
   78TMC2    O1 1222   4.718   2.453   1.379  0.1542  0.3698  0.1663
   78TMC2    O2 1223   4.160   2.546   1.223  0.0423 -0.3491 -0.1104
   78TMC2    O5 1224   4.339   2.649   1.324 -0.0976 -0.4749  0.4188
   78TMC2    H5 1225   4.433   2.639   1.348  0.0679 -2.2147 -0.9576
   79MPD1     C 1226   4.176   1.645   1.682  0.3844  0.3356 -0.5128
   79MPD1    C1 1227   4.090   1.750   1.672 -0.2197  0.1676  0.0146
   79MPD1    C2 1228   4.129   1.877   1.632 -0.0294 -0.3978 -0.7955
   79MPD1    C3 1229   4.260   1.895   1.596  0.6067  0.4324 -0.5346
   79MPD1    C4 1230   4.348   1.788   1.605  0.2404  1.1948  0.5930
   79MPD1    C5 1231   4.303   1.666   1.643 -0.1872  0.8212  0.6029
   79MPD1     H 1232   4.057   1.957   1.620 -0.8988 -1.2406 -1.2698
   79MPD1    H1 1233   4.453   1.802   1.578  0.0092  0.5597 -0.6288
   79MPD1    H2 1234   4.134   1.545   1.691 -0.0088  0.4777 -0.7715
   79MPD1    H3 1235   4.372   1.583   1.639 -1.8781 -0.4808 -1.3965
   79MPD1     N 1236   4.313   2.013   1.541 -0.3138 -0.8821  0.4692
   79MPD1    H5 1237   4.411   2.010   1.517  0.1685 -0.5833  2.4447
   79MPD1    N1 1238   3.960   1.716   1.693  0.0491 -0.0252  0.6197
   79MPD1    H6 1239   3.948   1.641   1.760 -0.9655  0.1321  0.6212
   79MPD1    H7 1240   3.915   1.791   1.746 -0.5596 -2.1076  3.0746
   80TMC2    C1 1241   3.086   1.632  12.378  0.2720  0.2303  0.7655
   80TMC2    C2 1242   3.115   1.613  12.243  0.4426  0.7956 -0.3817
   80TMC2    C3 1243   3.016   1.636  12.159  0.3658  0.1245  0.5380
   80TMC2    C4 1244   2.964   1.675  12.428 -0.8409  0.0972 -0.0290
   80TMC2    C5 1245   2.868   1.697  12.323  0.0179  0.0979 -0.3570
   80TMC2    C6 1246   2.885   1.674  12.191  0.6115  0.5336 -0.1356
   80TMC2     C 1247   3.207   1.684  12.438  0.2496 -0.2264 -0.3480
   80TMC2     O 1248   3.288   1.724  12.358  0.2413  0.3689  0.1630
   80TMC2     H 1249   3.208   1.577  12.202  0.3354 -0.3971  0.4368
   80TMC2    H1 1250   2.936   1.687  12.532  1.1632 -0.3855  0.5613
   80TMC2    H2 1251   2.798   1.676  12.126 -0.0346  0.5309  0.7387
   80TMC2    C7 1252   2.730   1.706  12.359 -0.2115 -0.0920  0.5218
   80TMC2    C8 1253   3.058   1.651  12.027  0.2093 -0.0845  0.2044
   80TMC2    O1 1254   2.651   1.752  12.279  0.5117  0.2474  0.4993
   80TMC2    O2 1255   3.170   1.611  11.982 -0.5213  0.1400  0.1508
   80TMC2    O5 1256   2.967   1.720  11.961  0.3646 -0.7851  0.0972
   80TMC2    H5 1257   2.881   1.747  12.000 -0.3518  0.7001 -2.5371
   81MPD2     C 1258   3.411   1.815  12.610 -1.2593 -0.0880  0.4674
   81MPD2    C1 1259   3.288   1.778  12.650  0.4550  0.3925  0.1824
   81MPD2    C2 1260   3.249   1.808  12.780  0.8888 -0.4269  0.6813
   81MPD2    C3 1261   3.334   1.865  12.877  0.2376  0.9916 -0.4784
   81MPD2    C4 1262   3.461   1.897  12.832  1.0484  0.3041  0.2073
   81MPD2    C5 1263   3.500   1.875  12.698 -0.1565  0.0235  0.2091
   81MPD2     H 1264   3.150   1.778  12.813  0.5133 -1.1167 -1.0857
   81MPD2    H1 1265   3.531   1.947  12.897  1.5328  0.2883 -0.3058
   81MPD2    H2 1266   3.447   1.796  12.510  1.5418 -1.0855  1.6798
   81MPD2    H3 1267   3.600   1.899  12.665  0.0209 -0.4562  0.4029
   81MPD2     N 1268   3.299   1.907  13.013  0.2431  0.2881  0.1457
   81MPD2    H5 1269   3.358   1.981  13.051  0.0975  0.7327 -0.4909
   81MPD2    N1 1270   3.197   1.713  12.571  0.1477 -0.6468  0.1882
   81MPD2    H7 1271   3.109   1.681  12.610  0.1142 -1.7112 -0.7772
   82TMC2    C1 1272   0.594   1.180  10.811  0.0910  0.2759 -0.0150
   82TMC2    C2 1273   0.713   1.249  10.787  0.0767 -0.0762 -0.2174
   82TMC2    C3 1274   0.812   1.172  10.739  0.2004  0.3795  0.0420
   82TMC2    C4 1275   0.589   1.041  10.809 -0.6792 -0.1776  0.4841
   82TMC2    C5 1276   0.698   0.974  10.783 -0.1605  0.2232  0.6108
   82TMC2    C6 1277   0.816   1.032  10.747  0.1805  0.2746 -0.1232
   82TMC2     C 1278   0.470   1.243  10.771 -0.0073 -0.5526 -0.0967
   82TMC2     O 1279   0.374   1.171  10.747  0.1369 -0.0489 -0.6077
   82TMC2     H 1280   0.718   1.357  10.777  1.4321  0.1406  2.7761
   82TMC2    H1 1281   0.492   0.996  10.825 -0.6761 -0.2379  0.3366
   82TMC2    H2 1282   0.901   0.973  10.717 -0.2755 -0.1163 -0.6366
   82TMC2    C7 1283   0.696   0.834  10.765  0.2610 -0.3302 -0.2243
   82TMC2    C8 1284   0.942   1.229  10.750 -0.5101 -0.3285 -0.3070
   82TMC2    O1 1285   0.741   0.781  10.665  0.5508  0.0978  0.5695
   82TMC2    O2 1286   1.043   1.166  10.785 -0.4816 -0.1695  0.1458
   82TMC2    O5 1287   0.940   1.339  10.681  0.3720  0.0146 -0.0253
   82TMC2    H5 1288   0.855   1.365  10.640 -0.2747 -3.4884 -0.8792
   83MPD2     C 1289   0.175   1.651  10.673 -0.7740  0.1055 -0.2373
   83MPD2    C1 1290   0.147   1.522  10.646 -0.7225  0.1752 -0.7261
   83MPD2    C2 1291   0.246   1.428  10.682  0.9295 -0.1066 -0.0245
   83MPD2    C3 1292   0.370   1.475  10.740  0.4557  0.3347 -0.5816
   83MPD2    C4 1293   0.390   1.606  10.767 -0.5608 -0.4351  0.2229
   83MPD2    C5 1294   0.290   1.692  10.732 -0.3016 -0.3566 -0.5441
   83MPD2     H 1295   0.223   1.325  10.658  2.3637 -0.2414 -0.8294
   83MPD2    H1 1296   0.477   1.646  10.819  0.0274 -0.5687 -0.6649
   83MPD2    H2 1297   0.100   1.725  10.647 -1.6347 -0.1617  1.4565
   83MPD2    H3 1298   0.294   1.799  10.753 -1.0238 -0.7398  1.5685
   83MPD2     N 1299   0.467   1.384  10.779  0.3288  0.1583 -0.2818
   83MPD2    H5 1300   0.553   1.426  10.815  1.3831 -1.3102 -1.0682
   83MPD2    N1 1301   0.022   1.493  10.584  0.4455  0.5118 -0.2019
   83MPD2    H7 1302   4.695   1.571  10.577 -3.2358 -2.2920  2.3388
   84TMC2    C1 1303   1.921   4.580  11.068 -0.0415 -0.8226 -0.9551
   84TMC2    C2 1304   1.839   4.471  11.071  0.3034 -0.1666  0.4395
   84TMC2    C3 1305   1.809   4.415  10.953  1.0076  0.2084  0.4457
   84TMC2    C4 1306   1.956   4.650  10.952  0.2678 -0.6279 -0.2874
   84TMC2    C5 1307   1.920   4.585  10.835 -0.3417 -0.2818 -0.6921
   84TMC2    C6 1308   1.859   4.461  10.831 -0.5680 -0.0216 -0.3849
   84TMC2     C 1309   1.939   4.650  11.195 -0.5474 -0.2005 -0.0185
   84TMC2     O 1310   1.971   0.032  11.191 -0.1743 -0.0827 -0.1830
   84TMC2     H 1311   1.795   4.424  11.158 -0.3135 -0.5701 -0.0881
   84TMC2    H1 1312   2.022   4.736  10.948 -2.3001  1.2927 -1.0343
   84TMC2    H2 1313   1.836   4.422  10.732  0.4574  1.1253 -1.0814
   84TMC2    C7 1314   1.917   4.661  10.711  0.2253  0.4741  0.6393
   84TMC2    C8 1315   1.676   4.352  10.953 -0.0240 -0.1944 -0.4273
   84TMC2    O1 1316   1.921   4.591  10.607 -0.0335 -0.0722  0.6506
   84TMC2    O2 1317   1.587   4.403  11.016  0.4672 -0.6510  0.0287
   84TMC2    O5 1318   1.664   4.288  10.838  0.1323 -0.2046  0.2376
   84TMC2    H5 1319   1.740   4.230  10.818  0.7336  0.7883 -0.3477
   85TMC2    C1 1320   2.647   3.413  15.661 -0.0438 -0.2257 -0.3316
   85TMC2    C2 1321   2.617   3.530  15.602 -0.2985  0.3296 -1.0775
   85TMC2    C3 1322   2.717   3.596  15.535  0.3191 -0.5094 -0.2664
   85TMC2    C4 1323   2.769   3.361  15.670 -0.2455 -0.0777  0.1624
   85TMC2    C5 1324   2.867   3.429  15.605 -0.1450 -0.1322  0.7717
   85TMC2    C6 1325   2.852   3.550  15.542 -0.0111  0.4050 -0.1800
   85TMC2     C 1326   2.563   3.360  15.769 -0.3230 -0.5858 -0.1185
   85TMC2     O 1327   2.507   3.448  15.836  0.5345  0.3833  0.0595
   85TMC2     H 1328   2.514   3.561  15.606 -0.5622 -0.5892 -0.7016
   85TMC2    H1 1329   2.790   3.275  15.733 -3.6837 -0.6173  0.5775
   85TMC2    H2 1330   2.936   3.591  15.486 -0.0090 -0.8933 -1.1121
   85TMC2    C7 1331   2.965   3.333  15.558 -0.5083  0.4963 -0.0976
   85TMC2    C8 1332   2.672   3.713  15.455 -0.3465  0.1093  0.1752
   85TMC2    O1 1333   2.972   3.227  15.617 -0.0758  0.2882  0.1203
   85TMC2    O2 1334   2.555   3.728  15.430 -0.9060 -0.5477 -0.0508
   85TMC2    O5 1335   2.780   3.770  15.396  0.4492 -0.8499  0.5351
   85TMC2    H5 1336   2.864   3.758  15.444  0.0617  1.3263  1.7684
   86MPD2     C 1337   2.316   3.027  16.064  0.5213  0.2959 -0.1286
   86MPD2    C1 1338   2.360   2.958  15.956 -0.0763  0.6533  0.1814
   86MPD2    C2 1339   2.444   3.026  15.863  1.0747 -0.7990  0.2482
   86MPD2    C3 1340   2.475   3.155  15.881 -0.0098  0.0002  0.0632
   86MPD2    C4 1341   2.420   3.226  15.986  0.7681  0.1840 -0.9915
   86MPD2    C5 1342   2.344   3.159  16.074  0.5761  0.4458  0.0314
   86MPD2     H 1343   2.481   2.963  15.784 -0.7139  0.4635 -1.5930
   86MPD2    H1 1344   2.434   3.332  16.005 -0.5223  0.3116 -0.7878
   86MPD2    H2 1345   2.253   2.983  16.140  1.1826 -0.4769 -0.0328
   86MPD2    H3 1346   2.300   3.220  16.151  0.5458 -0.6439  0.8694
   86MPD2     N 1347   2.555   3.221  15.781  0.9573 -0.4229 -0.2052
   86MPD2    H5 1348   2.587   3.163  15.704 -1.9184 -3.1455  0.6248
   86MPD2    N1 1349   2.340   2.818  15.932  0.1117  0.3023 -0.4789
   86MPD2    H7 1350   2.376   2.781  15.845 -1.2642  1.5478 -1.5602
   87TMC2    C1 1351   0.165   1.880   1.075  0.2754  0.9673  0.5017
   87TMC2    C2 1352   0.293   1.917   1.037 -0.1423 -0.8052  0.4275
   87TMC2    C3 1353   0.309   2.045   0.991  0.4739 -0.1688 -0.0938
   87TMC2    C4 1354   0.066   1.975   1.081  0.5621  0.3040 -0.2998
   87TMC2    C5 1355   0.092   2.106   1.038 -0.1037 -0.5611 -0.1148
   87TMC2    C6 1356   0.214   2.143   0.992 -0.3090  0.2116  0.1094
   87TMC2     C 1357   0.130   1.752   1.017  0.6006 -0.1319 -0.9704
   87TMC2     O 1358   0.222   1.674   1.000  0.0613 -0.2051  0.0840
   87TMC2     H 1359   0.376   1.848   1.022 -0.7463 -1.1936 -1.1434
   87TMC2    H1 1360   4.699   1.946   1.092  0.4455  1.4499  1.5884
   87TMC2    H2 1361   0.234   2.238   0.944  1.0461  0.3354  0.9064
   87TMC2    C7 1362   4.721   2.198   1.040 -0.6516  0.5931 -0.1688
   87TMC2    C8 1363   0.434   2.076   0.924 -0.4234  0.0088  0.4550
   87TMC2    O1 1364   4.607   2.151   1.044  0.6354  0.6498 -0.0829
   87TMC2    O2 1365   0.531   2.114   0.988 -0.2801  0.0132 -0.2363
   87TMC2    O5 1366   0.438   1.989   0.826 -0.0961  0.4915  0.2999
   87TMC2    H5 1367   0.350   1.956   0.797 -0.9354  1.8111  1.3769
   88MPD2     C 1368   0.026   2.559   1.103  0.0076 -0.6512 -0.8141
   88MPD2    C1 1369   4.701   2.445   1.063  0.0692  0.4513  0.6304
   88MPD2    C2 1370   4.577   2.464   1.000 -0.4515 -0.0055 -0.3908
   88MPD2    C3 1371   4.521   2.586   0.979 -0.1317  0.0548  1.0149
   88MPD2    C4 1372   4.595   2.696   1.013  0.1858  0.2871  0.2841
   88MPD2    C5 1373   4.711   2.689   1.083  0.2483  0.0395  0.1218
   88MPD2     H 1374   4.514   2.382   0.967 -0.0065 -0.3159 -0.4561
   88MPD2    H1 1375   4.545   2.792   0.999  2.8025  1.4836 -0.8896
   88MPD2    H2 1376   0.110   2.555   1.172 -0.8797  3.4471  0.5115
   88MPD2    H3 1377   0.035   2.769   1.122 -1.2681  0.8983  0.7033
   88MPD2     N 1378   4.401   2.598   0.909  0.4303 -0.4968  0.2408
   88MPD2    H5 1379   4.389   2.687   0.861 -3.4621 -1.0116  0.2768
   88MPD2    N1 1380   0.033   2.327   1.070 -0.3061  0.9676  0.0562
   88MPD2    H7 1381   0.131   2.328   1.094 -0.6095  0.3699  1.3219
   89TMC2    C1 1382   1.252   4.526   0.896  0.0736 -0.2186  0.2219
   89TMC2    C2 1383   1.300   4.544   0.766  0.1274 -0.2157  0.2594
   89TMC2    C3 1384   1.259   4.650   0.694  0.7145 -0.8941 -0.2010
   89TMC2    C4 1385   1.169   4.622   0.959  0.0223 -0.3372 -0.3080
   89TMC2    C5 1386   1.148   0.003   0.885  0.4468  0.1598 -0.0992
   89TMC2    C6 1387   1.193   0.019   0.755 -0.4628  0.0496  0.4046
   89TMC2     C 1388   1.306   4.411   0.966  0.2998  0.0788 -0.6772
   89TMC2     O 1389   1.393   4.355   0.904 -0.7479 -0.1630  0.3095
   89TMC2     H 1390   1.377   4.480   0.726  1.2894  0.5763  1.2424
   89TMC2    H1 1391   1.152   4.618   1.065 -0.9935 -0.5436 -0.4786
   89TMC2    H2 1392   1.162   0.103   0.694 -0.1540  1.2078  1.8182
   89TMC2    C7 1393   1.086   0.111   0.958 -0.4430  0.5814 -0.1568
   89TMC2    C8 1394   1.287   4.647   0.547  0.1639  0.5611  0.4648
   89TMC2    O1 1395   1.060   0.091   1.075  0.4996 -0.0707 -0.3597
   89TMC2    O2 1396   1.275   0.016   0.485 -0.1006  0.0012 -0.1892
   89TMC2    O5 1397   1.299   4.528   0.498  0.0523 -0.1897  0.1093
   89TMC2    H5 1398   1.366   4.476   0.548  0.2707  2.4899  2.5678
   90MPD2     C 1399   1.318   4.012   1.299  0.0930  0.7443 -0.8355
   90MPD2    C1 1400   1.195   4.077   1.306 -0.0679 -0.1175  0.3200
   90MPD2    C2 1401   1.173   4.195   1.241 -0.0384 -0.4877  0.1873
   90MPD2    C3 1402   1.265   4.255   1.153 -0.4359  0.0207  0.4974
   90MPD2    C4 1403   1.388   4.191   1.150  0.1008  0.2694 -0.1617
   90MPD2    C5 1404   1.412   4.073   1.216 -0.9019 -0.0235  0.1273
   90MPD2     H 1405   1.077   4.240   1.259  0.3877 -0.6701  2.8552
   90MPD2    H1 1406   1.472   4.226   1.091  0.9475  0.0721  0.9284
   90MPD2    H2 1407   1.337   3.920   1.354  0.6158  1.3643  0.0291
   90MPD2    H3 1408   1.512   4.032   1.207 -1.1734 -0.3402 -1.3921
   90MPD2     N 1409   1.232   4.369   1.074 -0.4871 -0.3917  0.7075
   90MPD2    H5 1410   1.145   4.417   1.094  0.4377  2.1189 -1.2944
   90MPD2    N1 1411   1.085   4.033   1.384  0.1711  0.9822 -0.4195
   90MPD2    H7 1412   1.008   4.098   1.392 -0.8047  0.1563 -2.8536
   91TMC2    C1 1413   2.206   4.049  16.392  0.2271  0.6432 -0.2447
   91TMC2    C2 1414   2.190   4.016  16.523 -0.3155 -0.2558 -0.1503
   91TMC2    C3 1415   2.102   3.908  16.546 -0.8132 -0.1409 -0.1872
   91TMC2    C4 1416   2.144   3.994  16.286 -0.0816 -0.1844  0.0598
   91TMC2    C5 1417   2.057   3.895  16.315 -0.5717 -0.0674  0.6128
   91TMC2    C6 1418   2.035   3.849  16.442  0.1772  0.5482 -0.2568
   91TMC2     C 1419   2.320   4.137  16.357  0.4828  0.1198 -0.4466
   91TMC2     O 1420   2.323   4.199  16.250 -0.4669  0.0592 -0.0935
   91TMC2     H 1421   2.255   4.062  16.597  0.0314  0.4114 -0.8736
   91TMC2    H1 1422   2.174   4.021  16.185  1.8617 -2.8719 -0.0973
   91TMC2    H2 1423   1.956   3.777  16.459 -1.2973  1.8176 -1.6634
   91TMC2    C7 1424   1.988   3.817  16.211 -0.3694  0.3494 -0.1969
   91TMC2    C8 1425   2.061   3.880  16.684 -0.9138 -0.0575 -0.9911
   91TMC2    O1 1426   1.946   3.705  16.233 -0.0196  0.1143  0.3510
   91TMC2    O2 1427   1.987   3.788  16.717  0.3705  0.1847  0.1385
   91TMC2    O5 1428   2.075   4.000  16.746  0.5542  0.7944 -0.0675
   91TMC2    H5 1429   2.156   4.044  16.714  0.4200  0.5985 -0.6667
   92MPD2     C 1430   2.588   4.274  16.343  0.3728 -0.6548  0.2371
   92MPD2    C1 1431   2.547   4.186  16.440  0.5205  0.1396 -0.1325
   92MPD2    C2 1432   2.633   4.155  16.542  1.5142  0.8602 -0.4329
   92MPD2    C3 1433   2.766   4.193  16.559 -0.0351  0.3012  0.6983
   92MPD2    C4 1434   2.806   4.291  16.469 -0.0614  0.0390 -0.8605
   92MPD2    C5 1435   2.717   4.324  16.369 -0.2265  0.0162  0.3143
   92MPD2     H 1436   2.601   4.085  16.618  0.3560  0.1433 -1.5741
   92MPD2    H1 1437   2.908   4.327  16.461  0.6114 -1.4921  0.7690
   92MPD2    H2 1438   2.533   4.306  16.255  0.2991 -1.6255 -0.0716
   92MPD2    H3 1439   2.752   4.378  16.282 -0.2679 -1.3260 -0.5251
   92MPD2     N 1440   2.856   4.135  16.650  0.3484  0.1163 -0.1809
   92MPD2    H5 1441   2.942   4.185  16.666 -0.7259  2.1805 -0.7676
   92MPD2    N1 1442   2.421   4.127  16.439  0.9824 -0.5524  0.2898
   92MPD2    H7 1443   2.405   4.060  16.514 -1.3677 -1.3447 -0.9353
   93TMC2    C1 1444   4.669   3.753  14.068  0.4636  0.0323  0.6015
   93TMC2    C2 1445   4.696   3.726  14.197  0.2328  0.1503 -0.2992
   93TMC2    C3 1446   0.027   3.820  14.263 -0.6962  0.2575  0.1952
   93TMC2    C4 1447   4.708   3.867  14.009 -0.1989  0.2535 -0.4588
   93TMC2    C5 1448   0.045   3.951  14.078  0.1161  0.0097 -0.0028
   93TMC2    C6 1449   0.069   3.939  14.211  0.0377  0.2011  0.2618
   93TMC2     C 1450   4.560   3.677  14.014 -1.2869  0.2976 -0.0523
   93TMC2     O 1451   4.539   3.563  14.051 -0.2029 -0.5714 -0.1774
   93TMC2     H 1452   4.666   3.636  14.249 -2.0154  0.8253 -0.4109
   93TMC2    H1 1453   4.688   3.887  13.904 -1.1276 -2.1219 -0.7164
   93TMC2    H2 1454   0.121   4.008  14.276  0.6474  0.0385 -0.0593
   93TMC2    C7 1455   0.109   4.054  14.001  0.2151  0.7568 -0.3152
   93TMC2    C8 1456   0.042   3.801  14.407  0.3825 -0.6969 -0.5161
   93TMC2    O1 1457   0.142   4.031  13.886  0.8356  0.0503  0.2001
   93TMC2    O2 1458   0.040   3.883  14.497  0.5688 -0.2310 -0.1868
   93TMC2    O5 1459   0.098   3.679  14.420 -0.5826 -0.3917  0.2283
   93TMC2    H5 1460   0.088   3.616  14.345  1.3005  1.9735 -1.9823
   94MPD2     C 1461   4.305   3.597  13.896 -0.4597  0.0675  0.5394
   94MPD2    C1 1462   4.355   3.724  13.883  1.0637  0.1734  0.7437
   94MPD2    C2 1463   4.283   3.821  13.810 -0.4617  0.2988 -0.6005
   94MPD2    C3 1464   4.162   3.788  13.749 -0.4838  0.1258 -0.4709
   94MPD2    C4 1465   4.108   3.656  13.769  0.2371 -0.1277  0.6004
   94MPD2    C5 1466   4.180   3.568  13.844  0.2329 -1.1734 -0.4824
   94MPD2     H 1467   4.331   3.915  13.785  1.0057 -0.4835 -0.7226
   94MPD2    H1 1468   4.014   3.629  13.723  0.1088  2.0385 -0.4400
   94MPD2    H2 1469   4.357   3.521  13.954  1.3492  2.5206  2.1607
   94MPD2    H3 1470   4.140   3.471  13.871 -1.1008 -0.1491  1.2673
   94MPD2     N 1471   4.096   3.892  13.674  0.3605 -0.1822 -0.1668
   94MPD2    H5 1472   4.142   3.981  13.658  0.3014  0.2249  1.8865
   94MPD2    N1 1473   4.479   3.763  13.941  0.1403  0.2213  0.3442
   94MPD2    H7 1474   4.502   3.862  13.937 -2.0272  0.6293 -1.5311
   95TMC2    C1 1475   4.386   1.322  16.222  0.3670 -0.6823 -0.2547
   95TMC2    C2 1476   4.309   1.237  16.304  0.0521  0.2171 -0.6035
   95TMC2    C3 1477   4.241   1.299  16.405 -0.3938  0.4378 -0.9061
   95TMC2    C4 1478   4.396   1.460  16.248  0.2636  0.4303 -0.6651
   95TMC2    C5 1479   4.323   1.507  16.353  0.4083 -0.0189  0.8214
   95TMC2    C6 1480   4.240   1.433  16.432 -0.0632 -0.7687 -0.2980
   95TMC2     C 1481   4.461   1.273  16.120  0.4957  0.3714  0.4044
   95TMC2     O 1482   4.549   1.344  16.076 -0.0091  0.7088 -0.4377
   95TMC2     H 1483   4.319   1.130  16.295 -2.4064 -0.0680  0.2111
   95TMC2    H1 1484   4.480   1.515  16.208  1.8270 -1.8325 -0.4895
   95TMC2    H2 1485   4.201   1.467  16.527 -1.5126  0.0905 -1.1963
   95TMC2    C7 1486   4.315   1.651  16.358 -0.4999 -0.8101 -0.1184
   95TMC2    C8 1487   4.130   1.228  16.470  0.7185 -0.1108 -0.7713
   95TMC2    O1 1488   4.262   1.695  16.457 -0.2549  0.2041 -0.3077
   95TMC2    O2 1489   4.077   1.240  16.580 -0.0607 -0.7878 -0.0817
   95TMC2    O5 1490   4.082   1.150  16.370  0.0241  0.3655  0.2376
   95TMC2    H5 1491   4.108   1.168  16.277  1.2399 -0.0657  0.4975
   96MPD2     C 1492   4.520   0.939  15.735  0.5362  0.2492  0.6774
   96MPD2    C1 1493   4.578   1.061  15.752 -0.5179 -0.6177 -0.1215
   96MPD2    C2 1494   4.555   1.137  15.866 -0.2290 -0.3803  0.0450
   96MPD2    C3 1495   4.466   1.086  15.956 -0.7906  0.4983  0.8581
   96MPD2    C4 1496   4.417   0.960  15.938 -0.5343  0.7216 -0.4380
   96MPD2    C5 1497   4.443   0.888  15.830  0.4211 -0.4112 -0.5035
   96MPD2     H 1498   4.602   1.230  15.893  2.4063 -2.6671  3.4605
   96MPD2    H1 1499   4.356   0.922  16.019 -0.2554 -0.9294 -0.9926
   96MPD2    H2 1500   4.548   0.878  15.651  0.8352  0.5986  0.5239
   96MPD2    H3 1501   4.383   0.799  15.814 -0.0971 -0.2692  0.6361
   96MPD2     N 1502   4.412   1.152  16.069 -0.1312 -0.1245  0.0039
   96MPD2    H5 1503   4.334   1.111  16.119 -0.9971  0.0364 -1.2316
   96MPD2    N1 1504   4.669   1.099  15.647  0.4693 -0.0015 -0.7788
   96MPD2    H7 1505   4.684   1.030  15.574  1.8354 -1.5593  0.9466
   97TMC2    C1 1506   1.803   4.089  17.583  0.1777  0.6074  0.4665
   97TMC2    C2 1507   1.729   4.072  17.473 -0.1163 -0.6826  0.4427
   97TMC2    C3 1508   1.717   4.174  17.395 -0.5857  0.2007  0.0543
   97TMC2    C4 1509   1.859   4.209  17.615  0.6676 -0.0652  0.0578
   97TMC2    C5 1510   1.842   4.316  17.532 -0.6856 -0.4584  0.5754
   97TMC2    C6 1511   1.794   4.290  17.407  0.0628  0.3671  0.9189
   97TMC2     C 1512   1.848   3.966  17.651  0.3838 -0.7366 -0.5630
   97TMC2     O 1513   1.774   3.868  17.640  0.3079  0.4545  0.6933
   97TMC2     H 1514   1.684   3.977  17.448 -0.2437  0.0029 -1.9823
   97TMC2    H1 1515   1.907   4.224  17.712 -0.9116 -2.3260  1.1838
   97TMC2    H2 1516   1.770   4.374  17.343 -0.6410  0.0370  0.7546
   97TMC2    C7 1517   1.941   4.429  17.554  0.1805 -0.3069  0.2618
   97TMC2    C8 1518   1.625   4.168  17.282  0.6720 -0.1038  0.0165
   97TMC2    O1 1519   2.007   4.432  17.658  0.4553  0.7060 -0.6223
   97TMC2    O2 1520   1.534   4.086  17.275  0.1250  0.2942 -0.5597
   97TMC2    O5 1521   1.657   4.247  17.178 -0.1285 -0.3929  0.1109
   97TMC2    H5 1522   1.745   4.290  17.185 -0.4651  0.4706 -0.9903
   98MPD2     C 1523   2.132   3.720   0.251  0.0748  0.0796  0.1973
   98MPD2    C1 1524   1.999   3.714   0.216  0.0445  0.4766  0.6131
   98MPD2    C2 1525   1.943   3.796   0.120  0.3582  0.8074  0.0151
   98MPD2    C3 1526   2.023   3.897   0.066  0.3379 -0.3226 -0.3392
   98MPD2    C4 1527   2.154   3.906   0.103 -0.4969 -0.8671  0.5308
   98MPD2    C5 1528   2.215   3.814   0.189 -0.3957 -1.0252 -0.1823
   98MPD2     H 1529   1.840   3.776   0.094  0.8270  0.1168 -1.3355
   98MPD2    H1 1530   2.213   3.976   0.046  0.4107  1.3442  4.1489
   98MPD2    H2 1531   2.171   3.645   0.319  0.0016 -0.8639 -0.7954
   98MPD2    H3 1532   2.323   3.815   0.201 -0.4790 -0.2062  0.5590
   98MPD2     N 1533   1.964   3.986  17.727  0.1801  0.3861 -0.3082
   98MPD2    H5 1534   2.009   4.076  17.713  2.5914 -0.7512  0.1383
   98MPD2    N1 1535   1.927   3.624   0.292  0.3619  0.0865  0.2114
   98MPD2    H7 1536   1.971   3.567   0.364 -0.1345  1.0980  1.3094
   99TMC2    C1 1537   1.051   1.648   1.294  0.0638  1.1145  0.1624
   99TMC2    C2 1538   1.156   1.702   1.370 -0.3327 -0.2287 -0.1442
   99TMC2    C3 1539   1.153   1.683   1.505  0.4554  0.2837  0.2735
   99TMC2    C4 1540   0.956   1.572   1.344 -0.7132 -0.0577  0.6807
   99TMC2    C5 1541   0.950   1.563   1.483  0.8405 -0.1219  0.0113
   99TMC2    C6 1542   1.048   1.618   1.565  0.8955 -0.0545  1.0824
   99TMC2     C 1543   1.089   1.643   1.154  0.1705  0.2254  0.3310
   99TMC2     O 1544   1.176   1.716   1.111  0.2281 -0.0056 -0.3298
   99TMC2     H 1545   1.224   1.779   1.336 -0.5509  0.0741  0.1101
   99TMC2    H1 1546   0.870   1.543   1.285 -0.8303  3.0761 -0.7019
   99TMC2    H2 1547   1.052   1.604   1.673 -1.5949  0.6354  1.2504
   99TMC2    C7 1548   0.824   1.529   1.557 -0.3492 -0.3655 -0.8506
   99TMC2    C8 1549   1.220   1.776   1.588  0.0136  0.0481 -0.0717
   99TMC2    O1 1550   0.829   1.550   1.677  0.8963  0.3086 -0.4675
   99TMC2    O2 1551   1.227   1.895   1.570  0.4637  0.4202 -0.2901
   99TMC2    O5 1552   1.275   1.713   1.700 -0.3015  0.9307  0.2056
   99TMC2    H5 1553   1.271   1.617   1.679  0.1447  0.3768  2.6364
  100MPD2     C 1554   1.168   1.518   0.889 -0.0435 -0.4651 -0.1624
  100MPD2    C1 1555   1.060   1.480   0.969  0.5751 -0.3008 -0.3401
  100MPD2    C2 1556   0.982   1.373   0.929 -0.1057  0.8513 -0.2141
  100MPD2    C3 1557   1.003   1.310   0.807  0.0608  0.1048 -0.0431
  100MPD2    C4 1558   1.105   1.347   0.722 -0.5934  0.3501 -0.1804
  100MPD2    C5 1559   1.180   1.453   0.766 -0.2587 -0.4106  0.4916
  100MPD2     H 1560   0.892   1.347   0.983  1.2212 -1.4349  0.9099
  100MPD2    H1 1561   1.125   1.286   0.634  2.8838 -0.1538  0.9965
  100MPD2    H2 1562   1.232   1.601   0.915 -0.0402 -0.2873 -0.7564
  100MPD2    H3 1563   1.269   1.481   0.710 -1.7765  2.2325 -0.5864
  100MPD2     N 1564   0.906   1.206   0.776 -0.1255 -0.3050 -0.2924
  100MPD2    H5 1565   0.831   1.196   0.844  1.2188  1.1685  1.4328
  100MPD2    N1 1566   1.030   1.532   1.098  0.0906  0.8058 -0.0115
  100MPD2    H7 1567   0.964   1.479   1.154 -0.8611  1.4248 -0.5439
  101TMC2    C1 1568   1.692   1.754  12.777  0.3355 -0.7509  0.7109
  101TMC2    C2 1569   1.691   1.889  12.792 -0.1438  0.0091 -0.1811
  101TMC2    C3 1570   1.746   1.962  12.692  0.4528  0.9856 -1.0060
  101TMC2    C4 1571   1.750   1.691  12.664 -0.0548  0.1691 -0.0155
  101TMC2    C5 1572   1.815   1.766  12.574  0.2467 -0.8767  0.2818
  101TMC2    C6 1573   1.804   1.899  12.584  0.4124 -0.3167 -0.0122
  101TMC2     C 1574   1.600   1.677  12.869  0.1658  0.4843  0.1777
  101TMC2     O 1575   1.537   1.729  12.955  0.3301 -0.0615  0.1840
  101TMC2     H 1576   1.643   1.936  12.878  1.6088  0.3841  0.5980
  101TMC2    H1 1577   1.746   1.586  12.637 -1.5500  0.2698 -0.1963
  101TMC2    H2 1578   1.865   1.959  12.518 -1.1019  0.2913 -0.8704
  101TMC2    C7 1579   1.910   1.711  12.483 -1.1026 -0.3191  0.5589
  101TMC2    C8 1580   1.809   2.076  12.733  0.5095 -0.2299 -0.3336
  101TMC2    O1 1581   1.924   1.778  12.381  0.0536  0.5306  0.4585
  101TMC2    O2 1582   1.921   2.111  12.704 -1.1499 -0.7233 -0.1969
  101TMC2    O5 1583   1.713   2.159  12.792 -0.3020  0.2252  0.1750
  101TMC2    H5 1584   1.626   2.115  12.798  0.2274 -1.1751 -2.7070
  102MPD2     C 1585   1.556   1.307  12.864 -0.7507  0.1825 -0.3502
  102MPD2    C1 1586   1.528   1.437  12.900 -0.1093  0.1441  0.0166
  102MPD2    C2 1587   1.423   1.450  12.983  0.2496 -0.2273  0.4497
  102MPD2    C3 1588   1.345   1.344  13.025 -0.3486  0.2947 -0.0755
  102MPD2    C4 1589   1.374   1.214  12.990  0.7447  0.1928 -0.4911
  102MPD2    C5 1590   1.474   1.204  12.904 -0.4903  0.6450 -0.6084
  102MPD2     H 1591   1.403   1.553  13.011 -0.9872 -0.2247 -0.4511
  102MPD2    H1 1592   1.321   1.124  13.018 -1.3462  1.5229 -0.1210
  102MPD2    H2 1593   1.637   1.296  12.793  1.5439 -0.6145  2.3985
  102MPD2    H3 1594   1.498   1.105  12.866  0.5835  0.8296 -0.4321
  102MPD2     N 1595   1.243   1.369  13.117  0.3013  0.0970  0.0339
  102MPD2    H5 1596   1.179   1.293  13.137 -1.1757  1.0533 -1.0429
  102MPD2    N1 1597   1.607   1.545  12.846 -0.0433  0.2932 -0.1774
  102MPD2    H7 1598   1.689   1.521  12.792 -0.1886 -1.3995  0.3445
  103TMC2    C1 1599   4.559   1.364  12.414 -0.1494  0.7836  0.1811
  103TMC2    C2 1600   4.664   1.278  12.395  0.7555 -0.6536 -0.0906
  103TMC2    C3 1601   0.053   1.328  12.423 -0.3106 -0.3052 -0.3589
  103TMC2    C4 1602   4.574   1.485  12.468  0.1855  0.6574  0.4636
  103TMC2    C5 1603   4.700   1.527  12.506  0.0243 -0.4596 -0.5465
  103TMC2    C6 1604   0.075   1.450  12.486  0.0927  0.8771 -0.5167
  103TMC2     C 1605   4.427   1.339  12.353  0.2566  0.6481  0.2407
  103TMC2     O 1606   4.356   1.432  12.324  0.2132 -0.1820  0.4969
  103TMC2     H 1607   4.665   1.178  12.352 -0.2939 -1.1198  0.9546
  103TMC2    H1 1608   4.487   1.546  12.486 -1.6749 -1.3335 -1.8528
  103TMC2    H2 1609   0.176   1.472  12.519 -0.3270 -0.0538  1.3801
  103TMC2    C7 1610   4.710   1.645  12.583  0.4359  0.1881  0.1293
  103TMC2    C8 1611   0.160   1.240  12.382  0.2142 -0.0144  0.2243
  103TMC2    O1 1612   4.611   1.690  12.643 -0.3985  0.1790  0.7560
  103TMC2    O2 1613   0.171   1.123  12.415  0.2504 -0.4228 -0.4375
  103TMC2    O5 1614   0.178   1.281  12.253 -0.5539 -1.0575 -0.0254
  103TMC2    H5 1615   0.135   1.366  12.230 -0.8784 -0.7694  1.6529
  104MPD2     C 1616   4.321   1.004  12.259  0.0468 -0.3942  0.6500
  104MPD2    C1 1617   4.314   1.139  12.259 -0.1600  1.0377  0.3988
  104MPD2    C2 1618   4.214   1.208  12.192  0.3506  0.0223  0.1445
  104MPD2    C3 1619   4.113   1.146  12.123 -0.1373  0.1596 -0.3951
  104MPD2    C4 1620   4.115   1.006  12.131  0.0357 -0.6385  0.2417
  104MPD2    C5 1621   4.221   0.939  12.188  0.0262 -0.0946 -0.2975
  104MPD2     H 1622   4.214   1.317  12.191 -1.8599  0.0099 -0.2352
  104MPD2    H1 1623   4.039   0.943  12.087  1.6654 -2.6899  0.4203
  104MPD2    H2 1624   4.404   0.946  12.297  0.1450  0.8850  2.3938
  104MPD2    H3 1625   4.218   0.832  12.175  3.0114 -0.2091 -0.0783
  104MPD2     N 1626   4.009   1.218  12.056 -1.0215  0.1049  0.8838
  104MPD2    H5 1627   4.010   1.319  12.065 -0.4770  0.3844 -2.3010
  104MPD2    N1 1628   4.414   1.200  12.326 -0.2593 -0.0386 -0.3548
  104MPD2    H7 1629   4.486   1.143  12.369 -0.1891  0.1393 -0.2373
  105TMC2    C1 1630   0.232   1.256   0.189 -0.4210  0.3850 -0.3105
  105TMC2    C2 1631   0.289   1.378   0.154  0.2119 -0.5145 -0.1574
  105TMC2    C3 1632   0.269   1.481   0.238 -0.1012  0.0312  0.0437
  105TMC2    C4 1633   0.166   1.249   0.313  0.0221 -0.6447 -0.8836
  105TMC2    C5 1634   0.155   1.353   0.404  0.4215 -0.0909 -0.7673
  105TMC2    C6 1635   0.208   1.473   0.360 -0.7365  0.2677  0.6373
  105TMC2     C 1636   0.302   1.143   0.134 -0.3241  0.0708 -0.0180
  105TMC2     O 1637   0.308   1.051   0.205 -0.0814 -0.8575  0.5017
  105TMC2     H 1638   0.340   1.405   0.062  0.4913 -0.7746 -0.0790
  105TMC2    H1 1639   0.120   1.156   0.345 -1.4663  1.0413  1.8908
  105TMC2    H2 1640   0.186   1.558   0.424  0.8695 -0.2609  1.8963
  105TMC2    C7 1641   0.065   1.350   0.515  1.0400 -0.2670  0.9964
  105TMC2    C8 1642   0.322   1.611   0.187 -0.8612 -0.7039 -0.0922
  105TMC2    O1 1643   4.706   1.285   0.493 -0.2249  0.3548  0.1372
  105TMC2    O2 1644   0.441   1.634   0.160  0.2534  0.4348 -0.4748
  105TMC2    O5 1645   0.241   1.694   0.255 -0.0527 -0.4140 -0.3008
  105TMC2    H5 1646   0.148   1.663   0.251 -0.4252  0.5914  0.4924
  106MPD2     C 1647   0.616   0.919  17.531  0.5695  0.6291 -0.8994
  106MPD2    C1 1648   0.574   1.044  17.487  0.2923  0.2034  0.2044
  106MPD2    C2 1649   0.480   1.114  17.559  0.4617  0.7177  0.1215
  106MPD2    C3 1650   0.442   1.070  17.686  0.2268 -0.5075  0.6486
  106MPD2    C4 1651   0.486   0.942  17.731 -0.3883 -0.0822 -0.3785
  106MPD2    C5 1652   0.563   0.871  17.644  0.3922 -0.0637 -0.6736
  106MPD2     H 1653   0.438   1.203  17.514  0.6612  0.4824 -0.5238
  106MPD2    H1 1654   0.463   0.896   0.080 -0.0601 -0.7012 -0.6000
  106MPD2    H2 1655   0.693   0.864  17.478  0.4735 -1.7597  1.4680
  106MPD2    H3 1656   0.601   0.776  17.680 -0.6074  0.1726  1.0399
  106MPD2     N 1657   0.353   1.157   0.005 -0.6953 -0.1208  0.8400
  106MPD2    H5 1658   0.333   1.242  17.701 -1.3938 -2.4964 -2.8140
  106MPD2    N1 1659   0.627   1.112  17.374 -1.0556  0.3215 -0.4157
  106MPD2    H7 1660   0.576   1.194  17.343 -1.9064 -0.8851 -2.2380
  107TMC2    C1 1661   1.648   0.569  11.664  0.5050 -0.2340  0.0513
  107TMC2    C2 1662   1.744   0.627  11.578 -0.3264 -0.4701 -0.1529
  107TMC2    C3 1663   1.854   0.552  11.559  0.3475  0.1877  0.2847
  107TMC2    C4 1664   1.663   0.446  11.718 -0.1605  0.6711  0.2763
  107TMC2    C5 1665   1.782   0.379  11.697  1.1573  0.3728  0.0340
  107TMC2    C6 1666   1.880   0.425  11.608 -0.1543  0.3963 -1.1490
  107TMC2     C 1667   1.543   0.653  11.714 -0.3956 -0.5631 -0.6396
  107TMC2     O 1668   1.459   0.606  11.796 -0.6488  0.5892 -0.0684
  107TMC2     H 1669   1.744   0.725  11.532  0.5219  0.3027  1.4724
  107TMC2    H1 1670   1.592   0.403  11.788  1.6690  2.4482  3.1847
  107TMC2    H2 1671   1.977   0.377  11.599 -0.4033 -0.2036 -0.6934
  107TMC2    C7 1672   1.780   0.236  11.729 -0.5980 -0.1586  0.1778
  107TMC2    C8 1673   1.945   0.597  11.456  0.1903 -0.0539 -0.1308
  107TMC2    O1 1674   1.731   0.191  11.831  0.0284 -0.5469 -0.3398
  107TMC2    O2 1675   1.957   0.716  11.430 -0.6044 -0.2186  0.7478
  107TMC2    O5 1676   1.947   0.499  11.366 -0.8498 -0.9728 -0.0340
  107TMC2    H5 1677   1.893   0.425  11.401 -1.2119 -0.9113 -0.4756
  108MPD2     C 1678   1.430   0.954  11.584 -0.5787 -0.0895  0.4863
  108MPD2    C1 1679   1.457   0.870  11.684 -0.9425  0.5909 -0.4809
  108MPD2    C2 1680   1.382   0.874  11.798  0.3261  0.8650  0.3677
  108MPD2    C3 1681   1.276   0.963  11.813  0.4853  0.7264 -0.1039
  108MPD2    C4 1682   1.245   1.046  11.704  0.2632  0.3197 -0.3070
  108MPD2    C5 1683   1.329   1.040  11.599  0.4471  0.4157 -0.6178
  108MPD2     H 1684   1.405   0.814  11.885 -3.6855  0.2112  0.9762
  108MPD2    H1 1685   1.158   1.110  11.703 -0.8665 -1.2085  0.0649
  108MPD2    H2 1686   1.485   0.954  11.490 -2.0170  0.9963 -0.3481
  108MPD2    H3 1687   1.310   1.112  11.521 -0.0429 -0.5988 -1.4341
  108MPD2     N 1688   1.201   0.987  11.928  0.2137  0.0925 -0.0280
  108MPD2    H5 1689   1.130   1.058  11.915  0.5895  0.3869 -0.4748
  108MPD2    N1 1690   1.551   0.775  11.658 -1.5380  0.6494  0.0845
  108MPD2    H7 1691   1.608   0.785  11.575 -0.8247  1.9466  0.7365
  109TMC2    C1 1692   0.672   3.044   0.142 -0.6147  0.4886 -0.1352
  109TMC2    C2 1693   0.662   3.144   0.045 -0.7000 -0.3368 -0.0494
  109TMC2    C3 1694   0.768   3.225   0.015  0.4284 -0.4402  0.3171
  109TMC2    C4 1695   0.789   3.018   0.211  0.1960  0.1815  0.3317
  109TMC2    C5 1696   0.897   3.103   0.176  0.4342 -0.2838  0.6383
  109TMC2    C6 1697   0.890   3.196   0.073 -0.1809  0.1896 -0.0298
  109TMC2     C 1698   0.559   2.962   0.171  0.2349  0.3275 -0.2593
  109TMC2     O 1699   0.467   2.964   0.093  0.1303  0.6851  0.3522
  109TMC2     H 1700   0.565   3.182   0.013 -1.8651 -1.8791  1.7118
  109TMC2    H1 1701   0.810   2.938   0.280 -0.6383 -0.6787 -0.4175
  109TMC2    H2 1702   0.974   3.257   0.045 -0.5280  0.4256 -0.5689
  109TMC2    C7 1703   1.017   3.096   0.252  0.5099 -0.1903  0.1596
  109TMC2    C8 1704   0.759   3.345  17.687  0.3169 -0.3161 -0.3474
  109TMC2    O1 1705   1.115   3.132   0.192  0.1035 -0.4860  0.2979
  109TMC2    O2 1706   0.830   3.438  17.724  0.4514  0.8607  0.0232
  109TMC2    O5 1707   0.673   3.334  17.584 -0.3736  0.2599  0.6250
  109TMC2    H5 1708   0.638   3.244  17.564 -0.0041  0.1468  0.5006
  110MPD2     C 1709   0.305   2.681   0.516 -0.0545  0.0806 -0.7380
  110MPD2    C1 1710   0.428   2.713   0.564  0.2285 -0.0276 -0.7303
  110MPD2    C2 1711   0.512   2.784   0.484  0.2851  0.3327  0.9779
  110MPD2    C3 1712   0.472   2.836   0.364 -0.1523 -0.0522  0.1698
  110MPD2    C4 1713   0.347   2.800   0.316  0.2857 -0.5744  0.2781
  110MPD2    C5 1714   0.261   2.729   0.396  0.3206 -0.0083 -0.7393
  110MPD2     H 1715   0.605   2.828   0.520  0.1777  2.0716 -0.8882
  110MPD2    H1 1716   0.307   2.834   0.221 -0.6725 -1.6823  0.2852
  110MPD2    H2 1717   0.239   2.632   0.587  1.4898  0.6121  1.0672
  110MPD2    H3 1718   0.160   2.714   0.360  1.0999 -3.1486 -1.6568
  110MPD2     N 1719   0.571   2.909   0.294  0.2193 -0.4796  0.2971
  110MPD2    H5 1720   0.661   2.933   0.335 -0.8191  0.8746  1.8139
  110MPD2    N1 1721   0.463   2.659   0.692 -0.2865 -0.3420 -0.0147
  110MPD2    H7 1722   0.395   2.597   0.734  2.9341 -2.3773  2.1123
  111TMC2    C1 1723   1.455   2.537  11.620  0.3689 -0.4934 -0.2027
  111TMC2    C2 1724   1.392   2.527  11.741 -0.1833  0.1569  0.2036
  111TMC2    C3 1725   1.450   2.459  11.844  0.0857  0.0568  0.3645
  111TMC2    C4 1726   1.575   2.487  11.601  0.7834 -0.1181  0.1267
  111TMC2    C5 1727   1.636   2.425  11.708  0.1127 -0.3381  0.5190
  111TMC2    C6 1728   1.577   2.402  11.832  0.1384 -0.4713 -0.4915
  111TMC2     C 1729   1.389   2.574  11.494 -0.0351  0.1795  0.1629
  111TMC2     O 1730   1.461   2.605  11.405 -0.0390  0.3538 -0.3219
  111TMC2     H 1731   1.293   2.571  11.747 -0.9568 -1.6228  0.3996
  111TMC2    H1 1732   1.633   2.484  11.509  0.6702 -0.9069  0.0802
  111TMC2    H2 1733   1.630   2.375  11.923  1.4468  2.1699 -0.4612
  111TMC2    C7 1734   1.751   2.339  11.687  0.3664  0.1293  0.0036
  111TMC2    C8 1735   1.401   2.485  11.978 -0.3500 -0.3175 -0.4265
  111TMC2    O1 1736   1.778   2.254  11.776  0.2853 -0.2866  0.1030
  111TMC2    O2 1737   1.339   2.581  12.009  0.6504 -0.4088  0.2878
  111TMC2    O5 1738   1.418   2.374  12.055  0.1971 -0.3031 -0.3306
  111TMC2    H5 1739   1.454   2.306  11.993  0.9660  0.2654 -0.5119
  112MPD2     C 1740   0.975   2.552  11.189  0.1610 -0.7890 -0.5282
  112MPD2    C1 1741   1.106   2.574  11.165 -0.3065 -0.9695  0.0754
  112MPD2    C2 1742   1.191   2.582  11.269  0.1775  0.3923 -0.6081
  112MPD2    C3 1743   1.152   2.566  11.399  0.1217 -0.6626 -0.0384
  112MPD2    C4 1744   1.016   2.535  11.427 -0.0601  0.3684 -0.4176
  112MPD2    C5 1745   0.934   2.525  11.319  0.2741  0.6653  0.1698
  112MPD2     H 1746   1.295   2.599  11.245  0.2638  1.5575  0.5942
  112MPD2    H1 1747   0.975   2.505  11.523  1.5803  2.7250  1.0179
  112MPD2    H2 1748   0.905   2.547  11.106 -1.0072 -2.1415  0.5373
  112MPD2    H3 1749   0.832   2.497  11.341  0.8786 -1.5551  0.1664
  112MPD2     N 1750   1.251   2.553  11.503 -0.1226  0.3515 -0.1010
  112MPD2    H5 1751   1.219   2.506  11.587 -0.5020  0.3965 -0.2175
  112MPD2    N1 1752   1.158   2.591  11.036 -0.1058  0.4418 -0.6419
  112MPD2    H7 1753   1.248   2.638  11.037  0.8637 -1.4226  0.5496
  113TMC2    C1 1754   4.226   0.981   0.578 -1.0902 -0.1485  0.2703
  113TMC2    C2 1755   4.113   1.061   0.568  0.7684  0.2063  0.3070
  113TMC2    C3 1756   4.023   1.033   0.469  0.2091  1.0479 -0.1409
  113TMC2    C4 1757   4.245   0.874   0.489 -0.9781  0.2910  0.6491
  113TMC2    C5 1758   4.149   0.848   0.397  0.9199 -1.0824  0.2223
  113TMC2    C6 1759   4.036   0.929   0.381 -0.0707 -0.4145 -0.0587
  113TMC2     C 1760   4.336   1.019   0.664 -0.0578  0.3851  0.0781
  113TMC2     O 1761   4.296   1.108   0.740  0.1688 -0.3715 -0.1234
  113TMC2     H 1762   4.088   1.135   0.643  0.2044 -0.3394  0.6670
  113TMC2    H1 1763   4.332   0.809   0.496 -2.8764 -2.2867  0.2183
  113TMC2    H2 1764   3.950   0.899   0.322 -0.2543 -0.2981  0.1484
  113TMC2    C7 1765   4.134   0.709   0.350 -0.7899  0.3436  0.1971
  113TMC2    C8 1766   3.886   1.075   0.509  1.1755 -0.4545 -0.5818
  113TMC2    O1 1767   4.098   0.694   0.235 -1.2512 -0.2675 -0.1567
  113TMC2    O2 1768   3.864   1.162   0.593 -0.6333 -0.0708 -0.3627
  113TMC2    O5 1769   3.796   0.982   0.465 -0.0919  0.1426 -0.3088
  113TMC2    H5 1770   3.709   0.994   0.509  0.3422 -0.8250  0.8052
  114MPD2     C 1771   0.091   1.066   0.820 -0.0174  0.1923 -0.6337
  114MPD2    C1 1772   4.717   1.126   0.867 -0.1275  0.9957 -0.1688
  114MPD2    C2 1773   4.594   1.098   0.812 -0.2249 -0.1929 -0.0675
  114MPD2    C3 1774   4.584   1.013   0.700 -0.3821  0.2648 -0.2331
  114MPD2    C4 1775   4.699   0.961   0.646 -0.6522 -0.1904  0.0734
  114MPD2    C5 1776   0.082   0.979   0.710 -0.4067  0.5315  0.4978
  114MPD2     H 1777   4.507   1.145   0.857  0.9175  2.6141 -0.8337
  114MPD2    H1 1778   4.698   0.910   0.550 -0.8444  0.1455 -0.1015
  114MPD2    H2 1779   0.189   1.081   0.864 -0.7932 -0.5679  1.3581
  114MPD2    H3 1780   0.173   0.940   0.665 -0.6196 -0.1210  0.6274
  114MPD2     N 1781   4.461   0.978   0.635 -0.0827  0.1871  0.2624
  114MPD2    H5 1782   4.463   0.907   0.562 -1.7239  2.9499 -2.4789
  114MPD2    N1 1783   4.721   1.226   0.972 -0.5824  0.5053  0.0772
  114MPD2    H7 1784   4.631   1.246   1.013 -1.7001  0.5373 -2.4264
  115TMC2    C1 1785   0.725   3.345  17.239  0.3301 -0.1243  0.0947
  115TMC2    C2 1786   0.823   3.276  17.299  0.1618  0.8725 -0.1096
  115TMC2    C3 1787   0.927   3.342  17.359  0.2847 -0.5906  0.0794
  115TMC2    C4 1788   0.720   3.481  17.238  0.2221 -0.0771  0.6367
  115TMC2    C5 1789   0.818   3.546  17.303  0.0418  0.1661  0.6311
  115TMC2    C6 1790   0.925   3.484  17.364 -0.1563 -0.4423  0.3403
  115TMC2     C 1791   0.609   3.272  17.185  0.0913  0.1490  0.1447
  115TMC2     O 1792   0.598   3.160  17.222  0.3732  0.0178 -0.3110
  115TMC2     H 1793   0.835   3.168  17.292 -4.0056  0.4069 -0.4073
  115TMC2    H1 1794   0.626   3.528  17.210  0.0541 -0.4500  0.5687
  115TMC2    H2 1795   1.002   3.539  17.415 -1.2015 -0.0295  1.4456
  115TMC2    C7 1796   0.831   3.683  17.265  0.4750  0.4248  0.3815
  115TMC2    C8 1797   1.010   3.262  17.439 -0.0981  0.0038 -0.6441
  115TMC2    O1 1798   0.764   3.727  17.172 -0.3030 -0.3611 -0.0410
  115TMC2    O2 1799   0.974   3.158  17.493 -0.0855 -0.3205  0.3959
  115TMC2    O5 1800   1.136   3.318  17.449 -0.2730  0.3197 -0.1212
  115TMC2    H5 1801   1.147   3.386  17.379  2.1106  0.7331  0.6434
  116MPD2     C 1802   0.205   3.221  16.872  0.8374  0.0338  0.0538
  116MPD2    C1 1803   0.255   3.141  16.969 -0.4244  0.0231  0.1536
  116MPD2    C2 1804   0.370   3.175  17.036 -0.2366  0.1692 -0.0971
  116MPD2    C3 1805   0.430   3.299  17.016 -0.4003 -0.4672 -0.0813
  116MPD2    C4 1806   0.370   3.380  16.918  0.5696  0.3066 -1.3121
  116MPD2    C5 1807   0.260   3.339  16.842  0.0495 -0.0501 -1.3149
  116MPD2     H 1808   0.405   3.109  17.115  0.3033 -0.2944 -0.7285
  116MPD2    H1 1809   0.404   3.483  16.907 -0.0078  0.6588  0.1143
  116MPD2    H2 1810   0.113   3.191  16.824  0.7964  0.6585 -0.2566
  116MPD2    H3 1811   0.214   3.400  16.765 -1.4438  1.4498  0.7723
  116MPD2     N 1812   0.544   3.341  17.083 -1.0946  0.2042 -0.2833
  116MPD2    H5 1813   0.569   3.437  17.058 -1.0714  0.5223  0.9630
  116MPD2    N1 1814   0.187   3.031  17.002 -0.0470  0.2201 -0.0254
  116MPD2    H7 1815   0.115   3.008  16.935  0.0990  2.0971 -0.8161
  117TMC2    C1 1816   4.379   4.497  13.809  0.0042 -0.5519 -0.4525
  117TMC2    C2 1817   4.515   4.486  13.783  0.0280 -0.4088  0.7053
  117TMC2    C3 1818   4.602   4.586  13.817 -0.2273 -0.4288 -0.4500
  117TMC2    C4 1819   4.330   4.611  13.856  0.3076 -0.4094  0.3592
  117TMC2    C5 1820   4.417   4.716  13.868 -0.4641  0.3676  0.4870
  117TMC2    C6 1821   4.549   4.709  13.845  0.0290 -0.3198  0.0663
  117TMC2     C 1822   4.298   4.376  13.804 -0.3842 -0.2140 -0.3214
  117TMC2     O 1823   4.349   4.266  13.814  0.3999 -0.8688  0.3028
  117TMC2     H 1824   4.548   4.389  13.747  2.6294  0.4253  0.8426
  117TMC2    H1 1825   4.232   4.608  13.903  0.3232  0.7118  0.4743
  117TMC2    H2 1826   4.613   0.058  13.861 -1.7517  0.8178  1.0752
  117TMC2    C7 1827   4.367   0.115  13.901  0.6373 -0.4873  0.2572
  117TMC2    C8 1828   4.734   4.585  13.758 -0.2021 -0.1750 -0.3419
  117TMC2    O1 1829   4.447   0.199  13.946  0.0397  0.5959  0.4603
  117TMC2    O2 1830   0.041   4.687  13.712 -0.2587  0.5058 -0.1390
  117TMC2    O5 1831   0.033   4.457  13.719  0.2658 -0.0790 -0.0284
  117TMC2    H5 1832   4.715   4.381  13.746  0.1686 -0.5736 -1.6453
  118MPD2     C 1833   4.019   0.214  13.944  0.3092  0.0585 -0.7578
  118MPD2    C1 1834   4.154   0.230  13.950 -0.2290 -0.0207  0.3983
  118MPD2    C2 1835   4.200   0.347  14.005 -0.5553  0.5111  0.4304
  118MPD2    C3 1836   4.116   0.454  14.042  0.4923 -1.2236  0.2379
  118MPD2    C4 1837   3.982   0.440  14.020  0.2116 -0.1205  0.3498
  118MPD2    C5 1838   3.939   0.326  13.965  0.0414 -0.4894 -0.6813
  118MPD2     H 1839   4.305   0.349  14.029  0.0540  0.0394 -2.2643
  118MPD2    H1 1840   3.920   0.529  14.017 -0.8562 -0.8817  0.2345
  118MPD2    H2 1841   3.979   0.125  13.898 -0.0666 -0.6576  0.9539
  118MPD2    H3 1842   3.834   0.318  13.941 -0.5922 -1.1944  2.2233
  118MPD2     N 1843   4.167   0.583  14.085  0.0002  0.4073  0.0886
  118MPD2    H5 1844   4.099   0.657  14.092 -0.8928 -0.2472 -1.7884
  118MPD2    N1 1845   4.230   0.121  13.910 -0.3518 -0.1011  0.2953
  118MPD2    H7 1846   4.186   0.034  13.882  1.9035 -0.6249 -1.5834
  119TMC2    C1 1847   1.398   1.210  13.474 -0.5929  0.2616  0.7981
  119TMC2    C2 1848   1.370   1.101  13.396  0.5471  0.1531 -0.0455
  119TMC2    C3 1849   1.281   1.007  13.439 -0.1269 -0.2751  0.2429
  119TMC2    C4 1850   1.350   1.214  13.607 -0.1647 -0.7086  0.5740
  119TMC2    C5 1851   1.281   1.106  13.657 -0.2254  0.7824  0.1358
  119TMC2    C6 1852   1.245   1.003  13.573 -0.4520  0.7093  0.2825
  119TMC2     C 1853   1.507   1.311  13.445  0.4297  0.2841  0.0643
  119TMC2     O 1854   1.536   1.383  13.539  0.2091  0.5661 -0.6606
  119TMC2     H 1855   1.390   1.099  13.289 -1.6212  1.3634 -0.4672
  119TMC2    H1 1856   1.356   1.301  13.671 -1.2559 -0.3082  0.1375
  119TMC2    H2 1857   1.180   0.921  13.601 -0.8861  1.4021  1.3237
  119TMC2    C7 1858   1.310   1.060  13.791  0.3326  0.0254 -0.1599
  119TMC2    C8 1859   1.229   0.917  13.344  0.1307 -0.7124 -0.1758
  119TMC2    O1 1860   1.257   0.958  13.836 -0.9106 -0.1435  0.4257
  119TMC2    O2 1861   1.212   0.953  13.226  0.3217 -0.1637  0.0477
  119TMC2    O5 1862   1.222   0.789  13.392 -0.8344  1.2003 -0.2364
  119TMC2    H5 1863   1.257   0.791  13.484  1.3822 -0.6346 -1.0469
  120MPD2     C 1864   1.958   1.404  13.224  0.3556 -0.1036 -0.0484
  120MPD2    C1 1865   1.915   1.421  13.351  0.0132  0.2214  0.0723
  120MPD2    C2 1866   1.787   1.396  13.390 -0.1133 -0.8387  0.1423
  120MPD2    C3 1867   1.702   1.342  13.294  0.1268  0.3742  0.2171
  120MPD2    C4 1868   1.752   1.311  13.169 -0.2133 -0.2609  0.9696
  120MPD2    C5 1869   1.881   1.339  13.140  0.0193 -0.0865 -0.0742
  120MPD2     H 1870   1.745   1.420  13.487  0.4994  2.3508 -0.3548
  120MPD2    H1 1871   1.697   1.255  13.094  0.5192  0.4156 -0.0949
  120MPD2    H2 1872   2.061   1.424  13.200  0.4521 -0.9759 -0.3781
  120MPD2    H3 1873   1.924   1.319  13.042 -0.5353  1.4186 -0.6291
  120MPD2     N 1874   1.572   1.294  13.318 -0.2149  0.5108  0.0341
  120MPD2    H5 1875   1.537   1.227  13.251 -0.9854  1.7178 -0.7682
  120MPD2    N1 1876   2.006   1.468  13.445  0.4089 -0.2728 -0.1821
  120MPD2    H7 1877   2.106   1.457  13.428 -0.0839 -3.0795 -1.3222
  121TMC2    C1 1878   3.634   2.931  14.098 -0.4176  0.0690 -0.0221
  121TMC2    C2 1879   3.597   2.816  14.169  0.1073  0.0649  0.2965
  121TMC2    C3 1880   3.470   2.777  14.151 -0.5839 -0.0163 -0.9457
  121TMC2    C4 1881   3.546   3.010  14.031  0.5345  0.3198 -0.1211
  121TMC2    C5 1882   3.413   2.968  14.027  1.1514  0.5051 -0.8046
  121TMC2    C6 1883   3.373   2.845  14.077 -0.3412 -0.2805 -0.2647
  121TMC2     C 1884   3.772   2.967  14.111 -0.3163 -0.4923 -0.6041
  121TMC2     O 1885   3.832   2.918  14.211  0.0833 -0.1272  0.0026
  121TMC2     H 1886   3.663   2.753  14.226 -0.5332 -0.3614  0.5608
  121TMC2    H1 1887   3.567   3.112  14.002  2.7250 -0.2023 -0.3582
  121TMC2    H2 1888   3.270   2.812  14.074 -0.9303  1.6954 -1.2691
  121TMC2    C7 1889   3.315   3.054  13.946  0.0747  0.4177 -0.5404
  121TMC2    C8 1890   3.437   2.645  14.208  0.1888 -0.0091 -0.3022
  121TMC2    O1 1891   3.377   3.134  13.872  0.2378  0.4748 -0.1027
  121TMC2    O2 1892   3.357   2.571  14.151  0.1428 -0.5566 -0.0247
  121TMC2    O5 1893   3.411   2.678  14.336 -0.3905 -0.3263  0.1128
  121TMC2    H5 1894   3.439   2.770  14.355  2.8277 -0.8963 -1.8911
  122MPD2     C 1895   4.042   3.089  14.091 -0.6264  0.1551 -0.0154
  122MPD2    C1 1896   3.949   3.093  13.993 -0.4995 -0.4874  0.2970
  122MPD2    C2 1897   3.980   3.151  13.877  1.2163 -0.5328  0.4313
  122MPD2    C3 1898   4.113   3.180  13.846 -0.1662 -0.2020  0.7030
  122MPD2    C4 1899   4.205   3.178  13.954  0.2430  0.2290 -1.1886
  122MPD2    C5 1900   4.169   3.141  14.077  0.0635  0.5151  0.5371
  122MPD2     H 1901   3.917   3.151  13.789  0.6845  0.5339  0.8239
  122MPD2    H1 1902   4.303   3.223  13.950  0.5632 -0.3022  0.7046
  122MPD2    H2 1903   4.018   3.053  14.190 -1.3290 -0.5985 -0.4652
  122MPD2    H3 1904   4.237   3.150  14.162 -0.2670  1.8854  0.6584
  122MPD2     N 1905   4.163   3.227  13.724 -0.1330 -0.6728 -0.4586
  122MPD2    H5 1906   4.259   3.260  13.715  0.0456 -0.5129  2.1208
  122MPD2    N1 1907   3.820   3.039  14.008  0.0659 -0.0095  0.2701
  122MPD2    H7 1908   3.754   3.065  13.936  0.0397  0.0396  0.3116
  123TMC2    C1 1909   2.003   1.239  10.804 -0.6743 -0.1188 -0.4530
  123TMC2    C2 1910   2.100   1.339  10.810 -0.4305  0.1155 -0.1581
  123TMC2    C3 1911   2.187   1.359  10.708  0.1297 -0.0648 -0.6927
  123TMC2    C4 1912   2.000   1.158  10.696 -0.2120 -0.0973  0.4850
  123TMC2    C5 1913   2.101   1.174  10.603 -0.4372  0.1838 -0.2076
  123TMC2    C6 1914   2.182   1.282  10.599  0.6225 -0.1056  0.0427
  123TMC2     C 1915   1.899   1.237  10.910  0.7208 -0.4899 -0.2169
  123TMC2     O 1916   1.904   1.320  11.000  0.6370 -0.0942  0.2149
  123TMC2     H 1917   2.121   1.384  10.906 -0.5924 -0.6038  0.2104
  123TMC2    H1 1918   1.926   1.081  10.682 -1.0196  0.6457  0.7118
  123TMC2    H2 1919   2.259   1.303  10.525  0.7550  1.5165  0.6263
  123TMC2    C7 1920   2.092   1.088  10.481  0.0923 -0.0216 -0.1742
  123TMC2    C8 1921   2.293   1.462  10.715 -0.2911 -0.5595  0.1295
  123TMC2    O1 1922   2.021   0.987  10.496 -0.4693 -0.3454  0.4698
  123TMC2    O2 1923   2.383   1.472  10.631  0.8142  0.1375  0.3368
  123TMC2    O5 1924   2.214   1.568  10.742  0.4955  0.1163 -0.2738
  123TMC2    H5 1925   2.132   1.553  10.793  0.2752 -2.2328 -1.3018
  124MPD2     C 1926   1.451   1.117  11.103  0.0205 -0.0521  0.0833
  124MPD2    C1 1927   1.488   1.012  11.023 -0.5136  0.0497  0.2547
  124MPD2    C2 1928   1.594   1.032  10.943  0.1778  0.0614 -0.5447
  124MPD2    C3 1929   1.672   1.145  10.951 -0.3879  0.0699 -0.6911
  124MPD2    C4 1930   1.623   1.260  11.025  0.0643  0.2130 -0.1888
  124MPD2    C5 1931   1.514   1.239  11.099 -0.5313 -0.4060  0.0224
  124MPD2     H 1932   1.619   0.953  10.874 -0.7328 -0.8354  0.1401
  124MPD2    H1 1933   1.665   1.360  11.027  0.1155  0.1476  2.1486
  124MPD2    H2 1934   1.375   1.116  11.181  1.2129 -2.4513  1.1955
  124MPD2    H3 1935   1.479   1.319  11.164  0.8135  0.9721 -0.9682
  124MPD2     N 1936   1.793   1.152  10.882 -0.5815  0.5371 -0.0811
  124MPD2    H5 1937   1.818   1.074  10.822 -1.0961  0.5308 -0.2852
  124MPD2    N1 1938   1.416   0.887  11.043 -0.8981 -0.3066 -0.3369
  124MPD2    H7 1939   1.340   0.880  11.109 -3.1827  2.3104 -2.6927
  125TMC2    C1 1940   2.739   2.854   9.847  0.2460  0.1408 -0.1088
  125TMC2    C2 1941   2.859   2.869   9.789 -0.0942  0.5020 -0.2096
  125TMC2    C3 1942   2.875   2.994   9.738  0.0090 -0.1233  0.4113
  125TMC2    C4 1943   2.628   2.931   9.838 -0.2411  0.5443  0.1670
  125TMC2    C5 1944   2.650   3.056   9.786 -0.2736 -0.0839  0.7067
  125TMC2    C6 1945   2.777   3.091   9.736  0.1594  0.6730 -0.3595
  125TMC2     C 1946   2.706   2.730   9.924 -0.5873 -0.7682  0.1179
  125TMC2     O 1947   2.592   2.703   9.951 -0.6745 -0.1185 -0.4739
  125TMC2     H 1948   2.941   2.802   9.809 -0.9890 -0.8541 -1.1069
  125TMC2    H1 1949   2.546   2.908   9.905  0.9694 -3.1650  0.3398
  125TMC2    H2 1950   2.786   3.195   9.706  1.5766  0.7664  0.3838
  125TMC2    C7 1951   2.534   3.145   9.779  0.1128 -0.2207 -0.1264
  125TMC2    C8 1952   2.998   3.036   9.673 -0.0931 -0.5742 -0.8670
  125TMC2    O1 1953   2.434   3.114   9.842  0.1611 -0.3727  0.1911
  125TMC2    O2 1954   3.062   2.971   9.592 -0.1467 -0.4046 -0.2210
  125TMC2    O5 1955   3.038   3.159   9.716 -0.7709  0.5149  0.2623
  125TMC2    H5 1956   2.988   3.188   9.795  0.5067  1.0120  0.8824
  126MPD1     C 1957   2.880   2.279  10.090  0.2911  0.6698  0.4386
  126MPD1    C1 1958   2.983   2.372  10.099 -0.2637 -0.5213 -0.2727
  126MPD1    C2 1959   2.963   2.498  10.055 -0.2797 -0.2449 -0.1027
  126MPD1    C3 1960   2.833   2.538  10.024  0.3803  0.3875  0.5660
  126MPD1    C4 1961   2.729   2.448  10.022 -0.2193 -0.0663 -0.4250
  126MPD1    C5 1962   2.754   2.318  10.053  0.3936 -0.3324 -0.4259
  126MPD1     H 1963   3.051   2.561  10.051  0.3966 -1.1548  0.2327
  126MPD1    H1 1964   2.626   2.470   9.996 -0.0797  0.2582 -0.6931
  126MPD1    H2 1965   2.894   2.177  10.124 -2.4011  0.2195  0.2054
  126MPD1    H3 1966   2.672   2.247  10.055  0.7844 -0.7542  1.3987
  126MPD1     N 1967   2.823   2.669   9.964  0.6408 -0.1983 -0.3634
  126MPD1    H5 1968   2.911   2.719   9.962  0.5232 -0.1064 -3.4101
  126MPD1    N1 1969   3.112   2.323  10.129 -0.3143  0.1234  0.2241
  126MPD1    H6 1970   3.103   2.243  10.192 -0.8575 -1.1385 -1.4425
  126MPD1    H7 1971   3.159   2.399  10.177  3.0480 -1.7960 -0.0086
  127TMC2    C1 1972   2.671   1.117   9.809  0.0983 -0.1154 -0.1197
  127TMC2    C2 1973   2.732   1.232   9.818 -0.5313  0.4006  0.3923
  127TMC2    C3 1974   2.817   1.249   9.925 -0.7806  0.0092 -0.7063
  127TMC2    C4 1975   2.688   1.014   9.903  0.3168 -0.8249 -0.6295
  127TMC2    C5 1976   2.782   1.025  10.001  0.7210  0.3299  0.3125
  127TMC2    C6 1977   2.849   1.146  10.013  0.5924 -0.1214 -0.4190
  127TMC2     C 1978   2.573   1.094   9.699 -0.3834 -0.2202 -0.0068
  127TMC2     O 1979   2.523   1.191   9.649 -0.2084 -0.2801 -0.6841
  127TMC2     H 1980   2.710   1.311   9.747 -2.2340  0.0400  0.5160
  127TMC2    H1 1981   2.624   0.926   9.899 -0.3233 -0.3800 -0.0896
  127TMC2    H2 1982   2.934   1.155  10.080  0.0924 -0.3376  0.2511
  127TMC2    C7 1983   2.792   0.926  10.105  0.5874 -0.4716  0.3504
  127TMC2    C8 1984   2.861   1.382   9.956 -0.0621 -0.3641 -0.4469
  127TMC2    O1 1985   2.699   0.847  10.093  0.8283  0.3492  0.4333
  127TMC2    O2 1986   2.868   1.470   9.872 -0.5235 -0.8777 -0.7741
  127TMC2    O5 1987   2.799   1.398  10.073 -0.2293  0.3991  0.3908
  127TMC2    H5 1988   2.802   1.327  10.140 -0.1786 -1.3198 -1.4532
  128MPD2     C 1989   2.351   0.978   9.540  0.6935 -0.2283  0.0625
  128MPD2    C1 1990   2.448   0.905   9.604  0.9201  0.6842 -0.3803
  128MPD2    C2 1991   2.449   0.772   9.572  0.0883  0.2842 -0.5684
  128MPD2    C3 1992   2.368   0.711   9.471  0.7387  0.2193  0.4275
  128MPD2    C4 1993   2.277   0.786   9.409 -0.9907 -0.0085  0.4847
  128MPD2    C5 1994   2.272   0.920   9.437 -0.3832  0.0778 -0.2484
  128MPD2     H 1995   2.525   0.706   9.612 -0.7338 -1.1369 -1.3084
  128MPD2    H1 1996   2.213   0.747   9.331  0.6604  3.5195 -2.6629
  128MPD2    H2 1997   2.351   1.086   9.545 -1.8274 -0.2867  1.1304
  128MPD2    H3 1998   2.190   0.971   9.389 -0.3464  1.1281  0.8167
  128MPD2     N 1999   2.400   0.577   9.440  0.9889  0.6098  0.2723
  128MPD2    H5 2000   2.475   0.536   9.493  0.0488 -0.8988  0.4281
  128MPD2    N1 2001   2.552   0.964   9.678  0.0321  0.2357  0.0424
  128MPD2    H7 2002   2.623   0.904   9.718 -1.9950 -1.4953  1.0476
  129TMC2    C1 2003   2.945   1.971   1.262 -0.8715  0.2729 -0.1239
  129TMC2    C2 2004   2.930   2.053   1.371 -0.3294  0.2073 -0.4495
  129TMC2    C3 2005   2.807   2.106   1.385  0.4359  0.2313  0.1038
  129TMC2    C4 2006   2.840   1.918   1.188 -0.3765 -0.1102  0.2813
  129TMC2    C5 2007   2.718   1.980   1.204 -0.2793  0.5545 -0.1084
  129TMC2    C6 2008   2.706   2.074   1.298 -0.8199 -0.3214 -0.2007
  129TMC2     C 2009   3.068   1.986   1.188  0.3890 -0.0642 -0.0329
  129TMC2     O 2010   3.081   1.927   1.081  0.1599 -0.4670 -0.3947
  129TMC2     H 2011   3.005   2.074   1.447 -0.5453  1.2594 -0.5317
  129TMC2    H1 2012   2.865   1.868   1.095 -1.4250 -2.9469  1.5180
  129TMC2    H2 2013   2.615   2.133   1.300 -0.7296 -0.0809 -2.8962
  129TMC2    C7 2014   2.595   1.926   1.141 -0.4156 -0.9317 -0.7069
  129TMC2    C8 2015   2.767   2.148   1.515 -0.4555  1.2877 -0.2059
  129TMC2    O1 2016   2.501   2.004   1.120  0.4574 -0.5713  0.0979
  129TMC2    O2 2017   2.649   2.134   1.550 -0.4283  0.3518  0.4709
  129TMC2    O5 2018   2.862   2.232   1.570  0.5046 -0.0948 -0.1139
  129TMC2    H5 2019   2.933   2.255   1.507  1.8083 -1.8005  0.7487
  130MPD2     C 2020   3.313   2.128   1.063 -0.2772 -0.1827 -0.5476
  130MPD2    C1 2021   3.246   2.173   1.176  0.5455 -0.0411 -0.3336
  130MPD2    C2 2022   3.290   2.296   1.227 -0.2411  0.1854 -0.2216
  130MPD2    C3 2023   3.387   2.367   1.174 -0.0907 -0.0109  0.8927
  130MPD2    C4 2024   3.458   2.323   1.061 -0.0262  0.3944 -0.3087
  130MPD2    C5 2025   3.413   2.204   1.002 -0.3477 -0.0139  0.6373
  130MPD2     H 2026   3.234   2.337   1.310  0.1663  0.5836 -0.1483
  130MPD2    H1 2027   3.538   2.380   1.015 -0.6929  0.8020 -0.9644
  130MPD2    H2 2028   3.299   2.035   1.008  0.7983 -0.7222  0.0905
  130MPD2    H3 2029   3.445   2.186   0.900  1.3671  1.4378  0.9266
  130MPD2     N 2030   3.407   2.494   1.230 -0.3784  0.3589 -0.6221
  130MPD2    H5 2031   3.359   2.519   1.315  0.3505  2.4861 -0.8502
  130MPD2    N1 2032   3.136   2.103   1.233  0.3316 -0.5743  0.1452
  130MPD2    H7 2033   3.099   2.147   1.317  2.3509  3.2865 -0.9587
  131TMC2    C1 2034   1.324   0.156  10.217  0.4616  0.0175  0.2825
  131TMC2    C2 2035   1.366   0.030  10.183 -0.6797 -0.2903 -0.0426
  131TMC2    C3 2036   1.364   0.005  10.049 -0.2328 -0.3388  0.4316
  131TMC2    C4 2037   1.292   0.259  10.135 -0.1569 -0.3789  0.1199
  131TMC2    C5 2038   1.304   0.232  10.001 -0.4770  0.2790 -0.1157
  131TMC2    C6 2039   1.327   0.103   9.957  0.2027  0.5799  0.4267
  131TMC2     C 2040   1.308   0.192  10.357 -0.2997 -0.1643  0.0125
  131TMC2     O 2041   1.297   0.311  10.388  0.4977  0.6720 -0.1960
  131TMC2     H 2042   1.414   4.709  10.260 -2.7140 -0.3460  1.2057
  131TMC2    H1 2043   1.249   0.352  10.172 -0.7822  0.5174 -2.9011
  131TMC2    H2 2044   1.355   0.101   9.852  1.1069 -1.2004  0.7082
  131TMC2    C7 2045   1.291   0.340   9.911  0.2788  0.1709  0.5024
  131TMC2    C8 2046   1.408   4.616   9.986  0.2160 -0.6133 -0.3722
  131TMC2    O1 2047   1.258   0.312   9.797  0.2092  0.4153  0.0489
  131TMC2    O2 2048   1.424   4.603   9.862  0.0044  0.6272 -0.5453
  131TMC2    O5 2049   1.390   4.510  10.064  0.4751  0.8359  0.0155
  131TMC2    H5 2050   1.381   4.518  10.162 -1.6267 -1.1916 -0.0273
  132MPD2     C 2051   1.235   4.702  10.631  0.0034 -1.0604  0.0172
  132MPD2    C1 2052   1.267   0.085  10.573 -0.1483  0.0242  0.2316
  132MPD2    C2 2053   1.291   0.192  10.665 -0.2784 -0.3582 -0.1782
  132MPD2    C3 2054   1.265   0.176  10.800  0.3072 -0.9406 -0.1842
  132MPD2    C4 2055   1.237   0.050  10.853 -0.7146  0.6273  0.0548
  132MPD2    C5 2056   1.218   4.685  10.761 -0.1621 -0.2800 -0.1483
  132MPD2     H 2057   1.328   0.285  10.623  0.1292  0.9294  3.0371
  132MPD2    H1 2058   1.219   0.036  10.959  0.0691  0.6736  0.2011
  132MPD2    H2 2059   1.226   4.614  10.567 -0.6463 -2.0921  1.5404
  132MPD2    H3 2060   1.185   4.588  10.798 -1.0597  0.7908  1.8364
  132MPD2     N 2061   1.267   0.293  10.870 -0.7938 -0.0308  0.4175
  132MPD2    H5 2062   1.297   0.372  10.814 -0.7579  0.2384  0.8169
  132MPD2    N1 2063   1.285   0.082  10.436 -0.0096  0.7113 -0.1268
  132MPD2    H7 2064   1.272   4.729  10.391 -0.9058  1.3193 -1.0898
  133TMC2    C1 2065   0.566   3.017   9.466  0.2084 -0.5528  0.4685
  133TMC2    C2 2066   0.533   3.103   9.359 -0.4412 -0.4158 -0.2303
  133TMC2    C3 2067   0.534   3.236   9.401 -0.6243 -0.5271  0.4829
  133TMC2    C4 2068   0.614   3.050   9.587  0.2524  0.0440 -0.7826
  133TMC2    C5 2069   0.617   3.179   9.613  0.3623  0.1675  0.2426
  133TMC2    C6 2070   0.578   3.276   9.524 -1.2793 -0.0404 -0.3149
  133TMC2     C 2071   0.582   2.878   9.436 -0.2549  0.6733 -0.6841
  133TMC2     O 2072   0.664   2.819   9.497 -0.1134 -0.5758  0.2365
  133TMC2     H 2073   0.487   3.076   9.265  1.1314  0.0288 -1.1373
  133TMC2    H1 2074   0.661   2.977   9.651 -1.4897  0.8515  1.3796
  133TMC2    H2 2075   0.567   3.378   9.560  1.5405  1.3962 -3.5326
  133TMC2    C7 2076   0.643   3.210   9.756  0.1260  0.9960  0.1203
  133TMC2    C8 2077   0.487   3.335   9.307 -0.5619  0.5066 -0.3353
  133TMC2    O1 2078   0.649   3.331   9.774 -0.6639 -1.0806 -0.2554
  133TMC2    O2 2079   0.428   3.307   9.205  0.2140  0.1454 -0.2631
  133TMC2    O5 2080   0.596   3.424   9.312  0.0726  0.2804  0.0937
  133TMC2    H5 2081   0.658   3.387   9.377  0.4178  0.2905 -0.2277
  134MPD2     C 2082   0.382   2.682   9.176  0.5537  0.3328 -0.1087
  134MPD2    C1 2083   0.472   2.710   9.277  0.2234 -0.3834  0.0629
  134MPD2    C2 2084   0.556   2.611   9.318  0.3981  0.1588  0.8856
  134MPD2    C3 2085   0.539   2.483   9.267  0.3279 -0.5186  0.8600
  134MPD2    C4 2086   0.455   2.457   9.159  0.3538 -0.2319 -0.6518
  134MPD2    C5 2087   0.379   2.558   9.117  0.0626  0.1059  0.9068
  134MPD2     H 2088   0.625   2.626   9.401  1.3440 -0.5357  0.2221
  134MPD2    H1 2089   0.437   2.357   9.120  0.4400 -1.7646  3.1304
  134MPD2    H2 2090   0.309   2.755   9.144 -0.3794 -0.8970 -0.7818
  134MPD2    H3 2091   0.294   2.539   9.052  1.1495 -0.5790 -0.3148
  134MPD2     N 2092   0.616   2.372   9.312 -0.4407  0.1925  0.3681
  134MPD2    H5 2093   0.599   2.279   9.273 -0.2604  0.0827  0.5527
  134MPD2    N1 2094   0.485   2.836   9.339  0.2685  0.2136  0.2466
  134MPD2    H7 2095   0.414   2.902   9.311  0.5222  0.7335  0.8241
  135TMC2    C1 2096   1.841   2.989  10.007 -0.0621  0.4419 -0.7077
  135TMC2    C2 2097   1.811   2.917   9.902 -0.0754 -0.5204 -0.8932
  135TMC2    C3 2098   1.745   2.802   9.934 -0.1179 -0.4773  0.3013
  135TMC2    C4 2099   1.804   2.963  10.136  0.0097  0.1626  0.3716
  135TMC2    C5 2100   1.742   2.845  10.160  0.5183  0.4532  0.1060
  135TMC2    C6 2101   1.714   2.759  10.060  0.4291 -0.1307  0.2977
  135TMC2     C 2102   1.852   3.127   9.968  1.0758  0.3190  0.0782
  135TMC2     O 2103   1.787   3.207  10.030  0.5034  0.2380 -0.4018
  135TMC2     H 2104   1.827   2.944   9.798  1.0751 -1.8482 -1.0452
  135TMC2    H1 2105   1.812   3.040  10.212  1.6365 -0.9649  1.3446
  135TMC2    H2 2106   1.638   2.683  10.075  0.2094  0.1439  0.5894
  135TMC2    C7 2107   1.767   2.801  10.295  0.2500 -0.3795 -0.2914
  135TMC2    C8 2108   1.676   2.747   9.817  0.0682  0.2736 -0.3251
  135TMC2    O1 2109   1.789   2.890  10.383  0.6647 -0.1352  0.0909
  135TMC2    O2 2110   1.649   2.819   9.718 -0.1362  0.0486  0.0059
  135TMC2    O5 2111   1.697   2.615   9.815  0.6065  0.1384 -0.2956
  135TMC2    H5 2112   1.726   2.589   9.905 -0.4099  2.0140  0.5738
  136MPD2     C 2113   1.875   3.327   9.763 -0.0677  1.2831  0.2653
  136MPD2    C1 2114   1.962   3.222   9.767  0.0567  0.5310 -0.0925
  136MPD2    C2 2115   2.052   3.207   9.659  0.1729 -0.1550 -0.6888
  136MPD2    C3 2116   2.055   3.297   9.554 -0.0438  0.6861  0.3556
  136MPD2    C4 2117   1.975   3.415   9.560  0.2691  0.3553 -0.5011
  136MPD2    C5 2118   1.881   3.421   9.662 -0.0725  0.2477 -0.2316
  136MPD2     H 2119   2.112   3.117   9.665 -0.8807 -0.9495 -2.1471
  136MPD2    H1 2120   1.983   3.503   9.498 -0.5321  2.0086  1.7425
  136MPD2    H2 2121   1.787   3.333   9.826 -2.0715 -1.9078 -2.1987
  136MPD2    H3 2122   1.808   3.501   9.655 -0.7541 -0.4928 -1.5445
  136MPD2     N 2123   2.147   3.290   9.447  0.0686  0.2527 -0.7205
  136MPD2    H5 2124   2.125   3.359   9.376  0.2888  1.6331  0.5504
  136MPD2    N1 2125   1.947   3.129   9.865  0.3048 -0.2929  0.0504
  136MPD2    H7 2126   1.999   3.044   9.845 -0.0213 -0.8969  1.7860
  137TMC2    C1 2127   2.569   1.376   9.124  0.8532 -0.1972  0.5226
  137TMC2    C2 2128   2.654   1.280   9.074 -0.7213 -0.0730 -0.0411
  137TMC2    C3 2129   2.607   1.153   9.084 -0.0860  0.1286 -0.3757
  137TMC2    C4 2130   2.440   1.350   9.167  0.1024 -0.5722  0.1636
  137TMC2    C5 2131   2.392   1.225   9.144  0.5274 -0.5261  0.2543
  137TMC2    C6 2132   2.479   1.125   9.110  0.4528 -0.0758 -0.1685
  137TMC2     C 2133   2.614   1.508   9.149  0.0908  0.0747 -1.0208
  137TMC2     O 2134   2.527   1.581   9.194  0.2118 -0.2219 -0.1479
  137TMC2     H 2135   2.754   1.301   9.035  0.6786  0.0894  3.6282
  137TMC2    H1 2136   2.377   1.426   9.212  0.8123 -0.6642  1.3193
  137TMC2    H2 2137   2.448   1.030   9.069 -0.4539  0.4381 -0.6901
  137TMC2    C7 2138   2.262   1.179   9.186 -0.0379  0.2858 -0.5535
  137TMC2    C8 2139   2.663   1.063   8.980 -0.2603 -0.9822 -0.4603
  137TMC2    O1 2140   2.227   1.074   9.134 -0.2968  0.1812 -0.5027
  137TMC2    O2 2141   2.596   0.994   8.901  0.0318  0.3066  0.2093
  137TMC2    O5 2142   2.796   1.079   8.980 -0.4010  0.0444 -0.3789
  137TMC2    H5 2143   2.813   1.122   9.066  0.8538 -0.0815 -0.5589
  138MPD2     C 2144   2.848   1.724   8.969 -0.2015 -0.1092  0.3104
  138MPD2    C1 2145   2.776   1.678   9.080 -0.1429  0.0179 -0.0146
  138MPD2    C2 2146   2.752   1.764   9.185 -1.1038  0.4220 -0.0360
  138MPD2    C3 2147   2.805   1.897   9.180  0.6100 -0.3730 -0.0286
  138MPD2    C4 2148   2.873   1.944   9.067 -0.1358 -0.3936  0.4148
  138MPD2    C5 2149   2.892   1.856   8.957 -0.8011 -0.3491  0.6856
  138MPD2     H 2150   2.696   1.739   9.274  1.5742 -1.1210  1.2309
  138MPD2    H1 2151   2.914   2.043   9.052 -0.0823 -0.4681  0.0827
  138MPD2    H2 2152   2.863   1.650   8.892  0.1423  0.2729  0.0158
  138MPD2    H3 2153   2.943   1.889   8.867 -0.2061  1.2851  1.6140
  138MPD2     N 2154   2.794   1.974   9.299  0.2049  0.3399  0.3219
  138MPD2    H5 2155   2.738   1.934   9.373 -0.9884 -2.3652 -2.0592
  138MPD2    N1 2156   2.723   1.550   9.075  0.7704  0.3652  0.1457
  138MPD2    H7 2157   2.756   1.494   8.997  1.1080  1.5993 -0.6034
  139TMC2    C1 2158   3.669   0.855  13.474 -0.6569 -0.7975  0.7254
  139TMC2    C2 2159   3.721   0.929  13.370 -0.0199  0.2322  0.0431
  139TMC2    C3 2160   3.635   0.993  13.287  0.1122 -0.4339  0.3318
  139TMC2    C4 2161   3.533   0.823  13.474  0.1035  0.6186  0.1178
  139TMC2    C5 2162   3.452   0.879  13.378  0.5415 -0.1730  0.6115
  139TMC2    C6 2163   3.497   0.966  13.285  0.0296 -0.0011  0.4865
  139TMC2     C 2164   3.761   0.759  13.540 -0.4552 -0.6081  0.2170
  139TMC2     O 2165   3.884   0.774  13.543 -0.1387  0.6786 -0.0667
  139TMC2     H 2166   3.829   0.923  13.369  0.0534  2.1883 -1.7962
  139TMC2    H1 2167   3.496   0.761  13.555  0.6164  0.2341  0.0535
  139TMC2    H2 2168   3.434   1.014  13.212  0.3250  0.3021  0.4317
  139TMC2    C7 2169   3.310   0.868  13.405 -0.2558  0.4794 -0.3201
  139TMC2    C8 2170   3.697   1.069  13.178  0.1651 -0.7932 -0.4439
  139TMC2    O1 2171   3.240   0.968  13.412  0.1369 -0.4791 -0.2951
  139TMC2    O2 2172   3.650   1.074  13.068  0.2582  0.0098 -0.1198
  139TMC2    O5 2173   3.830   1.080  13.202 -0.1616 -0.1884  0.8452
  139TMC2    H5 2174   3.862   1.080  13.295  2.5151 -0.5862 -0.0581
  140MPD2     C 2175   3.705   0.415  13.654  0.6096 -0.5191  0.4663
  140MPD2    C1 2176   3.769   0.527  13.617 -0.3539 -0.6395  0.0326
  140MPD2    C2 2177   3.903   0.504  13.592  1.0077  0.0924 -0.0004
  140MPD2    C3 2178   3.971   0.383  13.602  0.0455 -0.2585  0.8081
  140MPD2    C4 2179   3.896   0.269  13.625  0.3526  0.9915 -0.2909
  140MPD2    C5 2180   3.769   0.289  13.668  0.0394  0.4432  0.6019
  140MPD2     H 2181   3.978   0.580  13.571  1.6202  0.0605  2.0482
  140MPD2    H1 2182   3.940   0.170  13.619 -1.6376  0.0910  0.1245
  140MPD2    H2 2183   3.601   0.422  13.683  0.7160 -0.4905  0.8418
  140MPD2    H3 2184   3.698   0.208  13.683 -3.9452  3.6076 -1.1417
  140MPD2     N 2185   4.108   0.380  13.573  0.6529 -0.2276 -0.1243
  140MPD2    H5 2186   4.157   0.463  13.541 -0.1297  1.2281  2.4570
  140MPD2    N1 2187   3.697   0.652  13.595 -0.2963 -0.2746 -0.3355
  140MPD2    H7 2188   3.596   0.648  13.590 -0.3421  1.7596 -0.9538
  141TMC2    C1 2189   4.201   2.419  13.943 -0.1499  0.0168  0.1351
  141TMC2    C2 2190   4.075   2.470  13.944 -0.3294 -0.2710 -0.2074
  141TMC2    C3 2191   4.061   2.577  14.024  0.6422  0.1225 -0.7998
  141TMC2    C4 2192   4.304   2.453  14.030 -0.3026  0.2407  0.2194
  141TMC2    C5 2193   4.277   2.555  14.119  0.0879 -0.2549 -0.0714
  141TMC2    C6 2194   4.155   2.609  14.121 -0.8854 -0.2853 -0.6161
  141TMC2     C 2195   4.242   2.347  13.817 -0.3304  0.0820  0.3301
  141TMC2     O 2196   4.359   2.328  13.789 -0.2080  0.3435  0.3349
  141TMC2     H 2197   3.996   2.446  13.874  0.2664 -0.1029 -0.9322
  141TMC2    H1 2198   4.402   2.408  14.024 -0.0233  0.9736 -0.6156
  141TMC2    H2 2199   4.140   2.706  14.167  0.4712 -0.9642  1.2599
  141TMC2    C7 2200   4.386   2.608  14.197  0.5500  0.6056  0.4536
  141TMC2    C8 2201   3.924   2.600  14.055 -0.1449 -0.2748  0.2992
  141TMC2    O1 2202   4.498   2.571  14.172 -0.0901  0.0335 -0.4561
  141TMC2    O2 2203   3.853   2.662  13.977 -0.3819  0.0924  0.4149
  141TMC2    O5 2204   3.886   2.491  14.136 -0.3598  0.0732  0.3422
  141TMC2    H5 2205   3.969   2.444  14.161  0.2308  0.2248 -1.3320
  142TMC2    C1 2206   1.746   0.487   9.985  0.3956  0.3957  0.9917
  142TMC2    C2 2207   1.717   0.506   9.858  0.5647 -0.6644 -0.0277
  142TMC2    C3 2208   1.778   0.612   9.799  0.0597 -0.8473  0.1357
  142TMC2    C4 2209   1.828   0.562  10.059  0.4974 -0.2935 -0.5243
  142TMC2    C5 2210   1.882   0.670  10.001 -0.7969 -0.0166  0.2001
  142TMC2    C6 2211   1.854   0.701   9.870 -0.3855  0.0930  0.3539
  142TMC2     C 2212   1.687   0.373  10.052  0.1207 -0.2810 -0.3948
  142TMC2     O 2213   1.621   0.292   9.985  0.2946  0.3674 -0.5539
  142TMC2     H 2214   1.651   0.442   9.800 -0.4929  0.6077 -0.2227
  142TMC2    H1 2215   1.850   0.546  10.163  0.9801  2.7447 -0.1500
  142TMC2    H2 2216   1.900   0.788   9.825 -1.1724  0.5196  0.3801
  142TMC2    C7 2217   1.949   0.762  10.087 -0.7841  0.0256 -0.7813
  142TMC2    C8 2218   1.734   0.671   9.677 -0.5701 -0.7384  0.7144
  142TMC2    O1 2219   1.913   0.771  10.204  0.8811 -0.1799 -0.1264
  142TMC2    O2 2220   1.763   0.784   9.640  0.0925  1.1565  0.0981
  142TMC2    O5 2221   1.715   0.565   9.597 -0.5350 -0.0926 -0.0816
  142TMC2    H5 2222   1.696   0.480   9.642 -0.5766  0.2178  0.5022
  143MPD2     C 2223   1.643   0.074  10.452 -0.4254  0.2187 -0.0400
  143MPD2    C1 2224   1.691   0.039  10.323 -0.2255  0.5326  0.1717
  143MPD2    C2 2225   1.705   0.142  10.232 -0.3945 -0.0545  0.6055
  143MPD2    C3 2226   1.680   0.269  10.275  0.1545 -0.3324  0.1174
  143MPD2    C4 2227   1.655   0.298  10.407 -0.3399 -0.1432 -0.8371
  143MPD2    C5 2228   1.624   0.196  10.490 -1.1342 -0.3262 -0.0884
  143MPD2     H 2229   1.744   0.128  10.132  2.0471 -0.4877  1.6217
  143MPD2    H1 2230   1.634   0.401  10.433  0.1025 -0.1873 -0.3030
  143MPD2    H2 2231   1.622   0.000  10.529  0.5334  0.1805  0.1880
  143MPD2    H3 2232   1.579   0.219  10.586  0.6542  0.1571  0.6413
  143MPD2     N 2233   1.694   0.380  10.188  0.2297  0.5646 -0.1320
  143MPD2    H5 2234   1.704   0.468  10.237 -0.3908 -0.3978  1.7514
  143MPD2    N1 2235   1.703   4.640  10.298  0.6034 -0.1284 -0.3960
  143MPD2    H7 2236   1.688   4.572  10.371  0.1155  0.5837  0.1660
  144TMC2    C1 2237   0.080   4.661   0.721  0.1611  0.0478 -0.6841
  144TMC2    C2 2238   0.114   4.534   0.759  0.3124 -0.4252 -0.3577
  144TMC2    C3 2239   0.239   4.513   0.816  0.5170  0.2879  0.1724
  144TMC2    C4 2240   0.168   0.026   0.746  0.1571  0.3589  0.5002
  144TMC2    C5 2241   0.286   0.001   0.814  0.3651  0.5718  0.0422
  144TMC2    C6 2242   0.323   4.610   0.848  0.2450  0.5412  0.0536
  144TMC2     C 2243   4.703   4.671   0.632  0.2321 -0.0219  0.5147
  144TMC2     O 2244   4.678   4.565   0.573 -0.8614  0.0200  0.0191
  144TMC2     H 2245   0.050   4.449   0.737  0.8008 -0.6308 -0.9818
  144TMC2    H1 2246   0.139   0.124   0.709 -0.8893 -0.0957  0.1141
  144TMC2    H2 2247   0.411   4.588   0.905  0.2197 -0.0264 -0.1297
  144TMC2    C7 2248   0.384   0.098   0.847 -0.6632 -0.2764 -0.4946
  144TMC2    C8 2249   0.255   4.393   0.879 -0.6291 -0.3488 -0.2042
  144TMC2    O1 2250   0.501   0.057   0.864 -0.0506  0.4120  0.2773
  144TMC2    O2 2251   0.154   4.326   0.900 -0.0326 -0.9809 -0.2631
  144TMC2    O5 2252   0.379   4.342   0.828 -0.2119 -0.1429  0.0449
  144TMC2    H5 2253   0.438   4.408   0.784 -0.4834 -0.2424 -0.4760
  145MPD2     C 2254   4.350   0.173   0.349 -0.0429 -0.0452  0.8572
  145MPD2    C1 2255   4.376   0.040   0.371 -0.3503  0.0364 -0.6573
  145MPD2    C2 2256   4.471   0.004   0.466  0.1454  0.0270 -0.3321
  145MPD2    C3 2257   4.549   0.103   0.530 -0.2480  0.2899  0.4198
  145MPD2    C4 2258   4.524   0.238   0.504  0.4278  0.0748 -0.0951
  145MPD2    C5 2259   4.422   0.269   0.418  0.1437 -0.0950  0.2790
  145MPD2     H 2260   4.484   4.639   0.500  0.9480 -0.4984 -2.2170
  145MPD2    H1 2261   4.584   0.315   0.551  2.2495 -0.3101 -1.8332
  145MPD2    H2 2262   4.270   0.207   0.284  1.4673 -0.1205 -1.0419
  145MPD2    H3 2263   4.405   0.372   0.392 -0.7522 -0.3182 -0.0009
  145MPD2     N 2264   4.660   0.064   0.613  0.2846  0.0604 -0.4540
  145MPD2    H5 2265   4.697   0.139   0.670 -2.5413  0.1199  1.2646
  145MPD2    N1 2266   4.288   4.674   0.324  0.3520 -0.0112 -0.3174
  145MPD2    H7 2267   4.286   4.579   0.361  0.0071 -0.8361 -2.4186
  146TMC2    C1 2268   1.153   2.824  11.885 -0.1629  0.3429  0.1100
  146TMC2    C2 2269   1.071   2.860  11.778 -0.6216  0.3584 -0.1302
  146TMC2    C3 2270   1.125   2.936  11.682 -0.2583  0.0526  0.2802
  146TMC2    C4 2271   1.282   2.857  11.883 -0.2779 -0.3523 -0.3107
  146TMC2    C5 2272   1.339   2.932  11.782  0.8683  0.1416  0.3555
  146TMC2    C6 2273   1.252   2.968  11.679  0.3098  0.6668 -0.6768
  146TMC2     C 2274   1.092   2.841  12.015 -0.3788  0.2143  0.1147
  146TMC2     O 2275   0.984   2.899  12.007 -0.2177  0.3846  0.5234
  146TMC2     H 2276   0.970   2.824  11.763 -0.3803 -0.0186 -0.8596
  146TMC2    H1 2277   1.343   2.838  11.971 -0.5188  1.0811  0.1509
  146TMC2    H2 2278   1.296   3.030  11.602  2.3475  1.7892  1.3867
  146TMC2    C7 2279   1.474   2.901  11.746  0.7628  0.0062 -0.3672
  146TMC2    C8 2280   1.053   2.980  11.566 -1.3682  0.1317  0.0577
  146TMC2    O1 2281   1.501   2.928  11.629  0.1541  0.1207  0.0785
  146TMC2    O2 2282   1.099   2.981  11.450  0.1439  0.0218  0.3054
  146TMC2    O5 2283   0.921   2.977  11.588 -0.0250  0.0679 -0.4749
  146TMC2    H5 2284   0.900   3.013  11.677 -0.1443  0.1115 -0.5203
  147MPD2     C 2285   1.915   2.640  11.830 -0.4540  0.2042  0.2288
  147MPD2    C1 2286   1.841   2.645  11.945 -0.1363  0.1833  0.2156
  147MPD2    C2 2287   1.722   2.722  11.942  0.5238  0.5278  0.1581
  147MPD2    C3 2288   1.674   2.779  11.828 -0.4284 -0.1107  0.0228
  147MPD2    C4 2289   1.742   2.767  11.712 -0.9043  0.6217 -0.3704
  147MPD2    C5 2290   1.859   2.697  11.715 -0.2584  0.4337  0.5754
  147MPD2     H 2291   1.660   2.732  12.031 -0.9272 -0.1443 -0.7950
  147MPD2    H1 2292   1.700   2.798  11.617  1.3746 -2.6173 -2.4456
  147MPD2    H2 2293   2.014   2.598  11.823 -1.1881 -1.5252  0.2129
  147MPD2    H3 2294   1.927   2.693  11.631 -1.0821  0.3786 -0.0889
  147MPD2     N 2295   1.545   2.840  11.841 -0.7494  0.3970 -0.0046
  147MPD2    H5 2296   1.508   2.824  11.934 -1.6746  2.0275 -0.0887
  147MPD2    N1 2297   1.897   2.579  12.059  0.0702  0.4365  0.0121
  147MPD2    H7 2298   1.995   2.554  12.051  0.3760  1.8441 -0.8028
  148TMC2    C1 2299   1.443   2.162  10.732 -0.0497  0.2659 -0.4593
  148TMC2    C2 2300   1.534   2.200  10.640  0.2586  0.3137  0.4488
  148TMC2    C3 2301   1.617   2.100  10.595 -0.6248 -0.2169  0.7319
  148TMC2    C4 2302   1.433   2.046  10.787 -0.1912 -0.2338 -0.0946
  148TMC2    C5 2303   1.529   1.952  10.762  0.6034  0.7893 -0.1950
  148TMC2    C6 2304   1.621   1.978  10.663  0.3375  0.1237 -0.4960
  148TMC2     C 2305   1.320   2.235  10.721  0.0348 -0.8934  0.1379
  148TMC2     O 2306   1.329   2.358  10.708  0.1982 -0.0374  0.1881
  148TMC2     H 2307   1.533   2.300  10.597  0.4557 -0.7641 -2.0512
  148TMC2    H1 2308   1.359   2.022  10.863 -0.2109 -0.3377 -0.1464
  148TMC2    H2 2309   1.702   1.912  10.633 -0.5812 -1.2591  0.0918
  148TMC2    C7 2310   1.483   1.814  10.771  0.1576 -0.6422 -0.4375
  148TMC2    C8 2311   1.603   2.077  10.452 -0.1633 -0.6326  0.1538
  148TMC2    O1 2312   1.519   1.750  10.675 -0.8073  0.6489 -0.3122
  148TMC2    O2 2313   1.641   2.151  10.369  0.0480  0.1927 -0.6456
  148TMC2    O5 2314   1.591   1.944  10.435 -0.3668  0.0160  0.0807
  148TMC2    H5 2315   1.524   1.899  10.491 -0.6558  0.4917  0.1159
  149MPD2     C 2316   1.036   2.306  10.642  0.0626 -0.5597 -0.3994
  149MPD2    C1 2317   1.081   2.179  10.670  0.0646  0.3034  0.9890
  149MPD2    C2 2318   0.995   2.067  10.646  0.2458  0.3335 -0.7718
  149MPD2    C3 2319   0.865   2.090  10.605  0.0826 -0.1691 -0.3262
  149MPD2    C4 2320   0.826   2.216  10.584  0.1616  0.1308 -0.1045
  149MPD2    C5 2321   0.909   2.322  10.600  0.7698  0.5416  0.8188
  149MPD2     H 2322   1.037   1.969  10.667 -1.8286 -0.7531 -1.6943
  149MPD2    H1 2323   0.726   2.240  10.551  0.4568  3.1077  1.2262
  149MPD2    H2 2324   1.098   2.391  10.667  0.3158 -0.4069 -1.5407
  149MPD2    H3 2325   0.875   2.419  10.565  2.4588  1.6769  2.2862
  149MPD2     N 2326   0.772   1.994  10.570 -0.1013 -0.2560 -0.1220
  149MPD2    H5 2327   0.694   2.036  10.521 -1.3188 -0.1131  1.9462
  149MPD2    N1 2328   1.216   2.145  10.707  0.3679  0.4208  0.1265
  149MPD2    H7 2329   1.234   2.045  10.713  2.1258  0.6506 -1.5071
  150TMC2    C1 2330   3.074   1.128  12.174 -0.6370  0.1121 -0.1489
  150TMC2    C2 2331   3.027   1.183  12.054 -0.6010  0.5087 -0.2653
  150TMC2    C3 2332   3.110   1.268  11.984 -0.3611 -0.0329  0.0680
  150TMC2    C4 2333   3.199   1.166  12.215  0.1140  0.3463 -0.2819
  150TMC2    C5 2334   3.269   1.264  12.146 -0.6549 -0.3438 -0.0348
  150TMC2    C6 2335   3.227   1.316  12.031  0.3109  0.9266 -0.7201
  150TMC2     C 2336   3.007   1.019  12.253 -0.5660  0.2645 -0.6667
  150TMC2     O 2337   3.066   0.956  12.340  1.1753 -0.0787  0.3062
  150TMC2     H 2338   2.934   1.147  12.010 -1.3556  1.1250  0.8020
  150TMC2    H1 2339   3.231   1.125  12.310 -0.5404  1.6266  0.4870
  150TMC2    H2 2340   3.295   1.374  11.970 -0.4663  2.3927 -0.1761
  150TMC2    C7 2341   3.407   1.288  12.186 -0.3649  0.4701  0.2978
  150TMC2    C8 2342   3.060   1.324  11.860 -0.6317 -0.5646  0.5449
  150TMC2    O1 2343   3.468   1.386  12.151  0.1481  0.3311  0.1927
  150TMC2    O2 2344   2.943   1.359  11.853  0.4343 -0.4395  0.2470
  150TMC2    O5 2345   3.147   1.284  11.760 -0.3536  0.2091  0.1788
  150TMC2    H5 2346   3.233   1.258  11.799 -0.7753 -0.7074  0.4990
  151MPD2     C 2347   2.588   0.768  12.412 -0.0151  0.0087  0.5030
  151MPD2    C1 2348   2.566   0.836  12.292 -0.3056 -0.4318  0.1370
  151MPD2    C2 2349   2.665   0.910  12.235 -0.1442 -0.0624  0.0224
  151MPD2    C3 2350   2.791   0.914  12.286  0.2747 -0.3086 -0.0668
  151MPD2    C4 2351   2.818   0.840  12.398 -0.3226 -0.5424 -0.5125
  151MPD2    C5 2352   2.716   0.777  12.462  0.3705 -0.8918 -0.4748
  151MPD2     H 2353   2.648   0.957  12.139  0.3546 -0.4004 -0.2347
  151MPD2    H1 2354   2.916   0.837  12.445 -1.3166 -0.1337  1.5376
  151MPD2    H2 2355   2.509   0.722  12.470  0.8473  0.4069  1.9796
  151MPD2    H3 2356   2.719   0.740  12.564  0.3639 -1.4209 -0.6648
  151MPD2     N 2357   2.883   0.985  12.211  0.0444  0.0951 -0.3638
  151MPD2    H5 2358   2.854   1.023  12.121  0.6314  0.8799 -0.2213
  151MPD2    N1 2359   2.441   0.824  12.228 -0.0655 -0.5723 -0.2346
  151MPD2    H7 2360   2.378   0.751  12.259  1.2359 -2.0578 -1.1018
  152TMC2    C1 2361   3.132   0.994  12.681  0.3259 -0.0703 -0.1430
  152TMC2    C2 2362   3.213   0.886  12.681 -0.5697  0.2989 -0.1000
  152TMC2    C3 2363   3.336   0.891  12.633  0.1305 -0.0051 -0.5931
  152TMC2    C4 2364   3.177   1.116  12.640  0.0366  0.0443  0.5424
  152TMC2    C5 2365   3.308   1.129  12.614  0.0391  0.6755  0.0686
  152TMC2    C6 2366   3.388   1.014  12.603 -0.0245 -0.6467 -0.1963
  152TMC2     C 2367   2.989   0.986  12.710  0.6577  0.9461  0.4117
  152TMC2     O 2368   2.931   1.089  12.735  0.0133 -0.2971  0.4409
  152TMC2     H 2369   3.176   0.797  12.731 -1.9898  0.5540 -0.6813
  152TMC2    H1 2370   3.127   1.207  12.669 -0.9332 -0.2052 -0.3771
  152TMC2    H2 2371   3.495   1.027  12.592 -0.2771  0.4378 -1.2669
  152TMC2    C7 2372   3.349   1.264  12.569 -0.3053 -0.3732 -0.3571
  152TMC2    C8 2373   3.434   0.784  12.657 -0.2717  0.3343 -0.9257
  152TMC2    O1 2374   3.268   1.328  12.507  0.4823  0.2230 -0.1438
  152TMC2    O2 2375   3.547   0.797  12.704  0.2481 -0.3300 -0.3052
  152TMC2    O5 2376   3.396   0.682  12.586  0.0644  0.0119  0.3458
  152TMC2    H5 2377   3.311   0.701  12.540  0.2686 -0.0164 -0.0449
  153MPD2     C 2378   2.805   0.677  12.819 -0.0271  0.0872 -0.3691
  153MPD2    C1 2379   2.827   0.815  12.799  0.0665 -0.3319  0.1282
  153MPD2    C2 2380   2.721   0.901  12.823 -0.8615 -0.3306 -0.3500
  153MPD2    C3 2381   2.616   0.859  12.909  0.2556  0.6241  1.0701
  153MPD2    C4 2382   2.597   0.726  12.940  0.7310  0.4762 -0.2589
  153MPD2    C5 2383   2.689   0.638  12.879 -0.8007  0.1462  0.2469
  153MPD2     H 2384   2.722   1.004  12.789 -2.2470  0.2189  1.2408
  153MPD2    H1 2385   2.501   0.688  12.971  0.8878 -1.3750 -2.0181
  153MPD2    H2 2386   2.875   0.601  12.789 -0.9548  0.8264 -4.4255
  153MPD2    H3 2387   2.682   0.531  12.895 -1.5770  0.0695 -0.6405
  153MPD2     N 2388   2.525   0.959  12.952 -0.0262 -0.3308 -0.3281
  153MPD2    H5 2389   2.543   1.055  12.924  2.6739 -0.2314  1.7229
  153MPD2    N1 2390   2.939   0.857  12.722  0.2074  0.1398 -0.0662
  153MPD2    H7 2391   3.010   0.785  12.717  0.1574  0.0968 -0.1471
  154TMC2    C1 2392   4.551   1.290  17.743 -0.0642  0.8184  0.1567
  154TMC2    C2 2393   4.586   1.152  17.745 -0.4597  0.5711 -0.2175
  154TMC2    C3 2394   4.692   1.106  17.675  0.5710 -0.2021 -0.7174
  154TMC2    C4 2395   4.642   1.379  17.702  0.2508 -0.0971  0.2864
  154TMC2    C5 2396   0.018   1.329  17.645  0.3708 -0.5412  0.2113
  154TMC2    C6 2397   0.042   1.200  17.623 -0.0444 -0.3915 -0.5184
  154TMC2     C 2398   4.431   1.329   0.069  0.5501 -0.8971  0.6684
  154TMC2     O 2399   4.428   1.435   0.127 -0.0453 -0.1967 -0.2345
  154TMC2     H 2400   4.520   1.083   0.049 -0.5270  1.8521  1.4389
  154TMC2    H1 2401   4.611   1.482  17.709 -1.2135 -0.5086  0.0442
  154TMC2    H2 2402   0.137   1.160  17.587 -0.2539 -0.5572 -0.8904
  154TMC2    C7 2403   0.131   1.416  17.617  0.4854 -0.5574 -0.8110
  154TMC2    C8 2404   0.011   0.982  17.719  0.2761  0.2844  0.6412
  154TMC2    O1 2405   0.240   1.364  17.601  0.3158  0.0501 -0.7524
  154TMC2    O2 2406   4.737   0.960   0.093  0.0754  0.3405 -0.1364
  154TMC2    O5 2407   4.716   0.892  17.616  0.0498 -0.3567  0.1643
  154TMC2    H5 2408   0.005   0.934  17.532  2.5762  0.7949  1.5000
  155MPD2     C 2409   4.104   1.150   0.046  0.8015 -0.4059  0.5419
  155MPD2    C1 2410   4.195   1.241   0.093  0.0351  0.2904  0.8182
  155MPD2    C2 2411   4.164   1.311   0.212  0.2583 -0.5451  0.1545
  155MPD2    C3 2412   4.039   1.307   0.263  0.4654 -1.0313  0.9456
  155MPD2    C4 2413   3.949   1.226   0.203 -1.0037 -0.3521 -0.2492
  155MPD2    C5 2414   3.983   1.141   0.104  0.1220 -0.5849 -0.0075
  155MPD2     H 2415   4.242   1.373   0.256 -0.6918  0.3258  0.5913
  155MPD2    H1 2416   3.849   1.212   0.243 -1.6250  1.0373 -1.3003
  155MPD2    H2 2417   4.128   1.083  17.711 -1.9724 -0.8317  0.0941
  155MPD2    H3 2418   3.912   1.064   0.078 -0.6441  0.4939 -1.0959
  155MPD2     N 2419   4.003   1.373   0.380  0.0953  0.0283  0.5245
  155MPD2    H5 2420   4.080   1.408   0.436  1.1389  0.0619 -0.9491
  155MPD2    N1 2421   4.330   1.244   0.036  0.2604  0.3298  0.0280
  155MPD2    H7 2422   4.345   1.181  17.706  2.5626  0.7578  0.1297
  156TMC2    C1 2423   3.310   3.048  12.147  0.1982 -0.0971  0.4763
  156TMC2    C2 2424   3.432   3.007  12.110 -0.4570  0.6696 -0.4988
  156TMC2    C3 2425   3.459   2.973  11.986  0.2342  0.0832 -0.5434
  156TMC2    C4 2426   3.207   3.049  12.050  0.2856 -0.9224  1.1997
  156TMC2    C5 2427   3.242   3.017  11.925  0.2940  0.2438  0.4742
  156TMC2    C6 2428   3.366   2.980  11.890  0.6951 -0.6127  0.0775
  156TMC2     C 2429   3.298   3.160  12.237 -0.1453 -0.0557 -0.2304
  156TMC2     O 2430   3.209   3.236  12.208 -0.2076  0.4229 -0.2929
  156TMC2     H 2431   3.518   3.017  12.177 -0.5600 -2.9103  0.1529
  156TMC2    H1 2432   3.101   3.057  12.069  0.2597  0.8817  0.3514
  156TMC2    H2 2433   3.394   2.958  11.787  0.7562  0.3395 -0.1103
  156TMC2    C7 2434   3.169   3.089  11.824 -0.2777 -0.7112  0.2086
  156TMC2    C8 2435   3.585   2.910  11.956  0.1967  0.4549 -0.0187
  156TMC2    O1 2436   3.137   3.203  11.852 -0.3685 -0.1900 -0.1795
  156TMC2    O2 2437   3.658   2.861  12.036  0.4242  0.4889 -0.5612
  156TMC2    O5 2438   3.621   2.950  11.828  0.4185 -0.3170  0.1890
  156TMC2    H5 2439   3.571   3.017  11.778  1.2834  0.5543  0.4845
  157MPD2     C 2440   3.370   3.178  12.602 -0.1226  0.7020  0.0590
  157MPD2    C1 2441   3.332   3.222  12.477 -0.5000 -0.5345 -0.2710
  157MPD2    C2 2442   3.289   3.356  12.465  0.2189  0.6450 -0.2479
  157MPD2    C3 2443   3.265   3.440  12.576 -0.6065  0.0691  0.3332
  157MPD2    C4 2444   3.296   3.388  12.700 -0.4076 -0.1674  0.5428
  157MPD2    C5 2445   3.347   3.259  12.711 -0.0218  0.1683 -0.3452
  157MPD2     H 2446   3.279   3.396  12.364 -0.0634 -0.2215 -0.5620
  157MPD2    H1 2447   3.276   3.445  12.790 -0.1036 -1.5692  1.5145
  157MPD2    H2 2448   3.390   3.072  12.611  1.0162  0.9998  1.0067
  157MPD2    H3 2449   3.382   3.224  12.807 -1.9219  1.6835  0.8897
  157MPD2     N 2450   3.207   3.567  12.552  0.2193  0.7034  0.2141
  157MPD2    H5 2451   3.209   3.599  12.455  1.7807 -1.4622 -0.4729
  157MPD2    N1 2452   3.358   3.135  12.365 -0.4109 -0.0815 -0.5565
  157MPD2    H7 2453   3.422   3.057  12.374 -1.4338 -0.8176  0.2764
  158TMC2    C1 2454   3.534   1.655  13.740 -0.1456  0.0149  1.0042
  158TMC2    C2 2455   3.597   1.773  13.704 -0.1930  0.0473  1.6368
  158TMC2    C3 2456   3.535   1.895  13.729  0.9390  0.5625 -0.0911
  158TMC2    C4 2457   3.404   1.654  13.788 -0.0827  0.9569 -0.6645
  158TMC2    C5 2458   3.350   1.778  13.811  0.2703 -0.5703 -0.8066
  158TMC2    C6 2459   3.414   1.897  13.784  0.1587  0.2074 -0.7580
  158TMC2     C 2460   3.603   1.524  13.717  0.0746 -0.6757 -0.9190
  158TMC2     O 2461   3.682   1.499  13.625 -0.3333  0.6013 -0.5216
  158TMC2     H 2462   3.699   1.772  13.667 -0.7549 -0.6218  0.1104
  158TMC2    H1 2463   3.361   1.564  13.831 -0.4451  1.3576 -0.1910
  158TMC2    H2 2464   3.375   1.995  13.808 -0.8673 -0.8879  2.0310
  158TMC2    C7 2465   3.208   1.790  13.846  0.0137  0.2973  0.1062
  158TMC2    C8 2466   3.618   2.011  13.763  0.0533 -0.5003  0.9694
  158TMC2    O1 2467   3.171   1.898  13.889 -0.2058  0.1876 -0.4696
  158TMC2    O2 2468   3.725   1.996  13.817 -0.4406  0.1193 -0.1540
  158TMC2    O5 2469   3.597   2.111  13.682  0.8234 -0.0410  0.3645
  158TMC2    H5 2470   3.515   2.099  13.630  0.9803 -0.3165  0.1857
  159MPD2     C 2471   3.729   1.061  13.874  0.6461  0.1303 -0.3927
  159MPD2    C1 2472   3.646   1.125  13.965  0.1556 -0.0489  0.0016
  159MPD2    C2 2473   3.602   1.252  13.952 -0.6058  0.5563 -0.3595
  159MPD2    C3 2474   3.637   1.313  13.830 -0.5732  0.0687  0.3852
  159MPD2    C4 2475   3.728   1.252  13.743  0.2602  0.1004  0.0277
  159MPD2    C5 2476   3.767   1.120  13.757  0.1955 -0.3816 -0.6524
  159MPD2     H 2477   3.543   1.296  14.031 -0.8533 -0.3932 -0.0224
  159MPD2    H1 2478   3.762   1.295  13.649 -0.1290  1.4622  0.5076
  159MPD2    H2 2479   3.767   0.962  13.893 -0.1135 -0.1449 -0.2887
  159MPD2    H3 2480   3.838   1.066  13.695  0.6722 -1.5288  0.8965
  159MPD2     N 2481   3.575   1.433  13.814 -0.4980 -0.4409 -0.3201
  159MPD2    H5 2482   3.526   1.462  13.898  0.4295 -0.3515  0.1939
  159MPD2    N1 2483   3.615   1.040  14.076 -0.2781 -0.4056  0.6874
  159MPD2    H7 2484   3.623   0.940  14.062 -0.6496 -0.2211 -0.8040
  160TMC2    C1 2485   3.288   0.331   0.988  0.2647  0.2377  0.7885
  160TMC2    C2 2486   3.300   0.263   1.108 -0.2750  0.4646  0.7825
  160TMC2    C3 2487   3.424   0.211   1.132 -0.2270 -0.6485 -0.4929
  160TMC2    C4 2488   3.389   0.365   0.905 -0.5171 -0.4619 -0.5781
  160TMC2    C5 2489   3.512   0.311   0.937 -0.2033  0.0308  1.2421
  160TMC2    C6 2490   3.532   0.233   1.049  0.2073 -0.4429 -0.3400
  160TMC2     C 2491   3.162   0.389   0.954  0.1871  0.2579  0.0677
  160TMC2     O 2492   3.157   0.484   0.882  0.1439  0.0869  0.0704
  160TMC2     H 2493   3.212   0.254   1.170 -2.9641 -0.8167 -3.2109
  160TMC2    H1 2494   3.380   0.426   0.816 -1.5275  1.7534  1.0642
  160TMC2    H2 2495   3.633   0.194   1.051  0.8083  1.3070  2.8763
  160TMC2    C7 2496   3.625   0.384   0.875 -0.2658 -0.4442  0.4973
  160TMC2    C8 2497   3.452   0.152   1.265  0.6581 -0.0734  0.2535
  160TMC2    O1 2498   3.726   0.323   0.841 -0.4823  0.5658  0.5418
  160TMC2    O2 2499   3.355   0.130   1.332  0.3373 -0.0636 -0.0235
  160TMC2    O5 2500   3.571   0.175   1.314 -0.2473  0.4576 -0.2677
  160TMC2    H5 2501   3.641   0.219   1.262  0.9876 -0.5774  0.5116
  161MPD2     C 2502   2.822   0.258   1.017 -0.0006  0.1038  0.0718
  161MPD2    C1 2503   2.916   0.352   0.979  0.1193 -0.1717 -0.6650
  161MPD2    C2 2504   2.874   0.481   0.939 -1.4562  0.5508 -0.1337
  161MPD2    C3 2505   2.743   0.511   0.928 -0.4044 -0.3418  0.0801
  161MPD2    C4 2506   2.647   0.413   0.954 -0.1116 -0.1778  0.9826
  161MPD2    C5 2507   2.685   0.291   1.001  1.3215 -0.0024  0.3967
  161MPD2     H 2508   2.944   0.553   0.897 -1.5126  1.1956  0.8726
  161MPD2    H1 2509   2.542   0.442   0.951 -0.7885 -2.7532  0.1683
  161MPD2    H2 2510   2.850   0.160   1.053  0.7006  1.3776  2.9639
  161MPD2    H3 2511   2.603   0.228   1.033 -1.1153  2.9223 -0.0105
  161MPD2     N 2512   2.700   0.636   0.885 -0.1338 -0.4271 -0.3381
  161MPD2    H5 2513   2.601   0.632   0.859 -0.2390  1.0894 -0.1535
  161MPD2    N1 2514   3.050   0.310   0.989 -0.2292  0.5742 -0.0547
  161MPD2    H7 2515   3.060   0.211   1.012  1.3733  0.8370  0.4019
  162TMC2    C1 2516   1.159   2.233   1.007  0.1713  0.0627  0.6519
  162TMC2    C2 2517   1.067   2.175   1.082 -0.0542  0.2145  0.8067
  162TMC2    C3 2518   1.101   2.158   1.211  0.3711 -0.4291 -0.4998
  162TMC2    C4 2519   1.274   2.286   1.051 -1.2235  0.6906 -0.0620
  162TMC2    C5 2520   1.303   2.271   1.180 -0.2755 -0.5298 -0.4658
  162TMC2    C6 2521   1.219   2.203   1.262  0.1739  0.0346 -0.3560
  162TMC2     C 2522   1.110   2.263   0.867  0.2816 -0.3198 -0.6862
  162TMC2     O 2523   1.197   2.273   0.782  0.1966  0.1985  0.1259
  162TMC2     H 2524   0.978   2.129   1.041 -0.0263  0.6758  0.2225
  162TMC2    H1 2525   1.340   2.346   0.989 -3.4513  2.7521 -0.4622
  162TMC2    H2 2526   1.256   2.173   1.359  0.2818 -1.2099 -0.7757
  162TMC2    C7 2527   1.444   2.280   1.228  0.1881 -0.1450  0.1012
  162TMC2    C8 2528   1.029   2.047   1.286 -0.4423  0.5593  0.1461
  162TMC2    O1 2529   1.473   2.270   1.345 -0.7602 -0.4266 -0.3094
  162TMC2    O2 2530   0.967   1.962   1.221 -0.3345  0.1765 -0.2349
  162TMC2    O5 2531   1.008   2.087   1.414 -0.5422 -0.2066 -0.7495
  162TMC2    H5 2532   1.037   2.180   1.423 -2.4900  0.3089  0.1406
  163MPD2     C 2533   0.732   2.304   0.522  1.0408 -0.0351  0.7231
  163MPD2    C1 2534   0.868   2.291   0.505 -0.2076 -0.0940 -0.1593
  163MPD2    C2 2535   0.946   2.286   0.614 -0.0951  0.5775  0.7538
  163MPD2    C3 2536   0.895   2.293   0.737 -0.2159  0.4587 -0.3127
  163MPD2    C4 2537   0.756   2.301   0.759  0.0811 -0.1238  0.1247
  163MPD2    C5 2538   0.680   2.314   0.651 -0.2796 -0.1437 -0.0129
  163MPD2     H 2539   1.053   2.281   0.597 -0.1860  1.4502 -0.0634
  163MPD2    H1 2540   0.703   2.301   0.853 -0.0533 -2.1039  0.0538
  163MPD2    H2 2541   0.665   2.299   0.437  2.7611  1.6318 -0.7306
  163MPD2    H3 2542   0.575   2.332   0.667 -0.0215  0.9388  0.4446
  163MPD2     N 2543   0.974   2.272   0.855 -0.2748 -0.3036 -0.2619
  163MPD2    H5 2544   0.930   2.266   0.946 -0.5119 -0.1040 -0.3632
  163MPD2    N1 2545   0.914   2.274   0.373 -0.0877  0.0504  0.0496
  163MPD2    H7 2546   0.842   2.253   0.304 -1.8265  0.3554  1.7510
  164TMC2    C1 2547   1.734   1.623  11.238 -0.3224 -0.2566  0.6388
  164TMC2    C2 2548   1.814   1.609  11.132 -0.2219 -0.2798  0.3285
  164TMC2    C3 2549   1.806   1.705  11.036 -0.2043  1.5195  0.2587
  164TMC2    C4 2550   1.654   1.731  11.260 -0.0674 -0.3899 -0.2583
  164TMC2    C5 2551   1.654   1.824  11.166  0.0606 -0.5711  0.2604
  164TMC2    C6 2552   1.719   1.809  11.046 -0.3785 -0.5102  0.5672
  164TMC2     C 2553   1.730   1.516  11.333  0.1982  0.2892  0.0051
  164TMC2     O 2554   1.691   1.550  11.444  0.6977  0.1866  0.5630
  164TMC2     H 2555   1.894   1.536  11.128  1.0595  1.1373 -0.0234
  164TMC2    H1 2556   1.616   1.735  11.362 -0.1466 -0.2155 -0.2940
  164TMC2    H2 2557   1.708   1.884  10.968 -1.4207 -1.8299 -0.5391
  164TMC2    C7 2558   1.552   1.923  11.184  0.0410 -0.3091 -0.3956
  164TMC2    C8 2559   1.902   1.693  10.926 -1.1016  0.1786 -0.3421
  164TMC2    O1 2560   1.488   1.961  11.086  0.0373 -0.1978  0.0639
  164TMC2    O2 2561   1.983   1.599  10.916 -1.0371  0.3559  0.4980
  164TMC2    O5 2562   1.894   1.803  10.850  0.4368 -0.2159 -0.0750
  164TMC2    H5 2563   1.854   1.880  10.894 -2.2439 -1.9531  0.5302
  165TMC2    C1 2564   3.749   4.241   1.928 -0.1320  0.5232  0.8652
  165TMC2    C2 2565   3.630   4.212   1.992 -0.1647  0.6102  0.3973
  165TMC2    C3 2566   3.519   4.269   1.931 -0.3008 -0.0400 -0.0033
  165TMC2    C4 2567   3.753   4.315   1.814 -0.4667  0.2620 -0.2104
  165TMC2    C5 2568   3.646   4.371   1.757  0.3399 -0.9236 -0.0831
  165TMC2    C6 2569   3.524   4.350   1.822 -0.2150 -0.4722 -0.0369
  165TMC2     C 2570   3.866   4.158   1.968 -0.0734 -0.3067  0.4270
  165TMC2     O 2571   3.838   4.056   2.028  0.0514 -0.5921  0.0812
  165TMC2     H 2572   3.639   4.160   2.086  2.5002  0.1095 -0.1349
  165TMC2    H1 2573   3.844   4.333   1.758 -0.4789 -0.4728 -0.4666
  165TMC2    H2 2574   3.439   4.407   1.784  0.0207  0.5782  1.0152
  165TMC2    C7 2575   3.660   4.453   1.636 -0.4860 -0.4937 -0.0037
  165TMC2    C8 2576   3.398   4.270   2.001  0.4749  0.0931  0.6529
  165TMC2    O1 2577   3.776   4.476   1.601 -0.1008  0.0414  0.1441
  165TMC2    O2 2578   3.321   4.368   1.993  0.4297  0.1258 -0.1031
  165TMC2    O5 2579   3.411   4.195   2.107  0.0828 -0.3571 -0.1140
  165TMC2    H5 2580   3.467   4.116   2.091  1.0878  0.1739  0.7331
  166MPD2     C 2581   4.345   3.977   1.895 -0.0091 -0.1908 -0.7294
  166MPD2    C1 2582   4.225   3.914   1.921  0.1688 -0.5421  0.5100
  166MPD2    C2 2583   4.115   3.982   1.955  0.2906  0.3729 -0.4476
  166MPD2    C3 2584   4.111   4.123   1.923 -0.3058 -0.8324  0.1835
  166MPD2    C4 2585   4.231   4.185   1.882  0.3938 -0.7315 -0.7049
  166MPD2    C5 2586   4.346   4.109   1.873  0.2629  0.4009 -0.0829
  166MPD2     H 2587   4.024   3.944   2.000  0.3301 -1.2274 -1.7099
  166MPD2    H1 2588   4.249   4.290   1.861  0.3123 -0.8255 -1.2390
  166MPD2    H2 2589   4.432   3.916   1.874  0.0627 -0.9886  1.8154
  166MPD2    H3 2590   4.438   4.146   1.831  1.5216 -2.4270  0.2176
  166MPD2     N 2591   3.991   4.204   1.928 -0.3780 -0.0967  0.4736
  166MPD2    H5 2592   3.997   4.298   1.889  1.0004 -0.2170  0.4000
  166MPD2    N1 2593   4.229   3.773   1.934  0.2843  0.1559 -0.4580
  166MPD2    H7 2594   4.319   3.726   1.940 -0.6994 -2.0795 -3.1583
  167TMC2    C1 2595   1.246   2.070  12.902 -0.3925  0.5000  0.1620
  167TMC2    C2 2596   1.144   2.146  12.956 -0.4239 -0.8076 -0.1279
  167TMC2    C3 2597   1.029   2.091  12.997  0.2225 -0.8504 -0.7837
  167TMC2    C4 2598   1.250   1.931  12.896 -0.5246 -0.6374 -0.5013
  167TMC2    C5 2599   1.124   1.881  12.930 -0.0620 -0.3293  0.9057
  167TMC2    C6 2600   1.017   1.954  12.982 -0.4420 -0.2118  0.7978
  167TMC2     C 2601   1.341   2.140  12.816  0.3479  0.3121  0.4840
  167TMC2     O 2602   1.456   2.099  12.808 -0.0203 -0.1477 -0.0360
  167TMC2     H 2603   1.143   2.254  12.947 -1.5126 -0.4646  4.0220
  167TMC2    H1 2604   1.325   1.879  12.838  0.7448 -0.7673  1.2455
  167TMC2    H2 2605   0.927   1.909  13.023  0.0055 -2.2235 -0.3850
  167TMC2    C7 2606   1.087   1.743  12.911 -0.4235 -0.1969 -0.8785
  167TMC2    C8 2607   0.920   2.167  13.038 -0.1304 -0.1773  1.0979
  167TMC2    O1 2608   0.987   1.705  12.969 -0.3045  0.1946 -0.2155
  167TMC2    O2 2609   0.834   2.139  13.121  0.4888  0.7158 -0.9203
  167TMC2    O5 2610   0.898   2.257  12.941 -0.0440  0.0891 -0.7504
  167TMC2    H5 2611   0.950   2.243  12.859 -1.4793  0.0444 -1.6709
  168MPD2     C 2612   1.472   2.315  12.609 -0.0675 -0.1822  0.0648
  168MPD2    C1 2613   1.341   2.290  12.627  0.3575  0.5232 -0.0308
  168MPD2    C2 2614   1.255   2.333  12.527  0.5357  0.3803  0.1167
  168MPD2    C3 2615   1.304   2.381  12.403 -0.1879  0.1221 -0.4770
  168MPD2    C4 2616   1.438   2.400  12.392  0.0257 -0.1137 -0.0284
  168MPD2    C5 2617   1.520   2.378  12.502 -0.9586  0.2715 -0.1089
  168MPD2     H 2618   1.151   2.308  12.540  0.4087  0.2362 -1.1186
  168MPD2    H1 2619   1.480   2.441  12.300 -1.6478  1.1142 -0.2374
  168MPD2    H2 2620   1.536   2.298  12.695 -0.7196  0.0735  0.6066
  168MPD2    H3 2621   1.624   2.410  12.502 -1.5100  2.0338  3.2039
  168MPD2     N 2622   1.213   2.405  12.293 -0.1789 -0.6816 -0.1456
  168MPD2    H5 2623   1.257   2.399  12.202 -0.4364 -0.0562 -0.3152
  168MPD2    N1 2624   1.285   2.216  12.730 -0.0066 -0.5139  0.8116
  168MPD2    H7 2625   1.185   2.227  12.745  0.1081  3.2349 -1.1065
  169MPD1     C 2626   2.433   4.728   9.558  1.2680  0.6969 -0.2700
  169MPD1    C1 2627   2.565   4.689   9.578  0.6881 -0.3365  0.2600
  169MPD1    C2 2628   2.655   0.056   9.619  0.2669  0.5930 -0.7421
  169MPD1    C3 2629   2.609   0.187   9.631  0.4535  0.4151 -0.3437
  169MPD1    C4 2630   2.477   0.223   9.611  0.0448 -0.0320 -0.2480
  169MPD1    C5 2631   2.396   0.122   9.581  0.1182  0.0803  0.9129
  169MPD1     H 2632   2.763   0.048   9.629  0.2555  0.6023 -0.6127
  169MPD1    H1 2633   2.434   0.322   9.616 -0.1966 -0.0892 -1.1885
  169MPD1    H2 2634   2.353   4.664   9.524  2.1457 -0.1385 -0.7769
  169MPD1    H3 2635   2.292   0.151   9.569  0.6259  0.5879 -2.3991
  169MPD1     N 2636   2.710   0.289   9.662 -0.6374 -0.7230  0.0439
  169MPD1    H5 2637   2.806   0.261   9.676 -0.8952  0.5863  4.7065
  169MPD1    N1 2638   2.614   4.564   9.529  0.3304  0.3121 -0.1173
  169MPD1    H6 2639   2.543   4.493   9.544  0.0636  0.5990 -0.0231
  169MPD1    H7 2640   2.701   4.533   9.571  0.1140 -0.1161  0.0177
  170MPD1     C 2641   2.664   3.935  12.582 -0.0227  0.5142 -0.1717
  170MPD1    C1 2642   2.536   3.990  12.585 -0.0871 -0.1115 -1.2718
  170MPD1    C2 2643   2.483   4.016  12.707 -0.0884 -0.0945  0.8637
  170MPD1    C3 2644   2.541   3.984  12.824  0.0423 -0.1859  0.4727
  170MPD1    C4 2645   2.671   3.931  12.826  0.1585  0.2000  0.3167
  170MPD1    C5 2646   2.729   3.906  12.702 -0.6165 -0.0850 -0.1185
  170MPD1     H 2647   2.381   4.052  12.710  0.2841  1.0078  0.1360
  170MPD1    H1 2648   2.715   3.892  12.916  1.0016  0.2025 -0.0930
  170MPD1    H2 2649   2.711   3.914  12.486 -1.5164  1.9000 -1.1941
  170MPD1    H3 2650   2.829   3.869  12.685 -1.0738 -1.2791 -0.2294
  170MPD1     N 2651   2.459   4.000  12.943 -0.1629 -0.1703  0.2525
  170MPD1    H5 2652   2.368   4.042  12.925  0.5838  0.3699 -2.3404
  170MPD1    N1 2653   2.470   4.009  12.463  0.3781  0.2697  0.3501
  170MPD1    H6 2654   2.525   4.026  12.379  0.2685  1.3385  0.4887
  170MPD1    H7 2655   2.401   4.084  12.473  1.1920  0.9946  0.5698
  171MPD1     C 2656   0.629   0.579  15.339  0.1362 -0.2450  0.6937
  171MPD1    C1 2657   0.600   0.448  15.311  0.6096  0.1661  0.4331
  171MPD1    C2 2658   0.644   0.352  15.395 -0.5582  0.4660 -0.2415
  171MPD1    C3 2659   0.733   0.379  15.499  0.0016 -0.1403  0.6076
  171MPD1    C4 2660   0.745   0.506  15.535  0.9630  0.5053  0.0056
  171MPD1    C5 2661   0.700   0.602  15.451 -0.7038  0.4580 -0.6533
  171MPD1     H 2662   0.620   0.251  15.365  0.0157  0.5753 -1.0879
  171MPD1    H1 2663   0.822   0.517  15.611  1.7175  0.8342 -0.7955
  171MPD1    H2 2664   0.595   0.663  15.281 -0.1144 -0.4099  0.6002
  171MPD1    H3 2665   0.732   0.705  15.467 -2.6786  1.2727 -1.9140
  171MPD1     N 2666   0.799   0.282  15.580  0.4147  0.4072  1.0199
  171MPD1    H5 2667   0.863   0.310  15.654 -0.6243  0.0638  2.0518
  171MPD1    N1 2668   0.510   0.419  15.207 -0.1630  0.5100 -0.1030
  171MPD1    H6 2669   0.532   0.484  15.132 -0.7465 -2.2924 -2.6858
  171MPD1    H7 2670   0.527   0.328  15.166 -1.6528  0.2083 -0.0724
  172MPD1     C 2671   4.273   4.214   0.416  0.3397 -0.5793  0.0133
  172MPD1    C1 2672   4.333   4.198   0.292 -0.7986 -0.1600  0.4955
  172MPD1    C2 2673   4.440   4.281   0.262 -0.6662  0.0335  0.6121
  172MPD1    C3 2674   4.492   4.365   0.361 -0.7726  0.9434  0.0240
  172MPD1    C4 2675   4.427   4.383   0.481 -0.3601 -0.5861  0.2761
  172MPD1    C5 2676   4.314   4.308   0.505  0.2180 -0.4825 -0.2014
  172MPD1     H 2677   4.482   4.261   0.164  1.1750  1.0259  1.2079
  172MPD1    H1 2678   4.465   4.446   0.560  2.4427 -1.6561 -0.2327
  172MPD1    H2 2679   4.191   4.150   0.443  0.9641 -1.4386 -0.1420
  172MPD1    H3 2680   4.269   4.319   0.603 -0.2052 -0.9778 -0.3398
  172MPD1     N 2681   4.620   4.432   0.350 -0.3359  0.0359 -0.3450
  172MPD1    H5 2682   4.648   4.491   0.427 -0.6047  1.7885 -1.5780
  172MPD1    N1 2683   4.283   4.116   0.190  0.2724  0.6762  0.1014
  172MPD1    H6 2684   4.355   4.064   0.140  1.5393 -0.1882  2.8281
  172MPD1    H7 2685   4.211   4.050   0.219  0.2095  0.7604  0.1357
  173MPD1     C 2686   1.148   4.697  13.704 -0.2520  0.6176 -0.3001
  173MPD1    C1 2687   1.242   4.593  13.732 -0.0311 -0.8925  0.5961
  173MPD1    C2 2688   1.227   4.517  13.846  0.6288  0.4436 -0.3704
  173MPD1    C3 2689   1.135   4.550  13.941  0.7180  0.2687  0.1389
  173MPD1    C4 2690   1.060   4.663  13.923  0.3073  0.1394 -0.5034
  173MPD1    C5 2691   1.070   0.004  13.812  0.0091  0.4349 -0.0864
  173MPD1     H 2692   1.286   4.428  13.862  0.3451  0.3344  0.0808
  173MPD1    H1 2693   0.988   4.701  13.994 -0.4197  1.8952 -2.1680
  173MPD1    H2 2694   1.170   0.021  13.617 -0.1876  0.8784 -0.0981
  173MPD1    H3 2695   1.018   0.099  13.805  0.6909  0.8246  0.2115
  173MPD1     N 2696   1.129   4.473  14.060 -0.1685  0.1025  0.0259
  173MPD1    H5 2697   1.193   4.394  14.061 -1.4744 -0.9268  1.0915
  173MPD1    N1 2698   1.331   4.550  13.629 -0.5277  0.5202 -0.1341
  173MPD1    H6 2699   1.370   4.631  13.582 -1.5976  0.8095 -0.5218
  173MPD1    H7 2700   1.414   4.501  13.662 -0.5188 -0.3765 -1.5052
  174MPD1     C 2701   1.333   3.685  13.950 -0.5239  0.6954 -0.4616
  174MPD1    C1 2702   1.300   3.668  14.087 -0.1091 -0.3184 -0.1835
  174MPD1    C2 2703   1.250   3.780  14.160 -0.4538  0.0799 -0.1190
  174MPD1    C3 2704   1.218   3.897  14.100  0.6569  0.0871 -0.2674
  174MPD1    C4 2705   1.248   3.903  13.961 -0.2102  0.7531  0.4632
  174MPD1    C5 2706   1.301   3.807  13.891 -0.3462 -0.6977 -0.2667
  174MPD1     H 2707   1.229   3.770  14.266 -0.7681 -0.3742 -0.2231
  174MPD1    H1 2708   1.237   3.996  13.906 -0.3188  0.2331 -0.3908
  174MPD1    H2 2709   1.380   3.606  13.893 -0.5579  0.9795 -0.8832
  174MPD1    H3 2710   1.309   3.813  13.783  0.3852 -2.2875 -0.2984
  174MPD1     N 2711   1.163   4.013  14.167 -0.1366 -0.5169  0.0113
  174MPD1    H5 2712   1.159   4.093  14.106 -1.1295  0.7273  1.6904
  174MPD1    N1 2713   1.335   3.552  14.156 -0.3660  0.2977 -0.2368
  174MPD1    H6 2714   1.264   3.534  14.226  0.6173  0.0695  0.6922
  174MPD1    H7 2715   1.324   3.472  14.094  0.5337  1.2999 -1.6977
  175MPD1     C 2716   4.656   0.514  15.444 -0.1909 -0.2977 -0.1268
  175MPD1    C1 2717   4.557   0.598  15.484  0.0017 -0.2428  0.0508
  175MPD1    C2 2718   4.510   0.583  15.610  0.4336  0.0473 -0.5931
  175MPD1    C3 2719   4.544   0.471  15.691 -0.0044  0.0661  0.0740
  175MPD1    C4 2720   4.636   0.379  15.643 -0.5798  0.6594  0.4302
  175MPD1    C5 2721   4.700   0.408  15.523 -0.0396 -0.1147  0.1584
  175MPD1     H 2722   4.435   0.651  15.648  0.6536 -1.4020  2.3634
  175MPD1    H1 2723   4.652   0.289  15.701 -0.6139  0.5209  0.2244
  175MPD1    H2 2724   4.711   0.536  15.353 -1.1629 -1.1651 -0.9286
  175MPD1    H3 2725   0.043   0.342  15.493 -0.0388 -0.3607  0.6949
  175MPD1     N 2726   4.472   0.438  15.806 -0.3461  0.4218  0.0596
  175MPD1    H5 2727   4.517   0.359  15.851 -0.9977  0.3119  0.5134
  175MPD1    N1 2728   4.535   0.714  15.410 -0.2015 -0.3112 -0.1987
  175MPD1    H6 2729   4.438   0.742  15.420 -0.0573 -0.3666  1.4369
  175MPD1    H7 2730   4.543   0.694  15.311 -1.4581 -0.1804 -0.3214
  176MPD1     C 2731   1.350   2.601   0.284 -0.3213  0.7709  0.8187
  176MPD1    C1 2732   1.239   2.674   0.295 -0.2144  0.8751 -0.1668
  176MPD1    C2 2733   1.241   2.804   0.237  0.2895  0.3726 -0.2799
  176MPD1    C3 2734   1.354   2.849   0.174  0.1890  0.3941 -0.5914
  176MPD1    C4 2735   1.463   2.764   0.163  0.4269 -0.2019 -0.2436
  176MPD1    C5 2736   1.454   2.638   0.206 -0.3317 -0.9741  0.0116
  176MPD1     H 2737   1.160   2.875   0.251 -0.1024 -0.3247  0.9921
  176MPD1    H1 2738   1.558   2.785   0.115  0.4116  1.0669  0.2762
  176MPD1    H2 2739   1.357   2.498   0.318 -2.7833 -0.0356 -1.1499
  176MPD1    H3 2740   1.530   2.564   0.184  3.5570  2.6276  1.3321
  176MPD1     N 2741   1.342   2.973   0.109 -0.1432 -0.0900 -0.3992
  176MPD1    H5 2742   1.258   3.028   0.121 -0.5552 -0.9335  0.5200
  176MPD1    N1 2743   1.134   2.628   0.384 -0.3912  0.6147  0.3942
  176MPD1    H6 2744   1.050   2.682   0.368 -1.4836 -1.0616  0.4631
  176MPD1    H7 2745   1.094   2.535   0.374 -0.7243  0.6485  1.4211
  177MPD1     C 2746   3.152   0.031   9.104  0.2168 -0.2056 -0.2489
  177MPD1    C1 2747   3.074   4.664   9.144 -0.2295 -0.0141 -0.1322
  177MPD1    C2 2748   2.955   4.697   9.203  0.2509  0.4593  0.3486
  177MPD1    C3 2749   2.909   0.095   9.187  0.1821 -0.1559  0.0199
  177MPD1    C4 2750   2.990   0.194   9.143  1.0482 -0.4195  0.2812
  177MPD1    C5 2751   3.111   0.156   9.109  0.4057 -0.1303 -0.3976
  177MPD1     H 2752   2.897   4.617   9.249 -1.9287  2.2196  0.7044
  177MPD1    H1 2753   2.966   0.299   9.156 -1.1780 -0.9420  0.4202
  177MPD1    H2 2754   3.253   0.028   9.063  0.1961 -0.7859 -0.2572
  177MPD1    H3 2755   3.181   0.229   9.069 -0.4973 -0.8447 -3.2873
  177MPD1     N 2756   2.778   0.110   9.242 -0.2916  0.4584  0.1985
  177MPD1    H5 2757   2.730   0.029   9.279  0.2042  0.6203  1.1916
  177MPD1    N1 2758   3.140   4.538   9.147  0.2931 -0.2597 -0.8089
  177MPD1    H6 2759   3.072   4.463   9.132 -0.5919  0.2642  0.5765
  177MPD1    H7 2760   3.203   4.540   9.068 -0.7100  1.2612 -1.5832
  178MPD1     C 2761   1.947   3.227   0.174  0.5889 -0.1356 -0.3055
  178MPD1    C1 2762   1.879   3.162   0.075 -0.4643  0.6869  0.3983
  178MPD1    C2 2763   1.929   3.175  17.692  0.1873  0.8194 -0.7296
  178MPD1    C3 2764   2.025   3.272  17.657  0.0430  0.5401  0.2713
  178MPD1    C4 2765   2.072   3.353   0.008  1.2158  0.1441 -0.6442
  178MPD1    C5 2766   2.037   3.327   0.140 -0.5541 -0.7438  0.0422
  178MPD1     H 2767   1.884   3.107  17.621  1.5671 -0.1411 -0.6831
  178MPD1    H1 2768   2.143   3.434  17.745  1.2893  0.3546  1.6175
  178MPD1    H2 2769   1.929   3.207   0.279 -0.9932 -0.7680 -0.6932
  178MPD1    H3 2770   2.079   3.378   0.226 -1.1528 -1.3737  0.7059
  178MPD1     N 2771   2.084   3.282  17.528 -0.1343  0.0006  0.1342
  178MPD1    H5 2772   2.153   3.355  17.513 -2.5086  1.7432 -2.1020
  178MPD1    N1 2773   1.790   3.059   0.110  0.2305  0.1736  0.6078
  178MPD1    H6 2774   1.753   3.087   0.200  0.7363  2.1801  0.1854
  178MPD1    H7 2775   1.717   3.046   0.040 -0.1428  2.6305  0.5725
  179MPD1     C 2776   2.003   2.099  15.770  0.7346  1.2913 -0.0932
  179MPD1    C1 2777   1.905   2.068  15.860 -0.4707  0.7097 -0.0525
  179MPD1    C2 2778   1.883   1.937  15.896  0.1510 -0.3595 -0.2514
  179MPD1    C3 2779   1.966   1.839  15.849 -0.7934 -0.1778 -0.0527
  179MPD1    C4 2780   2.071   1.867  15.759  0.3696 -0.2443 -0.1561
  179MPD1    C5 2781   2.095   2.004  15.728 -0.1281  0.2425  0.8123
  179MPD1     H 2782   1.807   1.915  15.971 -0.3153 -0.4967 -0.7665
  179MPD1    H1 2783   2.141   1.789  15.732  0.9929  0.2720 -0.0423
  179MPD1    H2 2784   2.011   2.197  15.724 -1.6121  0.2319 -2.7332
  179MPD1    H3 2785   2.177   2.026  15.661 -0.7365  0.9996  0.3300
  179MPD1     N 2786   1.957   1.703  15.883 -0.5914 -0.0679 -0.5277
  179MPD1    H5 2787   2.011   1.634  15.830 -2.3597 -1.4866 -0.4902
  179MPD1    N1 2788   1.812   2.170  15.896  0.3614  0.2299 -0.3239
  179MPD1    H6 2789   1.777   2.150  15.990 -0.4050 -0.1778 -0.6937
  179MPD1    H7 2790   1.854   2.262  15.893 -0.8324  0.7763 -0.5562
  180MPD1     C 2791   2.426   2.636  14.808  0.5405 -0.1713 -0.4752
  180MPD1    C1 2792   2.413   2.641  14.672  0.3174 -0.4248  0.2885
  180MPD1    C2 2793   2.287   2.647  14.614  0.0560  0.2740 -0.3945
  180MPD1    C3 2794   2.178   2.643  14.695  0.9245  0.1125  0.5186
  180MPD1    C4 2795   2.187   2.624  14.833 -0.6350  0.1717  0.2943
  180MPD1    C5 2796   2.315   2.636  14.885 -0.5820 -0.0795 -0.0103
  180MPD1     H 2797   2.282   2.674  14.509  0.1086  0.5360 -0.3272
  180MPD1    H1 2798   2.108   2.629  14.907 -0.6578  1.0910  0.2061
  180MPD1    H2 2799   2.521   2.651  14.858 -0.1174 -0.7370  0.9266
  180MPD1    H3 2800   2.331   2.635  14.992 -0.0120  1.2834 -0.0781
  180MPD1     N 2801   2.052   2.679  14.636 -0.3157  0.5553 -0.6524
  180MPD1    H5 2802   2.051   2.714  14.541 -1.0836 -0.2262 -0.9266
  180MPD1    N1 2803   2.537   2.665  14.597  0.2139 -0.5580 -0.7294
  180MPD1    H6 2804   2.613   2.617  14.645  1.8047  2.7309  0.0221
  180MPD1    H7 2805   2.533   2.619  14.506  0.8941  0.5103 -1.2953
  181MPD1     C 2806   2.803   3.737  10.209 -0.7431 -0.4002  0.3340
  181MPD1    C1 2807   2.826   3.718  10.076 -0.4026  0.0015  0.4685
  181MPD1    C2 2808   2.942   3.775  10.023 -0.2071  0.7015 -0.0499
  181MPD1    C3 2809   3.015   3.868  10.096 -0.0371  0.1463  0.0446
  181MPD1    C4 2810   2.967   3.906  10.219 -0.6285  0.0741 -0.1455
  181MPD1    C5 2811   2.868   3.835  10.280 -0.2468  0.1310 -0.6343
  181MPD1     H 2812   2.980   3.751   9.925 -1.3200 -2.2674  0.2578
  181MPD1    H1 2813   3.013   3.977  10.286  0.5786  0.1412 -1.0499
  181MPD1    H2 2814   2.736   3.671  10.263 -1.3360 -1.4957 -1.7416
  181MPD1    H3 2815   2.851   3.849  10.386 -0.4473 -2.4783 -0.3366
  181MPD1     N 2816   3.137   3.930  10.065 -0.2646 -1.0382  0.1461
  181MPD1    H5 2817   3.166   4.011  10.118  1.1090  0.7867 -3.3763
  181MPD1    N1 2818   2.764   3.619   9.995 -0.2942  0.0929 -0.9224
  181MPD1    H6 2819   2.664   3.612  10.014 -0.1428  0.8875  0.1896
  181MPD1    H7 2820   2.771   3.626   9.894  1.4976 -3.5031 -1.0545
  182MPD1     C 2821   4.675   3.286   1.322 -0.2060  0.2603  0.9477
  182MPD1    C1 2822   4.572   3.205   1.289 -0.3770  0.3403 -1.2001
  182MPD1    C2 2823   4.448   3.259   1.256 -0.1953 -0.0139  0.1928
  182MPD1    C3 2824   4.431   3.394   1.257 -0.2805  0.1617 -0.0741
  182MPD1    C4 2825   4.531   3.472   1.306  0.0860 -0.0882 -0.2709
  182MPD1    C5 2826   4.650   3.418   1.340  0.8494  0.5910  0.3998
  182MPD1     H 2827   4.363   3.194   1.241  1.0694 -1.2352 -1.7669
  182MPD1    H1 2828   4.515   3.579   1.319  0.4633  0.0901 -1.2931
  182MPD1    H2 2829   0.037   3.248   1.344  0.0115  0.3611  0.1245
  182MPD1    H3 2830   4.732   3.481   1.372  2.2618 -1.3618  0.6470
  182MPD1     N 2831   4.304   3.454   1.220  0.1403  0.5365  0.1938
  182MPD1    H5 2832   4.297   3.552   1.245  2.8308  0.8160 -0.1555
  182MPD1    N1 2833   4.601   3.065   1.257 -0.6471  0.6908 -0.0580
  182MPD1    H6 2834   4.668   3.029   1.325 -0.4654 -0.0688 -0.6380
  182MPD1    H7 2835   4.512   3.016   1.265  0.9880 -2.1460  1.1427
  183MPD1     C 2836   4.151   3.566   8.856  1.2317  0.1234 -0.1703
  183MPD1    C1 2837   4.243   3.587   8.955 -0.5224 -0.1109 -0.0151
  183MPD1    C2 2838   4.220   3.703   9.038 -0.0929 -0.2391  0.0561
  183MPD1    C3 2839   4.109   3.787   9.024  0.7256 -0.0801 -0.5749
  183MPD1    C4 2840   4.014   3.760   8.927  0.1709  0.0133 -0.0201
  183MPD1    C5 2841   4.047   3.656   8.843  0.2279 -0.4780 -0.1952
  183MPD1     H 2842   4.295   3.730   9.112 -1.8648  0.6757  1.5033
  183MPD1    H1 2843   3.930   3.825   8.905 -0.4437  0.5583  3.9739
  183MPD1    H2 2844   4.169   3.478   8.795 -0.0106 -1.2813  1.5061
  183MPD1    H3 2845   3.975   3.637   8.764  1.3853  2.7468 -2.0608
  183MPD1     N 2846   4.092   3.891   9.120 -0.2787 -0.3569 -0.1092
  183MPD1    H5 2847   4.158   3.893   9.197 -2.0171  1.0001  1.3484
  183MPD1    N1 2848   4.359   3.514   8.956  0.5793 -0.1285 -0.2721
  183MPD1    H6 2849   4.342   3.418   8.926 -0.5361 -0.2489  0.7838
  183MPD1    H7 2850   4.397   3.502   9.050 -2.2449  4.3068  1.3838
  184MPD1     C 2851   2.903   2.068  10.437 -1.0489 -0.5581 -0.9026
  184MPD1    C1 2852   3.018   2.150  10.435  0.2829  0.5296 -0.3636
  184MPD1    C2 2853   3.128   2.096  10.380  0.4261  0.1452 -0.7571
  184MPD1    C3 2854   3.124   1.979  10.298  0.6475 -0.2242 -0.6290
  184MPD1    C4 2855   3.006   1.912  10.303 -0.7357  0.4300 -0.1561
  184MPD1    C5 2856   2.897   1.950  10.375 -0.4161 -0.0502 -0.3229
  184MPD1     H 2857   3.216   2.159  10.377 -0.3363  1.2672  0.2340
  184MPD1    H1 2858   2.993   1.827  10.236  0.8002 -1.6175  2.1603
  184MPD1    H2 2859   2.828   2.093  10.512 -0.8483 -0.8985 -0.5886
  184MPD1    H3 2860   2.811   1.890  10.399  0.2019 -1.2052 -0.9923
  184MPD1     N 2861   3.231   1.933  10.221  0.3387  0.5516  0.5641
  184MPD1    H5 2862   3.229   1.838  10.187 -0.7444  1.2176 -1.2154
  184MPD1    N1 2863   3.015   2.258  10.522 -0.4545  0.4155  0.3244
  184MPD1    H6 2864   3.080   2.336  10.517 -1.8982  1.6779  1.1220
  184MPD1    H7 2865   2.920   2.291  10.541 -0.7987 -0.6598  0.4718
  185MPD1     C 2866   3.018   1.637   9.443  0.6846 -0.5560  0.2734
  185MPD1    C1 2867   3.150   1.649   9.423 -0.2837  0.1001  0.2089
  185MPD1    C2 2868   3.230   1.691   9.524  0.3239 -0.1856 -0.1161
  185MPD1    C3 2869   3.174   1.714   9.650 -0.1335  0.1831 -0.7682
  185MPD1    C4 2870   3.035   1.700   9.670  0.4344 -0.6671 -0.3208
  185MPD1    C5 2871   2.962   1.664   9.563 -0.5507  0.2817 -0.2877
  185MPD1     H 2872   3.337   1.699   9.508  0.1066  1.8474 -0.4684
  185MPD1    H1 2873   2.986   1.718   9.765  0.5985  0.3829 -0.4313
  185MPD1    H2 2874   2.961   1.625   9.351 -0.5720 -1.4214  1.1714
  185MPD1    H3 2875   2.855   1.648   9.567 -0.3383 -0.8722  0.6803
  185MPD1     N 2876   3.246   1.748   9.772  0.3197 -0.0921 -0.4488
  185MPD1    H5 2877   3.186   1.769   9.852  0.1147 -1.0864 -0.3460
  185MPD1    N1 2878   3.198   1.647   9.286  0.1381 -0.0581  0.4549
  185MPD1    H6 2879   3.293   1.611   9.278 -0.2035 -0.3107 -2.4223
  185MPD1    H7 2880   3.139   1.599   9.219  1.4696 -1.5291  0.3114
  186MPD1     C 2881   2.308   0.979  15.894  0.2537  0.4944  0.0374
  186MPD1    C1 2882   2.330   1.091  15.822  0.3356 -0.6113 -0.0415
  186MPD1    C2 2883   2.306   1.216  15.873 -0.4507 -1.1753  0.1459
  186MPD1    C3 2884   2.277   1.230  16.005  0.1723  0.6711  0.0503
  186MPD1    C4 2885   2.269   1.115  16.080 -0.0547  0.5253 -0.1952
  186MPD1    C5 2886   2.277   0.990  16.026 -0.0638 -0.6605 -0.7538
  186MPD1     H 2887   2.325   1.300  15.807 -0.0841  0.1082  1.8786
  186MPD1    H1 2888   2.251   1.120  16.187  0.7450 -0.6378  0.0002
  186MPD1    H2 2889   2.288   0.886  15.843  1.0106  0.9061 -1.0215
  186MPD1    H3 2890   2.249   0.903  16.085  2.3848 -1.1459 -0.3309
  186MPD1     N 2891   2.259   1.356  16.071 -0.6093 -0.6157  0.1446
  186MPD1    H5 2892   2.252   1.359  16.173  0.1463  1.0420  0.1452
  186MPD1    N1 2893   2.339   1.068  15.684  0.5891  0.0439 -0.1440
  186MPD1    H6 2894   2.407   1.133  15.647 -0.6445  1.7718  0.6291
  186MPD1    H7 2895   2.367   0.973  15.659  1.1183  0.8802 -2.7312
  187MPD1     C 2896   1.336   3.989   0.025 -0.1722  0.1600 -0.3091
  187MPD1    C1 2897   1.279   3.868  17.738  0.3688  0.2244  1.0754
  187MPD1    C2 2898   1.275   3.836  17.602  0.2932 -0.2045  0.6900
  187MPD1    C3 2899   1.326   3.925  17.508 -0.3120 -0.4732  0.2476
  187MPD1    C4 2900   1.386   4.046  17.545  1.1843 -0.7316  0.4624
  187MPD1    C5 2901   1.393   4.076  17.683  0.0828 -0.1598  0.4880
  187MPD1     H 2902   1.222   3.746  17.576  1.1350 -0.5619  0.1888
  187MPD1    H1 2903   1.420   4.117  17.471  2.2881 -0.7817  0.9115
  187MPD1    H2 2904   1.332   4.028   0.126  0.8403 -0.6128  0.0307
  187MPD1    H3 2905   1.435   4.166  17.724  2.1604 -0.7456 -0.3903
  187MPD1     N 2906   1.321   3.911  17.369  0.2195  0.2704  0.0454
  187MPD1    H5 2907   1.361   3.982  17.308 -0.1927 -1.0501 -1.7856
  187MPD1    N1 2908   1.210   3.789   0.088  0.7095  0.0375 -0.2208
  187MPD1    H6 2909   1.207   3.689   0.069 -0.1002  0.2832 -1.4125
  187MPD1    H7 2910   1.220   3.819   0.184  1.9232  0.3725 -0.4525
  188MPD1     C 2911   1.244   3.725  10.374  0.2996  0.5281  0.2699
  188MPD1    C1 2912   1.234   3.696  10.234 -0.4810  0.2076 -0.3033
  188MPD1    C2 2913   1.218   3.564  10.195  0.1962 -0.4642  0.0034
  188MPD1    C3 2914   1.227   3.459  10.287  0.2523 -0.2350 -0.4662
  188MPD1    C4 2915   1.258   3.493  10.416 -0.2284  0.1490 -0.4638
  188MPD1    C5 2916   1.260   3.623  10.460 -0.2437 -0.8067 -0.6256
  188MPD1     H 2917   1.210   3.550  10.088 -1.7386 -0.6350  0.1707
  188MPD1    H1 2918   1.259   3.427  10.502 -2.4562  1.1548  0.3398
  188MPD1    H2 2919   1.227   3.826  10.410  2.3238  0.8798  0.1954
  188MPD1    H3 2920   1.273   3.640  10.566 -2.5863  0.7621 -0.5723
  188MPD1     N 2921   1.202   3.323  10.252  0.1598 -0.4538  0.5165
  188MPD1    H5 2922   1.229   3.249  10.316 -0.9543 -1.8641 -0.6495
  188MPD1    N1 2923   1.226   3.800  10.138  0.9425  0.3110 -0.1560
  188MPD1    H6 2924   1.266   3.778  10.048 -0.3862  3.1894 -1.4379
  188MPD1    H7 2925   1.276   3.882  10.172 -0.8616  0.3756  2.4255
  189MPD1     C 2926   2.964   4.612   0.492  0.5782 -0.4300  0.0138
  189MPD1    C1 2927   2.837   4.557   0.494  0.1666  0.1055 -0.2948
  189MPD1    C2 2928   2.736   4.633   0.442 -0.1655 -0.2609  0.2337
  189MPD1    C3 2929   2.758   0.016   0.368 -0.5688  0.2830  0.1489
  189MPD1    C4 2930   2.887   0.065   0.360  0.3065  0.7246  0.4758
  189MPD1    C5 2931   2.980   4.732   0.428  0.2525  0.2777 -0.3134
  189MPD1     H 2932   2.631   4.606   0.450  0.7604 -3.0062  3.1023
  189MPD1    H1 2933   2.922   0.157   0.316  1.1185  0.3095  0.2581
  189MPD1    H2 2934   3.046   4.559   0.539  1.6991 -0.6595 -2.1805
  189MPD1    H3 2935   3.080   0.036   0.422  0.6140 -0.6376 -0.6994
  189MPD1     N 2936   2.650   0.074   0.296  0.0473 -0.5187 -0.4851
  189MPD1    H5 2937   2.564   0.022   0.308 -0.2455 -0.4662 -2.4097
  189MPD1    N1 2938   2.805   4.442   0.571 -0.4395  0.1434 -0.7784
  189MPD1    H6 2939   2.879   4.374   0.590 -0.1433  0.1915 -1.8001
  189MPD1    H7 2940   2.724   4.390   0.539 -2.6596  1.5432  2.4327
  190MPD1     C 2941   1.336   2.227  15.230 -0.8244 -0.3398  0.3989
  190MPD1    C1 2942   1.427   2.241  15.130  0.0544 -0.8352 -0.0862
  190MPD1    C2 2943   1.543   2.313  15.156 -0.1401  0.4477  0.0703
  190MPD1    C3 2944   1.579   2.335  15.287 -0.3733  0.4038 -0.2029
  190MPD1    C4 2945   1.494   2.309  15.385  0.1290 -0.6281 -0.3160
  190MPD1    C5 2946   1.375   2.251  15.359  0.1565 -1.0428 -0.0478
  190MPD1     H 2947   1.611   2.325  15.072  0.0846  0.5228  0.2631
  190MPD1    H1 2948   1.511   2.334  15.489  0.0163 -2.7273  0.2160
  190MPD1    H2 2949   1.239   2.181  15.211  0.1353 -1.6394 -1.3848
  190MPD1    H3 2950   1.309   2.237  15.443  2.0011  3.2695  2.1084
  190MPD1     N 2951   1.708   2.410  15.307  0.6735  0.5239 -0.1356
  190MPD1    H5 2952   1.761   2.427  15.222  3.5378  0.1217  1.5685
  190MPD1    N1 2953   1.395   2.200  15.001 -0.3818 -0.6358 -0.4132
  190MPD1    H6 2954   1.468   2.193  14.931  0.6448 -0.3019  0.6127
  190MPD1    H7 2955   1.324   2.127  14.991  0.3557 -1.5732  1.1378
  191MPD1     C 2956   0.510   0.599  13.007  0.1073 -0.2115 -0.1629
  191MPD1    C1 2957   0.549   0.719  12.956  0.6758 -0.1773  0.0449
  191MPD1    C2 2958   0.623   0.717  12.838 -0.6735  0.0330 -0.2093
  191MPD1    C3 2959   0.651   0.591  12.776 -0.0304 -0.8034 -0.1552
  191MPD1    C4 2960   0.604   0.476  12.830 -0.2125 -0.0420  0.3935
  191MPD1    C5 2961   0.528   0.484  12.942 -0.2308  0.0849  0.0189
  191MPD1     H 2962   0.670   0.809  12.806 -3.2788  1.4499  0.0180
  191MPD1    H1 2963   0.626   0.383  12.778 -0.3569  0.5472 -0.7132
  191MPD1    H2 2964   0.453   0.594  13.099  0.5233  1.8061  0.2176
  191MPD1    H3 2965   0.485   0.390  12.977  0.2445  0.1822  0.8804
  191MPD1     N 2966   0.732   0.596  12.659  0.2535  0.0906  0.3988
  191MPD1    H5 2967   0.753   0.678  12.602 -2.4578  0.7208  0.3452
  191MPD1    N1 2968   0.534   0.837  13.030 -0.2603  0.0572  0.7595
  191MPD1    H6 2969   0.556   0.922  12.979 -2.2291  1.7539  2.7238
  191MPD1    H7 2970   0.451   0.850  13.088  0.0362 -0.7602  1.3730
  192MPD1     C 2971   0.786   0.130  11.792 -0.0441 -0.4565  0.3104
  192MPD1    C1 2972   0.698   0.217  11.852 -0.2782 -0.0287  0.2537
  192MPD1    C2 2973   0.746   0.305  11.942  0.2962  0.2854 -0.1901
  192MPD1    C3 2974   0.877   0.295  11.990 -0.3030 -0.3312  0.1868
  192MPD1    C4 2975   0.960   0.197  11.936 -0.1653  0.0054 -0.1804
  192MPD1    C5 2976   0.910   0.120  11.842  0.2426 -0.1821  0.0117
  192MPD1     H 2977   0.686   0.384  11.985 -1.9131 -0.4305 -1.9335
  192MPD1    H1 2978   1.061   0.192  11.974 -0.7262  0.1210  1.3151
  192MPD1    H2 2979   0.756   0.059  11.716  0.9488 -2.5601  1.8965
  192MPD1    H3 2980   0.976   0.042  11.804  0.4365 -0.0432  0.0600
  192MPD1     N 2981   0.928   0.384  12.085 -0.0066 -0.2161 -0.3135
  192MPD1    H5 2982   1.014   0.356  12.131 -0.9289 -0.1159  1.4746
  192MPD1    N1 2983   0.576   0.239  11.796 -0.3486  0.6112  0.2272
  192MPD1    H6 2984   0.514   0.271  11.870  0.9265  0.6047  1.2859
  192MPD1    H7 2985   0.541   0.153  11.753 -0.4978  1.2246 -0.8779
  193MPD1     C 2986   0.642   4.591  15.983 -0.5028 -0.0859  0.2355
  193MPD1    C1 2987   0.617   4.722  15.959  0.1925  0.0166 -0.0043
  193MPD1    C2 2988   0.672   0.079  16.046 -0.6030  0.3569 -0.0464
  193MPD1    C3 2989   0.765   0.044  16.140  0.0013  0.0280 -0.0707
  193MPD1    C4 2990   0.814   4.653  16.134 -0.4686 -0.0929 -0.0252
  193MPD1    C5 2991   0.743   4.558  16.068 -0.4930 -0.9948 -0.0780
  193MPD1     H 2992   0.642   0.182  16.035  0.3268  0.9000  2.5095
  193MPD1    H1 2993   0.901   4.620  16.191 -1.2665 -0.0267  1.2228
  193MPD1    H2 2994   0.586   4.521  15.922 -1.1608 -1.1722  2.1003
  193MPD1    H3 2995   0.767   4.453  16.077 -2.0622 -1.5380 -2.4368
  193MPD1     N 2996   0.836   0.133  16.222  0.0866  0.0916 -0.4905
  193MPD1    H5 2997   0.894   0.089  16.293 -0.5020 -1.3526 -0.9104
  193MPD1    N1 2998   0.505   0.017  15.872 -0.2293  0.5575 -0.3745
  193MPD1    H6 2999   0.527   0.103  15.823 -1.2775  0.9620 -0.1356
  193MPD1    H7 3000   0.476   4.682  15.806  1.9053 -1.2046  0.6021
  194MPD1     C 3001   2.902   2.596  17.354 -0.3464  0.6603 -0.3392
  194MPD1    C1 3002   2.918   2.561  17.222  0.0439 -0.2746  0.2475
  194MPD1    C2 3003   3.005   2.459  17.185  0.0124 -0.2508 -0.3401
  194MPD1    C3 3004   3.071   2.390  17.283  0.1258  0.1135 -0.2934
  194MPD1    C4 3005   3.049   2.422  17.413  0.4328  0.3463  0.7082
  194MPD1    C5 3006   2.966   2.524  17.452  0.1924 -0.5168  0.9580
  194MPD1     H 3007   3.016   2.431  17.081  0.2879  0.6005 -0.5372
  194MPD1    H1 3008   3.108   2.387  17.497 -0.8339 -2.9619  0.2112
  194MPD1    H2 3009   2.843   2.683  17.381  0.9998  1.2910  0.5530
  194MPD1    H3 3010   2.961   2.561  17.554  1.6057 -0.4477  1.0112
  194MPD1     N 3011   3.167   2.291  17.250  0.1436  0.2140 -0.2081
  194MPD1    H5 3012   3.229   2.252  17.320 -2.0319  0.2746  1.7603
  194MPD1    N1 3013   2.868   2.645  17.128 -0.2519 -0.0694  0.4241
  194MPD1    H6 3014   2.841   2.597  17.042 -4.1707  1.5921  0.7457
  194MPD1    H7 3015   2.783   2.696  17.151  0.4246  1.9082 -1.4023
  195MPD1     C 3016   0.043   4.210   0.537  0.5687 -0.9324 -0.4491
  195MPD1    C1 3017   4.720   4.116   0.467  0.4500  0.3380  0.1284
  195MPD1    C2 3018   0.068   4.029   0.402  0.1371  0.4476 -0.2729
  195MPD1    C3 3019   0.203   4.047   0.381 -0.4949  0.9973 -0.1077
  195MPD1    C4 3020   0.262   4.155   0.443  0.5719  0.5061  0.1034
  195MPD1    C5 3021   0.178   4.233   0.518 -0.5871  0.4361 -0.1236
  195MPD1     H 3022   0.021   3.940   0.360  2.0410 -0.9791  0.6174
  195MPD1    H1 3023   0.365   4.188   0.433  0.1604  1.9192  0.4699
  195MPD1    H2 3024   4.729   4.283   0.599  0.7186 -1.5729  0.4096
  195MPD1    H3 3025   0.222   4.324   0.557  0.4605  1.2009 -3.0742
  195MPD1     N 3026   0.286   3.950   0.324 -0.7100 -0.1670 -0.2731
  195MPD1    H5 3027   0.382   3.974   0.345 -0.3600 -0.8683 -1.0618
  195MPD1    N1 3028   4.587   4.081   0.507 -0.5454 -0.3351  0.3380
  195MPD1    H6 3029   4.536   4.047   0.426 -1.5396  0.4346  0.6384
  195MPD1    H7 3030   4.534   4.162   0.538  0.3592  0.4868 -0.2815
  196MPD1     C 3031   4.504   2.420   0.514  0.1408 -0.4946  1.2297
  196MPD1    C1 3032   4.475   2.549   0.463  0.3863 -0.2851  0.2219
  196MPD1    C2 3033   4.547   2.660   0.504 -0.2580 -0.2932  0.2058
  196MPD1    C3 3034   4.636   2.645   0.608  0.3239 -0.3201 -0.3655
  196MPD1    C4 3035   4.635   2.522   0.678  0.1058  0.0740  0.1896
  196MPD1    C5 3036   4.587   2.410   0.623 -0.4320 -0.7675  0.0597
  196MPD1     H 3037   4.530   2.753   0.453  1.3377  0.3402  0.8234
  196MPD1    H1 3038   4.689   2.513   0.771  0.1088  3.1894  0.4848
  196MPD1    H2 3039   4.455   2.331   0.476  0.0221 -0.4248  1.2179
  196MPD1    H3 3040   4.593   2.310   0.666  0.4289 -1.1426 -0.9072
  196MPD1     N 3041   4.716   2.750   0.655 -0.1555  0.3370 -0.2261
  196MPD1    H5 3042   0.034   2.724   0.736  0.8929 -1.2331 -1.4360
  196MPD1    N1 3043   4.399   2.554   0.345 -0.1983  0.4266 -0.0542
  196MPD1    H6 3044   4.336   2.475   0.335  0.7860 -0.6768  2.6972
  196MPD1    H7 3045   4.349   2.641   0.325  0.6337  1.2589  1.4844
  197MPD1     C 3046   4.278   0.297  17.352  0.4105 -0.3087  0.5117
  197MPD1    C1 3047   4.389   0.373  17.347 -0.5740 -0.4046  0.4125
  197MPD1    C2 3048   4.387   0.496  17.285 -0.4472  0.3561 -0.1376
  197MPD1    C3 3049   4.272   0.538  17.227  0.0989 -0.0944  0.1863
  197MPD1    C4 3050   4.161   0.456  17.232 -0.3022  0.2004 -0.6183
  197MPD1    C5 3051   4.163   0.338  17.299  0.3140  0.2740  0.3173
  197MPD1     H 3052   4.485   0.542  17.284  1.0189 -2.6354  2.7940
  197MPD1    H1 3053   4.068   0.478  17.181 -1.0568  1.0298  1.1200
  197MPD1    H2 3054   4.278   0.200  17.401 -2.3425 -0.2400  0.6724
  197MPD1    H3 3055   4.076   0.274  17.310  1.2839 -1.6926 -3.3610
  197MPD1     N 3056   4.263   0.654  17.148  0.0196  0.4114 -0.0339
  197MPD1    H5 3057   4.172   0.669  17.106 -0.1191 -0.5980 -0.1047
  197MPD1    N1 3058   4.502   0.337  17.419  0.2196 -0.1654 -0.1745
  197MPD1    H6 3059   4.593   0.373  17.391 -1.5724  2.3736 -2.7356
  197MPD1    H7 3060   4.514   0.236  17.413 -0.3266 -0.2686  0.5227
  198MPD1     C 3061   1.772   4.212  14.571 -0.3124  0.0591  0.1343
  198MPD1    C1 3062   1.732   4.328  14.633 -0.0754  0.1395  0.0553
  198MPD1    C2 3063   1.691   4.314  14.766 -0.0439 -0.7610  0.4485
  198MPD1    C3 3064   1.710   4.198  14.833 -0.6343  0.2977 -0.2304
  198MPD1    C4 3065   1.749   4.082  14.765 -0.1159  0.7428 -0.0753
  198MPD1    C5 3066   1.780   4.094  14.634 -0.5267  0.3111 -0.3272
  198MPD1     H 3067   1.657   4.400  14.823 -0.8030 -0.5259 -0.3659
  198MPD1    H1 3068   1.781   3.985  14.803 -1.0364 -0.7860 -3.1860
  198MPD1    H2 3069   1.785   4.220  14.464  0.3516 -2.2578  0.0322
  198MPD1    H3 3070   1.806   4.007  14.575  0.8062  0.8335 -0.5182
  198MPD1     N 3071   1.705   4.209  14.979 -0.3335 -0.4307  0.3867
  198MPD1    H5 3072   1.688   4.302  15.015 -1.5308 -0.6194  0.2859
  198MPD1    N1 3073   1.732   4.444  14.560  0.5454  0.4708  0.1946
  198MPD1    H6 3074   1.711   4.419  14.464 -0.2747 -0.4895  0.6266
  198MPD1    H7 3075   1.664   4.510  14.596  2.0437  1.0942  1.8853
  199MPD1     C 3076   4.354   4.501   9.764 -0.6153 -0.5799  0.6091
  199MPD1    C1 3077   4.273   4.387   9.738  0.0333 -0.4401  0.1674
  199MPD1    C2 3078   4.138   4.405   9.750 -0.7192 -0.1895 -0.2705
  199MPD1    C3 3079   4.073   4.525   9.753  0.6796  0.0516 -0.5417
  199MPD1    C4 3080   4.153   4.631   9.762  0.0149  0.0889  0.8649
  199MPD1    C5 3081   4.291   4.621   9.771  0.0829  0.2677 -0.2010
  199MPD1     H 3082   4.077   4.315   9.748  0.9003 -1.3199  0.7785
  199MPD1    H1 3083   4.109   4.729   9.774  0.7158  0.6709 -1.3462
  199MPD1    H2 3084   4.460   4.490   9.786 -1.2770 -2.3282  2.8807
  199MPD1    H3 3085   4.356   4.706   9.791  0.8000 -0.3189 -0.0214
  199MPD1     N 3086   3.933   4.543   9.775  0.1685  0.3079 -0.2368
  199MPD1    H5 3087   3.891   4.634   9.788  3.2689  1.4258  1.8687
  199MPD1    N1 3088   4.329   4.258   9.747 -0.3752  0.1494  0.6758
  199MPD1    H6 3089   4.270   4.194   9.694 -1.3676  0.6426  1.1725
  199MPD1    H7 3090   4.423   4.240   9.712 -0.9129 -1.2037 -0.0792
  200MPD1     C 3091   2.898   4.189  13.930 -0.2649  0.6264  0.3831
  200MPD1    C1 3092   2.949   4.304  13.882 -0.5538 -0.5010 -0.5487
  200MPD1    C2 3093   2.952   4.414  13.969  0.0061  0.0191 -0.5211
  200MPD1    C3 3094   2.874   4.403  14.086 -0.1254  0.0117 -0.4330
  200MPD1    C4 3095   2.825   4.284  14.126 -0.1580  0.5440  0.1845
  200MPD1    C5 3096   2.839   4.173  14.051  0.0253  0.0256 -0.6890
  200MPD1     H 3097   3.013   4.500  13.944 -0.2498  0.2696 -0.2876
  200MPD1    H1 3098   2.780   4.271  14.224  1.8017  1.4537  1.2100
  200MPD1    H2 3099   2.898   4.103  13.864  2.4050 -1.5525  3.2111
  200MPD1    H3 3100   2.790   4.081  14.079 -0.1508  0.4876  0.4912
  200MPD1     N 3101   2.857   4.513  14.174  0.1931  0.4240  0.3806
  200MPD1    H5 3102   2.912   4.593  14.144  0.7991  0.1783  0.8447
  200MPD1    N1 3103   3.021   4.307  13.755  0.3134  0.2027 -0.3332
  200MPD1    H6 3104   2.980   4.243  13.688  0.9648  0.4243 -0.9412
  200MPD1    H7 3105   3.022   4.399  13.711  2.9644  0.7927  0.9517
  201MPD1     C 3106   4.651   3.913  13.002 -0.0396 -0.6361 -1.1738
  201MPD1    C1 3107   4.660   3.775  12.984  0.1226  0.5211  0.0090
  201MPD1    C2 3108   0.015   3.699  13.065  0.1661 -0.5919  0.0105
  201MPD1    C3 3109   0.102   3.755  13.150 -0.3582  0.2839 -0.3039
  201MPD1    C4 3110   0.090   3.892  13.171 -0.1142  0.4190  0.7130
  201MPD1    C5 3111   0.002   3.963  13.092 -0.5752 -0.3331 -0.5974
  201MPD1     H 3112   0.015   3.591  13.052 -0.5443 -0.5695 -0.2015
  201MPD1    H1 3113   0.154   3.938  13.246 -0.0765  0.6839  0.5162
  201MPD1    H2 3114   4.572   3.966  12.950  1.0326 -0.0478 -2.2136
  201MPD1    H3 3115   0.003   4.069  13.118 -0.2845 -0.4147 -0.2690
  201MPD1     N 3116   0.182   3.670  13.226  0.0574 -0.1871  0.4477
  201MPD1    H5 3117   0.169   3.569  13.224  0.0301 -0.2468  3.5912
  201MPD1    N1 3118   4.569   3.708  12.903  0.1703 -0.1758  0.1539
  201MPD1    H6 3119   4.510   3.773  12.852 -1.3457 -1.7128 -0.0297
  201MPD1    H7 3120   4.606   3.627  12.853 -0.0780  0.1583 -0.5690
  202MPD1     C 3121   3.985   2.715   9.094 -0.2441 -0.6784  0.1324
  202MPD1    C1 3122   3.977   2.854   9.093 -0.6347  0.2718  0.3579
  202MPD1    C2 3123   4.038   2.915   9.200  0.3206 -0.0627 -0.1979
  202MPD1    C3 3124   4.056   2.837   9.317  0.1252  0.0906 -0.2366
  202MPD1    C4 3125   4.027   2.704   9.315 -0.2477  0.6458 -0.5192
  202MPD1    C5 3126   4.012   2.642   9.203  0.3899 -0.7673 -0.3973
  202MPD1     H 3127   4.058   3.021   9.211  1.3043 -0.1295 -1.3900
  202MPD1    H1 3128   4.032   2.643   9.404 -3.0193  0.6562 -0.3629
  202MPD1    H2 3129   3.951   2.654   9.011 -0.3788 -2.7663  1.7439
  202MPD1    H3 3130   3.988   2.536   9.198 -2.0016 -0.2848  0.5258
  202MPD1     N 3131   4.105   2.884   9.443 -0.0500 -0.0630 -0.0967
  202MPD1    H5 3132   4.118   2.813   9.515  0.7471  1.8435  1.6527
  202MPD1    N1 3133   3.979   2.922   8.971  0.6617 -0.1861  0.2930
  202MPD1    H6 3134   3.934   2.874   8.893  2.2226  0.0380 -0.7356
  202MPD1    H7 3135   3.949   3.020   8.972 -0.7677 -0.6271  0.1198
  203MPD1     C 3136   3.393   4.424  12.456 -0.3870  0.2649 -0.2126
  203MPD1    C1 3137   3.385   4.343  12.352 -0.0237 -0.6784  0.2315
  203MPD1    C2 3138   3.482   4.237  12.336  0.0423 -0.3089  0.3773
  203MPD1    C3 3139   3.594   4.222  12.420  0.0564  0.4581 -0.1466
  203MPD1    C4 3140   3.598   4.305  12.527  0.6472  0.1971 -0.2293
  203MPD1    C5 3141   3.493   4.399  12.544 -0.4976  0.2802  0.2654
  203MPD1     H 3142   3.469   4.176  12.247 -1.6099 -1.1193  1.1716
  203MPD1    H1 3143   3.679   4.301  12.599 -0.0190  1.0121  0.5617
  203MPD1    H2 3144   3.321   4.500  12.483 -0.2577  0.7487 -1.1949
  203MPD1    H3 3145   3.513   4.481  12.612 -0.1779  0.1976  0.2698
  203MPD1     N 3146   3.695   4.128  12.382 -0.3150 -0.2635  0.1716
  203MPD1    H5 3147   3.669   4.048  12.326 -3.0526  0.7370  0.0258
  203MPD1    N1 3148   3.275   4.358  12.269  0.1562 -0.2228 -0.1799
  203MPD1    H6 3149   3.240   4.453  12.257  1.3617  0.1762 -0.5355
  203MPD1    H7 3150   3.295   4.321  12.177 -1.4438  1.3811 -1.1805
  204MPD1     C 3151   2.857   1.226  17.639 -0.5351 -0.0914  0.4962
  204MPD1    C1 3152   2.961   1.275  17.560  0.2725 -0.1998  0.6358
  204MPD1    C2 3153   3.078   1.195  17.549 -0.3183  0.1443  0.0893
  204MPD1    C3 3154   3.102   1.104  17.642 -0.5518  0.3399 -0.5868
  204MPD1    C4 3155   3.009   1.081   0.000 -0.2372 -1.6611 -0.1418
  204MPD1    C5 3156   2.887   1.135  17.741 -1.0509 -0.3549 -0.5136
  204MPD1     H 3157   3.149   1.214  17.469  2.9011 -1.0955  2.7204
  204MPD1    H1 3158   3.024   1.019   0.088  1.0570 -0.3897  0.5602
  204MPD1    H2 3159   2.760   1.273  17.630 -0.2231  0.9067  2.3322
  204MPD1    H3 3160   2.817   1.105   0.071 -0.9813  0.4108 -0.1595
  204MPD1     N 3161   3.221   1.022  17.638 -0.9211 -0.2946  0.1166
  204MPD1    H5 3162   3.272   1.046  17.554 -0.7517  1.3881  0.7054
  204MPD1    N1 3163   2.937   1.377  17.462 -0.0309 -0.2683  0.4535
  204MPD1    H6 3164   3.024   1.429  17.453 -0.0401 -0.3482 -0.0739
  204MPD1    H7 3165   2.854   1.430  17.487  1.1370  0.8323  2.0062
  205MPD1     C 3166   2.714   4.526  16.777  0.3321 -0.1636 -0.4272
  205MPD1    C1 3167   2.759   4.648  16.827 -0.6816 -0.5106 -0.1012
  205MPD1    C2 3168   2.805   4.645  16.958 -0.0167  0.2254  0.2041
  205MPD1    C3 3169   2.805   4.529  17.035 -0.6201 -0.7661 -0.7614
  205MPD1    C4 3170   2.747   4.416  16.985  0.7065  0.8055  0.7255
  205MPD1    C5 3171   2.705   4.412  16.854  0.4581 -0.3110 -0.6489
  205MPD1     H 3172   2.848   0.001  16.993 -0.5101  0.3317  0.5352
  205MPD1    H1 3173   2.755   4.322  17.039  1.2354  0.3460 -0.1420
  205MPD1    H2 3174   2.699   4.510  16.670 -2.1508 -3.7902  0.4648
  205MPD1    H3 3175   2.674   4.319  16.806  0.1409 -0.7468  0.4011
  205MPD1     N 3176   2.857   4.525  17.169 -0.0014  0.0915 -0.1282
  205MPD1    H5 3177   2.856   4.436  17.220 -0.9773 -1.0761 -2.1952
  205MPD1    N1 3178   2.781   0.031  16.753  0.4469 -0.0971  0.4393
  205MPD1    H6 3179   2.723   0.043  16.670 -1.2048 -0.6636  1.5152
  205MPD1    H7 3180   2.783   0.117  16.806  0.2464 -0.8760  1.7028
  206MPD1     C 3181   3.684   1.900  16.539 -0.2051 -0.1449  0.4466
  206MPD1    C1 3182   3.719   2.021  16.496  0.0393  0.0314  0.5076
  206MPD1    C2 3183   3.695   2.059  16.367 -0.3786  0.1387 -0.1060
  206MPD1    C3 3184   3.615   1.979  16.292 -0.6296  0.4154 -0.8294
  206MPD1    C4 3185   3.557   1.867  16.348  0.8018 -0.6450  0.5554
  206MPD1    C5 3186   3.591   1.825  16.470 -0.1645  0.0483 -0.1155
  206MPD1     H 3187   3.743   2.149  16.329  1.3008 -0.4669  0.5679
  206MPD1    H1 3188   3.488   1.803  16.294  0.1943  0.6452 -0.2090
  206MPD1    H2 3189   3.714   1.862  16.637 -1.6476  0.9454  1.3093
  206MPD1    H3 3190   3.564   1.725  16.501 -3.0753  0.6838 -0.6278
  206MPD1     N 3191   3.587   2.004  16.155 -0.0854 -0.0085 -0.3508
  206MPD1    H5 3192   3.534   1.938  16.100 -3.0294 -0.6249  3.2311
  206MPD1    N1 3193   3.826   2.086  16.557  0.0782 -0.2809 -0.1535
  206MPD1    H6 3194   3.809   2.087  16.657 -1.7388 -0.7301 -0.4688
  206MPD1    H7 3195   3.819   2.184  16.533  2.6769  0.0527  0.3796
  207MPD1     C 3196   1.376   4.154   9.492  0.0968  0.5117 -0.3828
  207MPD1    C1 3197   1.400   4.058   9.592 -0.0924 -1.0248 -0.0174
  207MPD1    C2 3198   1.459   4.098   9.710 -0.1747 -0.0348 -0.0477
  207MPD1    C3 3199   1.479   4.228   9.742  0.0437 -0.7949 -0.7365
  207MPD1    C4 3200   1.459   4.324   9.640 -0.3565  0.0481  0.4392
  207MPD1    C5 3201   1.413   4.283   9.515  0.4474  0.2687 -0.2098
  207MPD1     H 3202   1.491   4.014   9.771 -1.2729 -1.0748 -0.9086
  207MPD1    H1 3203   1.493   4.427   9.654 -0.9324  0.1590  1.0579
  207MPD1    H2 3204   1.349   4.126   9.391 -0.7382 -1.3400  0.3545
  207MPD1    H3 3205   1.410   4.357   9.435 -0.5433 -0.0307 -0.4512
  207MPD1     N 3206   1.535   4.267   9.864  0.2433 -0.0482  0.3724
  207MPD1    H5 3207   1.521   4.364   9.890 -1.5493 -0.1004 -0.4333
  207MPD1    N1 3208   1.389   3.924   9.557 -0.1571  1.1010  0.1152
  207MPD1    H6 3209   1.325   3.910   9.479 -0.1441 -1.3058  0.5196
  207MPD1    H7 3210   1.361   3.871   9.639  1.2386  0.8289  0.4188
  208MPD1     C 3211   3.883   4.085  17.268 -0.4091  0.2124  0.2754
  208MPD1    C1 3212   3.771   4.002  17.246  0.3498  0.3228 -0.0791
  208MPD1    C2 3213   3.722   3.929  17.354  0.1326 -0.5734 -0.1982
  208MPD1    C3 3214   3.765   3.952  17.478  0.1033  0.0717  1.2883
  208MPD1    C4 3215   3.867   4.042  17.500 -0.0068  0.2078  0.1391
  208MPD1    C5 3216   3.933   4.102  17.389  0.2989 -0.9170  0.1707
  208MPD1     H 3217   3.636   3.864  17.345 -0.2859  0.0602 -0.8599
  208MPD1    H1 3218   3.914   4.061  17.596  1.2984  4.5721 -1.3260
  208MPD1    H2 3219   3.939   4.140  17.194 -0.9217 -0.0843 -0.3431
  208MPD1    H3 3220   4.004   4.181  17.410  1.2509 -2.2092  1.7687
  208MPD1     N 3221   3.711   3.875  17.589 -0.3706  0.0495 -1.1336
  208MPD1    H5 3222   3.632   3.814  17.570 -0.3443  0.0686 -1.3076
  208MPD1    N1 3223   3.737   3.954  17.117 -0.1387 -0.1362 -0.0978
  208MPD1    H6 3224   3.745   4.037  17.059 -1.3424  0.9800  1.3161
  208MPD1    H7 3225   3.641   3.922  17.126  0.0901 -0.8471 -0.1602
  209MPD1     C 3226   1.743   4.125  11.827  0.5798  0.4582 -0.1505
  209MPD1    C1 3227   1.871   4.057  11.818 -0.3003  0.3519 -0.1350
  209MPD1    C2 3228   1.939   4.061  11.697 -0.0917  0.6460  0.6492
  209MPD1    C3 3229   1.887   4.115  11.584  0.0552 -0.3727  0.2628
  209MPD1    C4 3230   1.765   4.187  11.595 -1.2239 -0.1579  0.5671
  209MPD1    C5 3231   1.691   4.187  11.716 -1.2424  0.0227  0.4081
  209MPD1     H 3232   2.039   4.021  11.689 -0.4848 -0.1067 -0.5662
  209MPD1    H1 3233   1.714   4.227  11.508 -1.7632 -2.7017 -0.2823
  209MPD1    H2 3234   1.685   4.123  11.919 -0.0301  0.4200 -0.5320
  209MPD1    H3 3235   1.590   4.227  11.722 -2.1788 -2.6552  2.4513
  209MPD1     N 3236   1.959   4.092  11.466 -0.2499 -0.0857  0.3215
  209MPD1    H5 3237   2.036   4.026  11.462 -1.2888 -1.2464 -0.3544
  209MPD1    N1 3238   1.935   4.012  11.935  0.2428 -0.0294  0.0080
  209MPD1    H6 3239   1.865   3.961  11.988  1.0999 -0.5712  0.6312
  209MPD1    H7 3240   2.016   3.956  11.909 -2.6122 -2.3014 -3.8861
  210MPD1     C 3241   2.726   4.368  10.963 -0.1359 -0.4174  0.5096
  210MPD1    C1 3242   2.687   4.340  11.098 -0.1862 -0.2201 -0.7258
  210MPD1    C2 3243   2.577   4.267  11.119  0.5775  0.1665  0.0102
  210MPD1    C3 3244   2.494   4.227  11.012 -0.1060 -0.3528 -0.4256
  210MPD1    C4 3245   2.538   4.254  10.879  0.2467 -0.2162  0.0881
  210MPD1    C5 3246   2.648   4.327  10.858  1.1526  0.0474 -0.5092
  210MPD1     H 3247   2.549   4.230  11.218  2.6929 -0.2218  0.4557
  210MPD1    H1 3248   2.476   4.248  10.790  0.3461  1.9385 -0.1106
  210MPD1    H2 3249   2.813   4.423  10.929  0.7573 -1.5609  0.9447
  210MPD1    H3 3250   2.678   4.351  10.756 -1.2375  1.7143 -0.8282
  210MPD1     N 3251   2.377   4.152  11.029  0.2981  0.1020 -0.5024
  210MPD1    H5 3252   2.308   4.145  10.955  0.9099 -1.3270 -0.9232
  210MPD1    N1 3253   2.774   4.353  11.202 -0.5713 -0.6596  0.1816
  210MPD1    H6 3254   2.825   4.440  11.192  1.4389 -1.7342  1.1968
  210MPD1    H7 3255   2.727   4.350  11.293  0.1833 -1.1977  0.5473
  211MPD1     C 3256   3.580   3.368  16.798  0.2675 -0.3324  0.3722
  211MPD1    C1 3257   3.627   3.477  16.857  0.2571  0.3859 -0.0791
  211MPD1    C2 3258   3.551   3.592  16.880  0.1047 -0.5910 -0.7756
  211MPD1    C3 3259   3.416   3.587  16.835  0.1658 -0.3317 -0.5989
  211MPD1    C4 3260   3.373   3.476  16.771 -0.2677  0.0842  0.6255
  211MPD1    C5 3261   3.452   3.364  16.758  0.2234  0.4696  0.0646
  211MPD1     H 3262   3.598   3.683  16.917  0.9683 -1.6028  0.5904
  211MPD1    H1 3263   3.271   3.461  16.736  0.0551 -4.3110  1.4453
  211MPD1    H2 3264   3.646   3.282  16.791  3.1878  2.0893 -1.8008
  211MPD1    H3 3265   3.404   3.273  16.724  0.4604 -0.4331  2.1207
  211MPD1     N 3266   3.332   3.696  16.854  0.4332  0.5674 -0.0857
  211MPD1    H5 3267   3.364   3.772  16.913  0.1289  1.7240 -1.4154
  211MPD1    N1 3268   3.770   3.482  16.887  0.1035  0.4850  0.5940
  211MPD1    H6 3269   3.790   3.398  16.940  1.6808  0.5003  0.0306
  211MPD1    H7 3270   3.804   3.561  16.940  0.8882  0.4430  0.1516
  212MPD1     C 3271   3.084   2.480  16.129  0.8684  0.2430 -0.4518
  212MPD1    C1 3272   2.981   2.548  16.194  0.3104 -0.1538 -0.0723
  212MPD1    C2 3273   2.904   2.473  16.282  0.3552 -0.5267  0.5313
  212MPD1    C3 3274   2.946   2.347  16.319  0.3684 -0.1272  0.2913
  212MPD1    C4 3275   3.055   2.285  16.260  0.4710  0.3950 -0.2128
  212MPD1    C5 3276   3.119   2.353  16.159 -0.4654  0.4605 -0.1136
  212MPD1     H 3277   2.810   2.518  16.315  0.6617 -1.1992  2.3462
  212MPD1    H1 3278   3.091   2.187  16.289  1.8383  0.4492 -1.7169
  212MPD1    H2 3279   3.133   2.526  16.045 -1.0875  1.9218 -0.6620
  212MPD1    H3 3280   3.198   2.297  16.110 -1.2703 -1.2584  0.5164
  212MPD1     N 3281   2.868   2.260  16.401 -0.0493 -0.2585 -0.2945
  212MPD1    H5 3282   2.902   2.164  16.399 -0.1574 -0.3319  1.3269
  212MPD1    N1 3283   2.931   2.663  16.133  0.3925 -0.2282 -0.2078
  212MPD1    H6 3284   3.002   2.722  16.090  1.1060 -0.2453  0.9612
  212MPD1    H7 3285   2.876   2.719  16.197 -0.9505 -1.2156 -0.4987
  213MPD1     C 3286   1.359   2.761  15.910  0.3964  0.3607 -0.3033
  213MPD1    C1 3287   1.430   2.878  15.884 -0.1097 -0.2394  1.4405
  213MPD1    C2 3288   1.383   2.948  15.771  0.8057  0.3663  0.1131
  213MPD1    C3 3289   1.256   2.925  15.721 -0.3457 -0.1739  0.8608
  213MPD1    C4 3290   1.181   2.821  15.762  0.2604 -0.2744  0.1513
  213MPD1    C5 3291   1.232   2.748  15.863  0.4162 -1.2806  0.0791
  213MPD1     H 3292   1.446   3.027  15.734 -0.0100  0.4334 -1.1356
  213MPD1    H1 3293   1.088   2.784  15.722  0.9336 -0.0292 -1.6498
  213MPD1    H2 3294   1.382   2.705  16.000  1.4356  0.0750 -0.7478
  213MPD1    H3 3295   1.185   2.661  15.909 -2.4151 -0.0686 -0.5002
  213MPD1     N 3296   1.206   3.013  15.618 -0.0249  0.3462 -0.0905
  213MPD1    H5 3297   1.263   3.096  15.606  0.9561 -0.0875  1.5424
  213MPD1    N1 3298   1.574   2.877  15.898  1.2940  0.1604  0.0652
  213MPD1    H6 3299   1.596   2.830  15.986  2.4708  0.6427  0.0216
  213MPD1    H7 3300   1.610   2.970  15.878  0.6220  0.4866  0.3476
  214MPD1     C 3301   0.464   2.879  15.014 -0.3821 -0.2264 -0.0664
  214MPD1    C1 3302   0.451   3.014  15.027  0.2985  0.4560  0.3275
  214MPD1    C2 3303   0.559   3.088  15.049 -0.1284 -0.3564 -0.6727
  214MPD1    C3 3304   0.685   3.025  15.059  0.8115 -0.5431 -0.5974
  214MPD1    C4 3305   0.697   2.896  15.015  0.3410 -0.4747 -0.0094
  214MPD1    C5 3306   0.582   2.827  14.987 -0.2384 -0.2462  0.0612
  214MPD1     H 3307   0.552   3.195  15.068 -0.3604 -0.1734 -1.7857
  214MPD1    H1 3308   0.790   2.841  15.013  1.8924  2.0727  1.0977
  214MPD1    H2 3309   0.379   2.812  15.016  0.5789 -1.3806  2.0790
  214MPD1    H3 3310   0.593   2.725  14.950 -3.7845 -0.1588 -1.2342
  214MPD1     N 3311   0.804   3.076  15.108  0.6618  0.0275 -0.4533
  214MPD1    H5 3312   0.891   3.026  15.100  1.2920  1.1858 -0.9122
  214MPD1    N1 3313   0.326   3.068  15.045  0.0816 -0.6215 -0.0735
  214MPD1    H6 3314   0.318   3.158  14.997 -1.3737  0.3341  1.9140
  214MPD1    H7 3315   0.256   3.010  15.000 -0.5545  0.7273 -0.8345
  215MPD1     C 3316   1.299   3.472  11.110 -0.6780 -0.6617  0.1436
  215MPD1    C1 3317   1.210   3.543  11.035 -0.0408 -0.4777  0.4695
  215MPD1    C2 3318   1.153   3.654  11.093  0.6748 -0.3584 -0.6346
  215MPD1    C3 3319   1.209   3.705  11.215 -0.1550 -0.2139 -0.0210
  215MPD1    C4 3320   1.311   3.635  11.275 -0.1938 -0.0907 -0.3359
  215MPD1    C5 3321   1.361   3.524  11.215 -1.1451  0.3200 -0.5843
  215MPD1     H 3322   1.081   3.713  11.037  1.4833  2.0988  0.9154
  215MPD1    H1 3323   1.361   3.677  11.361 -0.8293  1.6767 -0.8077
  215MPD1    H2 3324   1.339   3.380  11.069 -0.0873 -0.9790  1.4354
  215MPD1    H3 3325   1.449   3.479  11.257 -2.3181 -0.6043  0.8718
  215MPD1     N 3326   1.141   3.817  11.274  0.1265  0.6083  0.1343
  215MPD1    H5 3327   1.082   3.876  11.216 -0.0024  0.2457 -0.1022
  215MPD1    N1 3328   1.167   3.509  10.908  0.1727  0.0325  0.3656
  215MPD1    H6 3329   1.147   3.588  10.847 -1.5463 -0.5437  0.2036
  215MPD1    H7 3330   1.235   3.456  10.852  1.7852 -1.0698  3.3878
  216MPD1     C 3331   2.742   2.754  16.737 -0.1837 -0.4985  0.6902
  216MPD1    C1 3332   2.831   2.657  16.700  0.2230 -0.3703 -0.6401
  216MPD1    C2 3333   2.820   2.530  16.762  0.2250  0.6376 -0.4871
  216MPD1    C3 3334   2.734   2.501  16.864  0.3098 -0.5750  0.2098
  216MPD1    C4 3335   2.644   2.603  16.899  0.2768  0.6252  0.0873
  216MPD1    C5 3336   2.647   2.726  16.829 -0.7155 -0.3222 -0.3692
  216MPD1     H 3337   2.903   2.463  16.745 -1.9021 -2.1807  0.2674
  216MPD1    H1 3338   2.580   2.591  16.985 -0.8607  2.8437 -0.4590
  216MPD1    H2 3339   2.750   2.856  16.700  1.4785 -1.4961 -1.6852
  216MPD1    H3 3340   2.586   2.806  16.869 -1.8748  0.0689 -2.9559
  216MPD1     N 3341   2.750   2.384  16.941  0.6299  0.2868  0.1797
  216MPD1    H5 3342   2.831   2.334  16.905 -0.9674 -1.3503 -1.1054
  216MPD1    N1 3343   2.936   2.688  16.614  0.3763 -0.7254 -0.0763
  216MPD1    H6 3344   2.971   2.607  16.562  0.3874 -1.5392  1.2212
  216MPD1    H7 3345   2.911   2.758  16.545 -0.0908 -0.1937  0.6364
  217MPD1     C 3346   2.597   3.870   8.831  0.5180 -0.1878  0.1476
  217MPD1    C1 3347   2.473   3.857   8.889  0.2806 -0.8298  0.1915
  217MPD1    C2 3348   2.434   3.734   8.938 -0.0929 -0.0001 -0.4111
  217MPD1    C3 3349   2.534   3.641   8.962  0.2617  0.2984 -0.2117
  217MPD1    C4 3350   2.664   3.665   8.924  0.1485  0.3731  0.2915
  217MPD1    C5 3351   2.691   3.778   8.856  0.2241  0.1913 -0.4416
  217MPD1     H 3352   2.333   3.728   8.976  1.2735 -2.3241  2.8315
  217MPD1    H1 3353   2.749   3.600   8.946  0.2787  1.0502  1.7437
  217MPD1    H2 3354   2.635   3.959   8.781 -3.3344  0.5263 -1.4941
  217MPD1    H3 3355   2.791   3.794   8.817  0.6983 -2.8599 -0.4259
  217MPD1     N 3356   2.512   3.523   9.033  0.1334 -0.5417 -0.6291
  217MPD1    H5 3357   2.585   3.453   9.036 -0.0132 -0.6846 -0.4314
  217MPD1    N1 3358   2.367   3.941   8.848 -0.0662 -0.1430 -0.3599
  217MPD1    H6 3359   2.302   3.944   8.927  0.4752 -3.6284  0.2023
  217MPD1    H7 3360   2.400   4.037   8.842  0.3879 -0.3287 -0.8298
  218MPD1     C 3361   0.309   4.650  13.457  0.3941  0.0012 -0.7808
  218MPD1    C1 3362   0.396   4.682  13.353 -0.0514  0.1994 -0.1796
  218MPD1    C2 3363   0.499   4.597  13.329 -0.5071 -0.0843 -0.3580
  218MPD1    C3 3364   0.516   4.485  13.411 -0.0826 -1.1727  0.2819
  218MPD1    C4 3365   0.426   4.457  13.510 -0.6008 -0.1664  0.0827
  218MPD1    C5 3366   0.329   4.541  13.541  0.4824  0.7377 -0.2289
  218MPD1     H 3367   0.571   4.628  13.254  0.8378 -1.2277  0.4573
  218MPD1    H1 3368   0.423   4.369  13.572 -3.2021 -1.0161 -1.2203
  218MPD1    H2 3369   0.220   4.708  13.479  1.3193  0.0584  2.8557
  218MPD1    H3 3370   0.258   4.512  13.619 -0.9228  0.7324 -1.5160
  218MPD1     N 3371   0.623   4.394  13.380 -0.3697  0.9732  0.1221
  218MPD1    H5 3372   0.682   4.419  13.301 -1.9400 -0.2644 -1.4456
  218MPD1    N1 3373   0.375   0.059  13.270 -0.1565 -0.0109  0.0933
  218MPD1    H6 3374   0.338   0.135  13.327  3.0724 -0.7505  3.2143
  218MPD1    H7 3375   0.464   0.092  13.234  0.7847 -1.9415  0.6322
  219MPD1     C 3376   1.571   4.241  13.050 -0.1874  0.0517 -0.2630
  219MPD1    C1 3377   1.471   4.329  13.025  0.5361 -0.3998  1.1151
  219MPD1    C2 3378   1.352   4.309  13.085  0.2879  0.0374  0.1063
  219MPD1    C3 3379   1.332   4.212  13.180  0.6591 -0.2504  0.4657
  219MPD1    C4 3380   1.433   4.122  13.211 -0.3174  0.0219  0.2596
  219MPD1    C5 3381   1.548   4.137  13.142  0.1663 -0.1982 -1.1184
  219MPD1     H 3382   1.285   4.391  13.063 -0.7052 -0.3643  1.6555
  219MPD1    H1 3383   1.430   4.035  13.275 -0.9587 -0.6880 -0.7245
  219MPD1    H2 3384   1.664   4.243  12.994 -0.1645  1.5279 -0.1720
  219MPD1    H3 3385   1.630   4.068  13.161  1.3768  1.5456  0.0215
  219MPD1     N 3386   1.219   4.186  13.262 -0.0690  0.5027 -0.1717
  219MPD1    H5 3387   1.229   4.100  13.315 -0.8631 -0.2656 -1.2624
  219MPD1    N1 3388   1.474   4.414  12.912  0.5160 -0.3397 -0.5593
  219MPD1    H6 3389   1.564   4.441  12.873  1.2706 -0.7634  0.8707
  219MPD1    H7 3390   1.429   4.504  12.922  0.2224 -0.4449 -0.9590
  220MPD1     C 3391   0.791   3.561  10.107 -0.8417 -0.2758 -0.8494
  220MPD1    C1 3392   0.661   3.586  10.063 -0.2545 -0.1639 -0.0213
  220MPD1    C2 3393   0.576   3.642  10.161  0.2743  0.1962 -0.0079
  220MPD1    C3 3394   0.610   3.671  10.292  0.1156  0.0745 -0.6237
  220MPD1    C4 3395   0.735   3.640  10.331 -0.2305 -0.1131 -0.3008
  220MPD1    C5 3396   0.820   3.580  10.241  0.0219 -0.0770 -0.4492
  220MPD1     H 3397   0.478   3.667  10.124  1.2692  2.0362 -1.4084
  220MPD1    H1 3398   0.776   3.628  10.431  2.8907 -0.9593 -1.6533
  220MPD1    H2 3399   0.867   3.532  10.035 -1.1379  0.7905 -1.5913
  220MPD1    H3 3400   0.920   3.548  10.267 -1.0840 -2.6572  0.6561
  220MPD1     N 3401   0.512   3.719  10.384  0.2627 -0.4426 -0.4489
  220MPD1    H5 3402   0.426   3.755  10.344 -0.2102 -0.6610  0.3836
  220MPD1    N1 3403   0.627   3.577   9.924  0.3336  0.0986 -0.0968
  220MPD1    H6 3404   0.527   3.565   9.907 -0.0960  0.5372  2.0659
  220MPD1    H7 3405   0.667   3.495   9.881 -0.0190 -0.3579  0.4397
  221MPD1     C 3406   2.897   3.996  15.605  0.2919  0.2106  0.6779
  221MPD1    C1 3407   2.980   3.889  15.615 -0.7055  0.3856 -0.0219
  221MPD1    C2 3408   2.955   3.811  15.730 -0.0596  0.1061 -0.2159
  221MPD1    C3 3409   2.883   3.849  15.841  0.8029 -0.3066  0.2030
  221MPD1    C4 3410   2.814   3.962  15.827  0.9453  0.2679  0.7510
  221MPD1    C5 3411   2.810   4.023  15.705  0.1295  1.0559 -0.3772
  221MPD1     H 3412   3.008   3.717  15.730 -2.0861 -1.0550 -0.3652
  221MPD1    H1 3413   2.741   3.989  15.902 -0.9969  0.8003 -1.3156
  221MPD1    H2 3414   2.889   4.052  15.513 -0.4060 -1.0910 -0.0574
  221MPD1    H3 3415   2.744   4.109  15.696  0.4250  1.2952 -0.2403
  221MPD1     N 3416   2.882   3.785  15.968 -0.0579 -0.1424 -0.0688
  221MPD1    H5 3417   2.827   3.829  16.041  1.4450 -0.1929  1.1028
  221MPD1    N1 3418   3.045   3.840  15.495  0.5739 -0.0709 -0.2797
  221MPD1    H6 3419   3.082   3.926  15.455  0.7532 -0.8482 -1.7840
  221MPD1    H7 3420   3.120   3.775  15.519  0.4650  0.0156  0.3004
  222MPD1     C 3421   3.595   2.811  17.250 -0.5655  0.0121 -0.5301
  222MPD1    C1 3422   3.488   2.837  17.170  0.2952  0.0619  0.4374
  222MPD1    C2 3423   3.377   2.875  17.238  0.6096 -0.9287  0.6127
  222MPD1    C3 3424   3.353   2.851  17.363  0.0658 -0.0003  0.5404
  222MPD1    C4 3425   3.454   2.793  17.441 -0.1613 -0.1736  0.0714
  222MPD1    C5 3426   3.581   2.777  17.383 -0.0850 -0.2479 -0.5786
  222MPD1     H 3427   3.294   2.915  17.181  0.9792  0.4392  1.0222
  222MPD1    H1 3428   3.437   2.755  17.541  3.2045  0.0139  0.7310
  222MPD1    H2 3429   3.695   2.811  17.209  0.1837 -1.9159  1.3207
  222MPD1    H3 3430   3.668   2.748  17.441 -0.5588  1.6778  1.0913
  222MPD1     N 3431   3.234   2.895  17.430 -0.0260  0.4127 -0.0038
  222MPD1    H5 3432   3.230   2.888  17.531  1.1810 -1.6299 -0.0923
  222MPD1    N1 3433   3.497   2.858  17.029  0.9482 -0.0632 -0.2663
  222MPD1    H6 3434   3.405   2.845  16.987  1.0569  0.0316 -0.5339
  222MPD1    H7 3435   3.560   2.792  16.983  2.0156  0.6047  0.2483
  223MPD1     C 3436   2.241   2.885  17.225  0.1657  0.4364  0.4958
  223MPD1    C1 3437   2.350   2.883  17.137  0.5100 -0.4521 -0.6750
  223MPD1    C2 3438   2.471   2.913  17.180 -0.4921  0.6325 -0.2367
  223MPD1    C3 3439   2.487   2.965  17.313 -0.0994 -0.2884 -0.2968
  223MPD1    C4 3440   2.374   2.990  17.391 -0.1198 -0.1695  0.7294
  223MPD1    C5 3441   2.252   2.946  17.345  1.0570  0.5319 -0.4886
  223MPD1     H 3442   2.552   2.905  17.109 -0.1167  1.6621  0.0803
  223MPD1    H1 3443   2.388   3.033  17.489 -0.9019 -2.0857  1.6903
  223MPD1    H2 3444   2.141   2.855  17.197  0.3888 -0.0511  0.2265
  223MPD1    H3 3445   2.167   2.954  17.412  0.5322  2.4205 -1.4084
  223MPD1     N 3446   2.616   2.997  17.360  0.1802 -0.0266 -0.6615
  223MPD1    H5 3447   2.698   2.973  17.305  0.1679 -0.3790 -0.5196
  223MPD1    N1 3448   2.335   2.821  17.009  0.3156 -0.5116 -1.3215
  223MPD1    H6 3449   2.240   2.835  16.975 -0.8780 -1.7317  1.5689
  223MPD1    H7 3450   2.413   2.851  16.950  0.3684  0.3004 -0.8424
  224MPD1     C 3451   4.600   2.985   9.433 -0.4981  0.4804  0.5954
  224MPD1    C1 3452   4.599   3.117   9.463  0.2173 -0.7674 -0.8395
  224MPD1    C2 3453   4.517   3.202   9.395 -0.1759 -0.4976 -0.4871
  224MPD1    C3 3454   4.423   3.150   9.310 -0.1781  0.4513 -0.4072
  224MPD1    C4 3455   4.422   3.016   9.284 -0.1118 -0.8767 -0.2087
  224MPD1    C5 3456   4.513   2.929   9.342  0.8829  0.4077 -0.5348
  224MPD1     H 3457   4.517   3.308   9.414 -0.9095 -0.6803  0.5465
  224MPD1    H1 3458   4.341   2.979   9.222 -1.5635  0.4362  0.9109
  224MPD1    H2 3459   4.666   2.914   9.483 -0.2733 -0.1302 -0.5585
  224MPD1    H3 3460   4.509   2.825   9.311 -1.3751  0.4481 -0.3851
  224MPD1     N 3461   4.314   3.226   9.254  0.0513 -0.2375 -0.2135
  224MPD1    H5 3462   4.263   3.181   9.178  3.0213 -2.7046 -0.7606
  224MPD1    N1 3463   4.699   3.176   9.549  0.7069 -0.1595 -0.3228
  224MPD1    H6 3464   4.664   3.263   9.590 -0.3403 -1.0045  0.5814
  224MPD1    H7 3465   4.716   3.112   9.627 -2.5777 -2.4203 -1.4946
  225MPD1     C 3466   0.683   0.132  12.483  0.4599 -0.4542 -0.1990
  225MPD1    C1 3467   0.687   0.125  12.350 -0.0744 -1.0201  0.6568
  225MPD1    C2 3468   0.609   0.205  12.268 -0.8799 -0.1564 -0.2236
  225MPD1    C3 3469   0.528   0.304  12.324 -0.3006  0.3499  0.8763
  225MPD1    C4 3470   0.507   0.294  12.460 -0.3616  0.6109 -0.7616
  225MPD1    C5 3471   0.584   0.212  12.537 -0.1421  0.3017 -0.3400
  225MPD1     H 3472   0.603   0.181  12.162  0.1130 -0.7315 -0.1439
  225MPD1    H1 3473   0.423   0.348  12.501  1.5519  0.6785  3.0768
  225MPD1    H2 3474   0.737   0.064  12.547 -0.8168 -0.1641  1.1808
  225MPD1    H3 3475   0.572   0.220  12.644  1.8220  0.3277 -0.1156
  225MPD1     N 3476   0.436   0.380  12.250 -0.4270 -0.3483  0.1492
  225MPD1    H5 3477   0.374   0.444  12.298  2.1181  1.6184  0.7565
  225MPD1    N1 3478   0.786   0.041  12.294  0.2463 -0.6736  0.4788
  225MPD1    H6 3479   0.744   4.723  12.220  0.4969 -1.4827  0.9458
  225MPD1    H7 3480   0.802   4.702  12.359 -1.6759  0.4340  2.2396
  226MPD1     C 3481   2.845   4.361   9.631 -0.5225  0.2971  0.0381
  226MPD1    C1 3482   2.942   4.358   9.536  0.7532 -0.2376  0.1138
  226MPD1    C2 3483   3.018   4.468   9.510  0.6723 -0.6386 -0.6181
  226MPD1    C3 3484   3.009   4.583   9.587  0.0361 -0.2000 -0.7300
  226MPD1    C4 3485   2.918   4.583   9.691  0.3213  0.4274 -0.0940
  226MPD1    C5 3486   2.831   4.474   9.704  0.8739 -0.2056 -0.0502
  226MPD1     H 3487   3.090   4.466   9.429  1.3070  0.4622 -0.0765
  226MPD1    H1 3488   2.903   4.664   9.761 -1.2408  0.1966 -0.1451
  226MPD1    H2 3489   2.782   4.274   9.645 -1.2011  0.8379  0.3664
  226MPD1    H3 3490   2.746   4.476   9.771  1.9253  1.7011  1.2745
  226MPD1     N 3491   3.098   4.693   9.554 -0.0082 -0.3060  0.3674
  226MPD1    H5 3492   3.172   4.679   9.487  1.1672 -1.5598  1.9198
  226MPD1    N1 3493   2.933   4.253   9.440  0.2853 -0.2439  0.0337
  226MPD1    H6 3494   3.024   4.244   9.394 -0.5295 -1.3907 -1.3552
  226MPD1    H7 3495   2.911   4.163   9.483 -1.0135  0.9762  1.9141
  227MPD1     C 3496   3.168   0.990   9.292  0.1931 -0.7938  0.3541
  227MPD1    C1 3497   3.283   0.933   9.249 -0.3253  0.0315  0.2160
  227MPD1    C2 3498   3.298   0.794   9.259  0.8848  0.3648 -0.3287
  227MPD1    C3 3499   3.198   0.715   9.322  0.2828  0.5301 -0.3325
  227MPD1    C4 3500   3.091   0.777   9.372  0.3245  0.0062  0.2464
  227MPD1    C5 3501   3.072   0.911   9.355 -0.0306 -0.2232  0.1609
  227MPD1     H 3502   3.381   0.740   9.215  0.8981  0.9264 -0.9860
  227MPD1    H1 3503   3.008   0.734   9.428 -1.2680  2.1886 -0.4451
  227MPD1    H2 3504   3.156   1.098   9.285  1.3123 -0.7780 -1.2042
  227MPD1    H3 3505   2.972   0.946   9.378 -0.4207 -0.9077 -0.5004
  227MPD1     N 3506   3.217   0.579   9.323  0.9008 -0.7409  0.3638
  227MPD1    H5 3507   3.296   0.545   9.270  2.8577 -0.0243  2.7987
  227MPD1    N1 3508   3.366   1.001   9.160  0.5889 -0.4450 -0.3578
  227MPD1    H6 3509   3.377   1.097   9.192 -1.1692 -0.3304 -0.1431
  227MPD1    H7 3510   3.455   0.955   9.138 -0.1042 -1.6798 -0.5398
  228MPD1     C 3511   2.390   1.870  11.977  0.0016 -0.5929 -0.0732
  228MPD1    C1 3512   2.382   1.993  11.918  0.0128  0.9801  0.0282
  228MPD1    C2 3513   2.304   2.090  11.972  0.1110  0.7759 -0.6190
  228MPD1    C3 3514   2.236   2.077  12.092 -0.1084 -0.0798 -1.1628
  228MPD1    C4 3515   2.256   1.954  12.152 -0.3451  1.4807  0.4907
  228MPD1    C5 3516   2.322   1.854  12.089 -0.5099 -0.1006 -0.1911
  228MPD1     H 3517   2.315   2.191  11.932 -0.0242  1.2588  0.5542
  228MPD1    H1 3518   2.222   1.934  12.253 -0.6129 -0.3473  0.0333
  228MPD1    H2 3519   2.460   1.795  11.943  0.8652  1.3171 -2.5383
  228MPD1    H3 3520   2.344   1.764  12.145 -0.0968  0.9417  1.3255
  228MPD1     N 3521   2.167   2.185  12.156 -0.1745 -0.5848  0.4054
  228MPD1    H5 3522   2.140   2.265  12.100  0.1802  1.2670  2.9197
  228MPD1    N1 3523   2.479   2.035  11.820  0.2328 -0.0734 -0.4143
  228MPD1    H6 3524   2.434   2.098  11.754  0.0047  1.7857  1.5328
  228MPD1    H7 3525   2.531   1.964  11.768  0.6466  0.0170 -0.1260
  229MPD1     C 3526   1.705   2.101  14.500 -0.3616  0.4673  0.5446
  229MPD1    C1 3527   1.797   2.129  14.594  0.0550 -0.2150 -0.4842
  229MPD1    C2 3528   1.861   2.023  14.649  0.5959  0.2132  0.4635
  229MPD1    C3 3529   1.834   1.889  14.612  0.2154 -0.2714 -0.1777
  229MPD1    C4 3530   1.748   1.866  14.505  0.8939 -0.0363 -0.2356
  229MPD1    C5 3531   1.687   1.976  14.448 -0.1660  0.9405  0.3281
  229MPD1     H 3532   1.936   2.050  14.722  0.4226 -2.0108  1.4695
  229MPD1    H1 3533   1.734   1.766  14.464  2.5023 -0.8159  1.1230
  229MPD1    H2 3534   1.657   2.188  14.458 -0.0850  0.0191 -0.6970
  229MPD1    H3 3535   1.627   1.960  14.358  0.8105 -1.1279  0.0565
  229MPD1     N 3536   1.878   1.774  14.682 -0.1691 -0.5084  0.2176
  229MPD1    H5 3537   1.844   1.684  14.650 -1.8487  0.2156 -0.0642
  229MPD1    N1 3538   1.802   2.251  14.649 -0.0667  0.0536 -0.5996
  229MPD1    H6 3539   1.894   2.280  14.681 -0.9811  1.2263  0.9769
  229MPD1    H7 3540   1.763   2.319  14.584 -1.2406 -0.4145 -0.4015
  230MPD1     C 3541   2.440   1.491  15.581  0.1844  0.2501 -0.1114
  230MPD1    C1 3542   2.439   1.380  15.503 -0.4405 -0.3306  0.2535
  230MPD1    C2 3543   2.360   1.384  15.388 -0.2210 -0.2840 -0.0899
  230MPD1    C3 3544   2.282   1.489  15.352  0.9711 -0.8417  0.4927
  230MPD1    C4 3545   2.292   1.608  15.430 -0.2680 -0.0252 -0.7814
  230MPD1    C5 3546   2.375   1.607  15.546 -0.7395  0.2611 -0.3037
  230MPD1     H 3547   2.356   1.292  15.332 -1.0224  0.4308 -1.2128
  230MPD1    H1 3548   2.248   1.701  15.396 -2.8092 -0.3966  1.5098
  230MPD1    H2 3549   2.512   1.490  15.662 -0.0373  1.9632  0.1057
  230MPD1    H3 3550   2.373   1.694  15.611 -2.0621 -0.2274  0.3134
  230MPD1     N 3551   2.204   1.484  15.232  0.3543 -0.1708  0.1970
  230MPD1    H5 3552   2.216   1.402  15.173  1.6782  1.9652 -2.5117
  230MPD1    N1 3553   2.505   1.257  15.541 -0.3421  0.3173  0.3455
  230MPD1    H6 3554   2.535   1.201  15.461  0.6593 -0.5648  1.3406
  230MPD1    H7 3555   2.585   1.271  15.602 -0.5478 -2.1970  1.2088
  231MPD1     C 3556   0.168   3.232  15.530 -0.1176 -0.5780 -0.2600
  231MPD1    C1 3557   0.231   3.191  15.414 -0.2317  0.0977  0.2066
  231MPD1    C2 3558   0.325   3.272  15.360  0.2362 -0.0934  0.1098
  231MPD1    C3 3559   0.364   3.399  15.407  0.6417  0.4673  0.2876
  231MPD1    C4 3560   0.300   3.440  15.518 -0.6650 -0.3337 -0.7200
  231MPD1    C5 3561   0.209   3.352  15.573 -0.4113  0.3408  0.2907
  231MPD1     H 3562   0.369   3.231  15.269  2.4189 -0.3090  1.2671
  231MPD1    H1 3563   0.314   3.535  15.569 -0.0727 -2.3491  2.8646
  231MPD1    H2 3564   0.099   3.173  15.589 -3.3409  1.0536 -2.3613
  231MPD1    H3 3565   0.162   3.378  15.667 -1.9110 -1.3341 -0.0001
  231MPD1     N 3566   0.463   3.467  15.326 -1.0254  0.7448 -0.3180
  231MPD1    H5 3567   0.497   3.416  15.246  0.3320  0.0373  0.7087
  231MPD1    N1 3568   0.180   3.074  15.356 -0.2623 -0.4396  0.4342
  231MPD1    H6 3569   0.118   3.019  15.416 -0.7425  2.1372  2.3047
  231MPD1    H7 3570   0.244   3.006  15.315 -0.3036 -1.2350  1.6793
  232MPD1     C 3571   2.123   1.749  17.709 -0.3993  1.3921 -0.1926
  232MPD1    C1 3572   2.002   1.807  17.685 -0.8569 -0.3584  0.3212
  232MPD1    C2 3573   1.904   1.738  17.616  0.4645  0.3462  0.6073
  232MPD1    C3 3574   1.921   1.603  17.581  0.4733 -0.0407  0.5153
  232MPD1    C4 3575   2.045   1.545  17.618 -0.2345 -0.7282 -0.3563
  232MPD1    C5 3576   2.151   1.619  17.676  0.1736 -0.0294  0.1326
  232MPD1     H 3577   1.813   1.779  17.574  1.0357  2.5547  1.5548
  232MPD1    H1 3578   2.077   1.444  17.595  0.6970 -0.6971  0.7741
  232MPD1    H2 3579   2.207   1.805   0.001 -1.3261  1.2048  2.1007
  232MPD1    H3 3580   2.248   1.573  17.689 -0.0001  0.2716  2.3863
  232MPD1     N 3581   1.828   1.538  17.501 -0.5181  0.2714  0.7146
  232MPD1    H5 3582   1.749   1.590  17.465 -0.5126  0.2789  0.7135
  232MPD1    N1 3583   1.976   1.941  17.722  0.5552  0.1574 -0.4280
  232MPD1    H6 3584   2.055   1.977   0.028  1.0595 -3.7119  1.4387
  232MPD1    H7 3585   1.897   1.932   0.038 -0.9994  1.3785 -2.2123
  233MPD1     C 3586   3.377   4.071   1.294  0.4195 -0.3056 -1.2625
  233MPD1    C1 3587   3.420   3.956   1.356  0.2708 -0.4012  0.9491
  233MPD1    C2 3588   3.542   3.948   1.417 -0.3952  0.1776 -0.7917
  233MPD1    C3 3589   3.628   4.056   1.417  0.4716  0.0959 -0.0229
  233MPD1    C4 3590   3.583   4.174   1.351  0.6495 -0.3339 -0.3978
  233MPD1    C5 3591   3.465   4.177   1.285 -0.1951  0.7792  0.3749
  233MPD1     H 3592   3.570   3.861   1.475 -0.2276  1.9496  1.8143
  233MPD1    H1 3593   3.643   4.264   1.358  1.0813 -0.5827 -0.9102
  233MPD1    H2 3594   3.277   4.082   1.254 -0.0909 -0.7690 -0.1183
  233MPD1    H3 3595   3.427   4.261   1.227  0.1788  0.3769 -0.4598
  233MPD1     N 3596   3.754   4.056   1.478  0.1093 -0.0763  0.1371
  233MPD1    H5 3597   3.804   4.143   1.462 -0.5228  0.1795 -0.4939
  233MPD1    N1 3598   3.329   3.851   1.377 -0.4418 -0.9004 -0.3349
  233MPD1    H6 3599   3.257   3.842   1.306 -0.2105  0.5371 -0.7349
  233MPD1    H7 3600   3.375   3.760   1.386 -0.4197 -0.7382  1.2718
  234MPD1     C 3601   3.672   2.336   9.388 -0.1100 -0.0261  0.1553
  234MPD1    C1 3602   3.531   2.345   9.403  0.2052  0.5175 -0.0306
  234MPD1    C2 3603   3.468   2.433   9.323  0.4974  0.3844 -0.8624
  234MPD1    C3 3604   3.525   2.504   9.225  0.7194 -0.6045 -0.2338
  234MPD1    C4 3605   3.665   2.495   9.213 -0.2318  0.3092 -0.3237
  234MPD1    C5 3606   3.732   2.419   9.307  0.0821  0.4701  0.9172
  234MPD1     H 3607   3.359   2.437   9.329  0.3630 -1.4535 -2.1032
  234MPD1    H1 3608   3.717   2.555   9.140  0.0917 -0.2752 -0.5645
  234MPD1    H2 3609   3.730   2.271   9.453 -2.9612 -1.1432  1.5589
  234MPD1    H3 3610   3.840   2.420   9.306  0.0494 -0.5678 -1.7408
  234MPD1     N 3611   3.446   2.574   9.133 -0.0318 -0.1835  0.1079
  234MPD1    H5 3612   3.351   2.595   9.162 -0.3162 -1.5439  0.1670
  234MPD1    N1 3613   3.464   2.244   9.468 -0.0640 -0.7200 -0.4078
  234MPD1    H6 3614   3.507   2.224   9.558  0.4079 -0.5574 -0.5932
  234MPD1    H7 3615   3.371   2.276   9.493  1.1684  0.6819  2.3022
  235MPD1     C 3616   0.932   0.600  11.801  0.2182 -0.3775 -0.0695
  235MPD1    C1 3617   0.860   0.548  11.696  0.4450  0.3287  0.4412
  235MPD1    C2 3618   0.920   0.543  11.570 -0.0907  1.4933 -0.0765
  235MPD1    C3 3619   1.049   0.584  11.552 -0.3810  0.0911  0.8102
  235MPD1    C4 3620   1.110   0.646  11.657 -0.3470  0.2791  0.0793
  235MPD1    C5 3621   1.044   0.666  11.776  0.4336 -0.6899 -0.3591
  235MPD1     H 3622   0.865   0.507  11.484  1.1023  2.3142 -1.1827
  235MPD1    H1 3623   1.207   0.693  11.654  0.4560 -1.4885 -1.0942
  235MPD1    H2 3624   0.892   0.600  11.901  0.6962 -0.2049  0.1224
  235MPD1    H3 3625   1.099   0.718  11.854  2.4875 -2.2532 -0.7589
  235MPD1     N 3626   1.104   0.570  11.419 -0.1743  0.6075  0.4869
  235MPD1    H5 3627   1.049   0.518  11.352 -0.1837  2.6746 -1.1276
  235MPD1    N1 3628   0.725   0.521  11.709 -0.7911 -0.3448  0.2230
  235MPD1    H6 3629   0.699   0.456  11.635  2.5446 -0.5980 -0.6984
  235MPD1    H7 3630   0.711   0.470  11.797 -0.5654  2.2134  1.7383
  236MPD1     C 3631   4.607   1.790  10.189  0.2509 -0.3390 -0.7495
  236MPD1    C1 3632   4.652   1.863  10.299 -0.0468  0.7050 -0.0392
  236MPD1    C2 3633   0.045   1.841  10.335  0.0468  0.8576  0.0281
  236MPD1    C3 3634   0.130   1.747  10.273 -0.1265 -0.0414  0.6123
  236MPD1    C4 3635   0.075   1.663  10.182  0.9996  0.6962  0.9974
  236MPD1    C5 3636   4.685   1.692  10.136 -0.5938 -0.4202  0.1215
  236MPD1     H 3637   0.097   1.911  10.400  1.4612  1.3365 -1.6033
  236MPD1    H1 3638   0.137   1.578  10.155  0.6342  0.2951  1.4040
  236MPD1    H2 3639   4.514   1.817  10.142  0.7730  0.2238 -1.4667
  236MPD1    H3 3640   4.645   1.637  10.051 -1.6318  1.1065 -0.3793
  236MPD1     N 3641   0.265   1.722  10.311  0.3176 -0.3189 -0.2498
  236MPD1    H5 3642   0.324   1.652  10.265  2.0674  1.1566 -0.2642
  236MPD1    N1 3643   4.590   1.980  10.332  0.4474 -0.3596 -0.3870
  236MPD1    H6 3644   4.615   2.010  10.426 -2.5388 -1.6406  0.8141
  236MPD1    H7 3645   4.490   1.963  10.326  0.0250  1.5089  1.3234
  237MPD1     C 3646   0.475   4.357  15.761  0.2322  0.8239 -0.3329
  237MPD1    C1 3647   0.376   4.292  15.827  0.6674 -0.1040 -1.0281
  237MPD1    C2 3648   0.249   4.289  15.763 -0.1855 -0.1423  0.3521
  237MPD1    C3 3649   0.233   4.344  15.640 -0.0727 -0.1965  0.2248
  237MPD1    C4 3650   0.341   4.397  15.574 -0.2014 -0.0592 -0.1704
  237MPD1    C5 3651   0.458   4.399  15.631 -0.8252 -0.1335 -0.2037
  237MPD1     H 3652   0.167   4.233  15.807 -1.4443  1.9804  0.7183
  237MPD1    H1 3653   0.325   4.432  15.472  1.3214  0.0940 -0.3504
  237MPD1    H2 3654   0.578   4.369  15.793  0.4534 -0.2868 -0.6098
  237MPD1    H3 3655   0.545   4.443  15.583 -1.9497  0.4059 -1.7534
  237MPD1     N 3656   0.109   4.350  15.577  0.2535  0.3393 -0.2343
  237MPD1    H5 3657   0.114   4.398  15.487 -0.0094  0.9871  0.0952
  237MPD1    N1 3658   0.390   4.271  15.961  0.4877 -0.8844  0.1719
  237MPD1    H6 3659   0.489   4.260  15.982  0.6411 -0.6322 -0.4212
  237MPD1    H7 3660   0.332   4.200  16.005  0.0535  0.1263  1.2419
  238MPD1     C 3661   2.918   2.985  14.931  0.0882 -0.4769  0.2670
  238MPD1    C1 3662   2.839   2.969  15.046 -0.3223  0.1455  0.2966
  238MPD1    C2 3663   2.704   2.958  15.039  0.1551 -0.4092 -0.3470
  238MPD1    C3 3664   2.644   2.964  14.912 -0.1797  0.1025  0.2132
  238MPD1    C4 3665   2.721   2.974  14.802 -0.2952 -0.0244  0.3064
  238MPD1    C5 3666   2.860   2.983  14.810 -0.4104 -0.5038  0.1016
  238MPD1     H 3667   2.644   2.962  15.129  1.7061 -0.7821  0.7014
  238MPD1    H1 3668   2.691   2.986  14.699  2.4143 -1.1615 -0.6106
  238MPD1    H2 3669   3.026   2.998  14.938 -0.2715  3.7704 -2.2613
  238MPD1    H3 3670   2.918   2.981  14.718  1.7576  1.5618  1.4153
  238MPD1     N 3671   2.505   2.964  14.887 -0.0211  0.3729  0.4334
  238MPD1    H5 3672   2.479   2.975  14.789 -0.7156 -0.7111  0.5017
  238MPD1    N1 3673   2.910   2.963  15.165 -0.3490  0.5150 -0.3052
  238MPD1    H6 3674   2.843   2.981  15.240 -0.7899  0.9365 -0.8052
  238MPD1    H7 3675   2.988   3.025  15.185  2.1068 -2.2829 -1.2256
  239MPD1     C 3676   2.385   3.745  14.630 -0.2296 -0.1802  0.3421
  239MPD1    C1 3677   2.265   3.808  14.647 -0.0281 -0.2051 -0.6738
  239MPD1    C2 3678   2.208   3.870  14.537 -0.2319 -0.1980 -0.1072
  239MPD1    C3 3679   2.267   3.873  14.416  0.9576 -0.5847 -0.8812
  239MPD1    C4 3680   2.400   3.813  14.404 -0.4537  0.0361  0.6467
  239MPD1    C5 3681   2.454   3.745  14.509 -0.4965  0.1354  1.0542
  239MPD1     H 3682   2.116   3.926  14.546 -0.1643  0.0727 -1.0236
  239MPD1    H1 3683   2.459   3.817  14.313  0.6570  0.4338  1.3720
  239MPD1    H2 3684   2.434   3.684  14.705  0.8172 -0.9004 -0.9267
  239MPD1    H3 3685   2.554   3.703  14.508 -0.7116 -0.4546  2.9028
  239MPD1     N 3686   2.200   3.932  14.304  0.4551  0.1046 -0.2655
  239MPD1    H5 3687   2.234   3.938  14.209  2.6806  0.6753  0.5768
  239MPD1    N1 3688   2.205   3.812  14.774 -0.5835 -0.2294  0.7449
  239MPD1    H6 3689   2.152   3.898  14.792  1.1276  1.6568 -3.2477
  239MPD1    H7 3690   2.278   3.831  14.842 -0.3924  0.8086  0.2463
  240MPD1     C 3691   1.911   3.827  13.736 -0.1314 -0.5974  0.2336
  240MPD1    C1 3692   1.806   3.841  13.822  0.2901 -0.4808 -0.3703
  240MPD1    C2 3693   1.818   3.783  13.951  0.2029 -0.0376  0.0878
  240MPD1    C3 3694   1.939   3.722  13.988  0.0204  0.7124  0.0423
  240MPD1    C4 3695   2.044   3.709  13.899 -0.1121  0.1496  0.4463
  240MPD1    C5 3696   2.027   3.765  13.776  0.2980 -0.1837 -0.1249
  240MPD1     H 3697   1.738   3.783  14.024 -1.4865  0.7080 -1.7560
  240MPD1    H1 3698   2.144   3.680  13.929  0.8414  1.2911 -1.6906
  240MPD1    H2 3699   1.893   3.857  13.634  2.7006  0.3415  0.0019
  240MPD1    H3 3700   2.111   3.765  13.708 -0.1420  0.3101 -0.6689
  240MPD1     N 3701   1.949   3.667  14.122  0.0452 -0.0218  0.0562
  240MPD1    H5 3702   1.862   3.657  14.173 -0.3391 -0.1652 -0.6245
  240MPD1    N1 3703   1.682   3.890  13.774 -0.6021 -0.4323  0.0581
  240MPD1    H6 3704   1.617   3.929  13.842 -0.1745 -0.2577  0.3684
  240MPD1    H7 3705   1.692   3.953  13.694  1.5621 -0.2942  0.4287
  241MPD1     C 3706   2.718   3.334  14.737 -0.5445 -0.1541 -0.4148
  241MPD1    C1 3707   2.604   3.319  14.808 -0.6972 -0.2933 -0.4737
  241MPD1    C2 3708   2.488   3.352  14.757  0.5681 -0.3266  0.3439
  241MPD1    C3 3709   2.482   3.402  14.626 -0.4056  0.3161 -0.1847
  241MPD1    C4 3710   2.595   3.412  14.553 -0.0804  0.0435 -0.3835
  241MPD1    C5 3711   2.716   3.371  14.608 -0.0413 -0.0483 -0.1361
  241MPD1     H 3712   2.399   3.336  14.817 -0.3095  2.0568 -0.3102
  241MPD1    H1 3713   2.590   3.453  14.452 -0.8257  0.7444 -0.0594
  241MPD1    H2 3714   2.817   3.306  14.774 -0.7264 -0.5761 -0.2493
  241MPD1    H3 3715   2.813   3.377  14.559  0.0894  2.6831  0.4782
  241MPD1     N 3716   2.361   3.442  14.569 -0.6278 -0.0398  0.1490
  241MPD1    H5 3717   2.360   3.483  14.477 -1.1100 -0.6054 -0.0973
  241MPD1    N1 3718   2.622   3.286  14.941  0.0587 -0.7450 -0.4804
  241MPD1    H6 3719   2.534   3.255  14.980  1.3623 -2.2382  1.2986
  241MPD1    H7 3720   2.703   3.228  14.963 -0.2903 -1.0040  0.1144
  242MPD1     C 3721   1.253   2.380  15.950  0.0558  0.1512  0.7998
  242MPD1    C1 3722   1.185   2.258  15.936 -0.0779 -0.6717  0.2383
  242MPD1    C2 3723   1.237   2.159  15.851  0.4723  0.2883  0.3637
  242MPD1    C3 3724   1.343   2.182  15.766 -0.9210 -0.3709 -0.0514
  242MPD1    C4 3725   1.407   2.306  15.776 -0.6291 -0.3831  0.0652
  242MPD1    C5 3726   1.360   2.402  15.862 -0.1557  0.2320  0.1152
  242MPD1     H 3727   1.186   2.063  15.857  0.7984  0.1590  1.0584
  242MPD1    H1 3728   1.502   2.323  15.727 -1.5016  2.1242 -0.7447
  242MPD1    H2 3729   1.214   2.455  16.018 -0.0490 -0.0953  1.0102
  242MPD1    H3 3730   1.424   2.488  15.872  1.7030 -1.2690  1.1845
  242MPD1     N 3731   1.392   2.086  15.677  0.6165 -0.0123  0.0575
  242MPD1    H5 3732   1.482   2.105  15.634  0.1441 -1.0893 -1.4206
  242MPD1    N1 3733   1.080   2.231  16.023 -0.4572 -0.0584 -0.7676
  242MPD1    H6 3734   1.009   2.165  15.993 -1.3141  0.4239  0.1414
  242MPD1    H7 3735   1.041   2.321  16.051 -0.7241 -0.4754  0.2120
  243MPD1     C 3736   2.815   0.810  17.575  0.1784  0.3218 -0.0137
  243MPD1    C1 3737   2.828   0.674  17.566  0.3538  0.0232 -0.8280
  243MPD1    C2 3738   2.931   0.617  17.493  0.2121 -0.4862 -0.0554
  243MPD1    C3 3739   3.007   0.700  17.410 -1.0877 -0.4610 -0.1034
  243MPD1    C4 3740   2.980   0.837  17.419  0.1832 -0.0526 -0.9578
  243MPD1    C5 3741   2.882   0.882  17.492 -0.4310  0.3214 -0.4760
  243MPD1     H 3742   2.948   0.510  17.492  1.3049 -0.3224  1.8060
  243MPD1    H1 3743   3.041   0.905  17.360  0.8456  0.2841  0.1271
  243MPD1    H2 3744   2.737   0.861  17.630 -1.3108 -3.0530  0.9982
  243MPD1    H3 3745   2.869   0.990  17.485  0.7249  0.5626  1.1307
  243MPD1     N 3746   3.112   0.643  17.336  0.1551  0.0460  0.0499
  243MPD1    H5 3747   3.120   0.541  17.333  1.8629  0.1638  0.4890
  243MPD1    N1 3748   2.756   0.598  17.661  0.7402 -0.1476  0.3922
  243MPD1    H6 3749   2.657   0.617  17.643  0.6579 -1.5608 -0.6319
  243MPD1    H7 3750   2.771   0.500  17.641  2.0118  0.8194 -3.4371
  244MPD1     C 3751   2.843   0.256  17.550 -0.7627 -0.1302  0.3851
  244MPD1    C1 3752   2.950   0.284  17.637  0.3860 -0.6092 -0.3858
  244MPD1    C2 3753   3.070   0.317  17.583 -0.1843  0.2153  0.6070
  244MPD1    C3 3754   3.097   0.300  17.447  0.3115 -0.3583  0.6956
  244MPD1    C4 3755   2.994   0.261  17.365 -0.3157  0.2401 -0.5637
  244MPD1    C5 3756   2.869   0.244  17.420 -0.2984 -0.8658 -0.4144
  244MPD1     H 3757   3.150   0.341  17.652 -0.3044  2.1527  0.0797
  244MPD1    H1 3758   3.007   0.255  17.257  1.7148  0.3172 -0.3108
  244MPD1    H2 3759   2.739   0.243  17.578 -0.9174 -1.2613 -0.6811
  244MPD1    H3 3760   2.787   0.227  17.351 -2.1380  0.3993  1.4585
  244MPD1     N 3761   3.223   0.345  17.399 -0.2644 -0.0847  0.5793
  244MPD1    H5 3762   3.277   0.397  17.466  3.0178 -0.9107 -1.4151
  244MPD1    N1 3763   2.928   0.316   0.023 -0.2780  0.2817  0.1361
  244MPD1    H6 3764   2.852   0.258   0.058  0.9714 -1.1543  0.4734
  244MPD1    H7 3765   2.999   0.291   0.092 -1.3750  0.0096  1.1705
  245MPD1     C 3766   4.474   1.154  13.245 -0.2857 -0.6321 -0.0222
  245MPD1    C1 3767   4.445   1.194  13.376 -0.3709 -0.7346  0.4681
  245MPD1    C2 3768   4.528   1.294  13.428 -0.0308 -0.6576  0.5242
  245MPD1    C3 3769   4.630   1.356  13.368 -0.5380 -0.4694 -0.0428
  245MPD1    C4 3770   4.654   1.323  13.231 -0.5892 -0.5647  0.2478
  245MPD1    C5 3771   4.580   1.216  13.186  0.9169  0.5173 -0.3157
  245MPD1     H 3772   4.511   1.312  13.534 -1.3103 -1.9990  0.5541
  245MPD1    H1 3773   0.001   1.349  13.167 -0.5158  0.7506  0.8887
  245MPD1    H2 3774   4.425   1.074  13.190  2.1738 -1.9365 -0.3077
  245MPD1    H3 3775   4.605   1.183  13.086 -2.2819  0.2562 -1.0183
  245MPD1     N 3776   4.722   1.446  13.437  0.3000 -0.3374 -0.1602
  245MPD1    H5 3777   0.008   1.437  13.535 -2.0513 -0.9176  0.3577
  245MPD1    N1 3778   4.323   1.160  13.441  0.1956 -0.8118  0.1355
  245MPD1    H6 3779   4.324   1.182  13.540  0.4295 -1.0166  0.1800
  245MPD1    H7 3780   4.293   1.063  13.432  1.2675 -1.2812  1.7740
  246MPD1     C 3781   0.741   3.111  10.239 -0.1338 -0.4481 -0.6309
  246MPD1    C1 3782   0.658   3.005  10.200  0.0777 -0.0640 -0.0197
  246MPD1    C2 3783   0.633   3.001  10.064  0.0009  0.4519 -0.5399
  246MPD1    C3 3784   0.666   3.106   9.983 -0.7604  0.0453 -0.7063
  246MPD1    C4 3785   0.749   3.212  10.026  0.7441 -0.2099 -0.4461
  246MPD1    C5 3786   0.784   3.214  10.156  0.0815  0.4847 -0.4864
  246MPD1     H 3787   0.571   2.924  10.018  1.5547 -1.0182 -0.2110
  246MPD1    H1 3788   0.752   3.302   9.966 -1.8600  0.8635  0.9829
  246MPD1    H2 3789   0.774   3.125  10.342  0.4332  1.9943 -1.1352
  246MPD1    H3 3790   0.818   3.299  10.214 -0.3367 -0.3025  0.9194
  246MPD1     N 3791   0.613   3.110   9.849 -0.0075 -1.0614  0.1876
  246MPD1    H5 3792   0.568   3.026   9.816  2.8925 -3.0069  1.2114
  246MPD1    N1 3793   0.632   2.898  10.286 -0.0769  0.2100 -0.3137
  246MPD1    H6 3794   0.541   2.858  10.265 -0.3048  0.0075  1.1178
  246MPD1    H7 3795   0.627   2.933  10.381  0.9893 -0.6043  0.0427
  247MPD1     C 3796   4.436   2.138  16.203 -0.0763 -0.0965 -0.4601
  247MPD1    C1 3797   4.396   2.094  16.325  0.0383  0.0001 -0.3963
  247MPD1    C2 3798   4.367   1.954  16.342 -0.3450  0.0315  0.0842
  247MPD1    C3 3799   4.403   1.858  16.245 -0.1182  0.7998 -0.0549
  247MPD1    C4 3800   4.456   1.910  16.131  0.4117 -0.0863  0.6152
  247MPD1    C5 3801   4.462   2.046  16.107  0.7300  0.2281  0.1623
  247MPD1     H 3802   4.327   1.922  16.437 -1.3614  2.3435  0.4418
  247MPD1    H1 3803   4.482   1.834  16.058 -0.1544 -0.5392  0.8831
  247MPD1    H2 3804   4.439   2.244  16.181  1.4185  0.4892  2.5445
  247MPD1    H3 3805   4.493   2.085  16.011 -0.6059  0.4755 -0.1587
  247MPD1     N 3806   4.384   1.718  16.258  0.1257  0.0257 -0.0134
  247MPD1    H5 3807   4.420   1.666  16.179 -1.2706  0.9187 -1.2353
  247MPD1    N1 3808   4.362   2.190  16.418 -0.3440  0.3371  0.3179
  247MPD1    H6 3809   4.368   2.160  16.516 -2.8302 -1.3375 -0.0522
  247MPD1    H7 3810   4.423   2.271  16.409 -0.6662  0.6197  0.6214
  248MPD1     C 3811   0.332   1.863  17.511 -0.3313 -0.1851 -0.3123
  248MPD1    C1 3812   0.233   1.880  17.608  0.3727  0.1820 -0.2441
  248MPD1    C2 3813   0.164   1.773  17.648  0.0699 -0.1139 -0.8018
  248MPD1    C3 3814   0.188   1.652  17.594 -0.4508  0.0712  0.2854
  248MPD1    C4 3815   0.291   1.632  17.502  0.2539  0.3336  0.6026
  248MPD1    C5 3816   0.367   1.742  17.471  0.0946 -0.0091  0.0930
  248MPD1     H 3817   0.095   1.789  17.730 -0.5918 -0.0867 -1.3650
  248MPD1    H1 3818   0.313   1.535  17.461  1.5403  1.6908 -1.9461
  248MPD1    H2 3819   0.388   1.955  17.497 -2.2422  1.5168  3.2614
  248MPD1    H3 3820   0.435   1.736  17.387 -0.4282  0.2692 -0.3445
  248MPD1     N 3821   0.103   1.549  17.634  0.4617  0.1990 -0.5497
  248MPD1    H5 3822   0.031   1.567  17.703  0.3800  3.3291 -1.4512
  248MPD1    N1 3823   0.219   2.003  17.673  0.0478 -0.2478  0.0969
  248MPD1    H6 3824   0.128   2.021  17.713  0.7178 -0.3929  1.6791
  248MPD1    H7 3825   0.234   2.088  17.617 -1.2435 -0.6897 -0.9215
  249MPD1     C 3826   2.084   4.140  10.122 -0.3478  0.1061 -0.5561
  249MPD1    C1 3827   2.100   4.226  10.223  0.9508 -0.1951 -0.3620
  249MPD1    C2 3828   2.106   4.355  10.191  0.1051  0.0125 -0.4085
  249MPD1    C3 3829   2.088   4.407  10.063 -0.6319  0.3511 -0.1967
  249MPD1    C4 3830   2.056   4.316   9.960  0.3263 -0.3053 -0.5112
  249MPD1    C5 3831   2.054   4.177   9.990 -0.0982 -0.2307  0.9339
  249MPD1     H 3832   2.124   4.425  10.271  3.3470 -1.2076 -0.0646
  249MPD1    H1 3833   2.048   4.348   9.857 -0.7023 -0.9673 -0.6307
  249MPD1    H2 3834   2.100   4.035  10.144  0.6942 -0.0119 -1.8880
  249MPD1    H3 3835   2.049   4.105   9.909  0.1283 -0.8141  1.4433
  249MPD1     N 3836   2.088   4.547  10.047 -0.2727 -0.5710  0.0700
  249MPD1    H5 3837   2.116   4.587  10.136 -1.6492 -0.5809  0.4979
  249MPD1    N1 3838   2.141   4.190  10.349 -0.7978  0.2854  0.5181
  249MPD1    H6 3839   2.111   4.095  10.372 -0.4759 -0.1526 -0.8534
  249MPD1    H7 3840   2.095   4.251  10.417  1.2341  2.5152 -0.1145
  250MPD2     C 3841   3.432   4.511  12.884 -0.5853 -0.4740  1.2630
  250MPD2    C1 3842   3.371   4.624  12.832 -0.0562  0.1084  0.0241
  250MPD2    C2 3843   3.241   4.625  12.777 -0.0143 -0.2654  0.0489
  250MPD2    C3 3844   3.163   4.509  12.791  0.2301 -0.1449  0.1607
  250MPD2    C4 3845   3.223   4.401  12.855  0.6589 -0.5997  0.8581
  250MPD2    C5 3846   3.353   4.401  12.904  0.4811 -0.2497  0.5426
  250MPD2     H 3847   3.203   4.712  12.725 -0.3983  0.2471  1.1875
  250MPD2    H1 3848   3.154   4.319  12.875 -1.4491  1.1519  0.7802
  250MPD2    H2 3849   3.531   4.506  12.928  0.1222  2.9101  0.0246
  250MPD2    H3 3850   3.395   4.319  12.961  1.6977 -0.1569 -0.2210
  250MPD2     N 3851   3.032   4.492  12.740  0.2446  0.2184  0.0966
  250MPD2    H5 3852   2.990   4.401  12.762  0.3855  0.5041  1.5718
  250MPD2    N1 3853   3.454   0.002  12.818  0.1520 -0.0777  0.9732
  250MPD2    H7 3854   3.546   4.734  12.862  0.2795  0.2566  0.7508
  251TMC3    C1 3855   3.501   0.229  12.778 -0.0035  0.1249 -0.6355
  251TMC3    C2 3856   3.447   0.353  12.754 -0.1568 -0.2392  0.0713
  251TMC3    C3 3857   3.493   0.461  12.825 -0.1731 -0.2501 -0.9596
  251TMC3    C4 3858   3.602   0.214  12.865  0.4087  0.3323  0.3163
  251TMC3    C5 3859   3.665   0.325  12.908 -1.1104 -0.0770  0.1300
  251TMC3    C6 3860   3.613   0.448  12.891 -0.1821  0.4464 -0.3511
  251TMC3     C 3861   3.426   0.111  12.744  0.2540  0.1316 -0.8393
  251TMC3     O 3862   3.342   0.121  12.651  0.4315 -0.3553 -0.2075
  251TMC3     H 3863   3.366   0.365  12.683 -2.1611 -1.0459  2.2347
  251TMC3    H1 3864   3.647   0.116  12.875 -2.2489 -0.8678  0.7407
  251TMC3    H2 3865   3.654   0.530  12.950  0.4661  1.3074 -1.9742
  251TMC3    C7 3866   3.813   0.313  12.930  0.4733  0.2120 -0.4271
  251TMC3    C8 3867   3.389   0.530  12.892  0.8281  0.7456 -0.3372
  251TMC3    O1 3868   3.860   0.212  12.982  0.2585 -0.1471  0.0490
  251TMC3    O2 3869   3.284   0.467  12.888 -0.3392  0.4814 -0.2947
  252TMC3    C1 3870   2.811   0.504   9.703 -0.0254 -0.0176 -0.4743
  252TMC3    C2 3871   2.816   0.636   9.682 -0.2268 -0.0595  0.0069
  252TMC3    C3 3872   2.930   0.707   9.714 -0.6577 -0.5844  0.3529
  252TMC3    C4 3873   2.909   0.443   9.780 -0.5819  1.1496  0.7494
  252TMC3    C5 3874   3.020   0.515   9.812 -0.1692 -0.1315  0.7180
  252TMC3    C6 3875   3.031   0.644   9.777  0.1026 -0.0333  0.0460
  252TMC3     C 3876   2.696   0.428   9.654  0.0656  0.0963  0.0191
  252TMC3     O 3877   2.605   0.494   9.610  0.1213  0.6114 -0.0976
  252TMC3     H 3878   2.739   0.674   9.616 -1.5738 -0.7939  1.1689
  252TMC3    H1 3879   2.908   0.345   9.826 -0.5191 -0.0451 -1.7958
  252TMC3    H2 3880   3.123   0.699   9.792  0.2967 -0.4571  0.3970
  252TMC3    C7 3881   3.131   0.434   9.851  0.4795  0.1013 -0.7604
  252TMC3    C8 3882   2.929   0.846   9.676 -0.3073 -0.2824  0.7400
  252TMC3    O1 3883   3.114   0.323   9.905  0.7735 -0.1516 -0.0221
  252TMC3    O2 3884   2.842   0.880   9.600  0.2851  0.2841  0.3055
  253MPD2     C 3885   3.870   4.013  15.692  0.4373 -0.2015 -0.5545
  253MPD2    C1 3886   3.860   4.152  15.681 -0.0814  0.6718  0.1255
  253MPD2    C2 3887   3.812   4.222  15.790 -0.3674  0.0754 -0.2642
  253MPD2    C3 3888   3.798   4.170  15.917 -0.3651 -0.3345 -0.0542
  253MPD2    C4 3889   3.819   4.038  15.930  0.2434  0.4990  0.2718
  253MPD2    C5 3890   3.849   3.960  15.820 -0.0241 -0.0930  0.0885
  253MPD2     H 3891   3.782   4.323  15.765  0.2664  0.6868  1.4685
  253MPD2    H1 3892   3.815   3.985  16.024  1.0920  1.6400  0.9635
  253MPD2    H2 3893   3.894   3.935  15.621 -2.3339 -2.7927  1.3394
  253MPD2    H3 3894   3.861   3.852  15.832  2.1116  0.3617  1.9849
  253MPD2     N 3895   3.757   4.239  16.032  0.0603  0.6754 -0.0898
  253MPD2    H5 3896   3.752   4.192  16.122  0.2653 -0.6303 -0.7578
  253MPD2    N1 3897   3.878   4.216  15.559  0.9472 -0.2369 -0.5133
  253MPD2    H7 3898   3.866   4.316  15.563 -1.6627 -0.5390 -0.4159
  254TMC3    C1 3899   3.660   4.416  16.150 -0.6629 -0.6120 -0.5204
  254TMC3    C2 3900   3.584   4.530  16.131 -1.0852  0.3992  0.2412
  254TMC3    C3 3901   3.523   4.569  16.243  0.3864  0.8753  0.5994
  254TMC3    C4 3902   3.675   4.347  16.267  0.4565  0.2145 -0.4418
  254TMC3    C5 3903   3.610   4.395  16.373  0.3267 -0.4121 -0.2682
  254TMC3    C6 3904   3.527   4.504  16.359 -0.2056  0.2565  0.6064
  254TMC3     C 3905   3.721   4.368  16.031 -0.4570  0.1203  0.2368
  254TMC3     O 3906   3.727   4.454  15.944 -0.4902 -0.2830  0.3150
  254TMC3     H 3907   3.574   4.573  16.032  1.4632 -1.8617 -0.9833
  254TMC3    H1 3908   3.755   4.278  16.290 -0.0814 -0.4789 -0.6371
  254TMC3    H2 3909   3.477   4.544  16.447 -0.9927  0.4028  0.0980
  254TMC3    C7 3910   3.693   4.411  16.491  0.1814 -0.4159  0.1029
  254TMC3    C8 3911   3.530   4.713  16.264 -0.1194  0.2943 -0.0420
  254TMC3    O1 3912   3.754   4.311  16.532  0.2592 -0.1456  0.3996
  254TMC3    O2 3913   3.542   0.011  16.380  0.3887  0.4441 -1.0054
  255MPD2     C 3914   2.627   1.791  10.216 -0.0817  0.3489 -0.2056
  255MPD2    C1 3915   2.541   1.891  10.200  0.2297  0.0672  0.8115
  255MPD2    C2 3916   2.547   1.962  10.078  0.1720  0.1289 -0.4662
  255MPD2    C3 3917   2.654   1.943   9.988  0.2451 -0.6439 -0.2765
  255MPD2    C4 3918   2.752   1.841  10.020 -0.3647  0.1971  0.0125
  255MPD2    C5 3919   2.734   1.772  10.137  0.6559 -0.3609 -0.4214
  255MPD2     H 3920   2.465   2.026  10.051 -0.1529  0.1975  0.7037
  255MPD2    H1 3921   2.835   1.804   9.961 -0.2066  0.5559  0.0094
  255MPD2    H2 3922   2.617   1.726  10.302 -1.5361 -1.1825 -1.5166
  255MPD2    H3 3923   2.791   1.681  10.148  0.0897 -1.0159 -2.8937
  255MPD2     N 3924   2.667   2.027   9.874  0.4265  0.7113 -0.5423
  255MPD2    H5 3925   2.590   2.091   9.857  0.3723  0.5006 -1.0793
  255MPD2    N1 3926   2.439   1.893  10.300 -0.0898 -0.2835 -1.1395
  255MPD2    H7 3927   2.445   1.826  10.376  1.4500  0.0830 -0.9342
  256TMC3    C1 3928   2.246   1.971  10.420  0.3714 -0.4847 -0.0369
  256TMC3    C2 3929   2.162   2.076  10.444 -0.6433  0.5258 -0.4347
  256TMC3    C3 3930   2.057   2.041  10.528  0.0091  0.0458  0.7506
  256TMC3    C4 3931   2.212   1.840  10.454  0.3827 -0.8902 -1.0193
  256TMC3    C5 3932   2.109   1.815  10.537  0.5786 -0.6411 -0.7541
  256TMC3    C6 3933   2.025   1.919  10.568  0.6457 -0.2825  0.0253
  256TMC3     C 3934   2.334   1.993  10.309 -0.0021  0.1647 -0.2146
  256TMC3     O 3935   2.338   2.104  10.250  0.7227 -0.1749 -0.2485
  256TMC3     H 3936   2.190   2.177  10.415 -0.3552  0.9616  1.3637
  256TMC3    H1 3937   2.272   1.759  10.415  3.2150  0.8318 -0.1563
  256TMC3    H2 3938   1.940   1.901  10.633  0.1523 -0.3353 -0.6348
  256TMC3    C7 3939   2.048   1.680  10.506  0.1404  0.4367  0.5847
  256TMC3    C8 3940   1.980   2.155  10.579  0.5884 -0.6296 -0.2376
  256TMC3    O1 3941   2.095   1.625  10.413 -0.4356  0.7399  0.5853
  256TMC3    O2 3942   1.922   2.142  10.688 -0.1245 -0.0201 -0.0381
  257MPD2     C 3943   1.829   4.578  13.093 -0.1209  0.6904  0.0411
  257MPD2    C1 3944   1.942   4.570  13.010  0.4519  0.1580  0.0933
  257MPD2    C2 3945   2.026   4.460  13.033  0.2682  0.8498 -0.5156
  257MPD2    C3 3946   1.988   4.356  13.122 -0.5660 -0.4590  0.3535
  257MPD2    C4 3947   1.867   4.369  13.196 -0.4039  0.4589  0.4090
  257MPD2    C5 3948   1.797   4.483  13.188  0.0114 -0.2736 -0.2515
  257MPD2     H 3949   2.121   4.467  12.981 -0.9555  1.0151 -2.7184
  257MPD2    H1 3950   1.830   4.300  13.271 -1.4137  0.1482 -0.3735
  257MPD2    H2 3951   1.759   4.658  13.075  0.2867  1.5020  2.0774
  257MPD2    H3 3952   1.705   4.494  13.244  1.7933 -0.5132  2.7334
  257MPD2     N 3953   2.075   4.252  13.131  0.3640  0.2865  0.1633
  257MPD2    H5 3954   2.163   4.273  13.085 -0.9709  2.8847 -1.1367
  257MPD2    N1 3955   1.962   4.668  12.913 -0.7748  0.3215  0.2785
  257MPD2    H7 3956   1.888   4.736  12.905 -2.1551 -1.2071  0.0913
  258TMC3    C1 3957   2.167   4.041  13.223  0.6069 -0.0003 -0.1886
  258TMC3    C2 3958   2.283   4.064  13.152 -0.2188 -0.3973  0.6774
  258TMC3    C3 3959   2.387   3.979  13.163 -0.4350 -0.1457  0.2606
  258TMC3    C4 3960   2.147   3.923  13.285  0.1598  0.3104 -0.2008
  258TMC3    C5 3961   2.254   3.841  13.298 -1.0500 -0.4013  0.5689
  258TMC3    C6 3962   2.372   3.862  13.236 -0.1630  0.3583 -0.1880
  258TMC3     C 3963   2.053   4.140  13.210 -0.2920  0.1417 -0.2006
  258TMC3     O 3964   1.955   4.120  13.286 -0.3748 -0.4533  0.1754
  258TMC3     H 3965   2.294   4.153  13.091 -0.2024 -0.8603  0.0194
  258TMC3    H1 3966   2.055   3.906  13.339 -1.2298  0.2632 -2.5721
  258TMC3    H2 3967   2.448   3.784  13.237  0.4832  1.0122  1.0112
  258TMC3    C7 3968   2.257   3.739  13.405 -0.1956 -0.7650 -0.6762
  258TMC3    C8 3969   2.498   3.973  13.072  1.0598 -0.1086  0.6962
  258TMC3    O1 3970   2.150   3.689  13.442  0.2040 -0.4721 -0.1225
  258TMC3    O2 3971   2.610   3.938  13.116  0.0218  0.0604  0.1894
  259MPD2     C 3972   0.390   1.998   0.491  0.1333  0.3249  0.7410
  259MPD2    C1 3973   0.520   2.004   0.452  0.0786 -0.6574 -0.7368
  259MPD2    C2 3974   0.548   2.015   0.322 -0.1931  0.0372 -0.6229
  259MPD2    C3 3975   0.447   2.014   0.226  0.1299 -0.4002  0.1125
  259MPD2    C4 3976   0.311   2.006   0.266  0.4269  0.3662 -0.1314
  259MPD2    C5 3977   0.292   2.001   0.398 -0.0611 -0.0812  0.1847
  259MPD2     H 3978   0.650   2.012   0.283 -0.1416  1.7392 -0.5990
  259MPD2    H1 3979   0.229   1.988   0.198  0.6669  3.2486 -1.1680
  259MPD2    H2 3980   0.361   2.001   0.596  0.8906 -3.1349  1.0553
  259MPD2    H3 3981   0.192   1.992   0.439 -0.8591  0.9452 -1.5275
  259MPD2     N 3982   0.475   1.992   0.088 -0.3986  0.5726  0.6997
  259MPD2    H5 3983   0.402   1.953   0.030 -1.1566 -0.8064  2.5787
  259MPD2    N1 3984   0.611   1.985   0.556  0.0651 -0.1071  0.5342
  259MPD2    H7 3985   0.582   1.989   0.654 -1.0625  0.7256  0.1602
  260TMC3    C1 3986   0.648   1.930  17.682  0.3248  0.4126  0.6219
  260TMC3    C2 3987   0.730   1.982  17.589  0.2147 -0.1466 -0.2346
  260TMC3    C3 3988   0.782   1.903  17.492 -0.1598  0.3317  0.3462
  260TMC3    C4 3989   0.606   1.796  17.681  0.0121 -0.1201  0.2768
  260TMC3    C5 3990   0.656   1.714  17.583  0.2297  0.1967 -0.1709
  260TMC3    C6 3991   0.741   1.768  17.487 -0.7355 -0.1608  0.3203
  260TMC3     C 3992   0.604   2.027   0.042  0.0441  0.5913 -0.1069
  260TMC3     O 3993   0.677   2.118   0.074  0.0697  0.5630  0.1883
  260TMC3     H 3994   0.773   2.081  17.601 -2.3258  0.8798  0.5136
  260TMC3    H1 3995   0.535   1.760   0.007  0.6430 -2.2719 -0.1760
  260TMC3    H2 3996   0.764   1.716  17.395 -1.6757  1.0577 -0.6159
  260TMC3    C7 3997   0.702   1.587  17.630  0.5816 -0.1637 -0.0497
  260TMC3    C8 3998   0.905   1.946  17.429 -0.0805  0.2927  0.1615
  260TMC3    O1 3999   0.796   1.542  17.563  0.0479 -0.1510 -0.1643
  260TMC3    O2 4000   0.915   2.068  17.410  0.0730 -0.2341  0.5462
  261MPD2     C 4001   2.869   4.366  12.047 -0.3113 -0.0946  0.5493
  261MPD2    C1 4002   2.757   4.410  12.114  0.8369  0.5755 -0.3155
  261MPD2    C2 4003   2.655   4.468  12.041  0.7670  0.2848  0.3519
  261MPD2    C3 4004   2.661   4.473  11.903  0.2378  0.1258 -0.0904
  261MPD2    C4 4005   2.772   4.413  11.838  0.2552  0.0702  0.3346
  261MPD2    C5 4006   2.877   4.368  11.915 -0.1353 -0.0936 -0.0681
  261MPD2     H 4007   2.564   4.498  12.090  0.2965  1.6539 -1.3684
  261MPD2    H1 4008   2.784   4.410  11.730  1.1862  1.9304  0.3959
  261MPD2    H2 4009   2.959   4.338  12.099 -1.2024  0.1041  2.2085
  261MPD2    H3 4010   2.967   4.339  11.862 -0.5118 -1.2321 -0.0676
  261MPD2     N 4011   2.548   4.526  11.830 -0.3122  0.4289  0.0147
  261MPD2    H5 4012   2.465   4.556  11.881 -0.8413  0.3168 -0.7823
  261MPD2    N1 4013   2.753   4.398  12.256  0.4096 -0.1546 -0.2722
  261MPD2    H7 4014   2.843   4.376  12.297 -0.6352 -1.9627  1.0458
  262TMC3    C1 4015   2.439   4.619  11.630  0.5279  0.1493  0.0937
  262TMC3    C2 4016   2.366   4.707  11.706 -0.0465  0.3223  0.3364
  262TMC3    C3 4017   2.280   0.061  11.646 -0.0578 -0.8689  0.5055
  262TMC3    C4 4018   2.427   4.616  11.492  0.3909 -0.5772  0.2851
  262TMC3    C5 4019   2.337   4.706  11.433 -0.2477  0.1706 -0.7190
  262TMC3    C6 4020   2.260   0.058  11.508 -0.0523  0.3937 -0.2272
  262TMC3     C 4021   2.542   4.537  11.690  0.1190 -0.4734  0.6604
  262TMC3     O 4022   2.593   4.463  11.610 -0.2484 -0.5762 -0.1922
  262TMC3     H 4023   2.391   4.715  11.811  1.8774 -2.2197  0.0847
  262TMC3    H1 4024   2.489   4.554  11.429 -0.5227 -1.0198 -0.1925
  262TMC3    H2 4025   2.185   0.120  11.461 -1.1057 -0.1197  0.7881
  262TMC3    C7 4026   2.349   4.733  11.289  0.1159  0.7436  0.0484
  262TMC3    C8 4027   2.220   0.164  11.724  0.4735 -0.5764 -0.3992
  262TMC3    O1 4028   2.399   4.653  11.218 -0.1127  0.5470 -0.2819
  262TMC3    O2 4029   2.212   0.269  11.660  0.7694 -0.4375 -0.4468
  263MPD2     C 4030   3.476   3.755  11.565 -0.3736  0.0300 -0.1602
  263MPD2    C1 4031   3.533   3.692  11.454 -0.2729 -0.0617 -0.0403
  263MPD2    C2 4032   3.504   3.743  11.327 -0.5278  0.3858 -0.7406
  263MPD2    C3 4033   3.408   3.839  11.311  0.0328 -0.4413 -0.5314
  263MPD2    C4 4034   3.339   3.887  11.420  0.5367 -0.0641  0.1809
  263MPD2    C5 4035   3.378   3.844  11.547  0.9651 -0.1857  0.2159
  263MPD2     H 4036   3.569   3.713  11.246 -0.8610 -0.4829 -0.6827
  263MPD2    H1 4037   3.246   3.942  11.417 -0.0764 -1.0998  0.0313
  263MPD2    H2 4038   3.522   3.728  11.659  0.4298 -1.9125 -1.0979
  263MPD2    H3 4039   3.328   3.888  11.632  0.7267 -0.3644  0.1701
  263MPD2     N 4040   3.404   3.894  11.186  0.1022  0.1193  0.2380
  263MPD2    H5 4041   3.474   3.883  11.114  0.8028 -1.2149  1.1223
  263MPD2    N1 4042   3.636   3.598  11.478  0.5781  0.2198 -0.2617
  263MPD2    H7 4043   3.675   3.609  11.571  2.9368 -0.7118 -1.1590
  264TMC3    C1 4044   3.378   4.053  11.015 -0.0923 -0.1526 -0.5138
  264TMC3    C2 4045   3.410   4.186  11.025 -0.7173  0.4355 -0.1953
  264TMC3    C3 4046   3.505   4.221  10.939 -0.0741 -0.4101  0.9166
  264TMC3    C4 4047   3.428   3.964  10.918  0.3074 -0.1422  0.0114
  264TMC3    C5 4048   3.530   4.011  10.837  0.4869 -0.1186 -0.0597
  264TMC3    C6 4049   3.562   4.142  10.844 -0.7128 -0.1593  0.4362
  264TMC3     C 4050   3.324   3.997  11.141  0.0719  0.4790 -0.2148
  264TMC3     O 4051   3.237   4.067  11.195 -0.2649 -0.2916 -0.3752
  264TMC3     H 4052   3.366   4.252  11.100 -1.6383  1.2579 -1.4455
  264TMC3    H1 4053   3.385   3.865  10.920  1.6199 -0.6904  1.3982
  264TMC3    H2 4054   3.626   4.188  10.768 -0.2746  0.0043  0.9043
  264TMC3    C7 4055   3.585   3.927  10.729  0.3022  0.3225  0.2167
  264TMC3    C8 4056   3.583   4.341  10.968  1.1638 -0.5869  1.0060
  264TMC3    O1 4057   3.687   3.952  10.669  0.9875 -0.2292  0.0359
  264TMC3    O2 4058   3.696   4.346  10.921  0.3892  0.4546  0.0015
  265MPD2     C 4059   1.024   4.180  15.554 -0.1677 -0.2109 -0.2230
  265MPD2    C1 4060   1.051   4.289  15.483 -0.4642 -0.3786 -0.2104
  265MPD2    C2 4061   1.108   4.274  15.358 -1.2081  1.0081  0.0929
  265MPD2    C3 4062   1.142   4.143  15.318 -0.3477  0.5514  1.3742
  265MPD2    C4 4063   1.106   4.036  15.401 -0.0569 -0.3898  0.5977
  265MPD2    C5 4064   1.057   4.052  15.523  0.1198  0.1803  0.2935
  265MPD2     H 4065   1.122   4.365  15.300  3.0785  0.7935  0.7567
  265MPD2    H1 4066   1.103   3.936  15.358 -3.1726 -0.2704  0.5274
  265MPD2    H2 4067   0.965   4.185  15.645  0.6647 -3.3492  0.4983
  265MPD2    H3 4068   1.033   3.962  15.578  0.3513 -1.8289 -2.9063
  265MPD2     N 4069   1.205   4.114  15.199 -0.1304  0.4823  0.1728
  265MPD2    H5 4070   1.209   4.016  15.173  0.9096  0.6768 -0.4106
  265MPD2    N1 4071   1.002   4.418  15.527 -0.3646  1.0896 -0.0768
  265MPD2    H7 4072   1.005   4.499  15.466  1.1291 -0.8554 -2.6034
  266TMC3    C1 4073   0.946   4.592  15.697 -0.5518  0.4947  0.2484
  266TMC3    C2 4074   0.998   4.627  15.814 -0.0983  0.1323  0.0585
  266TMC3    C3 4075   0.981   0.017  15.851  0.8818  0.3492  0.7731
  266TMC3    C4 4076   0.881   4.676  15.610  0.0577 -0.0629  0.0335
  266TMC3    C5 4077   0.860   0.069  15.645  0.2165 -0.0216  0.1021
  266TMC3    C6 4078   0.904   0.104  15.769 -0.3612  0.2316 -0.6615
  266TMC3     C 4079   0.967   4.453  15.660  0.9397 -0.3524  0.0939
  266TMC3     O 4080   0.960   4.382  15.756  0.4901  0.5441 -0.8106
  266TMC3     H 4081   1.057   4.550  15.861  1.4733  0.5871 -1.1642
  266TMC3    H1 4082   0.858   4.643  15.509 -2.2803  0.4998  0.3810
  266TMC3    H2 4083   0.888   0.206  15.801 -0.2023 -0.0256  0.2388
  266TMC3    C7 4084   0.782   0.148  15.554  0.2250 -0.0874  0.4474
  266TMC3    C8 4085   1.070   0.075  15.952 -0.2978 -0.1347 -0.0968
  266TMC3    O1 4086   0.729   0.091  15.461 -0.1686 -0.0021 -0.5143
  266TMC3    O2 4087   1.129   4.733  16.027 -1.0271 -0.5884 -0.6024
  267MPD2     C 4088   2.793   2.010   0.193 -0.7254 -0.1929 -0.2629
  267MPD2    C1 4089   2.901   1.993   0.114 -0.4199 -0.1352  0.1971
  267MPD2    C2 4090   2.902   2.029  17.726  0.4087  0.2398  0.3145
  267MPD2    C3 4091   2.798   2.093  17.673  0.1137 -0.7050 -0.1711
  267MPD2    C4 4092   2.686   2.111   0.009 -0.1013  0.1905  0.3916
  267MPD2    C5 4093   2.685   2.074   0.140 -0.3925 -0.0676 -0.4816
  267MPD2     H 4094   2.997   2.009  17.678 -0.3179 -0.5139 -0.8017
  267MPD2    H1 4095   2.594   2.158  17.724 -0.5077  0.1866  1.5934
  267MPD2    H2 4096   2.799   1.991   0.299  0.0107  3.6274  0.3609
  267MPD2    H3 4097   2.587   2.076   0.186 -1.6043 -0.7399 -2.9824
  267MPD2     N 4098   2.791   2.138  17.540  0.5117 -0.4768  0.7419
  267MPD2    H5 4099   2.699   2.177  17.519  0.4575 -0.6206  0.7142
  267MPD2    N1 4100   3.018   1.928   0.158  0.3641  0.1273 -0.1241
  267MPD2    H7 4101   3.100   1.946   0.101 -0.0889 -0.7072 -1.0368
  268TMC3    C1 4102   3.170   1.813   0.286  0.4033 -0.3278  0.1334
  268TMC3    C2 4103   3.255   1.797   0.177 -0.3048 -0.1607 -0.0832
  268TMC3    C3 4104   3.368   1.718   0.202 -0.3776 -0.4627 -0.0072
  268TMC3    C4 4105   3.198   1.760   0.408 -0.3629 -0.1955 -0.0544
  268TMC3    C5 4106   3.309   1.676   0.424  0.6406  0.5182  0.4698
  268TMC3    C6 4107   3.390   1.654   0.319 -0.4119  0.0458 -0.3278
  268TMC3     C 4108   3.040   1.871   0.274 -0.2447  0.0834  0.2568
  268TMC3     O 4109   2.960   1.861   0.365 -0.0306 -0.0294 -0.3755
  268TMC3     H 4110   3.245   1.830   0.075  1.1876  0.6950  0.0399
  268TMC3    H1 4111   3.124   1.771   0.487  0.3149  2.3023  0.2263
  268TMC3    H2 4112   3.482   1.600   0.338  0.1195  0.4067 -1.8280
  268TMC3    C7 4113   3.330   1.604   0.550 -0.3468  0.6349 -0.2503
  268TMC3    C8 4114   3.477   1.723   0.107 -0.3745 -0.0804  0.0450
  268TMC3    O1 4115   3.375   1.491   0.535 -0.0405 -0.5991  0.7177
  268TMC3    O2 4116   3.555   1.630   0.115 -0.0292 -0.6236  0.5564
  269MPD2     C 4117   3.481   4.565  15.756 -0.7188 -0.0450  0.9914
  269MPD2    C1 4118   3.376   4.624  15.827 -0.3639  0.1568  0.2364
  269MPD2    C2 4119   3.329   0.010  15.778 -0.0870  0.1045 -0.9385
  269MPD2    C3 4120   3.399   0.076  15.678  0.2851 -0.0324 -0.4856
  269MPD2    C4 4121   3.511   0.020  15.620  1.2925 -0.0334 -0.7636
  269MPD2    C5 4122   3.554   4.637  15.665 -0.1043  0.6165  0.4775
  269MPD2     H 4123   3.256   0.071  15.831 -1.1139 -2.7216  0.8835
  269MPD2    H1 4124   3.573   0.065  15.544  0.7292  2.9638  0.5300
  269MPD2    H2 4125   3.527   4.471  15.782  0.7219  0.4166  0.0663
  269MPD2    H3 4126   3.641   4.588  15.623 -0.1326  0.2660  0.8336
  269MPD2     N 4127   3.359   0.203  15.632 -0.0204 -0.2441  0.3386
  269MPD2    H5 4128   3.264   0.232  15.655 -0.2125  0.7225 -1.7286
  269MPD2    N1 4129   3.308   4.557  15.935 -0.1144  0.4184 -0.4929
  269MPD2    H7 4130   3.339   4.461  15.945 -0.5972  0.4046  0.8662
  270TMC3    C1 4131   3.124   4.492  16.063  0.8012  0.6901 -0.1844
  270TMC3    C2 4132   2.999   4.471  16.018  0.2036 -0.5511  0.5491
  270TMC3    C3 4133   2.953   4.340  16.003 -0.0334  0.0553  0.0135
  270TMC3    C4 4134   3.208   4.391  16.102 -0.6127 -0.0256 -0.2483
  270TMC3    C5 4135   3.152   4.274  16.109 -0.2809  0.8869 -0.0890
  270TMC3    C6 4136   3.034   4.238  16.053 -0.5034 -0.5972 -0.0331
  270TMC3     C 4137   3.191   4.601  15.995  0.8732 -0.2449 -0.8830
  270TMC3     O 4138   3.130   4.703  15.978  0.2950  0.2287 -0.0754
  270TMC3     H 4139   2.940   4.552  15.979  2.7703  0.3391 -1.4516
  270TMC3    H1 4140   3.309   4.407  16.138 -0.8550  3.5568 -1.1541
  270TMC3    H2 4141   3.001   4.137  16.033  0.6945 -0.8078 -0.9038
  270TMC3    C7 4142   3.245   4.177  16.149 -0.0310 -0.0878 -0.2925
  270TMC3    C8 4143   2.926   4.302  15.861 -0.3376 -0.3541 -0.8649
  270TMC3    O1 4144   3.329   4.204  16.233  0.4417 -0.2005  0.3084
  270TMC3    O2 4145   3.011   4.235  15.806  0.7324  0.0847  0.2581
  271MPD2     C 4146   2.422   4.269  14.079  0.0919 -0.3284  1.4558
  271MPD2    C1 4147   2.351   4.282  14.199  0.1183 -0.9260  0.0845
  271MPD2    C2 4148   2.225   4.334  14.190  0.0162 -0.2092  0.7587
  271MPD2    C3 4149   2.187   4.401  14.077 -0.2074  0.2678  0.1525
  271MPD2    C4 4150   2.268   4.400  13.964 -0.2195  0.3209 -0.0356
  271MPD2    C5 4151   2.379   4.326  13.963  0.0685 -0.5671  0.0762
  271MPD2     H 4152   2.165   4.341  14.280  1.3706  2.9234  1.4037
  271MPD2    H1 4153   2.245   4.436  13.864  0.0262  0.5266 -0.0174
  271MPD2    H2 4154   2.511   4.207  14.084  0.4346 -0.1280 -2.0547
  271MPD2    H3 4155   2.435   4.315  13.871  1.3399 -0.2480  0.8080
  271MPD2     N 4156   2.063   4.466  14.070 -0.0857 -0.1962 -0.8684
  271MPD2    H5 4157   2.036   4.518  13.988 -1.9388 -2.9267 -1.9765
  271MPD2    N1 4158   2.404   4.241  14.321  0.0210  0.0465  0.3546
  271MPD2    H7 4159   2.357   4.274  14.405 -0.1622 -2.3744  1.2075
  272TMC3    C1 4160   2.567   4.174  14.489 -0.6397 -0.0626 -0.3353
  272TMC3    C2 4161   2.668   4.094  14.522 -0.0092 -0.2697 -0.4761
  272TMC3    C3 4162   2.745   4.128  14.625  0.0065  0.0326  0.1639
  272TMC3    C4 4163   2.532   4.279  14.569  0.3942  0.5835  0.0022
  272TMC3    C5 4164   2.605   4.302  14.682 -0.2682 -0.1415  0.3280
  272TMC3    C6 4165   2.714   4.227  14.712  0.5690 -0.0949  0.4416
  272TMC3     C 4166   2.521   4.173  14.349  0.5596 -0.0168  0.4518
  272TMC3     O 4167   2.599   4.115  14.275 -0.1796 -0.8714  0.0246
  272TMC3     H 4168   2.706   4.027  14.446  4.1042  0.1603  1.2113
  272TMC3    H1 4169   2.466   4.354  14.527  0.0891  1.7498  2.5327
  272TMC3    H2 4170   2.776   4.241  14.800  0.8017 -0.0724  0.2729
  272TMC3    C7 4171   2.606   4.431  14.744 -0.3369 -0.1806 -0.1955
  272TMC3    C8 4172   2.877   4.073  14.604 -0.0321  0.3489 -0.6390
  272TMC3    O1 4173   2.705   4.462  14.808  0.1133 -0.1532  0.3013
  272TMC3    O2 4174   2.928   4.089  14.493  0.6201  0.3732  0.1114
  273MPD2     C 4175   4.126   3.040  11.563  0.2121  0.4479  0.2101
  273MPD2    C1 4176   4.260   3.048  11.576 -0.2924  0.1780 -0.7804
  273MPD2    C2 4177   4.342   3.034  11.457  0.0570  0.8958  0.6256
  273MPD2    C3 4178   4.285   3.007  11.336 -0.4082  1.0070  0.0674
  273MPD2    C4 4179   4.150   3.008  11.332 -0.5370  0.2607 -0.3607
  273MPD2    C5 4180   4.067   3.020  11.441  0.1661  0.3036  0.7982
  273MPD2     H 4181   4.449   3.032  11.469  0.2156 -0.9807 -1.0793
  273MPD2    H1 4182   4.106   3.020  11.234  0.4693 -1.3780 -1.0133
  273MPD2    H2 4183   4.073   3.053  11.656  2.0350  1.2001  1.1470
  273MPD2    H3 4184   3.958   3.021  11.436  0.1357  0.7414  1.6213
  273MPD2     N 4185   4.363   2.983  11.218 -0.6999 -0.2204 -0.2781
  273MPD2    H5 4186   4.304   2.968  11.137 -0.1367 -0.2106 -0.6821
  273MPD2    N1 4187   4.311   3.075  11.702 -0.0028  0.2589 -0.4344
  273MPD2    H7 4188   4.244   3.099  11.774  0.4963 -1.4642  0.5994
  274TMC3    C1 4189   4.537   2.939  11.080 -0.6601 -1.0440 -0.1775
  274TMC3    C2 4190   4.439   2.892  10.998 -0.1528 -0.0081 -0.2139
  274TMC3    C3 4191   4.437   2.931  10.867 -0.3095  0.3826  0.3314
  274TMC3    C4 4192   4.627   3.028  11.035  0.3776  0.5646  0.5990
  274TMC3    C5 4193   4.619   3.079  10.911 -0.3377 -0.0265  0.7104
  274TMC3    C6 4194   4.518   3.032  10.828 -0.3285 -0.5142  0.1572
  274TMC3     C 4195   4.495   2.955  11.210  0.1791 -0.4017  0.1162
  274TMC3     O 4196   4.583   2.973  11.291  0.4643 -0.2455 -0.1337
  274TMC3     H 4197   4.363   2.830  11.044 -0.6230  2.7917  2.7784
  274TMC3    H1 4198   4.706   3.069  11.097  1.7491  0.4659 -1.1004
  274TMC3    H2 4199   4.483   3.086  10.740 -0.5456  1.2930  1.3413
  274TMC3    C7 4200   4.636   3.226  10.929  0.5928  0.6735  0.2801
  274TMC3    C8 4201   4.308   2.904  10.796  1.1877  0.2239 -0.3984
  274TMC3    O1 4202   0.010   3.285  10.937 -0.7192  0.7605  0.2805
  274TMC3    O2 4203   4.214   2.871  10.870  0.0916 -0.3698  0.8547
  275MPD2     C 4204   4.381   0.215  14.366  0.1255 -0.3227 -0.4214
  275MPD2    C1 4205   4.306   0.175  14.473 -0.0862 -0.3397 -0.3518
  275MPD2    C2 4206   4.201   0.091  14.468 -0.0351  0.5993 -0.2030
  275MPD2    C3 4207   4.172   0.038  14.340  0.7268  0.2317 -0.1684
  275MPD2    C4 4208   4.241   0.077  14.230 -0.3804  0.5469  0.7868
  275MPD2    C5 4209   4.343   0.173  14.241  0.1726  0.3587 -0.8777
  275MPD2     H 4210   4.153   0.063  14.562 -0.7600  0.2676 -0.6674
  275MPD2    H1 4211   4.199   0.037  14.139  0.0449 -1.4987  1.5040
  275MPD2    H2 4212   4.457   0.292  14.375 -0.1270 -0.1451  0.2243
  275MPD2    H3 4213   4.405   0.207  14.159  2.3539 -1.0281  0.1971
  275MPD2     N 4214   4.050   4.705  14.315 -0.4632  0.7051 -0.0950
  275MPD2    H5 4215   4.029   4.703  14.216  1.4507 -0.8257 -0.4819
  275MPD2    N1 4216   4.331   0.227  14.600  0.6309  0.6949 -0.1997
  275MPD2    H7 4217   4.268   0.200  14.675  0.7281  1.1339  0.0356
  276TMC3    C1 4218   4.418   0.361  14.777  0.1518 -0.3188  0.0907
  276TMC3    C2 4219   4.389   0.274  14.871  0.4530  0.3082 -0.2605
  276TMC3    C3 4220   4.403   0.308  15.003  1.0520  0.5005  0.6396
  276TMC3    C4 4221   4.490   0.468  14.815  0.4636  0.4513  0.0072
  276TMC3    C5 4222   4.517   0.496  14.945  0.1380  0.6394  0.2244
  276TMC3    C6 4223   4.465   0.419  15.045  0.5631  0.1674 -0.1625
  276TMC3     C 4224   4.428   0.323  14.635 -0.3161 -0.7303  0.0024
  276TMC3     O 4225   4.505   0.393  14.567 -0.5174  0.4510  0.4065
  276TMC3     H 4226   4.324   0.189  14.854  2.0611 -0.7296 -1.2273
  276TMC3    H1 4227   4.543   0.522  14.737 -1.0866 -0.3109 -1.5724
  276TMC3    H2 4228   4.480   0.447  15.149 -0.3220  0.9365 -0.2455
  276TMC3    C7 4229   4.586   0.619  14.997  0.3280  0.1967  0.2259
  276TMC3    C8 4230   4.332   0.227  15.101 -0.3894  0.3985 -0.4055
  276TMC3    O1 4231   4.633   0.606  15.110 -0.0664 -0.2015  0.6739
  276TMC3    O2 4232   4.226   0.178  15.065 -0.1843 -0.2115  0.0435
  277MPD2     C 4233   0.771   0.266  13.104  0.3383  0.3582 -0.9942
  277MPD2    C1 4234   0.738   0.342  13.216 -0.2036 -0.0011  0.0356
  277MPD2    C2 4235   0.726   0.273  13.337 -0.1908 -0.4552  0.6511
  277MPD2    C3 4236   0.755   0.139  13.352  0.1345 -0.2494  0.1513
  277MPD2    C4 4237   0.775   0.070  13.236 -0.0342  0.8288  0.1078
  277MPD2    C5 4238   0.784   0.136  13.117  0.7830 -0.5214 -0.0581
  277MPD2     H 4239   0.705   0.324  13.430 -1.1885 -0.6956  0.5632
  277MPD2    H1 4240   0.791   4.700  13.235 -0.7011  0.7153  1.5072
  277MPD2    H2 4241   0.766   0.317  13.008  1.8737 -0.4248 -1.4946
  277MPD2    H3 4242   0.825   0.077  13.035 -0.9418  0.4086 -1.6046
  277MPD2     N 4243   0.751   0.077  13.480 -0.7110 -0.1689 -0.3223
  277MPD2    H5 4244   0.732   0.140  13.557  3.3616  0.5293  0.1075
  277MPD2    N1 4245   0.708   0.479  13.198  0.0405 -0.3018 -0.4434
  277MPD2    H7 4246   0.720   0.520  13.106  0.0363  0.3551 -0.1495
  278TMC3    C1 4247   0.783   4.624  13.631 -0.3648  0.1057 -0.6495
  278TMC3    C2 4248   0.845   4.507  13.647 -0.4022 -0.4657  0.3286
  278TMC3    C3 4249   0.793   4.412  13.729  0.4033  0.0481  0.2877
  278TMC3    C4 4250   0.661   4.650  13.702 -0.1997  0.8116 -0.2791
  278TMC3    C5 4251   0.606   4.545  13.769  0.5724  0.2786  0.1957
  278TMC3    C6 4252   0.674   4.430  13.795 -0.2405  0.1362  0.0412
  278TMC3     C 4253   0.803   4.688  13.497 -0.5451  0.2930  0.3531
  278TMC3     O 4254   0.873   4.623  13.417  0.2328  0.4627 -0.1353
  278TMC3     H 4255   0.938   4.486  13.596 -0.2050  0.0826  0.4572
  278TMC3    H1 4256   0.598   4.733  13.669 -1.8010  0.7112  2.4610
  278TMC3    H2 4257   0.642   4.359  13.869  0.9447 -0.3961  0.0524
  278TMC3    C7 4258   0.488   4.568  13.839  0.0087 -0.1996 -0.4516
  278TMC3    C8 4259   0.864   4.290  13.750  0.3005 -0.2919 -0.0353
  278TMC3    O1 4260   0.477   4.680  13.879  0.1828 -0.2051 -0.3433
  278TMC3    O2 4261   0.984   4.298  13.732  0.0078 -0.1639 -0.1407
  279MPD2     C 4262   0.682   4.450   0.123 -0.5230  0.6540  0.4274
  279MPD2    C1 4263   0.574   4.515   0.067  0.8403  0.0797 -0.2906
  279MPD2    C2 4264   0.572   4.547  17.678  0.7531 -0.2004 -0.8023
  279MPD2    C3 4265   0.678   4.518  17.593 -0.3733  0.0674 -0.1063
  279MPD2    C4 4266   0.786   4.453  17.648  0.3449  0.1122  0.7696
  279MPD2    C5 4267   0.784   4.419   0.034 -0.3746 -0.4261  0.3284
  279MPD2     H 4268   0.490   4.607  17.640  0.1768 -0.9228 -0.6774
  279MPD2    H1 4269   0.874   4.433  17.588 -2.5773 -1.2497 -3.0387
  279MPD2    H2 4270   0.698   4.411   0.223  1.2176  0.6293  0.1525
  279MPD2    H3 4271   0.862   4.363   0.085 -0.2530 -0.2054  0.3846
  279MPD2     N 4272   0.683   4.574  17.466 -0.5051 -0.4932  0.3247
  279MPD2    H5 4273   0.774   4.580  17.422  0.2622  1.0741  2.1117
  279MPD2    N1 4274   0.465   4.559   0.144 -0.2650  0.6636  0.2491
  279MPD2    H7 4275   0.397   4.620   0.101 -0.4273  0.4544  0.2123
  280TMC3    C1 4276   0.312   4.559   0.316 -0.3364  0.4322 -0.0982
  280TMC3    C2 4277   0.217   4.472   0.272 -0.3252  0.6288 -0.1393
  280TMC3    C3 4278   0.085   4.521   0.260 -0.0105  0.6034 -1.1316
  280TMC3    C4 4279   0.286   4.695   0.323 -0.1964 -0.0297 -0.6582
  280TMC3    C5 4280   0.159   0.008   0.305  0.7788  0.7982  0.1444
  280TMC3    C6 4281   0.049   4.653   0.286 -0.5733 -0.7246 -0.1592
  280TMC3     C 4282   0.443   4.512   0.271  0.6295  0.3506  0.3429
  280TMC3     O 4283   0.486   4.409   0.324  0.3421 -0.1348 -0.1254
  280TMC3     H 4284   0.231   4.365   0.261  0.5035  0.6223  0.9155
  280TMC3    H1 4285   0.374   0.021   0.332 -1.8060  2.2957 -1.3022
  280TMC3    H2 4286   4.687   4.695   0.299 -0.2691 -0.2476  0.6915
  280TMC3    C7 4287   0.145   0.150   0.330 -0.2648 -0.0795 -0.1988
  280TMC3    C8 4288   4.716   4.419   0.251  0.0921  0.3656 -0.0638
  280TMC3    O1 4289   0.238   0.194   0.399  0.1692  0.1398  0.7647
  280TMC3    O2 4290   4.722   4.338   0.161  0.3065 -0.1038 -0.0466
  281TMC3    C1 4291   4.316   0.291  13.537  0.4965  0.7976 -0.1133
  281TMC3    C2 4292   4.329   0.356  13.413 -0.0496  0.5748 -0.8720
  281TMC3    C3 4293   4.425   0.323  13.322 -0.6130  0.3068  0.7350
  281TMC3    C4 4294   4.406   0.190  13.555 -0.1957  0.3723  0.1821
  281TMC3    C5 4295   4.522   0.166  13.477  0.6640 -0.0226  0.4500
  281TMC3    C6 4296   4.527   0.229  13.356  0.6121 -0.1246 -0.0800
  281TMC3     C 4297   4.182   0.268  13.586 -0.3477  0.1659  0.0775
  281TMC3     O 4298   4.155   0.152  13.605 -0.0442 -1.0454  0.4803
  281TMC3     H 4299   4.255   0.433  13.392 -1.8054 -1.0547 -0.5490
  281TMC3    H1 4300   4.396   0.134  13.647 -0.7468 -1.8109 -1.2254
  281TMC3    H2 4301   4.605   0.201  13.285 -0.8862 -2.3457 -0.8436
  281TMC3    C7 4302   4.561   0.022  13.455 -0.6006 -0.2054  0.3789
  281TMC3    C8 4303   4.411   0.374  13.186  0.3384 -0.0785  0.1210
  281TMC3    O1 4304   4.663   0.008  13.388  0.2198  0.6243  0.1081
  281TMC3    O2 4305   4.511   0.406  13.117  0.7007 -0.3440 -0.3290
  282MPD2     C 4306   1.177   1.536  15.143  0.0534 -0.0252 -0.5502
  282MPD2    C1 4307   1.040   1.533  15.172  0.3998  0.0958  0.7322
  282MPD2    C2 4308   0.954   1.498  15.067  0.1296 -0.1991  0.2785
  282MPD2    C3 4309   0.995   1.482  14.934  0.4346 -0.2670 -0.1308
  282MPD2    C4 4310   1.135   1.485  14.908 -0.2790  0.1886 -0.4381
  282MPD2    C5 4311   1.221   1.514  15.013  0.4106 -0.4907  0.0172
  282MPD2     H 4312   0.851   1.511  15.099 -0.0773  0.1055 -0.5042
  282MPD2    H1 4313   1.172   1.484  14.806  0.6860 -2.0374 -0.0748
  282MPD2    H2 4314   1.250   1.541  15.222  0.6149 -1.3015 -1.0003
  282MPD2    H3 4315   1.329   1.523  15.000  0.2078  0.0738 -1.2406
  282MPD2     N 4316   0.899   1.463  14.828  0.4521 -0.6779  0.6664
  282MPD2    H5 4317   0.804   1.468  14.863  0.6536  0.6755  1.0005
  282MPD2    N1 4318   0.983   1.565  15.301 -0.2557  0.1257  0.5821
  282MPD2    H7 4319   0.882   1.552  15.305 -0.6686  2.5610 -1.9127
  283TMC3    C1 4320   0.937   1.628  15.511  0.1874  0.4662 -1.0164
  283TMC3    C2 4321   0.966   1.732  15.593 -0.6255 -0.2792  0.3177
  283TMC3    C3 4322   0.916   1.724  15.724  0.1811  0.1343  0.9017
  283TMC3    C4 4323   0.876   1.511  15.547 -0.2703 -0.1216  0.2731
  283TMC3    C5 4324   0.827   1.513  15.678 -0.2651 -0.0750 -0.0259
  283TMC3    C6 4325   0.845   1.612  15.764 -0.6908  0.4848 -0.1275
  283TMC3     C 4326   1.039   1.610  15.414 -0.3306 -0.1078  0.7361
  283TMC3     O 4327   1.158   1.635  15.440  0.3316 -0.2905  0.2099
  283TMC3     H 4328   1.038   1.806  15.560 -1.3032  0.6684  0.9612
  283TMC3    H1 4329   0.863   1.436  15.470 -0.4195  0.9252 -0.7130
  283TMC3    H2 4330   0.802   1.614  15.864  1.7256  4.3113  0.8333
  283TMC3    C7 4331   0.780   1.394  15.735  0.1429  0.0661  0.6700
  283TMC3    C8 4332   0.896   1.841  15.804 -0.2146  0.9603 -0.0101
  283TMC3    O1 4333   0.770   1.383  15.855  0.1989  0.1160  0.0616
  283TMC3    O2 4334   0.806   1.838  15.886 -0.2559  0.2010 -0.0427
  284MPD2     C 4335   3.522   0.820  11.610  0.2910  0.0982 -0.5264
  284MPD2    C1 4336   3.664   0.793  11.610  0.3036  0.0754  0.5381
  284MPD2    C2 4337   3.704   0.686  11.686 -0.4863 -0.5272 -0.0499
  284MPD2    C3 4338   3.624   0.594  11.750 -0.9548  0.4227  0.1810
  284MPD2    C4 4339   3.492   0.625  11.743 -0.0483 -0.0425 -0.4872
  284MPD2    C5 4340   3.437   0.734  11.672 -0.4504  0.7958  0.1158
  284MPD2     H 4341   3.810   0.683  11.706 -0.5616  1.7187  0.6941
  284MPD2    H1 4342   3.420   0.558  11.787  0.1229  0.0609 -0.0449
  284MPD2    H2 4343   3.474   0.903  11.561  0.3430 -0.8573 -2.2238
  284MPD2    H3 4344   3.329   0.741  11.669 -0.5320 -0.3426  0.4478
  284MPD2     N 4345   3.677   0.500  11.839 -0.0806 -0.2671 -0.6030
  284MPD2    H5 4346   3.776   0.478  11.837 -0.2310 -0.8129 -1.9711
  284MPD2    N1 4347   3.759   0.877  11.547 -0.3251 -0.1521 -0.6470
  284MPD2    H7 4348   3.856   0.852  11.563 -0.7079 -2.4211 -1.8760
  285TMC3    C1 4349   3.851   1.046  11.405  0.0091  0.4549 -0.3367
  285TMC3    C2 4350   3.912   0.967  11.315 -0.1920 -0.2413  0.0772
  285TMC3    C3 4351   4.048   0.985  11.298 -0.3440  0.2899  0.3207
  285TMC3    C4 4352   3.920   1.152  11.461 -0.5868  0.4957 -0.1360
  285TMC3    C5 4353   4.055   1.172  11.424  0.1470 -0.1731  0.7292
  285TMC3    C6 4354   4.123   1.090  11.343  0.2600  0.8810  0.4073
  285TMC3     C 4355   3.733   0.992  11.476  0.6351  0.1854 -0.0524
  285TMC3     O 4356   3.627   1.040  11.456 -0.3224  0.3227 -0.5450
  285TMC3     H 4357   3.869   0.883  11.262 -1.0310 -0.9002  1.8257
  285TMC3    H1 4358   3.863   1.204  11.537 -1.5703  0.2878 -0.7318
  285TMC3    H2 4359   4.221   1.124  11.312  0.9631 -1.3234  0.2398
  285TMC3    C7 4360   4.125   1.276  11.491  0.7768  0.4682  0.2588
  285TMC3    C8 4361   4.113   0.891  11.208 -0.0729 -0.3329 -0.1588
  285TMC3    O1 4362   4.054   1.365  11.531 -0.2139  0.7531 -0.2208
  285TMC3    O2 4363   4.037   0.820  11.143  0.3638  0.5482  0.2674
  286MPD2     C 4364   4.473   4.586   1.352  0.2158 -0.3866 -0.4008
  286MPD2    C1 4365   4.382   4.517   1.269  0.0906  0.1199 -0.3636
  286MPD2    C2 4366   4.395   4.383   1.253  0.0969  0.1448 -1.0516
  286MPD2    C3 4367   4.487   4.308   1.329  0.2238  0.5577  0.0248
  286MPD2    C4 4368   4.579   4.373   1.407  0.1341 -0.1271 -0.9225
  286MPD2    C5 4369   4.570   4.510   1.419 -0.1608  0.2512  0.9611
  286MPD2     H 4370   4.328   4.336   1.182 -2.3777  0.7347  0.8737
  286MPD2    H1 4371   4.652   4.321   1.468 -0.8062 -4.7570 -3.8137
  286MPD2    H2 4372   4.471   4.694   1.361 -1.5357 -0.5656  1.2820
  286MPD2    H3 4373   4.645   4.573   1.465 -0.9224  2.8002 -1.2230
  286MPD2     N 4374   4.493   4.162   1.334  0.3252  0.0035 -0.0881
  286MPD2    H5 4375   4.555   4.130   1.408 -1.2815 -0.0102  1.2538
  286MPD2    N1 4376   4.281   4.588   1.192  0.5626 -0.1760  0.4749
  286MPD2    H7 4377   4.220   4.530   1.135  1.9799 -0.9279 -0.2911
  287TMC3    C1 4378   4.480   3.943   1.247 -0.2089  0.2441  0.4592
  287TMC3    C2 4379   4.415   3.856   1.167 -0.4448  0.6615 -0.2830
  287TMC3    C3 4380   4.485   3.768   1.094  0.1217  0.4933  0.2044
  287TMC3    C4 4381   4.609   3.928   1.282  0.0564 -0.1697  0.6709
  287TMC3    C5 4382   4.675   3.818   1.223  0.7765  0.1226 -0.1822
  287TMC3    C6 4383   4.618   3.742   1.121  0.1799  0.3351 -0.7460
  287TMC3     C 4384   4.416   4.073   1.254 -0.3562 -0.2180  0.5799
  287TMC3     O 4385   4.331   4.103   1.168 -0.2615 -0.6975  0.4839
  287TMC3     H 4386   4.311   3.868   1.141 -0.4475 -0.4942 -0.8005
  287TMC3    H1 4387   4.668   4.000   1.337 -0.5019  0.8996 -0.1289
  287TMC3    H2 4388   4.663   3.653   1.077 -0.2765 -0.0939 -0.3567
  287TMC3    C7 4389   0.071   3.787   1.270  0.4086  0.1806 -0.3741
  287TMC3    C8 4390   4.432   3.721   0.966  0.4077 -0.1814 -0.1799
  287TMC3    O1 4391   0.112   3.837   1.370  0.5734 -0.0039 -0.4503
  287TMC3    O2 4392   4.489   3.629   0.913 -0.0537 -0.0239 -0.0488
  288TMC3    C1 4393   1.099   4.171  14.325 -0.4172  0.1719 -0.1742
  288TMC3    C2 4394   1.078   4.204  14.460 -0.6610  0.4904 -0.1880
  288TMC3    C3 4395   1.040   4.328  14.492  0.7534 -0.3597 -0.2036
  288TMC3    C4 4396   1.079   4.261  14.223 -0.2067 -0.8990 -0.5093
  288TMC3    C5 4397   1.045   4.390  14.262 -0.2132 -0.2414 -0.5385
  288TMC3    C6 4398   1.014   4.420  14.393 -1.1065  0.3228  0.0030
  288TMC3     C 4399   1.124   4.031  14.299  0.2954  0.4759  0.3328
  288TMC3     O 4400   1.142   3.948  14.385  0.2093 -0.1181  0.0554
  288TMC3     H 4401   1.077   4.120  14.529  1.5163 -0.8015 -1.7172
  288TMC3    H1 4402   1.094   4.233  14.120  0.9815 -0.9733 -0.3214
  288TMC3    H2 4403   0.984   4.521  14.418 -2.9465 -0.3210  0.3451
  288TMC3    C7 4404   1.052   4.500  14.169  0.0951  0.2697 -0.2905
  288TMC3    C8 4405   1.021   4.360  14.632  0.2073 -0.2412  0.0375
  288TMC3    O1 4406   0.996   4.604  14.205 -0.6265  0.0878  0.2051
  288TMC3    O2 4407   1.021   4.480  14.661 -0.1479  0.2684 -0.1439
  289MPD2     C 4408   1.673   3.099  14.669 -1.0239 -0.4909  0.1156
  289MPD2    C1 4409   1.649   3.218  14.607  0.6122 -0.2892 -1.0264
  289MPD2    C2 4410   1.520   3.257  14.578 -0.0291  0.0090 -0.4899
  289MPD2    C3 4411   1.411   3.180  14.607 -0.0400  0.0632 -0.5331
  289MPD2    C4 4412   1.441   3.068  14.677  0.0225 -0.0858  0.6505
  289MPD2    C5 4413   1.568   3.024  14.707 -1.1067  0.6516 -0.3100
  289MPD2     H 4414   1.500   3.350  14.526 -0.2596  0.4503  0.4059
  289MPD2    H1 4415   1.354   3.011  14.706 -1.7657  1.1940 -2.2907
  289MPD2    H2 4416   1.772   3.068  14.700 -0.8059 -0.4035 -0.4881
  289MPD2    H3 4417   1.587   2.935  14.765 -1.4947  1.2606  0.7698
  289MPD2     N 4418   1.282   3.222  14.577 -0.0027 -0.5184  0.2702
  289MPD2    H5 4419   1.204   3.166  14.610 -1.4575  2.1103  1.3074
  289MPD2    N1 4420   1.767   3.294  14.576  0.3100 -0.1115 -0.0672
  289MPD2    H7 4421   1.854   3.246  14.593  1.6236  2.9025  1.8845
  290TMC3    C1 4422   1.120   3.324  14.446 -0.0436 -0.4094 -0.0551
  290TMC3    C2 4423   1.075   3.437  14.381  0.1678 -0.6337  0.0728
  290TMC3    C3 4424   0.980   3.418  14.284 -0.1356 -0.0922 -0.0893
  290TMC3    C4 4425   1.068   3.198  14.417  0.1161  0.2555 -0.3344
  290TMC3    C5 4426   0.966   3.190  14.324  0.6458  0.1636 -0.1454
  290TMC3    C6 4427   0.923   3.302  14.254 -0.5398 -0.0752 -0.1354
  290TMC3     C 4428   1.255   3.326  14.491  0.0956 -0.4355  0.3054
  290TMC3     O 4429   1.320   3.399  14.414 -0.2246  0.0009 -0.0334
  290TMC3     H 4430   1.116   3.538  14.386 -0.3967 -0.3819 -0.3276
  290TMC3    H1 4431   1.105   3.106  14.460 -0.3472 -0.5552 -1.6788
  290TMC3    H2 4432   0.841   3.291  14.184 -1.6354 -0.5695  1.2293
  290TMC3    C7 4433   0.882   3.076  14.326  0.1745 -0.0483 -0.4732
  290TMC3    C8 4434   0.941   3.530  14.203  0.4146  0.8536  0.2065
  290TMC3    O1 4435   0.925   2.976  14.387  0.0211 -0.1377  0.1846
  290TMC3    O2 4436   0.921   3.500  14.087  0.3006 -0.0173 -0.1889
  291MPD2     C 4437   0.209   3.328  17.291  0.0384 -0.1619  0.4089
  291MPD2    C1 4438   0.205   3.294  17.420 -0.3506 -0.7698 -0.3898
  291MPD2    C2 4439   0.271   3.373  17.517  0.2222  0.3855 -0.0062
  291MPD2    C3 4440   0.324   3.491  17.474  0.2847 -0.2217 -0.6692
  291MPD2    C4 4441   0.317   3.527  17.344 -0.4299 -0.0689  0.8135
  291MPD2    C5 4442   0.252   3.456  17.253 -0.7993 -0.6424 -0.2288
  291MPD2     H 4443   0.268   3.341  17.621  0.5701  0.2746 -0.0301
  291MPD2    H1 4444   0.361   3.623  17.323 -0.1104 -0.3114  0.3849
  291MPD2    H2 4445   0.165   3.272  17.209  0.2745 -1.5971  1.2685
  291MPD2    H3 4446   0.250   3.490  17.150 -3.5832 -0.2172 -0.0523
  291MPD2     N 4447   0.382   3.578  17.565  0.3872  0.2126  0.0328
  291MPD2    H5 4448   0.391   3.675  17.536  1.1819 -0.0961 -0.7655
  291MPD2    N1 4449   0.131   3.183  17.466 -0.0253  0.1243 -0.3309
  291MPD2    H7 4450   0.140   3.161  17.565 -0.0835 -1.2450 -0.6275
  292TMC3    C1 4451   4.691   3.034  17.496 -1.5133 -0.6058  0.3898
  292TMC3    C2 4452   4.683   3.094  17.622  0.1443  0.0952  0.4405
  292TMC3    C3 4453   4.613   3.020  17.721 -0.3040 -0.5853  0.6806
  292TMC3    C4 4454   4.647   2.908  17.472  0.0792 -1.1637 -0.4907
  292TMC3    C5 4455   4.581   2.834  17.572  1.0151 -0.4664  0.2458
  292TMC3    C6 4456   4.572   2.889  17.702 -0.3620  0.5405 -0.0034
  292TMC3     C 4457   0.049   3.095  17.399  0.4509  0.6375 -0.1429
  292TMC3     O 4458   0.024   3.075  17.280 -0.4162 -0.3262 -0.0059
  292TMC3     H 4459   4.705   3.199  17.639 -0.5770  0.2101  0.6647
  292TMC3    H1 4460   4.668   2.857  17.379  2.2593 -0.9316 -0.1351
  292TMC3    H2 4461   4.543   2.829   0.040  0.3901 -0.8779 -0.7311
  292TMC3    C7 4462   4.589   2.684  17.561  0.7527 -0.3761 -0.3810
  292TMC3    C8 4463   4.553   3.099   0.077  0.9976 -0.2176 -0.6793
  292TMC3    O1 4464   4.651   2.645  17.461 -0.1308 -0.1533 -0.6892
  292TMC3    O2 4465   4.583   3.221   0.076  0.6727 -0.2585 -0.5228
  293MPD2     C 4466   2.515   4.728  12.382  0.0976 -0.0474 -0.2301
  293MPD2    C1 4467   2.401   4.677  12.441  0.6275  0.3116 -0.2104
  293MPD2    C2 4468   2.392   4.658  12.579  0.2494  0.0332 -0.9784
  293MPD2    C3 4469   2.488   4.704  12.659  0.5097 -1.0164  0.0747
  293MPD2    C4 4470   2.599   0.022  12.606 -0.1134 -0.5708 -0.1488
  293MPD2    C5 4471   2.611   0.033  12.472 -0.4298 -0.1255 -0.2305
  293MPD2     H 4472   2.306   4.606  12.620  1.5765 -0.8705  0.6713
  293MPD2    H1 4473   2.684   0.066  12.658  0.5367 -1.5908 -0.3549
  293MPD2    H2 4474   2.533   4.724  12.275  1.7122 -3.4499  0.1894
  293MPD2    H3 4475   2.697   0.091  12.440 -0.7816  0.5626  0.0540
  293MPD2     N 4476   2.458   4.706  12.798  0.0821 -0.1391 -0.0426
  293MPD2    H5 4477   2.360   4.683  12.811  0.4419 -1.6036  0.0432
  293MPD2    N1 4478   2.302   4.637  12.346  0.1401 -0.1619 -0.1448
  293MPD2    H7 4479   2.325   4.660  12.250  0.1793 -1.0294 -0.3432
  294TMC3    C1 4480   2.097   4.536  12.261  0.2295  0.3338  0.0677
  294TMC3    C2 4481   1.993   4.451  12.289  0.8028  0.5442  0.4920
  294TMC3    C3 4482   1.945   4.373  12.192  0.1569  0.0237 -0.2068
  294TMC3    C4 4483   2.142   4.551  12.129  0.4843 -0.3804 -0.4416
  294TMC3    C5 4484   2.093   4.454  12.038 -0.9706 -0.4186  0.1513
  294TMC3    C6 4485   1.993   4.359  12.065 -0.4708 -0.0085 -0.1901
  294TMC3     C 4486   2.179   4.579  12.375 -0.5536 -0.0632 -0.4599
  294TMC3     O 4487   2.131   4.533  12.479 -0.8146 -0.0932  0.5137
  294TMC3     H 4488   1.959   4.427  12.389 -1.0741  1.3584  0.0476
  294TMC3    H1 4489   2.238   4.597  12.108  1.4724 -1.8222  0.9206
  294TMC3    H2 4490   1.950   4.296  11.988  0.5798 -1.3216  0.2905
  294TMC3    C7 4491   2.142   4.466  11.902 -0.1872 -0.1646  0.5292
  294TMC3    C8 4492   1.830   4.306  12.236 -0.4381 -0.1485  0.0194
  294TMC3    O1 4493   2.170   4.571  11.858  0.1894 -0.5395  0.0205
  294TMC3    O2 4494   1.748   4.356  12.312  0.2373  0.0839  0.3319
  295MPD2     C 4495   3.621   3.568   1.078 -0.0194  0.7775  0.6337
  295MPD2    C1 4496   3.551   3.478   1.003 -0.2283  0.2171 -0.6601
  295MPD2    C2 4497   3.549   3.344   1.041  0.4095 -0.5107  0.0003
  295MPD2    C3 4498   3.617   3.301   1.155 -0.3644  0.4620  1.1128
  295MPD2    C4 4499   3.698   3.388   1.218  0.6245 -0.2729 -0.2154
  295MPD2    C5 4500   3.692   3.521   1.190  0.6955  0.1568 -0.5118
  295MPD2     H 4501   3.478   3.288   0.981  0.9875  0.6922 -1.8058
  295MPD2    H1 4502   3.758   3.362   1.305 -0.4331 -0.4973  0.4482
  295MPD2    H2 4503   3.617   3.675   1.057  0.7252  0.7298  0.2438
  295MPD2    H3 4504   3.753   3.587   1.250  0.2627 -0.7402  0.9129
  295MPD2     N 4505   3.608   3.170   1.207 -0.8721 -0.1761  0.3187
  295MPD2    H5 4506   3.650   3.156   1.299  0.1687  0.3301 -0.0831
  295MPD2    N1 4507   3.474   3.508   0.889 -0.2816 -0.3649  0.6261
  295MPD2    H7 4508   3.426   3.425   0.855 -1.4304  0.7868 -0.5410
  296TMC3    C1 4509   3.533   2.948   1.225  0.3099  0.2931 -0.1860
  296TMC3    C2 4510   3.532   2.962   1.360  0.7195 -0.1148 -0.3175
  296TMC3    C3 4511   3.529   2.840   1.426 -0.0557  0.7012 -0.1370
  296TMC3    C4 4512   3.494   2.830   1.158 -0.0791 -0.5666 -0.1145
  296TMC3    C5 4513   3.477   2.715   1.237  0.1324 -0.0076  0.0500
  296TMC3    C6 4514   3.504   2.714   1.366 -0.1990 -0.3029  0.1875
  296TMC3     C 4515   3.547   3.065   1.136 -0.5142 -0.2278  0.6441
  296TMC3     O 4516   3.500   3.059   1.020  0.2575 -0.0272 -0.4894
  296TMC3     H 4517   3.558   3.055   1.409 -0.3542  0.6185 -1.1400
  296TMC3    H1 4518   3.486   2.834   1.050 -0.0514  1.9225 -0.0125
  296TMC3    H2 4519   3.500   2.621   1.422  1.7165  0.3526  1.4352
  296TMC3    C7 4520   3.482   2.590   1.165  0.0386 -0.1698  0.7093
  296TMC3    C8 4521   3.586   2.809   1.558 -0.2079  1.0136 -0.0270
  296TMC3    O1 4522   3.517   2.596   1.047  0.2536 -0.1612  0.4835
  296TMC3    O2 4523   3.535   2.719   1.623 -0.0262  0.3305  0.4234
  297MPD2     C 4524   0.069   0.360  16.442  0.7591 -0.2875  0.4982
  297MPD2    C1 4525   0.055   0.440  16.334  1.0155 -0.2276 -0.2742
  297MPD2    C2 4526   0.170   0.508  16.284  0.7703  0.1961  0.0049
  297MPD2    C3 4527   0.294   0.506  16.347  0.7852  0.0418 -0.2739
  297MPD2    C4 4528   0.309   0.422  16.451 -0.1072  0.0107 -0.4287
  297MPD2    C5 4529   0.194   0.352  16.498  0.1331  0.9930 -1.1157
  297MPD2     H 4530   0.160   0.575  16.200  1.6070 -0.2540 -0.4515
  297MPD2    H1 4531   0.403   0.420  16.505 -1.0208  2.7160  1.2541
  297MPD2    H2 4532   4.722   0.306  16.484  0.3689 -1.3976 -1.6846
  297MPD2    H3 4533   0.209   0.311  16.597 -1.6693  0.2419 -1.1495
  297MPD2     N 4534   0.396   0.592  16.300 -0.2110 -0.0284  0.8559
  297MPD2    H5 4535   0.387   0.638  16.210  0.9553  0.4995  1.0159
  297MPD2    N1 4536   4.669   0.467  16.270  0.1305 -0.3025  0.1808
  297MPD2    H7 4537   4.663   0.541  16.201 -0.2629  1.2730  1.9122
  298TMC3    C1 4538   4.447   0.433  16.213  0.6738  0.4607  0.0324
  298TMC3    C2 4539   4.470   0.448  16.079 -0.5327 -0.0875 -0.5214
  298TMC3    C3 4540   4.364   0.500  16.008  0.3494  0.2500  0.2841
  298TMC3    C4 4541   4.325   0.457  16.276  0.1337 -0.1947  0.0732
  298TMC3    C5 4542   4.235   0.525  16.201 -0.4350 -0.2214 -0.4240
  298TMC3    C6 4543   4.247   0.549  16.074  0.3621  0.1801 -0.2684
  298TMC3     C 4544   4.550   0.391  16.293 -0.0412 -0.4830 -0.6991
  298TMC3     O 4545   4.525   0.308  16.381 -0.5629  0.5711  0.4384
  298TMC3     H 4546   4.559   0.407  16.033 -2.1521 -1.6993 -2.2063
  298TMC3    H1 4547   4.320   0.452  16.384 -2.2005 -0.2152 -0.0370
  298TMC3    H2 4548   4.172   0.605  16.018 -0.1740  0.5593  0.8296
  298TMC3    C7 4549   4.134   0.593  16.273 -0.1516 -0.7511 -0.1360
  298TMC3    C8 4550   4.368   0.508  15.863  0.1651  0.3963  0.0232
  298TMC3    O1 4551   4.160   0.605  16.391 -0.1830 -0.2362 -0.6268
  298TMC3    O2 4552   4.280   0.578  15.815  0.1666  0.7667 -0.4116
  299MPD2     C 4553   0.761   0.255  10.465 -0.3572  0.0546 -0.4371
  299MPD2    C1 4554   0.742   0.160  10.562 -0.3795  1.0788 -0.2397
  299MPD2    C2 4555   0.647   0.054  10.545 -0.0397 -0.0429  0.0357
  299MPD2    C3 4556   0.589   0.044  10.425 -0.1653 -0.0327 -0.3180
  299MPD2    C4 4557   0.619   0.124  10.320 -0.2537  0.1627 -0.2805
  299MPD2    C5 4558   0.704   0.230  10.342  0.5567 -0.5839 -0.9749
  299MPD2     H 4559   0.624   4.733  10.634  1.0964  1.4335  1.2950
  299MPD2    H1 4560   0.577   0.109  10.221 -1.3737  0.3946  0.1618
  299MPD2    H2 4561   0.812   0.349  10.482 -1.9978  0.7745  0.5296
  299MPD2    H3 4562   0.722   0.301  10.262  0.9481  1.8123  1.2490
  299MPD2     N 4563   0.492   4.680  10.397 -0.3992  0.1386 -0.4351
  299MPD2    H5 4564   0.463   4.694  10.301 -2.8174 -1.0304  0.1448
  299MPD2    N1 4565   0.805   0.172  10.687  0.4360 -0.1340  1.1732
  299MPD2    H7 4566   0.848   0.264  10.693  0.3898  0.0060 -0.5550
  300TMC3    C1 4567   0.323   4.507  10.428 -0.1867 -0.4420  0.4593
  300TMC3    C2 4568   0.275   4.555  10.309 -0.7134  0.5545 -0.5065
  300TMC3    C3 4569   0.161   4.492  10.265  0.4731  0.0944 -0.4812
  300TMC3    C4 4570   0.252   4.421  10.507  0.2002 -0.2114  0.0025
  300TMC3    C5 4571   0.142   4.364  10.457 -0.3889  0.4698 -0.2455
  300TMC3    C6 4572   0.102   4.389  10.331 -0.5216 -0.7138  0.2393
  300TMC3     C 4573   0.428   4.592  10.487 -0.1334  0.3273  0.3379
  300TMC3     O 4574   0.458   4.562  10.600  0.1942  0.8265 -0.1733
  300TMC3     H 4575   0.316   4.636  10.249  0.1575 -1.0102 -2.0380
  300TMC3    H1 4576   0.262   4.417  10.615 -1.2495 -0.2550  0.1287
  300TMC3    H2 4577   0.004   4.365  10.293 -1.1427  2.2942 -0.0679
  300TMC3    C7 4578   0.048   4.292  10.541  0.1489 -1.2449  0.2594
  300TMC3    C8 4579   0.059   4.588  10.205  0.5905 -0.2586 -0.0800
  300TMC3    O1 4580   0.004   4.187  10.488 -0.4861 -0.0775  0.0184
  300TMC3    O2 4581   4.703   4.540  10.144 -0.5377  0.1236 -0.1078
  301MPD2     C 4582   2.878   1.622   0.920  0.1259 -0.3397 -0.0866
  301MPD2    C1 4583   2.782   1.595   0.830 -0.2781 -1.0081  0.7310
  301MPD2    C2 4584   2.743   1.468   0.801  0.6134  0.2205 -0.9355
  301MPD2    C3 4585   2.805   1.361   0.861 -0.3639  0.2476  0.4363
  301MPD2    C4 4586   2.908   1.384   0.948 -0.6468  0.8755  0.2032
  301MPD2    C5 4587   2.940   1.517   0.986 -0.4337  1.0891 -0.9098
  301MPD2     H 4588   2.663   1.448   0.730  0.3894 -3.2895  0.3048
  301MPD2    H1 4589   2.964   1.307   0.999 -0.0580  1.6169  0.6646
  301MPD2    H2 4590   2.917   1.720   0.948 -2.2036  1.1266 -2.0497
  301MPD2    H3 4591   3.026   1.533   1.049 -1.8309 -0.7089  1.4404
  301MPD2     N 4592   2.757   1.234   0.854  0.2799  0.5089 -0.8887
  301MPD2    H5 4593   2.818   1.160   0.887  2.0870  1.9799 -0.9131
  301MPD2    N1 4594   2.724   1.690   0.750 -0.2340 -0.3801  0.3881
  301MPD2    H7 4595   2.651   1.657   0.688 -0.8544  1.4109  0.1642
  302TMC3    C1 4596   2.611   1.066   0.786  0.7355  0.9005 -0.5989
  302TMC3    C2 4597   2.703   0.979   0.836 -0.3412 -0.1101 -0.3629
  302TMC3    C3 4598   2.697   0.854   0.792 -0.0750  0.5553 -0.1905
  302TMC3    C4 4599   2.516   1.034   0.687 -0.1272  0.5429  0.2304
  302TMC3    C5 4600   2.526   0.901   0.633 -0.3655 -0.0555 -0.2877
  302TMC3    C6 4601   2.613   0.811   0.688  0.3623  0.7617 -0.7386
  302TMC3     C 4602   2.638   1.209   0.787 -0.3830  0.5360 -0.9271
  302TMC3     O 4603   2.540   1.275   0.757  0.0155 -0.3816 -0.2455
  302TMC3     H 4604   2.770   1.008   0.917 -1.0027 -1.1639  0.5614
  302TMC3    H1 4605   2.442   1.105   0.650 -0.7633 -0.7475 -0.9532
  302TMC3    H2 4606   2.603   0.706   0.661 -1.6109  0.5018  1.0419
  302TMC3    C7 4607   2.460   0.871   0.504  0.6279  0.0741 -0.1226
  302TMC3    C8 4608   2.769   0.751   0.873  0.3267 -0.1479 -0.4198
  302TMC3    O1 4609   2.467   0.753   0.463 -0.1008  0.5599 -0.7313
  302TMC3    O2 4610   2.868   0.790   0.937 -0.5270 -0.1382 -0.9290
  303MPD2     C 4611   2.805   4.074  10.679  0.5629  0.4771 -0.2192
  303MPD2    C1 4612   2.718   3.980  10.642 -0.1861  0.3975 -0.0001
  303MPD2    C2 4613   2.659   3.983  10.518 -0.1358 -0.8477 -0.1602
  303MPD2    C3 4614   2.689   4.086  10.427  0.1626  0.2709 -0.4703
  303MPD2    C4 4615   2.795   4.174  10.460 -0.2319  0.3424 -0.3806
  303MPD2    C5 4616   2.845   4.163  10.588 -0.0519  0.4220 -0.1122
  303MPD2     H 4617   2.599   3.898  10.490 -0.2792 -0.8173  0.0531
  303MPD2    H1 4618   2.820   4.256  10.393  0.6370  0.1257 -0.3197
  303MPD2    H2 4619   2.860   4.076  10.773  1.1598 -1.8255 -0.5327
  303MPD2    H3 4620   2.912   4.244  10.615  2.5445 -0.9539 -2.4060
  303MPD2     N 4621   2.641   4.087  10.297  1.3149 -0.4658 -0.1390
  303MPD2    H5 4622   2.681   4.150  10.228  0.5470  0.6455  0.4213
  303MPD2    N1 4623   2.685   3.879  10.739  0.5229 -0.5580  0.8495
  303MPD2    H7 4624   2.746   3.860  10.818  0.1840  0.4742  1.3733
  304TMC3    C1 4625   2.591   3.690  10.834 -0.4717 -0.2116  0.5283
  304TMC3    C2 4626   2.472   3.650  10.889 -0.6083 -0.5784  0.0618
  304TMC3    C3 4627   2.470   3.523  10.946 -0.0117 -0.1464  0.9278
  304TMC3    C4 4628   2.691   3.598  10.806  0.3293 -1.0923  0.0480
  304TMC3    C5 4629   2.680   3.467  10.851  0.5200 -0.1911 -0.4095
  304TMC3    C6 4630   2.582   3.444  10.946  0.4042  0.5158 -0.0762
  304TMC3     C 4631   2.580   3.794  10.730 -0.3762 -0.2292  0.3665
  304TMC3     O 4632   2.474   3.813  10.671 -0.4016  0.4381 -0.2208
  304TMC3     H 4633   2.389   3.719  10.895 -1.3706 -1.7751  2.9817
  304TMC3    H1 4634   2.764   3.624  10.730 -0.1958  0.1014 -0.0510
  304TMC3    H2 4635   2.580   3.338  10.968 -1.6481  0.8810  1.5016
  304TMC3    C7 4636   2.636   3.380  10.734 -0.4311  0.0135  0.7135
  304TMC3    C8 4637   2.343   3.444  10.934  0.9497 -0.7319 -0.3550
  304TMC3    O1 4638   2.623   3.433  10.628 -0.9595 -0.5787  0.1328
  304TMC3    O2 4639   2.255   3.492  10.858  0.2214  0.0725 -0.0298
  305MPD2     C 4640   0.678   1.683  13.998  0.3415  0.7192 -0.4205
  305MPD2    C1 4641   0.815   1.681  13.990  0.3998  0.1420  0.5010
  305MPD2    C2 4642   0.870   1.648  13.872  0.0438  0.1439  0.1988
  305MPD2    C3 4643   0.784   1.620  13.765 -0.5158  0.3021  0.0456
  305MPD2    C4 4644   0.641   1.615  13.774  0.3656  0.1897 -0.8344
  305MPD2    C5 4645   0.592   1.657  13.895 -0.0780 -0.0088 -0.3046
  305MPD2     H 4646   0.978   1.635  13.868  0.0689  0.8354 -1.3713
  305MPD2    H1 4647   0.588   1.565  13.694  0.8039 -0.5598 -0.6565
  305MPD2    H2 4648   0.630   1.717  14.090  1.9943  0.8077  0.4114
  305MPD2    H3 4649   0.485   1.659  13.910  0.3661  0.8588  2.6793
  305MPD2     N 4650   0.822   1.585  13.633  0.3936  0.1983  0.3029
  305MPD2    H5 4651   0.745   1.591  13.567  0.0039 -0.7947  0.6657
  305MPD2    N1 4652   0.889   1.693  14.112 -0.0976  0.1267 -0.5580
  305MPD2    H7 4653   0.840   1.733  14.192  0.1065 -0.6664 -0.0308
  306TMC3    C1 4654   1.067   1.738  14.261 -0.2557  0.4888 -0.1169
  306TMC3    C2 4655   1.202   1.737  14.289 -0.4318  0.5097 -0.7144
  306TMC3    C3 4656   1.250   1.785  14.405  0.2013 -0.5022  0.0189
  306TMC3    C4 4657   0.982   1.783  14.359  0.2986  1.0008 -0.2763
  306TMC3    C5 4658   1.027   1.838  14.476  0.0631  0.2267 -0.1612
  306TMC3    C6 4659   1.163   1.846  14.496  0.3161  0.1348  0.1431
  306TMC3     C 4660   1.022   1.682  14.133 -0.0222 -0.4854  0.2536
  306TMC3     O 4661   1.113   1.644  14.056 -0.1102 -0.7000  0.4329
  306TMC3     H 4662   1.279   1.721  14.216 -0.7314  1.0841 -1.1607
  306TMC3    H1 4663   0.877   1.797  14.337 -0.1836 -0.8397  0.9127
  306TMC3    H2 4664   1.209   1.901  14.577 -1.6649  0.1519  1.2524
  306TMC3    C7 4665   0.940   1.847  14.601 -0.2471 -0.0941  0.7696
  306TMC3    C8 4666   1.378   1.725  14.453 -0.3267  0.9487  0.1880
  306TMC3    O1 4667   0.821   1.876  14.585  0.1700 -0.1008 -0.0842
  306TMC3    O2 4668   1.432   1.641  14.385  0.9220  0.3076 -1.1805
  307MPD2     C 4669   3.788   0.769   0.051 -0.0789  1.2198 -0.0652
  307MPD2    C1 4670   3.690   0.857   0.090  0.4984  0.3826 -0.0316
  307MPD2    C2 4671   3.609   0.832   0.202  0.0043 -0.2229  0.2713
  307MPD2    C3 4672   3.622   0.719   0.275  0.7798 -0.4577 -0.1546
  307MPD2    C4 4673   3.718   0.628   0.231  0.3524 -0.4983  0.0279
  307MPD2    C5 4674   3.803   0.660   0.127 -0.2200  0.0131 -0.2047
  307MPD2     H 4675   3.540   0.911   0.229  0.5911  0.1543  0.6605
  307MPD2    H1 4676   3.748   0.538   0.284 -0.9099 -1.2823 -0.5749
  307MPD2    H2 4677   3.862   0.783  17.720 -0.3618 -0.6850 -0.6681
  307MPD2    H3 4678   3.887   0.598   0.099 -0.0117  0.0944  0.2426
  307MPD2     N 4679   3.546   0.706   0.390  0.1954 -0.3403  0.1304
  307MPD2    H5 4680   3.477   0.777   0.412 -2.6031 -2.8657 -0.4478
  307MPD2    N1 4681   3.661   0.979   0.025 -0.5539 -0.1418  0.6746
  307MPD2    H7 4682   3.594   1.042   0.068  1.5467  0.4537  3.0343
  308TMC3    C1 4683   3.213   0.544   0.592 -0.0702 -0.4018  0.8490
  308TMC3    C2 4684   3.184   0.668   0.647  0.8254 -0.1105  1.1900
  308TMC3    C3 4685   3.297   0.751   0.665 -0.1613  0.3428  0.3404
  308TMC3    C4 4686   3.339   0.513   0.550  0.6257  0.2124 -0.6262
  308TMC3    C5 4687   3.439   0.603   0.563  0.2617  0.0392 -0.0212
  308TMC3    C6 4688   3.421   0.724   0.619  0.1256  0.0564 -0.3506
  308TMC3     C 4689   3.106   0.443   0.574  0.3870 -0.0287 -0.7958
  308TMC3     O 4690   3.153   0.331   0.548 -0.2688  0.0855  0.3730
  308TMC3     H 4691   3.084   0.675   0.688  0.4880  1.8167  0.0444
  308TMC3    H1 4692   3.353   0.420   0.497  0.3166  0.2623 -0.7919
  308TMC3    H2 4693   3.499   0.799   0.633  0.5887 -0.2237 -1.5048
  308TMC3    C7 4694   3.542   0.590   0.461  0.3114 -0.3066 -0.0226
  308TMC3    C8 4695   3.278   0.888   0.706  0.3121  0.3172  0.1681
  308TMC3    O1 4696   3.574   0.477   0.425  0.2359  0.2716  0.2966
  308TMC3    O2 4697   3.375   0.932   0.766  0.1375 -1.1916  0.1226
  309MPD2     C 4698   2.700   0.516  17.217  0.4047  0.1277 -0.9755
  309MPD2    C1 4699   2.666   0.455  17.097 -0.1258 -0.0208  0.0174
  309MPD2    C2 4700   2.536   0.413  17.073  0.4334 -0.3344 -0.2015
  309MPD2    C3 4701   2.435   0.460  17.157  0.2166  0.3012 -0.1709
  309MPD2    C4 4702   2.470   0.546  17.261  1.0790 -0.2046  0.6405
  309MPD2    C5 4703   2.601   0.571  17.295 -0.3184 -0.2691  0.2190
  309MPD2     H 4704   2.504   0.357  16.986 -1.9753  2.3722 -1.0663
  309MPD2    H1 4705   2.392   0.576  17.330  0.3784  1.2650 -0.7926
  309MPD2    H2 4706   2.803   0.535  17.248  0.5877  0.5759 -1.8727
  309MPD2    H3 4707   2.615   0.626  17.388 -0.0971 -1.0079  0.6207
  309MPD2     N 4708   2.303   0.431  17.146  0.4481 -0.2802 -0.3420
  309MPD2    H5 4709   2.234   0.481  17.202  0.6596 -0.5260  0.1377
  309MPD2    N1 4710   2.763   0.415  16.999  0.1170  0.4901  0.1740
  309MPD2    H7 4711   2.728   0.391  16.907 -0.1021  1.2375  0.0639
  310TMC3    C1 4712   2.970   0.350  16.908 -0.1128  1.2539 -0.3385
  310TMC3    C2 4713   2.947   0.384  16.777  0.3334  0.4033  0.2481
  310TMC3    C3 4714   3.022   0.322  16.685  0.5740 -0.1243  0.7508
  310TMC3    C4 4715   3.060   0.264  16.944  0.2284 -1.1469  0.2496
  310TMC3    C5 4716   3.134   0.193  16.848  0.4083  0.0218 -0.0311
  310TMC3    C6 4717   3.114   0.228  16.715 -0.4765  0.6170 -0.1469
  310TMC3     C 4718   2.900   0.415  17.016  0.1533  0.3022 -0.2172
  310TMC3     O 4719   2.969   0.478  17.101 -0.1726  0.1834 -0.0865
  310TMC3     H 4720   2.881   0.466  16.755  1.1149  0.9270 -0.1276
  310TMC3    H1 4721   3.053   0.229  17.046 -0.2821 -3.1515 -0.4690
  310TMC3    H2 4722   3.158   0.160  16.642  0.5776  1.2436 -0.0903
  310TMC3    C7 4723   3.165   0.052  16.866 -0.3927  0.4750 -0.4335
  310TMC3    C8 4724   2.988   0.352  16.547 -0.5471 -0.3571  0.9551
  310TMC3    O1 4725   3.173   4.715  16.771  0.4111 -1.2011 -0.1049
  310TMC3    O2 4726   2.889   0.423  16.528 -0.1136 -0.3861 -0.1704
  311MPD2     C 4727   0.131   1.255  12.752 -0.0379 -0.0369  0.2881
  311MPD2    C1 4728   0.125   1.379  12.805  0.0246  0.2766 -0.6773
  311MPD2    C2 4729   0.001   1.412  12.859  0.9294 -0.0475 -0.4373
  311MPD2    C3 4730   4.628   1.336  12.833  0.1333 -0.4398 -0.1740
  311MPD2    C4 4731   4.635   1.220  12.769 -0.6376  0.5821 -0.2157
  311MPD2    C5 4732   0.019   1.182  12.728  0.1591 -0.2521 -0.0635
  311MPD2     H 4733   4.734   1.511  12.902 -1.0659 -0.5045  0.4111
  311MPD2    H1 4734   4.544   1.167  12.746  0.3981 -0.5890 -1.6642
  311MPD2    H2 4735   0.221   1.216  12.706 -1.2257 -1.7889 -0.5566
  311MPD2    H3 4736   0.042   1.083  12.691  1.9759 -0.0186  0.4271
  311MPD2     N 4737   4.500   1.381  12.879  0.0713 -0.6731 -1.0297
  311MPD2    H5 4738   4.490   1.465  12.935 -0.5814  0.2133 -2.4590
  311MPD2    N1 4739   0.238   1.469  12.815 -0.3487  0.4991  0.2529
  311MPD2    H7 4740   0.235   1.555  12.869 -0.7804  0.8895 -0.3780
  312TMC3    C1 4741   4.269   1.405  12.876  0.1163  0.2715 -1.2347
  312TMC3    C2 4742   4.161   1.425  12.793  0.0933 -0.4138  0.2518
  312TMC3    C3 4743   4.070   1.522  12.824 -0.1387 -0.0392  0.2160
  312TMC3    C4 4744   4.277   1.468  13.000 -0.0706 -0.0213  0.4589
  312TMC3    C5 4745   4.176   1.552  13.029 -0.2833  0.1141 -0.1659
  312TMC3    C6 4746   4.069   1.585  12.946 -0.2869 -0.6107  0.4632
  312TMC3     C 4747   4.381   1.331  12.821 -0.0803 -0.0643  0.2130
  312TMC3     O 4748   4.363   1.283  12.714 -0.5007 -0.3740 -0.0616
  312TMC3     H 4749   4.145   1.384  12.694  1.8490  1.4471 -0.8032
  312TMC3    H1 4750   4.364   1.448  13.061  0.1637  0.2890  0.2289
  312TMC3    H2 4751   3.989   1.654  12.970  0.7781 -0.3288  3.1169
  312TMC3    C7 4752   4.189   1.645  13.136 -0.0829 -0.3064  1.0824
  312TMC3    C8 4753   3.942   1.480  12.767  0.7227 -0.3126 -0.0527
  312TMC3    O1 4754   4.148   1.756  13.125 -0.3620 -0.0421  0.6045
  312TMC3    O2 4755   3.924   1.359  12.781 -0.3033 -0.4586 -0.0182
  313MPD2     C 4756   4.501   0.439  10.733  0.0416  0.9503  0.0748
  313MPD2    C1 4757   4.396   0.456  10.650  0.6999  0.1729  0.4357
  313MPD2    C2 4758   4.367   0.343  10.569 -0.0918  0.3222 -0.0836
  313MPD2    C3 4759   4.439   0.224  10.565  0.4752  0.0519  0.3759
  313MPD2    C4 4760   4.546   0.213  10.646  0.0025 -0.4753 -0.6494
  313MPD2    C5 4761   4.573   0.316  10.736 -0.0428  0.6401  0.6617
  313MPD2     H 4762   4.285   0.360  10.500 -1.4846  0.1339  1.5378
  313MPD2    H1 4763   4.598   0.120  10.664 -2.1049 -1.8108 -1.4297
  313MPD2    H2 4764   4.538   0.517  10.798  2.2063  0.6250 -0.7808
  313MPD2    H3 4765   4.655   0.303  10.805  1.0302 -0.2546 -0.7820
  313MPD2     N 4766   4.401   0.116  10.472  0.4386  0.2456 -0.7621
  313MPD2    H5 4767   4.310   0.123  10.427 -0.5112 -1.6367  0.8691
  313MPD2    N1 4768   4.315   0.572  10.643 -0.4813 -0.3991  0.2253
  313MPD2    H7 4769   4.234   0.568  10.582 -0.4639 -2.0387  0.3163
  314TMC3    C1 4770   4.227   0.767  10.736  0.7647 -0.2278  0.3314
  314TMC3    C2 4771   4.239   0.880  10.812  0.6531 -0.0288  0.5164
  314TMC3    C3 4772   4.142   0.966  10.810 -0.3904 -1.1096  0.2541
  314TMC3    C4 4773   4.114   0.744  10.658  0.0622 -0.4182 -0.3160
  314TMC3    C5 4774   4.010   0.830  10.672 -0.2407 -0.2437 -0.6901
  314TMC3    C6 4775   4.024   0.948  10.739  0.5997 -0.4663 -0.4462
  314TMC3     C 4776   4.339   0.680  10.727 -0.3169  0.7230  0.5955
  314TMC3     O 4777   4.446   0.719  10.768  0.2289 -0.1106  0.1610
  314TMC3     H 4778   4.337   0.900  10.854  1.0415  1.4953 -1.1277
  314TMC3    H1 4779   4.091   0.653  10.603 -2.5667  0.3258 -0.4302
  314TMC3    H2 4780   3.936   1.011  10.741 -0.3382 -1.7752 -0.2029
  314TMC3    C7 4781   3.900   0.808  10.582 -0.3635 -0.1886  0.0521
  314TMC3    C8 4782   4.161   1.086  10.890 -0.0411  0.1357 -0.5613
  314TMC3    O1 4783   3.857   0.691  10.576  0.2609 -0.0427  0.0854
  314TMC3    O2 4784   4.279   1.113  10.913 -0.1589  0.3050 -0.0969
  315MPD2     C 4785   3.758   0.167  17.715  1.4305 -0.1800 -0.0646
  315MPD2    C1 4786   3.888   0.134  17.723  0.5820 -0.7878 -0.5071
  315MPD2    C2 4787   3.991   0.223  17.692  0.4936 -0.0878  0.6050
  315MPD2    C3 4788   3.953   0.352  17.651  0.5210 -0.5593  0.6063
  315MPD2    C4 4789   3.818   0.383  17.633 -0.2970  0.0977 -0.3834
  315MPD2    C5 4790   3.719   0.287  17.668  0.0533 -0.0567  0.1749
  315MPD2     H 4791   4.096   0.196  17.695  0.7569  1.0996  2.1831
  315MPD2    H1 4792   3.779   0.479  17.601  1.6466  0.6265 -1.1890
  315MPD2    H2 4793   3.671   0.107  17.738 -0.4685  2.3704 -0.5741
  315MPD2    H3 4794   3.612   0.304  17.660  0.6781  3.4916 -0.5676
  315MPD2     N 4795   4.055   0.446  17.628 -0.4112 -0.0770 -0.3218
  315MPD2    H5 4796   4.151   0.425  17.652 -0.5479  1.5395  1.6902
  315MPD2    N1 4797   3.921   4.736   0.024 -0.1351 -0.0042  0.3379
  315MPD2    H7 4798   4.015   4.726   0.060 -0.6605 -1.2884  1.3995
  316TMC3    C1 4799   4.151   0.644  17.604 -0.8743  0.1280 -0.7602
  316TMC3    C2 4800   4.223   0.624  17.716 -0.5343  0.0765 -0.3058
  316TMC3    C3 4801   4.329   0.709  17.736  0.6935  0.0237  0.0151
  316TMC3    C4 4802   4.175   0.744  17.515 -0.7984 -0.6897  0.3836
  316TMC3    C5 4803   4.281   0.826  17.543  0.0009 -0.0576 -0.3122
  316TMC3    C6 4804   4.361   0.813  17.653  0.3939  0.3752  0.4628
  316TMC3     C 4805   4.034   0.571  17.583 -1.0962  0.9333  0.2521
  316TMC3     O 4806   3.945   0.615  17.513  0.8759 -0.0065  0.0490
  316TMC3     H 4807   4.195   0.554   0.047  1.4406  1.4543  1.6259
  316TMC3    H1 4808   4.121   0.746  17.422 -0.8755  0.8427  0.4617
  316TMC3    H2 4809   4.430   0.887  17.692  0.3249 -0.2191  1.6964
  316TMC3    C7 4810   4.285   0.958  17.490 -0.1900  0.5378  0.2459
  316TMC3    C8 4811   4.427   0.684   0.099  0.4842 -0.4913  0.3104
  316TMC3    O1 4812   4.359   1.041  17.543 -0.4993  0.6684  0.0353
  316TMC3    O2 4813   4.466   0.783   0.158  0.0584  0.7855 -0.1691
  317MPD2     C 4814   1.008   2.830  12.302  0.1528  0.0684  0.2241
  317MPD2    C1 4815   1.131   2.798  12.253  0.2446  0.2127  0.0827
  317MPD2    C2 4816   1.226   2.760  12.348  0.0488  0.5058 -0.4090
  317MPD2    C3 4817   1.205   2.756  12.481 -0.8961 -0.2286  0.9063
  317MPD2    C4 4818   1.078   2.776  12.526  0.2220 -0.2559  0.4577
  317MPD2    C5 4819   0.983   2.807  12.434  0.7797  0.9823  0.7099
  317MPD2     H 4820   1.324   2.720  12.324 -0.6002 -1.7931  0.7628
  317MPD2    H1 4821   1.044   2.740  12.622 -1.0549  1.4259  0.6312
  317MPD2    H2 4822   0.923   2.854  12.239 -1.2499 -3.5890  0.7097
  317MPD2    H3 4823   0.882   2.818  12.472  1.0694  1.5788  1.3112
  317MPD2     N 4824   1.316   2.742  12.570  0.3955  0.2622 -0.0519
  317MPD2    H5 4825   1.399   2.694  12.538  0.0769  0.9446 -1.9180
  317MPD2    N1 4826   1.170   2.799  12.115  0.2953 -0.1420 -0.1416
  317MPD2    H7 4827   1.257   2.754  12.087  0.3828 -1.7345  2.6738
  318TMC3    C1 4828   1.458   2.774  12.757 -0.6022 -0.4988  0.1242
  318TMC3    C2 4829   1.504   2.645  12.755 -0.0141  0.8450 -0.4271
  318TMC3    C3 4830   1.603   2.609  12.841 -0.0761  0.4660  0.3445
  318TMC3    C4 4831   1.517   2.874  12.835  0.1182  0.3031  0.0650
  318TMC3    C5 4832   1.624   2.831  12.913 -0.6010  0.2905 -0.1780
  318TMC3    C6 4833   1.667   2.698  12.920 -0.4854  0.4914 -0.0333
  318TMC3     C 4834   1.326   2.804  12.696  0.9212  0.7371  0.0232
  318TMC3     O 4835   1.246   2.867  12.760  0.0801  0.5542  0.9418
  318TMC3     H 4836   1.443   2.571  12.704  0.9057  0.2978 -0.7351
  318TMC3    H1 4837   1.481   2.976  12.825 -0.5117  0.0218 -0.6085
  318TMC3    H2 4838   1.743   2.665  12.989 -0.3007  2.9150  0.9326
  318TMC3    C7 4839   1.674   2.919  13.019  0.3370 -0.2891  0.4721
  318TMC3    C8 4840   1.565   2.499  12.922 -0.1649  0.2895 -0.1319
  318TMC3    O1 4841   1.604   3.015  13.054  0.3131 -0.0697  0.3774
  318TMC3    O2 4842   1.656   2.434  12.968  0.4617  0.0018 -0.6747
  319MPD2     C 4843   1.804   4.445  16.940  0.7884  0.1379 -0.0688
  319MPD2    C1 4844   1.902   4.378  16.871  1.2202  1.1074  0.1388
  319MPD2    C2 4845   1.891   4.346  16.734 -0.4824  0.1835 -0.3302
  319MPD2    C3 4846   1.781   4.396  16.663  0.0953  0.0954 -0.1780
  319MPD2    C4 4847   1.687   4.466  16.732  0.1987 -0.7170 -0.2272
  319MPD2    C5 4848   1.700   4.489  16.868  0.3557 -0.6676  0.3136
  319MPD2     H 4849   1.966   4.280  16.692  1.2838  1.6227  0.5206
  319MPD2    H1 4850   1.604   4.513  16.680 -0.5078 -2.7596 -0.9411
  319MPD2    H2 4851   1.815   4.476  17.043 -1.8898  1.5589 -0.2242
  319MPD2    H3 4852   1.636   4.555  16.925  1.7277 -0.9801  2.2154
  319MPD2     N 4853   1.755   4.353  16.530 -0.1192  0.3443  0.0045
  319MPD2    H5 4854   1.662   4.376  16.498 -0.1079  2.6238  1.5723
  319MPD2    N1 4855   2.015   4.332  16.945  0.1560 -0.1422 -0.1154
  319MPD2    H7 4856   2.084   4.273  16.899  0.8202  2.2029 -2.0862
  320TMC3    C1 4857   1.766   4.239  16.333  0.7188 -0.4107 -0.1454
  320TMC3    C2 4858   1.672   4.322  16.280  0.0284 -0.1236 -0.0437
  320TMC3    C3 4859   1.583   4.269  16.192  0.6374  0.3213 -0.2641
  320TMC3    C4 4860   1.753   4.102  16.322 -0.2783  0.2556 -1.1167
  320TMC3    C5 4861   1.647   4.052  16.247 -0.6461 -0.0365  0.4271
  320TMC3    C6 4862   1.572   4.135  16.166 -0.5543 -1.0858  0.2533
  320TMC3     C 4863   1.834   4.272  16.459 -1.0452  0.1802  0.2548
  320TMC3     O 4864   1.955   4.246  16.469  0.0307 -0.3034 -0.0188
  320TMC3     H 4865   1.697   4.427  16.287  2.3354 -0.8636  2.4744
  320TMC3    H1 4866   1.827   4.032  16.360 -1.0991  0.0532  0.1253
  320TMC3    H2 4867   1.507   4.094  16.089 -0.8840  0.2477 -0.1752
  320TMC3    C7 4868   1.643   3.907  16.225 -0.4513 -0.2491 -0.4497
  320TMC3    C8 4869   1.546   4.368  16.090  0.5464  0.6852  0.6252
  320TMC3    O1 4870   1.584   3.865  16.128  0.3806 -0.3816  0.5311
  320TMC3    O2 4871   1.568   4.486  16.105 -0.1181 -0.5828  0.4366
  321TMC3    C1 4872   2.140   4.257  17.129 -1.3526 -0.7084 -0.2729
  321TMC3    C2 4873   2.131   4.151  17.216  0.1226  0.4177  0.1001
  321TMC3    C3 4874   2.248   4.085  17.251  0.4538  0.5930  0.0291
  321TMC3    C4 4875   2.263   4.286  17.067 -0.2359  0.4348 -0.4137
  321TMC3    C5 4876   2.380   4.216  17.101 -0.2405  0.4510 -0.4796
  321TMC3    C6 4877   2.358   4.098  17.176 -0.9861 -0.1262  0.6981
  321TMC3     C 4878   2.014   4.310  17.084  0.2879  0.5982  0.3508
  321TMC3     O 4879   1.923   4.312  17.163  0.1591  0.0061 -0.2363
  321TMC3     H 4880   2.034   4.137  17.263  0.6316  0.6014  1.2151
  321TMC3    H1 4881   2.277   4.368  16.998  1.8720 -0.7589 -1.3830
  321TMC3    H2 4882   2.451   4.046  17.196 -0.0065  0.4674 -2.2601
  321TMC3    C7 4883   2.478   4.302  17.165 -0.1790 -0.3139  0.2852
  321TMC3    C8 4884   2.239   4.018  17.375 -0.3772 -0.3929  0.6792
  321TMC3    O1 4885   2.551   4.237  17.240  0.1166 -0.3754  0.0654
  321TMC3    O2 4886   2.177   4.086  17.457  0.0616 -0.0408  1.2574
  322MPD2     C 4887   0.921   1.252  13.742  0.1061  0.0801  0.4597
  322MPD2    C1 4888   0.935   1.160  13.849  0.4063 -0.6935  0.6329
  322MPD2    C2 4889   0.929   1.025  13.825 -0.2541  0.0445  0.1135
  322MPD2    C3 4890   0.931   0.979  13.695 -0.0668  0.8547  0.5454
  322MPD2    C4 4891   0.920   1.074  13.592  0.5035 -0.4314  0.6352
  322MPD2    C5 4892   0.920   1.211  13.611 -1.1894  0.2044  0.0202
  322MPD2     H 4893   0.935   0.955  13.907  0.8142 -0.9024 -0.7727
  322MPD2    H1 4894   0.920   1.043  13.488 -0.8342 -0.0432  0.5160
  322MPD2    H2 4895   0.918   1.356  13.769 -2.7750  0.1243 -0.1071
  322MPD2    H3 4896   0.902   1.278  13.527  1.4036 -0.9295 -1.4444
  322MPD2     N 4897   0.927   0.841  13.681  0.5754  0.0786 -0.0850
  322MPD2    H5 4898   0.914   0.781  13.762 -0.5175 -0.3794 -0.6028
  322MPD2    N1 4899   0.970   1.213  13.976 -0.2055 -0.2119  0.4748
  322MPD2    H7 4900   0.985   1.314  13.972  0.1693 -0.3752 -2.5553
  323TMC3    C1 4901   1.059   1.215  14.192  1.2198 -0.6739 -0.4223
  323TMC3    C2 4902   1.157   1.299  14.149 -0.5006 -0.1848 -0.2038
  323TMC3    C3 4903   1.233   1.358  14.247  1.0282  0.0767  0.4049
  323TMC3    C4 4904   1.051   1.170  14.323  0.2596 -1.0593 -0.0295
  323TMC3    C5 4905   1.135   1.227  14.419  0.5615 -0.2498 -0.0979
  323TMC3    C6 4906   1.236   1.312  14.376  0.0821  0.1695  0.2953
  323TMC3     C 4907   0.994   1.139  14.088  0.3632 -0.1029 -0.0372
  323TMC3     O 4908   0.952   1.027  14.114  0.4770 -0.1541 -0.1095
  323TMC3     H 4909   1.165   1.327  14.045  0.3465  0.8082  0.1220
  323TMC3    H1 4910   0.972   1.098  14.339 -1.6153  0.5706 -1.9513
  323TMC3    H2 4911   1.304   1.354  14.449  0.7317  0.5097 -0.5178
  323TMC3    C7 4912   1.146   1.149  14.543 -0.2631  0.0227  0.3274
  323TMC3    C8 4913   1.351   1.419  14.195 -0.3798  0.5731 -0.0892
  323TMC3    O1 4914   1.066   1.056  14.552 -0.3112 -0.7462 -0.0656
  323TMC3    O2 4915   1.457   1.402  14.246  0.5757  0.0008 -0.1308
  324MPD2     C 4916   2.430   1.642  14.119  0.4292  0.8649 -0.5636
  324MPD2    C1 4917   2.442   1.771  14.163  0.0513  0.2432 -0.2292
  324MPD2    C2 4918   2.358   1.872  14.117 -0.0743 -0.2280 -0.6985
  324MPD2    C3 4919   2.257   1.843  14.024 -0.2230  0.4262  0.3544
  324MPD2    C4 4920   2.252   1.715  13.973 -0.0678  0.3634  0.3404
  324MPD2    C5 4921   2.338   1.619  14.019  0.1234 -0.0035 -0.1408
  324MPD2     H 4922   2.361   1.970  14.163 -1.0872 -1.1522  1.3423
  324MPD2    H1 4923   2.172   1.681  13.907 -0.0083 -0.3945  0.6499
  324MPD2    H2 4924   2.478   1.556  14.164  0.4202  0.3624 -1.5238
  324MPD2    H3 4925   2.320   1.515  13.993  0.3183  0.0250 -0.3947
  324MPD2     N 4926   2.163   1.935  13.973 -0.0986 -0.4632  0.1465
  324MPD2    H5 4927   2.102   1.894  13.902 -0.5097 -2.3217  1.5624
  324MPD2    N1 4928   2.545   1.818  14.250 -0.1669 -0.2742 -0.3849
  324MPD2    H7 4929   2.530   1.914  14.278  1.1749  0.4545 -2.1567
  325TMC3    C1 4930   2.103   2.142  13.881 -0.0347 -0.3343  0.4176
  325TMC3    C2 4931   2.066   2.073  13.767 -0.2245  0.2405 -0.6218
  325TMC3    C3 4932   2.049   2.145  13.658  0.1473 -0.4241  0.0474
  325TMC3    C4 4933   2.130   2.279  13.877 -0.1879  0.2271  0.4726
  325TMC3    C5 4934   2.101   2.348  13.766  0.3804  0.5870  0.0556
  325TMC3    C6 4935   2.060   2.282  13.658  1.1152 -0.0289 -0.1811
  325TMC3     C 4936   2.168   2.075  13.991 -0.1642 -0.7892  0.3366
  325TMC3     O 4937   2.226   2.144  14.070  0.0729  0.2639 -0.2635
  325TMC3     H 4938   2.058   1.965  13.766 -0.1566  0.2160  0.7462
  325TMC3    H1 4939   2.169   2.341  13.956 -1.0632  2.2816 -0.7248
  325TMC3    H2 4940   2.019   2.331  13.570  1.2262 -0.1832 -0.3210
  325TMC3    C7 4941   2.065   2.488  13.770  0.2621  0.0158  0.5719
  325TMC3    C8 4942   2.004   2.077  13.538  0.1201 -0.0235 -0.4611
  325TMC3    O1 4943   2.024   2.541  13.668 -0.4404  0.1184  0.4775
  325TMC3    O2 4944   1.955   1.967  13.551 -0.0480 -0.0831 -0.1685
  326MPD2     C 4945   3.622   2.995  11.103 -0.2489  0.0479 -0.4071
  326MPD2    C1 4946   3.660   3.024  10.975  0.6937  0.2321  0.2002
  326MPD2    C2 4947   3.765   3.113  10.952  0.3881 -0.4873  1.0361
  326MPD2    C3 4948   3.838   3.170  11.056 -0.1957  0.0629 -0.5549
  326MPD2    C4 4949   3.801   3.132  11.181  0.6844 -0.7257 -0.7730
  326MPD2    C5 4950   3.701   3.039  11.205  0.5535  0.4083  0.1489
  326MPD2     H 4951   3.792   3.125  10.848  1.9819 -0.5461  1.4372
  326MPD2    H1 4952   3.863   3.164  11.264 -2.9623  0.1805  1.6512
  326MPD2    H2 4953   3.547   2.920  11.122  0.0048 -1.1330 -4.1781
  326MPD2    H3 4954   3.672   3.006  11.304  1.9960  1.4762  0.9350
  326MPD2     N 4955   3.954   3.245  11.026  0.3834 -0.0495  0.2763
  326MPD2    H5 4956   4.008   3.290  11.099 -1.7987  2.1145  0.5623
  326MPD2    N1 4957   3.610   2.956  10.856  0.3888  0.1828  0.7784
  326MPD2    H7 4958   3.665   2.969  10.772 -1.0968  0.7201 -0.0947
  327TMC3    C1 4959   3.509   2.804  10.731  0.5325  0.2758  0.5410
  327TMC3    C2 4960   3.388   2.786  10.674  0.0042 -0.0418 -0.0836
  327TMC3    C3 4961   3.404   2.764  10.541  0.1427  0.4014 -0.5574
  327TMC3    C4 4962   3.633   2.781  10.688 -0.2433  0.1699 -0.3198
  327TMC3    C5 4963   3.645   2.737  10.558  1.3573 -0.0487 -0.4767
  327TMC3    C6 4964   3.525   2.736  10.485  0.1862  0.7016  0.3444
  327TMC3     C 4965   3.504   2.873  10.856 -0.0048 -0.2972 -0.1797
  327TMC3     O 4966   3.404   2.863  10.924 -0.5259 -0.2635  0.3655
  327TMC3     H 4967   3.297   2.824  10.719  1.0734  0.5039  1.5948
  327TMC3    H1 4968   3.719   2.786  10.753  0.2217  0.3503 -0.9528
  327TMC3    H2 4969   3.516   2.711  10.380  0.9218 -1.7558  0.8699
  327TMC3    C7 4970   3.760   2.773  10.481 -0.0522  0.5114  0.4732
  327TMC3    C8 4971   3.321   2.848  10.461 -0.7120  0.7315 -0.6390
  327TMC3    O1 4972   3.748   2.766  10.360 -0.5544  0.1197 -0.2131
  327TMC3    O2 4973   3.379   2.910  10.371 -0.2213  0.1694  0.0292
  328MPD2     C 4974   1.592   3.690  17.348  0.0930 -0.2289 -0.1324
  328MPD2    C1 4975   1.542   3.569  17.325 -0.1294  0.2275  0.2534
  328MPD2    C2 4976   1.519   3.532  17.195  0.5332 -0.2464 -0.2804
  328MPD2    C3 4977   1.544   3.618  17.093  0.2950  0.5003 -1.0368
  328MPD2    C4 4978   1.616   3.736  17.113 -0.5797 -0.5964 -0.4341
  328MPD2    C5 4979   1.628   3.775  17.241  0.3250 -0.1721  0.3803
  328MPD2     H 4980   1.479   3.433  17.177 -3.6237  1.5850 -0.9765
  328MPD2    H1 4981   1.624   3.818  17.043  0.9078  1.0071  1.6292
  328MPD2    H2 4982   1.609   3.734  17.446 -0.6594  0.9399 -0.5244
  328MPD2    H3 4983   1.665   3.873  17.267  2.5768 -0.5106 -1.4814
  328MPD2     N 4984   1.502   3.595  16.963 -0.3513 -0.2574 -0.2322
  328MPD2    H5 4985   1.531   3.665  16.896  1.4596  0.3529  1.1770
  328MPD2    N1 4986   1.501   3.501  17.439 -0.2468  0.5691 -0.0242
  328MPD2    H7 4987   1.530   3.551  17.523  2.0453  1.2285 -1.2314
  329TMC3    C1 4988   1.450   3.336  17.587  0.0134  0.2230  0.3945
  329TMC3    C2 4989   1.396   3.428  17.676 -0.1966  0.4197 -0.7139
  329TMC3    C3 4990   1.343   3.377   0.047 -0.5717  0.3770  0.2134
  329TMC3    C4 4991   1.471   3.206  17.616 -0.2976 -0.6335 -0.5920
  329TMC3    C5 4992   1.423   3.163  17.739 -0.4284 -0.2390 -0.2013
  329TMC3    C6 4993   1.359   3.246   0.080 -0.3893  0.5087 -0.0755
  329TMC3     C 4994   1.469   3.372  17.454 -1.1742  0.3446 -0.0041
  329TMC3     O 4995   1.465   3.287  17.370 -0.0894 -0.7715 -0.4465
  329TMC3     H 4996   1.391   3.533  17.649  0.0783  0.1922 -1.6659
  329TMC3    H1 4997   1.518   3.136  17.548  1.3281  0.8782 -1.0075
  329TMC3    H2 4998   1.324   3.208   0.176 -1.4918 -1.6239 -1.3282
  329TMC3    C7 4999   1.440   3.023   0.024  0.4725 -0.4863 -0.0982
  329TMC3    C8 5000   1.235   3.451   0.107  0.9636  1.0747  0.2324
  329TMC3    O1 5001   1.538   2.968  17.721 -0.0311  0.0501 -0.1571
  329TMC3    O2 5002   1.171   3.516   0.030  0.4278  0.0870  0.1116
  330TMC3    C1 5003   2.358   0.146   9.263 -0.5287 -0.2243  0.0222
  330TMC3    C2 5004   2.303   0.264   9.302  0.0526  0.1584  0.2621
  330TMC3    C3 5005   2.388   0.368   9.332 -0.4705  0.0429 -1.0301
  330TMC3    C4 5006   2.497   0.125   9.248  0.2493 -0.1357 -0.3230
  330TMC3    C5 5007   2.573   0.234   9.279  0.7605 -0.0351 -0.3703
  330TMC3    C6 5008   2.524   0.352   9.321 -0.2451 -0.4428  0.4722
  330TMC3     C 5009   2.268   0.028   9.228 -0.5157 -1.0348  0.5144
  330TMC3     O 5010   2.148   0.050   9.218 -0.3914 -0.9427 -0.5643
  330TMC3     H 5011   2.201   0.286   9.330 -0.0487 -0.4788  0.3816
  330TMC3    H1 5012   2.537   0.041   9.192  0.6489  0.2394 -0.6043
  330TMC3    H2 5013   2.591   0.434   9.343 -0.0996  0.2190 -2.4729
  330TMC3    C7 5014   2.715   0.234   9.246 -0.1639 -0.1352 -0.4412
  330TMC3    C8 5015   2.332   0.499   9.354  0.0361 -0.0215  0.1500
  330TMC3    O1 5016   2.752   0.346   9.214  0.1518 -0.2289  0.1597
  330TMC3    O2 5017   2.224   0.519   9.299  0.1550 -0.0612 -0.1938
  331MPD2     C 5018   2.695   1.647  13.515  0.1241 -0.4080 -0.1239
  331MPD2    C1 5019   2.694   1.655  13.378 -0.4937 -0.0569 -0.5015
  331MPD2    C2 5020   2.613   1.577  13.300 -0.2417  0.0129  0.1243
  331MPD2    C3 5021   2.524   1.491  13.355  0.5254  0.0692 -0.1391
  331MPD2    C4 5022   2.519   1.480  13.494  0.6670 -0.7387 -0.6940
  331MPD2    C5 5023   2.615   1.553  13.575 -0.0602  0.0052  0.0272
  331MPD2     H 5024   2.619   1.580  13.192  0.3837  0.8877  0.1837
  331MPD2    H1 5025   2.453   1.412  13.547  1.0555  0.2491  1.0586
  331MPD2    H2 5026   2.746   1.721  13.577  1.6201 -0.8552 -0.8108
  331MPD2    H3 5027   2.613   1.545  13.683 -0.8667  2.5500  0.1881
  331MPD2     N 5028   2.449   1.399  13.269  0.8845  0.3752 -0.2575
  331MPD2    H5 5029   2.451   1.415  13.169  1.9280  1.3181 -0.0879
  331MPD2    N1 5030   2.784   1.748  13.318 -0.4661  0.0933 -0.2083
  331MPD2    H7 5031   2.848   1.792  13.384 -1.9435 -0.0327  1.3149
  332TMC3    C1 5032   2.313   1.231  13.192  0.3701  0.0693  0.6659
  332TMC3    C2 5033   2.297   1.326  13.097 -0.0051 -0.2460 -0.0112
  332TMC3    C3 5034   2.344   1.293  12.973 -0.2659 -0.2509  0.0524
  332TMC3    C4 5035   2.335   1.104  13.174  0.9306 -0.3877  0.1873
  332TMC3    C5 5036   2.357   1.064  13.041 -0.4418 -0.5535  0.0231
  332TMC3    C6 5037   2.376   1.159  12.942  0.4427 -0.2146  0.1147
  332TMC3     C 5038   2.377   1.290  13.311 -0.7513  0.0483 -0.6337
  332TMC3     O 5039   2.364   1.235  13.418 -0.4568  0.2787 -0.0312
  332TMC3     H 5040   2.273   1.430  13.111 -4.0972 -1.1991  0.0271
  332TMC3    H1 5041   2.369   1.034  13.249  1.6541 -1.2984 -0.9973
  332TMC3    H2 5042   2.380   1.136  12.836  0.2513  0.8853 -0.1255
  332TMC3    C7 5043   2.422   0.936  13.031  0.2204 -0.2403  0.7023
  332TMC3    C8 5044   2.318   1.395  12.873 -0.4646 -0.6569  0.5386
  332TMC3    O1 5045   2.392   0.846  13.109 -0.1567 -0.6940 -0.3272
  332TMC3    O2 5046   2.221   1.464  12.897 -0.1242 -0.5106 -0.8714
  333MPD2     C 5047   2.081   1.870  11.189 -0.5282  0.5177 -0.8138
  333MPD2    C1 5048   2.188   1.791  11.133 -0.0123 -0.3078 -0.4008
  333MPD2    C2 5049   2.207   1.666  11.178  0.0034  0.4839 -0.1679
  333MPD2    C3 5050   2.141   1.616  11.288  0.5567 -0.7292  0.3258
  333MPD2    C4 5051   2.053   1.694  11.351  0.1928  0.2345 -0.7202
  333MPD2    C5 5052   2.021   1.815  11.299  0.5525 -0.5587  0.7924
  333MPD2     H 5053   2.288   1.605  11.139  1.3579  1.2637  1.4277
  333MPD2    H1 5054   1.996   1.665  11.438  1.0004  0.2960 -0.1679
  333MPD2    H2 5055   2.044   1.964  11.151  1.4215  1.3228 -0.7198
  333MPD2    H3 5056   1.947   1.867  11.358  0.3358  0.5279 -0.4537
  333MPD2     N 5057   2.172   1.484  11.329  0.1542  0.1296  0.8112
  333MPD2    H5 5058   2.234   1.433  11.266 -1.0846  0.3757 -0.6055
  333MPD2    N1 5059   2.273   1.826  11.024 -0.3446  0.2436 -0.6100
  333MPD2    H7 5060   2.358   1.774  11.004 -1.1463 -1.0040 -0.7592
  334TMC3    C1 5061   2.354   1.957  10.841 -0.6627  0.0896  0.0393
  334TMC3    C2 5062   2.450   1.863  10.822 -0.3472  0.5123 -1.0970
  334TMC3    C3 5063   2.550   1.894  10.734  0.9718 -0.0640 -0.3784
  334TMC3    C4 5064   2.363   2.077  10.781 -0.3344  0.1032  0.0540
  334TMC3    C5 5065   2.459   2.105  10.683 -0.2478 -0.0176  0.1878
  334TMC3    C6 5066   2.550   2.004  10.654 -0.6801  0.0936 -0.1240
  334TMC3     C 5067   2.261   1.944  10.953  0.2969  0.0727 -0.0389
  334TMC3     O 5068   2.169   2.024  10.946 -0.4384  0.1754 -0.3783
  334TMC3     H 5069   2.447   1.762  10.861  2.3951  0.6098 -0.6190
  334TMC3    H1 5070   2.287   2.154  10.795 -1.0418 -0.5222 -0.3612
  334TMC3    H2 5071   2.629   2.037  10.588 -0.2561 -1.2461 -0.2837
  334TMC3    C7 5072   2.502   2.248  10.663 -0.1485 -0.4317  0.1130
  334TMC3    C8 5073   2.657   1.795  10.731  0.4247 -0.2742 -0.8595
  334TMC3    O1 5074   2.461   2.336  10.738  0.2514 -0.1716 -0.2931
  334TMC3    O2 5075   2.638   1.681  10.772  0.5094 -0.6387  0.2607
  335TMC3    C1 5076   2.121   3.237  17.293  0.4367  0.3563 -0.1765
  335TMC3    C2 5077   2.073   3.197  17.173  0.1835  0.1147  0.3937
  335TMC3    C3 5078   2.150   3.218  17.060 -0.0743  0.7718 -0.1601
  335TMC3    C4 5079   2.251   3.270  17.309 -0.6696 -0.3544 -0.3030
  335TMC3    C5 5080   2.323   3.291  17.198  0.2632 -0.0372 -0.4776
  335TMC3    C6 5081   2.279   3.263  17.073 -0.1220  0.4852 -0.6454
  335TMC3     C 5082   2.044   3.209  17.416 -0.4727 -0.0317 -0.3956
  335TMC3     O 5083   1.945   3.146  17.393  0.0158  0.2071  0.0291
  335TMC3     H 5084   1.968   3.172  17.163 -0.4656  3.2200 -0.7546
  335TMC3    H1 5085   2.295   3.286  17.406  0.1087 -2.5622 -0.3079
  335TMC3    H2 5086   2.342   3.288  16.989  1.8411 -1.3500  0.2821
  335TMC3    C7 5087   2.464   3.324  17.210 -0.3364  0.9391  0.3610
  335TMC3    C8 5088   2.128   3.125  16.952  0.8638  0.4312 -0.9077
  335TMC3    O1 5089   2.525   3.308  17.105  0.4679  0.1348 -0.0679
  335TMC3    O2 5090   2.212   3.110  16.870 -0.1083  0.4587 -0.4225
  336MPD2     C 5091   1.932   1.038  16.444 -0.4069 -0.1096  0.1015
  336MPD2    C1 5092   1.943   1.009  16.309  0.5728 -0.4677  1.0948
  336MPD2    C2 5093   1.976   0.881  16.274 -0.1370 -0.3025  0.2628
  336MPD2    C3 5094   1.997   0.791  16.376 -0.8670 -0.1646 -0.0004
  336MPD2    C4 5095   1.987   0.823  16.510  0.9152 -0.5973  0.2396
  336MPD2    C5 5096   1.960   0.952  16.543  0.4832  0.5255  0.8977
  336MPD2     H 5097   1.979   0.851  16.170 -0.2170  0.6622 -0.0153
  336MPD2    H1 5098   1.981   0.746  16.586  0.4228  2.0021  2.8376
  336MPD2    H2 5099   1.896   1.137  16.468  0.9764  0.1498  1.1215
  336MPD2    H3 5100   1.950   0.988  16.645 -0.8742  0.6459  0.7215
  336MPD2     N 5101   2.036   0.659  16.351 -0.1095  0.6584  0.2649
  336MPD2    H5 5102   2.076   0.609  16.429  1.1633  0.5495 -0.4486
  336MPD2    N1 5103   1.910   1.101  16.213  0.6271  0.1226  0.0182
  336MPD2    H7 5104   1.897   1.062  16.120  1.4348  1.2723 -0.5813
  337TMC3    C1 5105   1.861   1.312  16.120 -0.1060  0.3068  0.1380
  337TMC3    C2 5106   1.784   1.251  16.026 -0.1907 -0.5359  0.0292
  337TMC3    C3 5107   1.737   1.335  15.927 -0.1137  0.7340 -0.6136
  337TMC3    C4 5108   1.889   1.446  16.118  0.0502  0.6578 -0.2618
  337TMC3    C5 5109   1.873   1.518  15.999 -0.0506  0.5171  0.9831
  337TMC3    C6 5110   1.791   1.465  15.906 -0.1302  0.4551  0.1008
  337TMC3     C 5111   1.910   1.238  16.235 -0.2702 -1.0983  0.4399
  337TMC3     O 5112   1.951   1.308  16.330  0.7795 -0.3994  0.1469
  337TMC3     H 5113   1.762   1.145  16.028 -1.6182 -0.1978  2.0479
  337TMC3    H1 5114   1.951   1.487  16.196 -0.7306  1.2688  0.0355
  337TMC3    H2 5115   1.725   1.527  15.846 -1.2456 -1.7849 -0.9898
  337TMC3    C7 5116   1.883   1.663  15.997 -0.3929 -0.2198  0.1279
  337TMC3    C8 5117   1.594   1.350  15.933  0.6358  0.0998 -0.5163
  337TMC3    O1 5118   1.816   1.728  16.075 -0.5162  0.0363 -0.3240
  337TMC3    O2 5119   1.536   1.317  16.032  0.4275 -0.2419  0.7160
  338MPD2     C 5120   1.914   0.981   0.698 -0.6440 -0.4408  0.8505
  338MPD2    C1 5121   1.857   0.883   0.620  0.1962  0.1744  1.0754
  338MPD2    C2 5122   1.722   0.888   0.605  0.0156  0.0163  0.1484
  338MPD2    C3 5123   1.641   0.986   0.672 -0.9227  0.1148  0.0481
  338MPD2    C4 5124   1.700   1.072   0.759  0.5584 -0.0097  0.6000
  338MPD2    C5 5125   1.839   1.075   0.761  0.3753  0.2318 -0.2555
  338MPD2     H 5126   1.669   0.818   0.541 -1.2296 -0.0295  1.2294
  338MPD2    H1 5127   1.648   1.160   0.793 -0.0277 -0.2561  0.3529
  338MPD2    H2 5128   2.021   0.998   0.710 -0.7211 -0.2127  1.2188
  338MPD2    H3 5129   1.886   1.152   0.821  0.4395  0.0303 -0.0512
  338MPD2     N 5130   1.505   0.973   0.632  0.5155  0.0830  0.2620
  338MPD2    H5 5131   1.487   0.908   0.556  0.2696 -0.3607  0.7044
  338MPD2    N1 5132   1.930   0.786   0.555  0.0899 -0.5727 -0.0015
  338MPD2    H7 5133   1.883   0.729   0.487 -0.1397 -3.8089  2.8573
  339TMC3    C1 5134   1.274   1.000   0.613 -0.2415  0.0135  0.3269
  339TMC3    C2 5135   1.168   0.970   0.691 -0.5555  0.4955  0.1683
  339TMC3    C3 5136   1.096   0.864   0.661 -0.8385  0.0215  0.3729
  339TMC3    C4 5137   1.295   0.948   0.485  0.0048  0.0411  0.5401
  339TMC3    C5 5138   1.214   0.838   0.456 -0.4657 -0.2936 -0.0323
  339TMC3    C6 5139   1.121   0.793   0.543  0.8225  0.2732 -0.1936
  339TMC3     C 5140   1.397   1.043   0.686  0.2295 -0.1289  0.1384
  339TMC3     O 5141   1.389   1.111   0.790 -0.3362 -0.0239 -0.0313
  339TMC3     H 5142   1.163   0.999   0.795  2.2285 -1.7843  0.9337
  339TMC3    H1 5143   1.367   0.990   0.415 -0.8755 -1.5065 -1.3022
  339TMC3    H2 5144   1.063   0.705   0.517  0.8335  0.2036  0.0131
  339TMC3    C7 5145   1.234   0.772   0.331 -0.2910  0.2184 -0.4136
  339TMC3    C8 5146   1.014   0.798   0.763  0.7887 -0.1551  0.0367
  339TMC3    O1 5147   1.208   0.652   0.326  0.2656  0.3968  0.7106
  339TMC3    O2 5148   0.966   0.869   0.852 -0.6998  0.0790 -0.0948
  340MPD2     C 5149   1.730   1.278  10.561 -0.5758 -0.4216  0.2653
  340MPD2    C1 5150   1.804   1.317  10.445  0.6535 -0.8840  0.2994
  340MPD2    C2 5151   1.869   1.442  10.445  0.5933 -0.2584  0.0985
  340MPD2    C3 5152   1.859   1.527  10.547 -0.1326  0.4983 -0.3712
  340MPD2    C4 5153   1.753   1.496  10.638  0.5701  0.4177  0.3967
  340MPD2    C5 5154   1.701   1.376  10.651 -0.2760 -0.9156 -0.1174
  340MPD2     H 5155   1.950   1.453  10.374  0.1010 -0.1332 -0.4514
  340MPD2    H1 5156   1.723   1.553  10.725  1.5646 -1.5732  2.0408
  340MPD2    H2 5157   1.687   1.180  10.571 -0.8946 -0.0618  2.3808
  340MPD2    H3 5158   1.634   1.359  10.734  0.6068  0.0441  0.7909
  340MPD2     N 5159   1.933   1.647  10.576  0.6754 -0.7853  0.1936
  340MPD2    H5 5160   1.910   1.696  10.662  1.5187  0.4189 -0.2626
  340MPD2    N1 5161   1.821   1.228  10.338  0.2740 -0.4291 -1.1560
  340MPD2    H7 5162   1.787   1.134  10.353 -1.8660  0.6076  0.4702
  341TMC3    C1 5163   1.874   1.151  10.120  0.3118  0.2670 -0.5610
  341TMC3    C2 5164   1.759   1.073  10.114  0.0229 -0.4770  0.2466
  341TMC3    C3 5165   1.717   1.021   9.994  0.1205 -0.0524  0.9066
  341TMC3    C4 5166   1.948   1.171  10.005 -0.5438  0.1951 -0.0562
  341TMC3    C5 5167   1.919   1.093   9.888  0.4735 -0.1467 -0.1461
  341TMC3    C6 5168   1.804   1.027   9.882  0.0498 -0.2414 -0.3269
  341TMC3     C 5169   1.873   1.259  10.215 -0.1942 -0.1797  0.3714
  341TMC3     O 5170   1.929   1.360  10.170  0.0224  0.0625 -0.0467
  341TMC3     H 5171   1.692   1.067  10.199 -1.1051  0.1723 -0.6012
  341TMC3    H1 5172   2.031   1.242  10.006 -0.4725  0.1192 -0.6270
  341TMC3    H2 5173   1.784   0.971   9.791 -1.6030  1.2986 -0.9212
  341TMC3    C7 5174   1.973   1.148   9.767  1.2668 -0.0701  0.3370
  341TMC3    C8 5175   1.624   0.913   9.997  0.1159 -0.2657 -0.4385
  341TMC3    O1 5176   2.089   1.182   9.784  0.0266 -0.4583 -0.4113
  341TMC3    O2 5177   1.627   0.847  10.101  0.5967  0.3906 -0.3434
  342MPD2     C 5178   4.669   1.156  17.294 -0.1644 -1.0885 -1.2505
  342MPD2    C1 5179   0.054   1.215  17.269 -0.1971  0.0704 -0.5458
  342MPD2    C2 5180   0.067   1.357  17.262 -0.2858 -0.2292 -0.2582
  342MPD2    C3 5181   4.690   1.426  17.272  0.5767 -0.4833 -0.1523
  342MPD2    C4 5182   4.577   1.362  17.307 -0.0003  0.3737  0.5947
  342MPD2    C5 5183   4.557   1.230  17.326  0.6338 -0.1373 -0.0694
  342MPD2     H 5184   0.162   1.400  17.233 -0.4138 -0.6148 -1.2502
  342MPD2    H1 5185   4.486   1.417  17.329 -0.0372  0.0501  1.2651
  342MPD2    H2 5186   4.657   1.048  17.289  0.0691 -1.1214 -1.0962
  342MPD2    H3 5187   4.465   1.178  17.353  1.4472 -1.6449 -0.2070
  342MPD2     N 5188   4.686   1.567  17.269  0.6242 -0.4748 -0.0161
  342MPD2    H5 5189   4.590   1.599  17.282  0.7093 -0.8411  1.5492
  342MPD2    N1 5190   0.172   1.142  17.265  0.2481 -0.0039  0.4879
  342MPD2    H7 5191   0.258   1.188  17.239  0.8554 -0.7598  1.1809
  343TMC3    C1 5192   0.297   0.942  17.287  0.3701  0.6724  0.6830
  343TMC3    C2 5193   0.363   0.982  17.170 -0.2826 -0.1202  0.2331
  343TMC3    C3 5194   0.446   0.889  17.108  0.3087 -0.1647  0.2823
  343TMC3    C4 5195   0.300   0.809  17.329 -0.3830  0.4413 -0.6098
  343TMC3    C5 5196   0.390   0.719  17.267 -0.0389  0.0223 -0.1678
  343TMC3    C6 5197   0.464   0.761  17.158  0.4964  0.1358 -0.7678
  343TMC3     C 5198   0.176   1.010  17.306  0.4209  0.7272  0.5966
  343TMC3     O 5199   0.095   0.951  17.379  0.5114 -0.4325 -0.2890
  343TMC3     H 5200   0.377   1.086  17.145  0.5866 -0.2403  0.2339
  343TMC3    H1 5201   0.244   0.779  17.416 -1.9651 -1.0002 -2.1336
  343TMC3    H2 5202   0.537   0.694  17.115  0.8358  0.0675 -0.0808
  343TMC3    C7 5203   0.378   0.577  17.313 -0.0940 -0.0632  0.1224
  343TMC3    C8 5204   0.525   0.945  16.997 -0.5846 -1.7369 -0.2071
  343TMC3    O1 5205   0.400   0.496  17.225  0.2652  1.0807 -0.3014
  343TMC3    O2 5206   0.543   1.065  17.003  0.1721  0.0978  0.2054
  344MPD2     C 5207   0.930   0.736  11.113  0.2327  0.2289  1.4159
  344MPD2    C1 5208   0.964   0.662  11.001 -0.0976  0.9874  0.4271
  344MPD2    C2 5209   1.027   0.719  10.899 -0.3073 -0.2583 -0.7746
  344MPD2    C3 5210   1.068   0.853  10.909  0.3862 -0.5599 -0.0997
  344MPD2    C4 5211   1.030   0.930  11.014 -0.0708  0.1836 -0.2866
  344MPD2    C5 5212   0.960   0.874  11.120 -0.1079  0.4447 -0.2254
  344MPD2     H 5213   1.056   0.656  10.816 -1.1651 -0.0948 -1.2015
  344MPD2    H1 5214   1.056   1.033  11.034  0.9634 -0.0700 -0.3425
  344MPD2    H2 5215   0.886   0.686  11.199 -2.3214  0.3286  0.1615
  344MPD2    H3 5216   0.946   0.935  11.208  2.8316  0.4405  0.2584
  344MPD2     N 5217   1.133   0.919  10.805  0.2997 -0.4737 -0.1725
  344MPD2    H5 5218   1.142   1.020  10.802 -1.3254 -0.3311 -0.1264
  344MPD2    N1 5219   0.940   0.520  10.996 -0.5343  0.1070  0.2913
  344MPD2    H7 5220   0.921   0.486  10.903 -1.6361 -1.9714  1.2784
  345TMC3    C1 5221   1.229   0.969  10.604  0.2469  0.3413  0.5301
  345TMC3    C2 5222   1.288   1.071  10.666  0.2708 -0.5234 -0.1515
  345TMC3    C3 5223   1.290   1.185  10.593 -0.1879  0.3175  0.7005
  345TMC3    C4 5224   1.161   0.976  10.481  0.0643  0.2270 -0.7077
  345TMC3    C5 5225   1.165   1.099  10.423  0.0033  0.4361  0.0130
  345TMC3    C6 5226   1.230   1.204  10.471 -0.2058  0.0811  0.9376
  345TMC3     C 5227   1.187   0.865  10.692 -0.8205 -0.0576  0.6401
  345TMC3     O 5228   1.174   0.755  10.640 -0.2318 -0.5539 -0.0370
  345TMC3     H 5229   1.341   1.048  10.757  1.6832  2.8817 -0.1108
  345TMC3    H1 5230   1.109   0.884  10.456 -0.6290  0.0485  1.3770
  345TMC3    H2 5231   1.268   1.288  10.414  0.1073  0.6761  2.0213
  345TMC3    C7 5232   1.066   1.132  10.327 -0.8027 -0.2703 -0.4284
  345TMC3    C8 5233   1.340   1.305  10.654  0.0290  0.3378  0.8190
  345TMC3    O1 5234   0.996   1.045  10.279  0.5250  0.0948  0.4114
  345TMC3    O2 5235   1.402   1.383  10.580  0.6480  0.0014  0.0551
  346MPD2     C 5236   1.773   2.253  13.954  0.6255 -0.7380  0.8318
  346MPD2    C1 5237   1.748   2.384  13.915  0.2417  0.2367 -0.2104
  346MPD2    C2 5238   1.722   2.475  14.011  0.1700 -0.0245  0.1506
  346MPD2    C3 5239   1.719   2.446  14.144 -0.5403  0.1612  0.4088
  346MPD2    C4 5240   1.743   2.312  14.177  0.3453 -0.2949  0.2615
  346MPD2    C5 5241   1.772   2.216  14.087 -0.0117  0.0400 -0.2347
  346MPD2     H 5242   1.698   2.577  13.985  2.1414  1.1215  2.8236
  346MPD2    H1 5243   1.748   2.276  14.279  1.1352 -0.9126  0.0075
  346MPD2    H2 5244   1.805   2.178  13.881 -2.6162 -0.5305 -0.8213
  346MPD2    H3 5245   1.799   2.116  14.119  1.1167  0.7754  1.1253
  346MPD2     N 5246   1.682   2.541  14.242 -0.0426 -0.7145  0.2661
  346MPD2    H5 5247   1.674   2.634  14.201  2.3090 -1.2468 -1.3910
  346MPD2    N1 5248   1.730   2.421  13.775 -0.9914 -0.0914  0.0088
  346MPD2    H7 5249   1.712   2.519  13.760  0.3471  0.6042  2.9986
  347TMC3    C1 5250   1.676   2.648  14.446  0.5454  0.7712  0.1665
  347TMC3    C2 5251   1.718   2.753  14.365 -0.0612 -0.0221  0.3453
  347TMC3    C3 5252   1.819   2.833  14.407 -0.3567 -0.4988  0.1984
  347TMC3    C4 5253   1.727   2.627  14.570 -0.7348  0.7153  0.4542
  347TMC3    C5 5254   1.826   2.712  14.608  0.8487  0.1958 -0.0581
  347TMC3    C6 5255   1.872   2.813  14.528 -0.3960  0.2117  0.2816
  347TMC3     C 5256   1.674   2.521  14.375  0.4624 -0.2507 -0.4979
  347TMC3     O 5257   1.685   2.422  14.445  0.7873 -0.4236 -0.1251
  347TMC3     H 5258   1.669   2.776  14.271  0.1491  0.2056  0.2930
  347TMC3    H1 5259   1.678   2.560  14.639 -1.7771  1.8380  0.8001
  347TMC3    H2 5260   1.951   2.882  14.556 -0.5749  0.0346  1.2228
  347TMC3    C7 5261   1.933   2.659  14.694 -0.0017 -0.4893  0.2285
  347TMC3    C8 5262   1.926   2.834  14.317 -1.0288  0.5593  0.7118
  347TMC3    O1 5263   1.910   2.573  14.780 -0.3484  0.5057 -0.0930
  347TMC3    O2 5264   2.017   2.762  14.357 -0.2389 -0.4923 -0.4400
  348MPD2     C 5265   4.535   2.113  12.204  0.5008  0.4206  0.2132
  348MPD2    C1 5266   4.648   2.174  12.157 -0.2083 -0.9329 -0.2746
  348MPD2    C2 5267   4.640   2.270  12.063  0.4765  0.0028  0.2865
  348MPD2    C3 5268   4.519   2.297  11.998 -0.2009 -0.2216 -0.0612
  348MPD2    C4 5269   4.408   2.228  12.043  0.1300 -1.0425 -0.0258
  348MPD2    C5 5270   4.415   2.139  12.149  0.1091 -0.8461  0.5521
  348MPD2     H 5271   4.730   2.318  12.028 -0.0355  1.3282  0.8047
  348MPD2    H1 5272   4.318   2.241  11.985 -0.0444  1.5428  0.8447
  348MPD2    H2 5273   4.536   2.032  12.276  0.8789 -0.0281 -0.2923
  348MPD2    H3 5274   4.337   2.076  12.189 -0.8032 -1.5775 -2.3692
  348MPD2     N 5275   4.517   2.402  11.905  0.5163  1.0920  0.2421
  348MPD2    H5 5276   4.589   2.472  11.916  0.8304  0.7038  0.6670
  348MPD2    N1 5277   0.046   2.156  12.202 -0.4897  0.1334 -0.3099
  348MPD2    H7 5278   0.114   2.209  12.149 -0.1561  0.5269  0.5026
  349TMC3    C1 5279   0.235   2.032  12.267 -0.5161  0.1737  0.1147
  349TMC3    C2 5280   0.269   1.905  12.315  0.2115 -0.5382  0.0099
  349TMC3    C3 5281   0.323   1.814  12.226  0.1596 -0.1365  0.1570
  349TMC3    C4 5282   0.275   2.078  12.145 -0.3264  0.1005 -0.3906
  349TMC3    C5 5283   0.312   1.979  12.054  0.0030  0.6909 -0.0418
  349TMC3    C6 5284   0.334   1.852  12.090 -0.3238  0.1128  0.2235
  349TMC3     C 5285   0.092   2.061  12.287  1.0068  0.1803  0.4776
  349TMC3     O 5286   0.026   1.981  12.357  0.0422  0.0123 -0.4891
  349TMC3     H 5287   0.254   1.874  12.417 -1.5364 -2.0461 -0.6975
  349TMC3    H1 5288   0.251   2.174  12.099  2.1949  1.4322  1.0406
  349TMC3    H2 5289   0.356   1.774  12.019  0.4730 -0.2292  0.8458
  349TMC3    C7 5290   0.247   1.992  11.924  0.3827 -0.0049 -0.5717
  349TMC3    C8 5291   0.364   1.683  12.277 -0.0111 -0.1908 -0.2020
  349TMC3    O1 5292   0.167   1.904  11.900  0.2994  0.2555  0.0438
  349TMC3    O2 5293   0.334   1.655  12.391 -0.2360  0.4152  0.2961
  350MPD2     C 5294   3.668   4.455  10.176  0.5278  0.3994 -0.2936
  350MPD2    C1 5295   3.742   4.352  10.128 -0.5527  0.1108  0.4659
  350MPD2    C2 5296   3.878   4.374  10.125 -0.3821 -0.1089  0.2793
  350MPD2    C3 5297   3.930   4.498  10.142 -0.5838  0.3893  0.1674
  350MPD2    C4 5298   3.854   4.603  10.174 -0.0529 -0.0893  0.7800
  350MPD2    C5 5299   3.725   4.580  10.204  0.0204 -0.6460  0.5642
  350MPD2     H 5300   3.947   4.299  10.086  0.4004  0.3204  0.8388
  350MPD2    H1 5301   3.897   4.701  10.191  2.1339 -1.0344  0.7211
  350MPD2    H2 5302   3.563   4.432  10.185  0.8805 -2.1643 -2.5969
  350MPD2    H3 5303   3.658   4.660  10.234  0.4627  0.0486 -0.3093
  350MPD2     N 5304   4.070   4.500  10.126 -0.2239 -0.4804  0.0286
  350MPD2    H5 5305   4.124   4.416  10.105  3.9453  2.9365 -2.9041
  350MPD2    N1 5306   3.690   4.227  10.088 -0.5089 -0.3467  0.3101
  350MPD2    H7 5307   3.750   4.165  10.035 -1.1703 -0.9021  0.2054
  351TMC3    C1 5308   3.535   4.046  10.055 -0.7110  0.3594 -0.4368
  351TMC3    C2 5309   3.623   4.010   9.958 -0.4364 -0.4605  0.1794
  351TMC3    C3 5310   3.562   3.942   9.856 -0.2607 -0.0365 -0.6202
  351TMC3    C4 5311   3.400   4.021  10.062 -0.4476 -0.5709 -0.2720
  351TMC3    C5 5312   3.354   3.951   9.951  0.3924  0.8173 -0.2792
  351TMC3    C6 5313   3.428   3.904   9.853 -0.2685  0.0807  0.0964
  351TMC3     C 5314   3.557   4.181  10.115 -0.2735  0.7681  0.1360
  351TMC3     O 5315   3.459   4.232  10.171  0.1343  0.1843  0.8067
  351TMC3     H 5316   3.730   4.029   9.949 -0.4084 -0.7572 -0.1261
  351TMC3    H1 5317   3.342   4.036  10.152 -0.0160 -1.4859  0.1514
  351TMC3    H2 5318   3.395   3.846   9.767  1.3494 -0.5088 -0.1127
  351TMC3    C7 5319   3.220   3.884   9.963 -0.4257 -0.5212 -0.1343
  351TMC3    C8 5320   3.643   3.896   9.743  0.3494 -0.0602 -0.5374
  351TMC3    O1 5321   3.199   3.789   9.890 -0.1192 -0.0453  0.7626
  351TMC3    O2 5322   3.744   3.825   9.758  0.0117  0.3405  0.3449
  352MPD2     C 5323   2.153   2.393   1.050 -0.1475 -0.2247  0.1897
  352MPD2    C1 5324   2.142   2.392   0.906 -0.1771 -0.3810 -0.6483
  352MPD2    C2 5325   2.247   2.342   0.833  0.9903 -0.3181  0.0899
  352MPD2    C3 5326   2.361   2.301   0.890  1.0222  0.8956  0.5603
  352MPD2    C4 5327   2.370   2.302   1.032  0.1950  0.4516 -0.1697
  352MPD2    C5 5328   2.268   2.347   1.109 -0.1317  0.7230  0.1276
  352MPD2     H 5329   2.247   2.351   0.725 -0.7659  2.0785  0.2825
  352MPD2    H1 5330   2.458   2.267   1.083  0.8084  0.5469 -1.1631
  352MPD2    H2 5331   2.077   2.423   1.120  0.3113  1.7606 -0.1719
  352MPD2    H3 5332   2.268   2.342   1.218 -0.2040  2.4226  0.1965
  352MPD2     N 5333   2.474   2.242   0.817 -0.5313 -0.6162  0.2115
  352MPD2    H5 5334   2.547   2.207   0.878 -0.4003 -0.3908  0.1820
  352MPD2    N1 5335   2.024   2.448   0.850 -0.1860  0.0437 -0.1344
  352MPD2    H7 5336   1.952   2.481   0.913 -3.0538 -0.8464 -2.9433
  353TMC3    C1 5337   2.571   2.116   0.647  0.3549  0.0788  0.3668
  353TMC3    C2 5338   2.625   2.035   0.741 -0.4150  0.3504 -0.5041
  353TMC3    C3 5339   2.644   1.903   0.695 -0.3176  0.0701  0.2580
  353TMC3    C4 5340   2.539   2.075   0.516 -0.4257 -0.2844  0.4785
  353TMC3    C5 5341   2.547   1.943   0.491  0.2110  0.5053 -0.6302
  353TMC3    C6 5342   2.613   1.853   0.571 -0.2187 -0.0605 -0.1250
  353TMC3     C 5343   2.466   2.205   0.688  0.5151 -0.6157 -0.3160
  353TMC3     O 5344   2.371   2.197   0.608  0.5701 -0.5501  0.0852
  353TMC3     H 5345   2.642   2.056   0.846 -0.0969 -0.5104 -0.3871
  353TMC3    H1 5346   2.515   2.143   0.435 -1.5877 -1.7529 -0.4135
  353TMC3    H2 5347   2.632   1.750   0.544 -1.1517  0.0718 -1.3003
  353TMC3    C7 5348   2.426   1.892   0.428  0.2510 -0.4808  0.1575
  353TMC3    C8 5349   2.740   1.827   0.766  0.2567 -0.0652  0.6534
  353TMC3    O1 5350   2.426   1.788   0.373 -0.5391  0.1932 -0.2389
  353TMC3    O2 5351   2.796   1.894   0.856  0.0767  0.7619 -0.3103
  354TMC3    C1 5352   4.166   3.294  13.498  1.0232 -0.3410 -0.3935
  354TMC3    C2 5353   4.091   3.371  13.413  0.1157 -0.0524  0.3310
  354TMC3    C3 5354   4.124   3.379  13.284 -0.7064  0.2328  0.2124
  354TMC3    C4 5355   4.273   3.223  13.454  0.7272  0.8127 -0.8418
  354TMC3    C5 5356   4.304   3.225  13.323 -0.1090 -0.3073 -0.4455
  354TMC3    C6 5357   4.230   3.301  13.235  0.5695 -0.1385  0.3578
  354TMC3     C 5358   4.095   3.238  13.607  0.9641 -0.3029  0.3262
  354TMC3     O 5359   3.982   3.199  13.579  0.0652 -0.3388 -0.2538
  354TMC3     H 5360   4.000   3.415  13.454  0.3012  2.3973 -1.8799
  354TMC3    H1 5361   4.311   3.152  13.526 -1.1401 -0.8455 -1.4765
  354TMC3    H2 5362   4.248   3.301  13.128 -2.8359  0.7778 -0.1984
  354TMC3    C7 5363   4.360   3.104  13.272 -0.2683  0.0055 -0.9546
  354TMC3    C8 5364   4.049   3.460  13.184  0.2816 -0.3130 -0.0042
  354TMC3    O1 5365   4.374   3.007  13.341  0.0417  0.0162 -0.4251
  354TMC3    O2 5366   4.034   3.417  13.074  0.1568  0.2124  0.4446
  355MPD2     C 5367   3.878   3.844  11.306 -0.1438  0.7702 -0.1904
  355MPD2    C1 5368   3.845   3.965  11.360  0.9973 -0.0212 -0.1514
  355MPD2    C2 5369   3.940   4.036  11.437 -0.3218 -0.2164 -0.6936
  355MPD2    C3 5370   4.066   3.984  11.463  0.5361  0.2253  0.1326
  355MPD2    C4 5371   4.097   3.864  11.392 -0.6329  0.4422  0.8389
  355MPD2    C5 5372   4.004   3.792  11.322  0.6935 -0.0409  0.7232
  355MPD2     H 5373   3.895   4.125  11.480 -0.2929 -0.9446  0.8564
  355MPD2    H1 5374   4.196   3.820  11.401 -0.6247  0.0706 -0.9276
  355MPD2    H2 5375   3.809   3.785  11.247 -0.9354 -0.4772  1.9750
  355MPD2    H3 5376   4.021   3.697  11.272 -1.0879 -1.2976  2.4522
  355MPD2     N 5377   4.170   4.065  11.524  0.5519 -0.4777 -0.1759
  355MPD2    H5 5378   4.266   4.032  11.521  0.9166  0.6463 -0.7690
  355MPD2    N1 5379   3.712   4.015  11.335  0.1663 -0.8003 -0.6243
  355MPD2    H7 5380   3.640   3.945  11.319  2.0256 -2.7414 -0.4992
  356TMC3    C1 5381   4.261   4.249  11.641 -0.2482 -0.3018  0.7220
  356TMC3    C2 5382   4.362   4.271  11.551 -0.6483  0.2880 -0.4603
  356TMC3    C3 5383   4.444   4.377  11.567  0.8288 -0.2845  0.7676
  356TMC3    C4 5384   4.247   4.329  11.754  0.8233 -0.0633 -0.6123
  356TMC3    C5 5385   4.344   4.420  11.776 -0.6993 -0.2094  0.0503
  356TMC3    C6 5386   4.439   4.452  11.686 -0.3784  0.3518  0.2519
  356TMC3     C 5387   4.147   4.173  11.600 -0.3039  0.2405 -0.0686
  356TMC3     O 5388   4.037   4.211  11.649  0.1328 -0.4149 -0.4597
  356TMC3     H 5389   4.371   4.207  11.463  0.5982 -0.9303  0.5455
  356TMC3    H1 5390   4.166   4.319  11.825  1.1334  0.8832 -0.1288
  356TMC3    H2 5391   4.499   4.541  11.703 -0.5750  0.1078  2.2417
  356TMC3    C7 5392   4.317   4.499  11.891  0.3603  0.7484  0.4044
  356TMC3    C8 5393   4.500   4.425  11.440  0.3927  0.0505  0.3567
  356TMC3    O1 5394   4.241   4.462  11.977 -0.2131 -0.1306  0.4021
  356TMC3    O2 5395   4.456   4.380  11.334  0.2227  0.3897  0.1561
  357MPD2     C 5396   3.821   4.134   1.114  0.0633  0.7321  0.4715
  357MPD2    C1 5397   3.928   4.057   1.162 -0.6621 -0.2538 -0.9281
  357MPD2    C2 5398   4.015   4.122   1.254  0.5025  0.1942 -0.4581
  357MPD2    C3 5399   3.998   4.257   1.286 -0.6969  0.7596 -0.5201
  357MPD2    C4 5400   3.894   4.327   1.233  0.1874 -0.2232  0.4105
  357MPD2    C5 5401   3.810   4.268   1.140  0.0329  0.3513  0.3898
  357MPD2     H 5402   4.104   4.075   1.294  0.7385 -0.2305 -1.4817
  357MPD2    H1 5403   3.870   4.432   1.248  0.5441  0.1575 -1.6609
  357MPD2    H2 5404   3.739   4.096   1.053  0.4402  0.5908  0.0534
  357MPD2    H3 5405   3.721   4.321   1.110 -1.5435 -1.8408  1.1770
  357MPD2     N 5406   4.076   4.328   1.381  0.6222  0.3775  0.5411
  357MPD2    H5 5407   4.057   4.428   1.382  1.9327  0.6211  1.0300
  357MPD2    N1 5408   3.953   3.921   1.123  0.1162  0.1733 -0.1496
  357MPD2    H7 5409   3.887   3.891   1.052 -1.3802 -0.0890  1.3528
  358TMC3    C1 5410   4.034   3.700   1.126 -0.0212  0.2502  0.3691
  358TMC3    C2 5411   3.973   3.685   1.004  0.2142  0.0606 -0.2823
  358TMC3    C3 5412   3.977   3.560   0.952  0.2991 -0.2720 -0.0399
  358TMC3    C4 5413   4.091   3.602   1.199  0.7515  0.1583  0.1218
  358TMC3    C5 5414   4.079   3.473   1.147 -0.1233  0.0500  0.3296
  358TMC3    C6 5415   4.008   3.448   1.027 -0.6940  0.2492 -0.3388
  358TMC3     C 5416   4.036   3.837   1.182 -0.5823  0.2138  0.7147
  358TMC3     O 5417   4.119   3.851   1.270 -0.5897  0.1000  0.0062
  358TMC3     H 5418   3.941   3.768   0.941  0.2275 -0.6301 -1.2033
  358TMC3    H1 5419   4.112   3.626   1.303  0.5381  3.2039 -0.5284
  358TMC3    H2 5420   4.021   3.349   0.984  0.7831  0.4184 -0.3048
  358TMC3    C7 5421   4.202   3.389   1.150  0.2172 -0.6845 -0.0676
  358TMC3    C8 5422   3.912   3.555   0.823 -0.4297 -0.1536 -0.1897
  358TMC3    O1 5423   4.202   3.292   1.071  0.7111 -0.3533 -0.2980
  358TMC3    O2 5424   3.902   3.657   0.758  0.4109 -0.5377 -0.1251
  359MPD2     C 5425   4.139   3.399  12.324 -0.6076 -0.6134  0.0880
  359MPD2    C1 5426   4.168   3.292  12.237 -0.5534 -0.6218 -0.0341
  359MPD2    C2 5427   4.108   3.172  12.260  0.2322 -0.5987  0.2285
  359MPD2    C3 5428   4.029   3.150  12.370 -0.4861 -0.3460 -0.4075
  359MPD2    C4 5429   3.999   3.255  12.458  0.6014  0.3237 -0.3002
  359MPD2    C5 5430   4.057   3.375  12.435  0.1936  0.0640 -1.0813
  359MPD2     H 5431   4.132   3.090  12.194 -1.6755 -0.5182 -0.5674
  359MPD2    H1 5432   3.936   3.249  12.546 -2.5541  0.8512 -2.5534
  359MPD2    H2 5433   4.190   3.494  12.310  2.5703 -2.0161  1.8912
  359MPD2    H3 5434   4.037   3.456  12.504 -3.5682 -2.6980  1.1090
  359MPD2     N 5435   3.966   3.024  12.396 -0.7593  0.2325  0.0035
  359MPD2    H5 5436   3.919   3.014  12.485  1.1160  1.3638  1.1056
  359MPD2    N1 5437   4.253   3.295  12.122  0.3583 -0.0368 -0.1203
  359MPD2    H7 5438   4.271   3.204  12.080 -0.0191  0.2749 -0.9662
  360TMC3    C1 5439   4.417   3.368  11.975  0.9221 -0.1177 -0.2158
  360TMC3    C2 5440   4.550   3.391  11.996 -0.5687  0.1604  0.0635
  360TMC3    C3 5441   4.639   3.299  11.940  0.6059  1.0509 -0.3425
  360TMC3    C4 5442   4.377   3.263  11.891 -0.0148 -0.4175  0.3903
  360TMC3    C5 5443   4.469   3.178  11.836  0.1028 -0.3093 -0.6193
  360TMC3    C6 5444   4.601   3.199  11.862 -0.1995 -0.4957  0.2733
  360TMC3     C 5445   4.329   3.401  12.080 -0.1765  0.4144  0.0430
  360TMC3     O 5446   4.314   3.518  12.118  0.1190  0.0421  0.6198
  360TMC3     H 5447   4.574   3.467  12.069 -0.6264  0.6671 -0.4478
  360TMC3    H1 5448   4.270   3.263  11.869  0.2925 -0.2652 -1.1496
  360TMC3    H2 5449   4.679   3.136  11.821  0.8940  2.5009 -2.2675
  360TMC3    C7 5450   4.442   3.086  11.726  0.3196  0.8082 -0.3102
  360TMC3    C8 5451   0.045   3.325  11.976  0.3113  0.5858 -0.4738
  360TMC3    O1 5452   4.546   3.058  11.665 -0.0234  0.0128 -0.3340
  360TMC3    O2 5453   0.072   3.436  12.017 -0.5584  0.1760 -0.1172
  361MPD2     C 5454   1.109   1.570  16.470  0.6153  0.0027 -0.0507
  361MPD2    C1 5455   1.060   1.581  16.597  0.0182 -0.2392  0.0413
  361MPD2    C2 5456   1.119   1.509  16.705  0.4027  0.1570 -0.4028
  361MPD2    C3 5457   1.224   1.418  16.683 -0.3342  0.2592  1.4582
  361MPD2    C4 5458   1.265   1.403  16.549 -0.2370  0.5314  0.0442
  361MPD2    C5 5459   1.215   1.484  16.447  0.2935 -0.0308 -0.0685
  361MPD2     H 5460   1.081   1.504  16.807  0.7883  1.4695 -0.1897
  361MPD2    H1 5461   1.335   1.328  16.515 -1.8328 -1.1830  0.5487
  361MPD2    H2 5462   1.056   1.621  16.390  0.4326 -0.9646 -0.5603
  361MPD2    H3 5463   1.265   1.472  16.352  1.9734 -1.5611  0.9941
  361MPD2     N 5464   1.273   1.332  16.783  0.0978 -0.3841 -0.2307
  361MPD2    H5 5465   1.315   1.244  16.755  1.9322  0.2464  0.5643
  361MPD2    N1 5466   0.950   1.665  16.614  0.9091 -0.3667 -0.0173
  361MPD2    H7 5467   0.919   1.704  16.526  0.7419 -1.4743 -0.4472
  362TMC3    C1 5468   0.783   1.794  16.721  0.7383 -0.6294  0.2324
  362TMC3    C2 5469   0.664   1.789  16.791  0.9683 -0.1535 -0.1709
  362TMC3    C3 5470   0.563   1.876  16.762  0.3404 -0.0605  0.2132
  362TMC3    C4 5471   0.800   1.885  16.622  0.2358 -0.0731 -0.0136
  362TMC3    C5 5472   0.691   1.955  16.583  0.4019  0.2116  0.3945
  362TMC3    C6 5473   0.568   1.952  16.647  0.0121  0.2339  0.5430
  362TMC3     C 5474   0.879   1.686  16.730  0.0158 -0.1444  0.0490
  362TMC3     O 5475   0.890   1.626  16.838  0.5548  0.5712  0.3929
  362TMC3     H 5476   0.644   1.717  16.870 -1.7101  0.6836 -0.0847
  362TMC3    H1 5477   0.888   1.894  16.560 -0.4443  0.6126 -0.8812
  362TMC3    H2 5478   0.491   2.025  16.625 -0.7695 -0.5067  0.8388
  362TMC3    C7 5479   0.708   2.042  16.472 -0.5025  0.0586 -0.3194
  362TMC3    C8 5480   0.441   1.880  16.837  0.0921  0.0240 -0.1778
  362TMC3    O1 5481   0.811   2.108  16.449  0.1561 -0.5449 -0.0573
  362TMC3    O2 5482   0.390   1.789  16.900 -0.2687  0.0645  0.1841
  363TMC3    C1 5483   3.968   4.022   9.270  0.1899 -0.2151 -0.3814
  363TMC3    C2 5484   4.022   3.959   9.376  0.6193 -0.0664 -0.7284
  363TMC3    C3 5485   4.009   4.025   9.497  0.3023  0.3497  0.7119
  363TMC3    C4 5486   3.889   4.133   9.279  0.7327 -0.4159  0.2079
  363TMC3    C5 5487   3.887   4.202   9.402  0.4257  0.4854 -0.2168
  363TMC3    C6 5488   3.946   4.154   9.508  0.2081 -0.0466 -0.8703
  363TMC3     C 5489   3.975   3.960   9.140 -0.1576 -0.1877 -0.0117
  363TMC3     O 5490   3.895   3.996   9.054  0.2920 -0.6375  0.4454
  363TMC3     H 5491   4.073   3.864   9.370 -0.8972 -1.0072  1.5348
  363TMC3    H1 5492   3.834   4.181   9.200 -0.0294 -1.1299  0.3011
  363TMC3    H2 5493   3.930   4.194   9.607  1.1655 -0.4683 -0.5378
  363TMC3    C7 5494   3.801   4.320   9.406  0.7385  0.4849  0.4038
  363TMC3    C8 5495   4.067   3.973   9.624 -0.3851 -0.0347 -0.6944
  363TMC3    O1 5496   3.679   4.316   9.397 -0.0471  0.2264  0.0049
  363TMC3    O2 5497   4.099   4.046   9.717 -0.2314  0.6139 -0.3884
  364MPD2     C 5498   2.913   3.169  10.445  0.3620 -0.6192 -0.3766
  364MPD2    C1 5499   3.041   3.175  10.380  0.2087 -0.2536 -0.2618
  364MPD2    C2 5500   3.115   3.060  10.380  0.8971  0.5090  0.8545
  364MPD2    C3 5501   3.093   2.949  10.465 -0.2082 -0.2083 -0.5305
  364MPD2    C4 5502   2.969   2.950  10.520 -0.1826 -0.3762 -0.3442
  364MPD2    C5 5503   2.880   3.050  10.498  0.6640 -0.1350  0.2416
  364MPD2     H 5504   3.210   3.061  10.327 -0.0959 -0.0747 -0.9265
  364MPD2    H1 5505   2.926   2.874  10.585 -0.4253 -1.5633 -1.8847
  364MPD2    H2 5506   2.841   3.249  10.456  1.2150  0.2773 -1.2197
  364MPD2    H3 5507   2.783   3.050  10.546 -0.0488  0.6960 -1.2067
  364MPD2     N 5508   3.188   2.849  10.498 -0.1112 -0.6836 -0.0682
  364MPD2    H5 5509   3.160   2.785  10.572  1.5789  0.5127  1.6048
  364MPD2    N1 5510   3.086   3.292  10.312  0.1796  0.3770 -0.3176
  364MPD2    H7 5511   3.174   3.291  10.260  0.1677  0.0727 -0.3308
  365TMC3    C1 5512   3.118   3.527  10.283 -0.8672  0.4270 -0.0395
  365TMC3    C2 5513   3.215   3.500  10.191 -0.3129 -0.6454  0.5339
  365TMC3    C3 5514   3.309   3.598  10.163  0.7822  0.2151 -0.0390
  365TMC3    C4 5515   3.115   3.646  10.347 -0.2643  0.8001 -0.0676
  365TMC3    C5 5516   3.218   3.736  10.329  0.7453 -0.0603  0.1262
  365TMC3    C6 5517   3.324   3.709  10.245 -0.2472 -0.2345 -0.3458
  365TMC3     C 5518   3.037   3.421  10.337  0.1610 -0.2191 -0.6012
  365TMC3     O 5519   2.956   3.449  10.427  0.1662  0.4711 -0.1445
  365TMC3     H 5520   3.197   3.410  10.133 -0.1221 -0.5739  0.3622
  365TMC3    H1 5521   3.029   3.672  10.408 -1.1384 -1.6440 -0.2631
  365TMC3    H2 5522   3.409   3.775  10.242 -0.4244 -0.0008 -0.1992
  365TMC3    C7 5523   3.227   3.855  10.410  0.5733 -0.2898  0.1803
  365TMC3    C8 5524   3.404   3.593  10.051 -0.2643 -0.5738  0.3881
  365TMC3    O1 5525   3.289   3.952  10.373  0.3829 -0.0305  1.3252
  365TMC3    O2 5526   3.522   3.622  10.063 -0.3277 -0.8577 -0.8142
  366MPD2     C 5527   1.923   4.518  15.002  0.1577 -0.1055  0.1146
  366MPD2    C1 5528   1.975   4.586  15.106 -0.0969  0.0857 -0.2206
  366MPD2    C2 5529   2.112   4.572  15.128 -0.2213 -0.2173 -0.0242
  366MPD2    C3 5530   2.193   4.506  15.037 -1.0309  0.0141 -0.0962
  366MPD2    C4 5531   2.137   4.441  14.928  0.3955  0.2651  0.9554
  366MPD2    C5 5532   2.001   4.442  14.914 -0.4273 -0.0054 -0.3861
  366MPD2     H 5533   2.140   4.618  15.221  1.2474 -1.0456 -0.0596
  366MPD2    H1 5534   2.198   4.394  14.851  0.9099 -0.1359  1.6068
  366MPD2    H2 5535   1.817   4.521  14.979  0.2486 -0.0342 -0.2880
  366MPD2    H3 5536   1.963   4.407  14.819 -1.7446  1.5616 -0.4272
  366MPD2     N 5537   2.332   4.503  15.054 -0.1646  0.7888 -0.5482
  366MPD2    H5 5538   2.382   4.427  15.009  1.1639  1.5281 -0.3280
  366MPD2    N1 5539   1.909   4.674  15.188  0.4221 -0.0277 -0.2812
  366MPD2    H7 5540   1.963   4.736  15.248  2.1373 -2.1888  0.3771
  367TMC3    C1 5541   1.741   0.089  15.263 -0.1381 -0.8595 -0.2991
  367TMC3    C2 5542   1.851   0.135  15.338 -0.5959  0.5276 -0.1084
  367TMC3    C3 5543   1.834   0.265  15.380 -0.1602  0.8215 -0.1046
  367TMC3    C4 5544   1.633   0.164  15.219 -0.1711 -0.1560 -0.3867
  367TMC3    C5 5545   1.632   0.295  15.265 -0.9708  0.4234 -0.1918
  367TMC3    C6 5546   1.735   0.351  15.345  0.3294  0.2808 -0.0886
  367TMC3     C 5547   1.769   4.703  15.185  0.1470  0.1258 -0.5968
  367TMC3     O 5548   1.687   4.663  15.102 -0.2511 -0.5215 -0.1852
  367TMC3     H 5549   1.906   0.069  15.404 -1.3131  2.8165  2.8276
  367TMC3    H1 5550   1.554   0.114  15.164  0.7926 -2.4811  0.3332
  367TMC3    H2 5551   1.736   0.459  15.356 -1.3534  0.4314 -1.3606
  367TMC3    C7 5552   1.507   0.369  15.273  0.6352  1.0314  0.5178
  367TMC3    C8 5553   1.933   0.316  15.470 -0.4784 -0.6933 -0.4133
  367TMC3    O1 5554   1.526   0.489  15.272 -0.2007 -0.2550 -0.5054
  367TMC3    O2 5555   2.024   0.239  15.501  0.3638  0.2543  0.5503
  368MPD2     C 5556   3.331   1.737  13.460 -0.2746  0.0446 -0.4344
  368MPD2    C1 5557   3.335   1.873  13.460  0.2204  0.4958  0.9568
  368MPD2    C2 5558   3.440   1.930  13.379  0.0358 -0.3706  0.4419
  368MPD2    C3 5559   3.533   1.856  13.306 -0.4076 -0.4805  0.5716
  368MPD2    C4 5560   3.507   1.724  13.301 -0.2420 -0.2072  0.1004
  368MPD2    C5 5561   3.415   1.661  13.382 -0.8281  0.0279  1.4336
  368MPD2     H 5562   3.461   2.037  13.386 -1.1200 -0.0822 -0.6297
  368MPD2    H1 5563   3.576   1.656  13.251  0.3424  0.4358  0.0431
  368MPD2    H2 5564   3.262   1.681  13.522  1.5576 -0.4282  1.1758
  368MPD2    H3 5565   3.403   1.554  13.377  1.0847 -0.2250  2.7190
  368MPD2     N 5566   3.653   1.898  13.241  0.1093 -0.1825 -0.1240
  368MPD2    H5 5567   3.711   1.827  13.197 -1.0577 -1.1457 -0.1136
  368MPD2    N1 5568   3.235   1.948  13.533 -0.0453 -0.4992 -0.3200
  368MPD2    H7 5569   3.151   1.903  13.570 -0.2787 -0.7513 -1.1428
  369TMC3    C1 5570   3.121   2.149  13.592 -0.5764  0.4374  0.3641
  369TMC3    C2 5571   3.147   2.289  13.579  0.1196 -0.5079 -0.6632
  369TMC3    C3 5572   3.050   2.374  13.547  0.7979  0.5848 -0.0485
  369TMC3    C4 5573   2.993   2.097  13.575  0.0790 -0.3619 -0.8045
  369TMC3    C5 5574   2.901   2.196  13.554  0.5467  0.6784  0.4181
  369TMC3    C6 5575   2.920   2.330  13.548 -0.4422 -0.1153 -0.6897
  369TMC3     C 5576   3.243   2.079  13.568 -0.1913  0.2339 -1.1152
  369TMC3     O 5577   3.350   2.141  13.580 -0.0184  0.0724  0.4187
  369TMC3     H 5578   3.241   2.333  13.609 -0.7741 -0.1685  1.6916
  369TMC3    H1 5579   2.977   1.990  13.566 -1.9243 -0.3107  2.4307
  369TMC3    H2 5580   2.838   2.401  13.545  0.7520  1.2689 -0.1591
  369TMC3    C7 5581   2.793   2.156  13.474  0.1311 -0.4534  0.3022
  369TMC3    C8 5582   3.077   2.421  13.411 -0.2251 -0.0204 -0.5308
  369TMC3    O1 5583   2.740   2.051  13.495 -0.3388 -0.5286 -0.2046
  369TMC3    O2 5584   2.969   2.435  13.350  0.7436 -0.0696  0.3899
  370TMC3    C1 5585   2.215   2.610  15.976  0.1158 -0.0937  0.5192
  370TMC3    C2 5586   2.145   2.529  16.065 -0.4805  0.2939  0.4455
  370TMC3    C3 5587   2.136   2.390  16.058  0.2482 -0.1896 -0.6580
  370TMC3    C4 5588   2.267   2.554  15.867 -0.1225  0.1444 -0.8889
  370TMC3    C5 5589   2.255   2.414  15.861 -0.2809 -0.0678 -0.4100
  370TMC3    C6 5590   2.194   2.328  15.952 -0.5760 -0.3664 -0.1014
  370TMC3     C 5591   2.253   2.740  16.014 -0.1767  0.0744  0.3770
  370TMC3     O 5592   2.201   2.771  16.118 -0.0271 -0.3121 -0.2704
  370TMC3     H 5593   2.106   2.577  16.154 -0.7348  0.4526  0.2499
  370TMC3    H1 5594   2.321   2.604  15.787  0.4806 -0.8929 -1.1327
  370TMC3    H2 5595   2.184   2.221  15.937  0.7076 -0.6347  0.9761
  370TMC3    C7 5596   2.323   2.348  15.748  0.4703 -0.0087 -0.2453
  370TMC3    C8 5597   2.087   2.315  16.173  0.3787  0.7249  0.7288
  370TMC3    O1 5598   2.308   2.398  15.637 -0.2551  0.5938  0.8194
  370TMC3    O2 5599   2.055   2.197  16.161  0.2599 -0.0304  0.0145
  371TMC3    C1 5600   3.395   0.429  15.577 -0.4994  0.6196 -0.5231
  371TMC3    C2 5601   3.283   0.472  15.649  0.5642 -0.2278 -0.2734
  371TMC3    C3 5602   3.262   0.608  15.647 -0.1026  0.2805  0.0102
  371TMC3    C4 5603   3.476   0.515  15.510  0.1462 -0.4752 -0.5527
  371TMC3    C5 5604   3.456   0.650  15.514  0.8703 -0.3599 -0.9379
  371TMC3    C6 5605   3.333   0.693  15.565 -0.7724  0.3148 -0.2168
  371TMC3     C 5606   3.448   0.296  15.578  0.3022 -0.0068  0.1067
  371TMC3     O 5607   3.568   0.281  15.570  0.2477  0.3435  0.7168
  371TMC3     H 5608   3.223   0.410  15.715  1.0282  2.1342  2.3469
  371TMC3    H1 5609   3.569   0.477  15.469  0.8863 -0.4231  1.0749
  371TMC3    H2 5610   3.293   0.793  15.548 -0.7358  0.8541  2.8543
  371TMC3    C7 5611   3.523   0.737  15.413  0.1679 -0.3060  0.0997
  371TMC3    C8 5612   3.138   0.650  15.720  0.7014  0.2388  0.3469
  371TMC3    O1 5613   3.470   0.849  15.401  0.0110  0.9999  0.5513
  371TMC3    O2 5614   3.072   0.565  15.775 -0.8537  0.5825 -0.7377
  372MPD2     C 5615   2.898   1.757  13.891 -0.6567  0.1129  0.5041
  372MPD2    C1 5616   2.987   1.666  13.839  0.6918 -0.0555  0.6464
  372MPD2    C2 5617   2.925   1.540  13.829 -0.2371 -0.3086 -0.1034
  372MPD2    C3 5618   2.797   1.504  13.858 -0.3036  0.3086  0.4843
  372MPD2    C4 5619   2.713   1.603  13.915 -0.5304 -0.5530  0.3921
  372MPD2    C5 5620   2.771   1.731  13.922  1.1910  0.5032 -0.6042
  372MPD2     H 5621   2.994   1.466  13.791  0.5628  0.7830 -0.7962
  372MPD2    H1 5622   2.612   1.575  13.943  0.0884 -0.5302  2.6522
  372MPD2    H2 5623   2.921   1.863  13.884 -0.2324 -0.0055  0.0977
  372MPD2    H3 5624   2.713   1.812  13.963 -0.6234 -0.9919 -0.2015
  372MPD2     N 5625   2.756   1.372  13.837  0.1296 -0.7815  0.0161
  372MPD2    H5 5626   2.821   1.301  13.806  2.9422  1.0656  1.7251
  372MPD2    N1 5627   3.129   1.679  13.816 -0.3362 -0.1845  0.1384
  372MPD2    H7 5628   3.170   1.594  13.780 -0.3749 -0.1789  0.0808
  373TMC3    C1 5629   2.638   1.173  13.847  0.3723 -0.2234  0.5459
  373TMC3    C2 5630   2.597   1.094  13.952  0.0445  0.1313  0.1361
  373TMC3    C3 5631   2.637   0.963  13.959 -0.4299 -0.1333  0.6711
  373TMC3    C4 5632   2.716   1.120  13.749  0.3434  0.3951  0.2344
  373TMC3    C5 5633   2.744   0.988  13.756  0.2550  0.0125 -0.2581
  373TMC3    C6 5634   2.716   0.908  13.858 -0.5172 -0.2568  0.0855
  373TMC3     C 5635   2.633   1.317  13.867 -1.2812 -0.6546  0.1780
  373TMC3     O 5636   2.534   1.364  13.912 -0.2765 -0.2012  0.0089
  373TMC3     H 5637   2.556   1.141  14.041  0.8092 -1.2637  1.2312
  373TMC3    H1 5638   2.750   1.181  13.666  0.7707  0.3065  0.3435
  373TMC3    H2 5639   2.757   0.809  13.873  0.6979  0.0759 -0.9765
  373TMC3    C7 5640   2.848   0.946  13.664  0.1704 -0.0701  0.4666
  373TMC3    C8 5641   2.651   0.904  14.097 -0.4435 -0.4000 -0.2502
  373TMC3    O1 5642   2.920   1.036  13.633 -0.0530  0.0381 -0.2725
  373TMC3    O2 5643   2.577   0.945  14.187  0.5855 -0.5592  0.0528
  374TMC3    C1 5644   3.429   1.933  10.090 -0.0422  0.4348 -0.0268
  374TMC3    C2 5645   3.559   1.976  10.086  0.0856  0.1262 -0.6159
  374TMC3    C3 5646   3.631   1.921   9.990  0.0300 -0.5127 -0.1670
  374TMC3    C4 5647   3.369   1.842  10.006  0.1514 -0.3303 -0.1790
  374TMC3    C5 5648   3.447   1.796   9.900  0.3162 -0.0177  0.5444
  374TMC3    C6 5649   3.576   1.833   9.900  0.3139 -0.2389 -0.4179
  374TMC3     C 5650   3.341   2.010  10.185  0.5888 -0.1757 -0.0008
  374TMC3     O 5651   3.386   2.111  10.239  0.1369  0.0493  0.1798
  374TMC3     H 5652   3.604   2.051  10.150  2.0889  0.5914 -2.5309
  374TMC3    H1 5653   3.263   1.819  10.010 -0.0548  0.6872  0.1299
  374TMC3    H2 5654   3.631   1.807   9.810 -0.7260 -0.3993 -0.9984
  374TMC3    C7 5655   3.385   1.761   9.773  0.5796 -0.2488  0.6055
  374TMC3    C8 5656   3.739   2.009   9.949 -0.6950 -0.3096 -0.1283
  374TMC3    O1 5657   3.462   1.730   9.684 -0.6115  0.8829  0.1458
  374TMC3    O2 5658   3.754   2.032   9.827  0.2293  0.4420  0.6748
  375MPD2     C 5659   3.846   3.176  17.178 -0.3815 -0.4616 -0.4826
  375MPD2    C1 5660   3.757   3.101  17.107 -0.5223  0.2321 -0.0755
  375MPD2    C2 5661   3.797   2.987  17.043 -0.1893 -0.2692 -1.1232
  375MPD2    C3 5662   3.932   2.955  17.039 -0.9726 -0.1185  0.1169
  375MPD2    C4 5663   4.018   3.032  17.107  0.4342 -0.5044 -1.2537
  375MPD2    C5 5664   3.978   3.138  17.181  0.4425  0.0548  0.0115
  375MPD2     H 5665   3.717   2.929  17.000  0.0239 -0.8568 -0.7263
  375MPD2    H1 5666   4.125   3.018  17.100  0.2141 -1.6977 -2.1209
  375MPD2    H2 5667   3.823   3.269  17.229  0.9475 -0.4082  0.0186
  375MPD2    H3 5668   4.055   3.202  17.224  1.1536 -1.1605  0.5258
  375MPD2     N 5669   3.993   2.847  16.969  0.2430 -0.9835 -0.0467
  375MPD2    H5 5670   4.093   2.842  16.984  0.3051 -0.4395 -0.3010
  375MPD2    N1 5671   3.614   3.117  17.109  0.2238 -1.0467 -0.7973
  375MPD2    H7 5672   3.555   3.043  17.071 -0.3948 -0.1795 -1.5359
  376TMC3    C1 5673   4.004   2.653  16.830  0.1829 -0.1636 -0.7244
  376TMC3    C2 5674   4.130   2.690  16.799  0.0892 -0.3670 -0.4693
  376TMC3    C3 5675   4.203   2.595  16.726  0.8041 -0.3305 -0.2269
  376TMC3    C4 5676   3.933   2.548  16.766 -0.3286  0.2915 -0.3298
  376TMC3    C5 5677   4.006   2.457  16.698  0.3208  0.1768  0.3270
  376TMC3    C6 5678   4.139   2.479  16.681  0.3634  0.7648  0.1906
  376TMC3     C 5679   3.923   2.754  16.896 -0.6414 -0.6804 -1.8219
  376TMC3     O 5680   3.804   2.734  16.891 -0.1125 -0.3668 -0.9297
  376TMC3     H 5681   4.178   2.781  16.833 -1.0619 -0.0517  0.3266
  376TMC3    H1 5682   3.828   2.533  16.791 -0.6225  3.4607  0.2457
  376TMC3    H2 5683   4.189   2.403  16.622 -2.1784  1.1716 -2.4637
  376TMC3    C7 5684   3.953   2.407  16.572 -0.1616 -1.1660 -0.1477
  376TMC3    C8 5685   4.323   2.626  16.654  0.0462  0.5944 -0.0597
  376TMC3    O1 5686   4.029   2.387  16.478 -0.1694 -0.2703 -0.1403
  376TMC3    O2 5687   4.327   2.747  16.629  0.3403  0.3641 -0.2661
  377MPD2     C 5688   2.224   1.365  12.272 -0.3437 -0.5294  0.3854
  377MPD2    C1 5689   2.154   1.467  12.219 -1.0480 -0.3486  0.1039
  377MPD2    C2 5690   2.069   1.543  12.299  0.8100 -0.1120  0.0315
  377MPD2    C3 5691   2.047   1.512  12.430 -0.3669  0.6274 -0.6797
  377MPD2    C4 5692   2.116   1.406  12.482 -0.0528  1.1735  0.0835
  377MPD2    C5 5693   2.207   1.335  12.404  0.2542 -0.4929  1.3406
  377MPD2     H 5694   2.017   1.626  12.253 -0.2491  0.0878  1.5806
  377MPD2    H1 5695   2.112   1.393  12.590  1.2947 -0.1570 -0.0290
  377MPD2    H2 5696   2.300   1.309  12.220  0.4275  0.1996  0.7328
  377MPD2    H3 5697   2.268   1.257  12.448 -0.4170 -1.2280  0.9525
  377MPD2     N 5698   1.961   1.588  12.514  0.1267 -0.0879  0.1296
  377MPD2    H5 5699   1.932   1.559  12.607  1.7422  0.7539  0.8910
  377MPD2    N1 5700   2.177   1.492  12.085 -0.0387 -0.2263  0.3416
  377MPD2    H7 5701   2.247   1.441  12.032 -0.6835  1.7280 -2.3534
  378TMC3    C1 5702   2.143   1.780  11.711  0.1056 -0.4292  0.4584
  378TMC3    C2 5703   2.106   1.739  11.835 -0.2165 -0.0176 -0.0150
  378TMC3    C3 5704   2.152   1.622  11.883  0.3528 -0.0016  0.3730
  378TMC3    C4 5705   2.222   1.709  11.633  0.1283 -0.8662  0.4827
  378TMC3    C5 5706   2.272   1.598  11.689 -0.5287  0.0233 -0.1231
  378TMC3    C6 5707   2.242   1.544  11.813  0.0391  0.2472 -0.0383
  378TMC3     C 5708   2.068   1.899  11.660  0.6849  0.4664 -0.5133
  378TMC3     O 5709   1.949   1.901  11.690 -0.3029  0.2151  0.2593
  378TMC3     H 5710   2.041   1.805  11.891  1.1975  0.4682  1.0783
  378TMC3    H1 5711   2.235   1.738  11.529 -0.2221  1.3723  1.0664
  378TMC3    H2 5712   2.264   1.444  11.849  0.8916 -0.6801 -3.1617
  378TMC3    C7 5713   2.383   1.531  11.621  0.2594 -0.4818  0.1031
  378TMC3    C8 5714   2.093   1.574  12.007 -0.2016 -0.3881 -0.1137
  378TMC3    O1 5715   2.417   1.430  11.678  0.0672 -0.1476 -0.0729
  378TMC3    O2 5716   1.985   1.627  12.034  0.2522 -0.5719 -0.2421
  379MPD2     C 5717   3.182   0.407  16.056 -0.7730 -0.3527 -0.0253
  379MPD2    C1 5718   3.053   0.425  16.103  0.2904  0.4579 -0.5271
  379MPD2    C2 5719   3.022   0.399  16.233 -0.3454 -0.0390  0.2052
  379MPD2    C3 5720   3.110   0.342  16.321 -0.5061 -0.1539  0.7106
  379MPD2    C4 5721   3.235   0.319  16.272  0.7404 -0.2285 -0.2191
  379MPD2    C5 5722   3.272   0.361  16.152 -0.1768 -0.2845  0.6416
  379MPD2     H 5723   2.932   0.433  16.283 -0.8749 -0.6251 -0.3462
  379MPD2    H1 5724   3.314   0.276  16.333  0.6275  0.9633  0.7611
  379MPD2    H2 5725   3.223   0.441  15.961 -1.5772 -0.6889 -0.4936
  379MPD2    H3 5726   3.376   0.349  16.126 -0.1143  1.1636  0.2268
  379MPD2     N 5727   3.092   0.319  16.461 -0.3824  0.6894 -0.2512
  379MPD2    H5 5728   3.173   0.283  16.511 -0.7270 -1.4492 -1.2693
  379MPD2    N1 5729   2.968   0.480  16.004 -0.5256 -0.7847 -0.4077
  379MPD2    H7 5730   3.006   0.485  15.910 -2.1213  1.5121 -0.9178
  380TMC3    C1 5731   2.755   0.492  15.907 -0.2880 -0.4754 -1.0483
  380TMC3    C2 5732   2.797   0.426  15.794  0.2948 -1.1024 -0.5335
  380TMC3    C3 5733   2.708   0.418  15.687 -0.2810  0.7624 -0.7675
  380TMC3    C4 5734   2.626   0.532  15.925 -0.0103 -0.7566  0.2917
  380TMC3    C5 5735   2.541   0.516  15.820  0.0369  0.2280  0.5656
  380TMC3    C6 5736   2.576   0.459  15.702 -0.0162 -0.5013  0.3696
  380TMC3     C 5737   2.837   0.505  16.026  0.7279  0.0020 -0.0177
  380TMC3     O 5738   2.772   0.500  16.126  0.2257 -0.3862  0.1510
  380TMC3     H 5739   2.903   0.404  15.792  0.5445 -0.0606  1.2065
  380TMC3    H1 5740   2.588   0.581  16.014 -1.8859  1.5369 -1.8131
  380TMC3    H2 5741   2.504   0.451  15.621  1.5706  0.4521 -1.1306
  380TMC3    C7 5742   2.412   0.582  15.828 -0.2295  0.7218  0.2644
  380TMC3    C8 5743   2.762   0.419  15.554  0.0324  0.2931  0.4008
  380TMC3    O1 5744   2.400   0.667  15.915  0.6039 -0.0997 -0.1328
  380TMC3    O2 5745   2.684   0.445  15.462 -0.2679 -0.0696  0.0305
  381TMC3    C1 5746   2.249   1.588  16.102  0.7383  0.4837  0.2352
  381TMC3    C2 5747   2.282   1.708  16.052 -0.3927  0.3770 -0.0284
  381TMC3    C3 5748   2.250   1.817  16.124  0.2887 -0.5457  0.0405
  381TMC3    C4 5749   2.193   1.578  16.229 -0.8804  0.6679  0.0851
  381TMC3    C5 5750   2.150   1.692  16.291  0.1001  0.0097 -0.0766
  381TMC3    C6 5751   2.180   1.815  16.242  0.0542  0.0965 -0.2061
  381TMC3     C 5752   2.260   1.475  16.006  0.2123  0.1354  0.0812
  381TMC3     O 5753   2.267   1.504  15.889 -0.2435 -0.0895 -0.2422
  381TMC3     H 5754   2.313   1.710  15.949 -2.5294 -2.0060 -0.7159
  381TMC3    H1 5755   2.164   1.481  16.268  2.0385 -0.0856  0.4217
  381TMC3    H2 5756   2.158   1.903  16.300 -0.0758  0.8498 -1.4090
  381TMC3    C7 5757   2.086   1.671  16.423  0.2675 -0.4413  0.4000
  381TMC3    C8 5758   2.354   1.916  16.099 -0.9166  0.3728  0.5977
  381TMC3    O1 5759   2.096   1.560  16.477 -0.0623 -0.4090 -0.7201
  381TMC3    O2 5760   2.445   1.875  16.028  0.7382 -0.1253 -0.7179
  382MPD2     C 5761   1.323   4.453  16.564 -0.3772  0.2343 -0.4370
  382MPD2    C1 5762   1.302   4.455  16.701  0.2238  0.2666 -0.1887
  382MPD2    C2 5763   1.301   4.341  16.775  0.6029 -0.6728 -0.0314
  382MPD2    C3 5764   1.330   4.221  16.716 -0.0054 -0.6437 -0.3409
  382MPD2    C4 5765   1.363   4.216  16.583  0.1904 -0.2540 -0.2422
  382MPD2    C5 5766   1.354   4.333  16.505  0.2809 -0.3262  0.0332
  382MPD2     H 5767   1.278   4.362  16.879  0.3980  0.2747 -0.2641
  382MPD2    H1 5768   1.393   4.132  16.521  0.2823 -0.8065  0.5631
  382MPD2    H2 5769   1.315   4.543  16.505 -2.0102 -1.3220 -2.6000
  382MPD2    H3 5770   1.361   4.327  16.397  2.2745 -2.2622  0.2649
  382MPD2     N 5771   1.320   4.098  16.780 -0.0910 -0.5361  0.1545
  382MPD2    H5 5772   1.329   4.010  16.730  0.6801  0.5184 -1.5809
  382MPD2    N1 5773   1.290   4.583  16.760  0.8996  0.1467 -0.0957
  382MPD2    H7 5774   1.290   4.585  16.861 -0.5416 -2.0339 -0.0434
  383TMC3    C1 5775   1.294   3.950  16.967 -0.6720  0.3991 -0.4647
  383TMC3    C2 5776   1.214   3.870  16.886  0.0077 -0.0274  0.4213
  383TMC3    C3 5777   1.148   3.770  16.952 -0.9316 -0.3148 -0.2974
  383TMC3    C4 5778   1.320   3.933  17.099  0.7362 -0.3147  0.5887
  383TMC3    C5 5779   1.243   3.835  17.162 -0.5545  0.0006 -0.6453
  383TMC3    C6 5780   1.153   3.762  17.088 -0.6869 -0.2865 -0.1490
  383TMC3     C 5781   1.315   4.086  16.916 -0.4508 -0.5702  0.1750
  383TMC3     O 5782   1.329   4.173  17.003  0.0634 -0.1685  0.2356
  383TMC3     H 5783   1.184   3.885  16.783  3.9210  1.8679 -0.4129
  383TMC3    H1 5784   1.403   3.988  17.141 -1.5690  1.4385  2.7979
  383TMC3    H2 5785   1.089   3.692  17.141 -0.5470  0.3588  0.8742
  383TMC3    C7 5786   1.259   3.807  17.299  0.1174  0.1618  0.0081
  383TMC3    C8 5787   1.070   3.680  16.874 -0.0423  0.1639 -0.2208
  383TMC3    O1 5788   1.220   3.696  17.335 -0.5246  0.3162 -0.9241
  383TMC3    O2 5789   1.055   3.697  16.759 -0.0593 -0.1596  0.0580
  384MPD2     C 5790   2.678   0.155  11.542  0.0346 -0.7968  0.4077
  384MPD2    C1 5791   2.770   0.190  11.639  0.1630 -0.2725  0.0974
  384MPD2    C2 5792   2.875   0.105  11.671  0.0307 -0.3516 -0.0309
  384MPD2    C3 5793   2.904   4.727  11.596 -0.2306 -0.5775  0.2164
  384MPD2    C4 5794   2.808   4.694  11.501 -0.6328  0.5507  0.0725
  384MPD2    C5 5795   2.706   0.036  11.473 -0.0671  0.4386  0.6164
  384MPD2     H 5796   2.920   0.119  11.768 -0.3133  1.2049 -0.1045
  384MPD2    H1 5797   2.816   4.604  11.441  0.8833  0.9311 -0.2929
  384MPD2    H2 5798   2.589   0.215  11.526  0.1711 -0.3031  1.4298
  384MPD2    H3 5799   2.632   0.001  11.402 -0.2215 -0.1262  1.0543
  384MPD2     N 5800   3.009   4.638  11.623 -0.6310  0.1648 -0.0538
  384MPD2    H5 5801   3.008   4.541  11.594 -1.0243 -0.1028  0.8443
  384MPD2    N1 5802   2.741   0.301  11.715  0.2373  0.5408 -0.9715
  384MPD2    H7 5803   2.650   0.342  11.699  1.8959  3.3606 -3.1302
  385TMC3    C1 5804   3.230   4.596  11.730  0.1801 -0.0956  0.0435
  385TMC3    C2 5805   3.189   4.473  11.777  0.1965 -0.2363 -0.0080
  385TMC3    C3 5806   3.250   4.419  11.883 -0.2194 -0.1899  0.2184
  385TMC3    C4 5807   3.339   4.654  11.778  0.4010  0.6257  0.0298
  385TMC3    C5 5808   3.387   4.610  11.901 -0.5179 -0.1954 -0.3073
  385TMC3    C6 5809   3.344   4.487  11.948  0.7133  0.7537 -0.4567
  385TMC3     C 5810   3.121   4.689  11.694 -0.2137 -0.4603  0.9338
  385TMC3     O 5811   3.141   0.067  11.732  0.4835 -0.3747 -0.0504
  385TMC3     H 5812   3.097   4.438  11.730  0.5858 -0.6379 -0.4794
  385TMC3    H1 5813   3.364   0.016  11.741  1.9960  1.6962  3.9496
  385TMC3    H2 5814   3.372   4.450  12.046  0.0212 -1.4420 -1.0911
  385TMC3    C7 5815   3.407   4.717  11.996  0.0899  0.7336  0.4020
  385TMC3    C8 5816   3.226   4.280  11.911 -0.0592  0.0948  0.3000
  385TMC3    O1 5817   3.475   4.701  12.096  0.1363 -0.2866  0.5998
  385TMC3    O2 5818   3.260   4.243  12.021 -0.0474  0.0420 -0.3003
  386TMC3    C1 5819   3.802   2.368  11.966 -0.7727  0.4395 -0.8768
  386TMC3    C2 5820   3.800   2.450  11.858 -0.3675  0.2188 -0.7457
  386TMC3    C3 5821   3.683   2.514  11.826 -0.2202 -0.0189 -0.2514
  386TMC3    C4 5822   3.690   2.330  12.032  0.3177 -1.1933  0.0497
  386TMC3    C5 5823   3.574   2.387  11.992  0.0692 -0.0677  0.0451
  386TMC3    C6 5824   3.569   2.490  11.896 -0.1576 -0.4093 -0.1194
  386TMC3     C 5825   3.901   2.261  11.960  0.4304  0.0716  0.2163
  386TMC3     O 5826   3.998   2.299  11.902 -0.6338  0.2010 -0.5597
  386TMC3     H 5827   3.888   2.462  11.796  0.2259  1.7014  0.3732
  386TMC3    H1 5828   3.703   2.258  12.112 -1.0917 -0.5131  0.8972
  386TMC3    H2 5829   3.476   2.536  11.864 -0.2993 -0.3299  0.4031
  386TMC3    C7 5830   3.450   2.352  12.052  0.3736  0.0112  0.3933
  386TMC3    C8 5831   3.653   2.580  11.695  1.1590 -0.0126  0.1103
  386TMC3    O1 5832   3.471   2.329  12.171 -0.1671  0.0253  0.1206
  386TMC3    O2 5833   3.573   2.669  11.697  0.2574 -0.5245  0.6232
  387MPD2     C 5834   0.755   2.714   9.798 -0.5627  0.8057  0.3589
  387MPD2    C1 5835   0.812   2.702   9.926 -0.8393 -0.5067  0.0391
  387MPD2    C2 5836   0.805   2.583   9.991 -0.5222 -0.5162  0.2283
  387MPD2    C3 5837   0.736   2.473   9.941  0.7865  0.8244  0.0308
  387MPD2    C4 5838   0.691   2.487   9.813  0.4815 -0.2030  0.4395
  387MPD2    C5 5839   0.700   2.601   9.748 -0.1270 -0.0954  0.1877
  387MPD2     H 5840   0.855   2.577  10.087  1.9256  1.9312 -0.8840
  387MPD2    H1 5841   0.653   2.395   9.770  0.4466  0.8210 -1.7416
  387MPD2    H2 5842   0.752   2.802   9.735 -1.3443 -0.2957 -1.1460
  387MPD2    H3 5843   0.658   2.610   9.648 -2.3508 -3.3174  0.8690
  387MPD2     N 5844   0.729   2.361  10.017 -0.2524  0.5709 -0.2111
  387MPD2    H5 5845   0.759   2.375  10.113  0.3836 -2.1719 -0.0248
  387MPD2    N1 5846   0.893   2.804   9.987 -0.2753  0.2449 -0.5930
  387MPD2    H7 5847   0.920   2.777  10.081  1.6300  1.3377 -0.8400
  388TMC3    C1 5848   1.043   2.954  10.027 -0.8557  0.1507  0.1582
  388TMC3    C2 5849   1.074   3.088  10.029 -0.4454  0.4585  0.0940
  388TMC3    C3 5850   1.159   3.138  10.120 -0.2059  0.2066 -0.2393
  388TMC3    C4 5851   1.114   2.867  10.106 -0.5507 -0.4981  0.3485
  388TMC3    C5 5852   1.206   2.923  10.192  0.3080  0.2639  0.7345
  388TMC3    C6 5853   1.232   3.056  10.199  0.1208 -0.7535 -0.1560
  388TMC3     C 5854   0.945   2.914   9.930  0.8047  0.5371 -0.3196
  388TMC3     O 5855   0.934   2.975   9.825  0.3157 -0.0615 -0.6877
  388TMC3     H 5856   1.021   3.158   9.966 -0.3016  0.9964  0.5716
  388TMC3    H1 5857   1.110   2.760  10.095 -0.6809 -0.2676 -1.7679
  388TMC3    H2 5858   1.322   3.077  10.257 -0.1747  0.2017 -0.0392
  388TMC3    C7 5859   1.281   2.829  10.264  0.1380  0.3104  0.4316
  388TMC3    C8 5860   1.140   3.285  10.138  0.0911  0.2311  0.0024
  388TMC3    O1 5861   1.393   2.860  10.313  0.6376  0.0529  0.7598
  388TMC3    O2 5862   1.075   3.356  10.061  0.8367  0.0402  0.2877
  389MPD2     C 5863   0.272   0.778  11.133 -0.7036  0.2489 -0.1097
  389MPD2    C1 5864   0.210   0.678  11.063 -0.2602  0.7811 -0.0061
  389MPD2    C2 5865   0.151   0.575  11.131 -1.3907  0.7510  0.8377
  389MPD2    C3 5866   0.154   0.580  11.271 -0.5975  0.7774  0.5638
  389MPD2    C4 5867   0.226   0.674  11.343 -0.3349 -0.3434 -0.7009
  389MPD2    C5 5868   0.290   0.759  11.264  0.8378 -0.3163 -0.3947
  389MPD2     H 5869   0.095   0.499  11.079 -0.2912 -0.4183  1.3627
  389MPD2    H1 5870   0.236   0.675  11.451  0.7059  1.6867 -0.8193
  389MPD2    H2 5871   0.320   0.866  11.092  0.2314 -0.0567  0.3266
  389MPD2    H3 5872   0.342   0.838  11.319  0.2238 -1.0362  1.2174
  389MPD2     N 5873   0.088   0.485  11.354  0.0131 -0.2737 -0.1649
  389MPD2    H5 5874   0.070   0.511  11.450  0.8073 -1.7175  0.3889
  389MPD2    N1 5875   0.192   0.700  10.920 -0.5580 -0.3597  0.3394
  389MPD2    H7 5876   0.209   0.796  10.889 -0.9430 -0.5256 -0.3822
  390TMC3    C1 5877   4.656   0.326  11.403  0.3953  0.7515 -0.0265
  390TMC3    C2 5878   4.544   0.290  11.341  0.1235  0.1911  0.4365
  390TMC3    C3 5879   4.424   0.327  11.398 -0.6870 -1.2363 -0.4391
  390TMC3    C4 5880   4.656   0.404  11.521 -1.1384  0.2008  0.4366
  390TMC3    C5 5881   4.530   0.441  11.566 -0.2502  0.3126 -0.0355
  390TMC3    C6 5882   4.415   0.404  11.508  0.4937 -0.6425  1.2346
  390TMC3     C 5883   0.026   0.368  11.310 -0.3112 -0.3260 -0.2793
  390TMC3     O 5884   0.034   0.322  11.196 -0.1405  0.5931 -0.1213
  390TMC3     H 5885   4.548   0.225  11.254  0.6625 -0.8081  1.2083
  390TMC3    H1 5886   4.731   0.409  11.599  0.3577 -0.6296 -0.9311
  390TMC3    H2 5887   4.315   0.428  11.542  0.9446  1.4275  1.0993
  390TMC3    C7 5888   4.527   0.500  11.702 -0.0888 -0.2906 -0.1263
  390TMC3    C8 5889   4.311   0.251  11.354 -0.0488 -0.0590 -0.1121
  390TMC3    O1 5890   4.614   0.581  11.726  0.2008 -0.0470 -0.1693
  390TMC3    O2 5891   4.333   0.138  11.308 -0.1208  0.2576 -0.4867
  391MPD2     C 5892   3.941   2.685  11.353  0.3904  0.2460  0.3263
  391MPD2    C1 5893   4.073   2.648  11.341 -0.8089  0.1852 -0.1401
  391MPD2    C2 5894   4.121   2.621  11.211  0.2745 -0.0137  1.2070
  391MPD2    C3 5895   4.037   2.629  11.106  0.5938 -0.6027 -0.7375
  391MPD2    C4 5896   3.913   2.680  11.114  0.7443 -0.8450  0.4991
  391MPD2    C5 5897   3.869   2.705  11.237 -0.0154 -0.7886  0.0201
  391MPD2     H 5898   4.220   2.581  11.195  0.6197  1.3676 -0.0649
  391MPD2    H1 5899   3.843   2.696  11.033  1.6166  2.2209  0.3425
  391MPD2    H2 5900   3.891   2.711  11.446 -0.4236  1.2581 -0.3817
  391MPD2    H3 5901   3.771   2.751  11.248  2.1586  3.8517 -0.2794
  391MPD2     N 5902   4.082   2.586  10.978 -0.6552  0.7788 -0.2328
  391MPD2    H5 5903   4.174   2.544  10.968 -1.3283 -0.6744 -0.3484
  391MPD2    N1 5904   4.165   2.642  11.446 -0.4386  0.2936  0.2280
  391MPD2    H7 5905   4.130   2.646  11.541  2.0762 -2.8589  1.2876
  392TMC3    C1 5906   4.082   2.518  10.756  0.3000  0.2000  0.1728
  392TMC3    C2 5907   4.026   2.460  10.644  0.4883  0.1757 -0.4212
  392TMC3    C3 5908   4.103   2.434  10.535 -0.1835 -0.1958 -0.9643
  392TMC3    C4 5909   4.212   2.561  10.740  0.2110  0.6483 -0.2953
  392TMC3    C5 5910   4.276   2.542  10.623 -0.0877  1.0634  1.1830
  392TMC3    C6 5911   4.230   2.472  10.519 -0.0591  0.0823  0.3225
  392TMC3     C 5912   4.008   2.579  10.863  0.1252 -0.3198  0.0732
  392TMC3     O 5913   3.885   2.596  10.837 -0.0906 -0.5435  0.4660
  392TMC3     H 5914   3.920   2.441  10.633  0.5188  0.3151 -0.9593
  392TMC3    H1 5915   4.260   2.625  10.812  0.7495 -1.9561  1.6391
  392TMC3    H2 5916   4.290   2.439  10.434 -0.6595  1.3733 -0.6125
  392TMC3    C7 5917   4.398   2.615  10.609 -0.5001  0.3614 -0.4277
  392TMC3    C8 5918   4.039   2.353  10.433  0.2843  0.1813  0.3867
  392TMC3    O1 5919   4.460   2.648  10.708  0.4839  0.1778  0.3707
  392TMC3    O2 5920   3.949   2.280  10.466 -0.1417 -0.3373  0.0680
  393TMC3    C1 5921   3.546   4.573  10.649 -0.2469 -1.0962  0.0480
  393TMC3    C2 5922   3.416   4.544  10.651 -0.6150 -0.2154  0.4190
  393TMC3    C3 5923   3.364   4.427  10.599  0.3326 -0.4630  0.0036
  393TMC3    C4 5924   3.631   4.488  10.579 -1.2290  0.0099  1.3442
  393TMC3    C5 5925   3.578   4.365  10.539 -0.3984  0.5269 -1.1412
  393TMC3    C6 5926   3.446   4.335  10.538  0.1153 -0.0049  0.3698
  393TMC3     C 5927   3.574   4.708  10.692  0.0818 -0.0480 -0.4552
  393TMC3     O 5928   3.481   0.036  10.746 -0.0895 -0.0893 -0.0895
  393TMC3     H 5929   3.339   4.591  10.712  0.2900 -0.6347  1.8686
  393TMC3    H1 5930   3.731   4.514  10.548 -1.0035 -2.3595  0.0947
  393TMC3    H2 5931   3.404   4.248  10.490 -0.9032 -0.5713  2.3118
  393TMC3    C7 5932   3.662   4.260  10.489  0.2486  0.2482  0.8990
  393TMC3    C8 5933   3.234   4.426  10.534 -0.1999  0.6981 -0.2455
  393TMC3    O1 5934   3.609   4.157  10.456 -0.9706 -0.1910  0.7066
  393TMC3    O2 5935   3.206   4.359  10.439 -0.4235  0.4981 -0.2353
  394TMC3    C1 5936   0.124   0.658  10.704  0.8897  0.0754  0.0553
  394TMC3    C2 5937   0.047   0.577  10.617 -0.3410  0.5891  0.3824
  394TMC3    C3 5938   0.023   0.632  10.493 -0.3579  0.2342 -0.1780
  394TMC3    C4 5939   0.195   0.761  10.667  0.2103  0.3024  0.6178
  394TMC3    C5 5940   0.169   0.811  10.546  0.0446  0.1635 -0.1640
  394TMC3    C6 5941   0.078   0.753  10.462 -0.1983  0.2420 -0.0479
  394TMC3     C 5942   0.140   0.609  10.837 -0.2533  0.0633 -0.2724
  394TMC3     O 5943   0.106   0.494  10.854 -0.0371 -0.2937  0.4857
  394TMC3     H 5944   4.733   0.487  10.648  1.5702 -0.3488  0.8578
  394TMC3    H1 5945   0.278   0.807  10.720  0.6932 -1.2214  1.1940
  394TMC3    H2 5946   0.075   0.796  10.363 -1.5703  0.3993  0.0598
  394TMC3    C7 5947   0.234   0.922  10.500 -0.1915  0.8741  0.1901
  394TMC3    C8 5948   4.715   0.557  10.381  0.0750 -0.5625  0.5947
  394TMC3    O1 5949   0.174   1.027  10.488 -0.0623  0.1166  0.5410
  394TMC3    O2 5950   4.686   0.619  10.280  0.3944  0.1918  0.1375
  395TMC3    C1 5951   0.385   2.742  14.641  0.5056  0.4148  1.1826
  395TMC3    C2 5952   0.257   2.764  14.602  0.1187 -0.8102 -0.0124
  395TMC3    C3 5953   0.235   2.896  14.565 -0.6598  0.4117  0.1434
  395TMC3    C4 5954   0.479   2.837  14.656 -0.1848 -0.2811  0.0949
  395TMC3    C5 5955   0.449   2.963  14.616 -0.1262 -0.2181  0.1346
  395TMC3    C6 5956   0.324   2.996  14.574 -0.0810  0.3635  0.3468
  395TMC3     C 5957   0.399   2.618  14.722  0.2473  0.1704  0.7098
  395TMC3     O 5958   0.514   2.577  14.729 -0.1701  0.0589  0.1363
  395TMC3     H 5959   0.180   2.687  14.601 -0.5323 -0.2004  2.8127
  395TMC3    H1 5960   0.581   2.818  14.690  0.1353  1.9977  0.4093
  395TMC3    H2 5961   0.291   3.096  14.548 -0.7388 -0.3478 -1.5285
  395TMC3    C7 5962   0.533   3.077  14.655 -0.5169 -0.1232 -0.1282
  395TMC3    C8 5963   0.096   2.947  14.567 -1.0217 -1.0194 -0.2222
  395TMC3    O1 5964   0.484   3.191  14.646 -0.0037 -0.0607 -0.4699
  395TMC3    O2 5965   0.074   3.061  14.607  0.0443  0.1164 -0.0346
  396MPD2     C 5966   4.423   3.715  17.510  0.0476 -0.1395  0.0038
  396MPD2    C1 5967   4.490   3.694  17.394  0.6119  0.0616  0.9799
  396MPD2    C2 5968   4.478   3.789  17.296  0.2745 -0.1817  0.5043
  396MPD2    C3 5969   4.396   3.899  17.309  0.7257 -0.3217  0.2304
  396MPD2    C4 5970   4.327   3.920  17.425 -0.1622 -0.2075  0.0518
  396MPD2    C5 5971   4.345   3.827  17.522 -0.3862  0.3730 -0.5322
  396MPD2     H 5972   4.521   3.782  17.196  0.8837  1.4005  0.6593
  396MPD2    H1 5973   4.259   4.002  17.443  1.6020  1.3039 -0.1702
  396MPD2    H2 5974   4.427   3.636  17.585 -1.0362 -1.9259 -1.8178
  396MPD2    H3 5975   4.283   3.846  17.608 -1.3170 -3.8016 -0.2805
  396MPD2     N 5976   4.392   3.992  17.200 -0.6472  0.0862 -0.5358
  396MPD2    H5 5977   4.456   3.978  17.122 -0.5051  2.1895 -0.7715
  396MPD2    N1 5978   4.546   3.569  17.362  0.0761 -0.6035 -0.2059
  396MPD2    H7 5979   4.525   3.497  17.431  1.8172  0.1679  1.1192
  397TMC3    C1 5980   4.633   3.389  17.225 -0.2869  0.2516  0.0807
  397TMC3    C2 5981   4.660   3.364  17.090 -0.5507 -0.5013 -0.3725
  397TMC3    C3 5982   4.582   3.266  17.029  0.2303  0.2133  0.3855
  397TMC3    C4 5983   4.544   3.312  17.290  0.4551  0.2367  0.0625
  397TMC3    C5 5984   4.485   3.202  17.230 -0.3744  0.4235  0.2635
  397TMC3    C6 5985   4.511   3.165  17.098 -0.1097 -0.7105 -0.3790
  397TMC3     C 5986   4.614   3.538  17.251 -0.7890 -1.1154 -1.0805
  397TMC3     O 5987   4.656   3.616  17.165 -0.2335 -0.6583  0.3715
  397TMC3     H 5988   4.711   3.433  17.024  0.5150 -0.7809  0.1646
  397TMC3    H1 5989   4.532   3.329  17.396  0.8016 -3.2849  0.6895
  397TMC3    H2 5990   4.461   3.082  17.049 -0.5283 -0.4406 -0.4108
  397TMC3    C7 5991   4.407   3.103  17.306 -0.4212 -0.6955 -1.0349
  397TMC3    C8 5992   4.489   3.322  16.933  0.2148 -0.5409  1.1089
  397TMC3    O1 5993   4.386   2.995  17.251 -0.5966 -0.1870  0.1527
  397TMC3    O2 5994   4.525   3.431  16.889 -0.2597  0.0357 -0.0626
  398MPD2     C 5995   2.358   0.763  17.564 -0.1447 -0.0201  0.3344
  398MPD2    C1 5996   2.429   0.735  17.679 -0.3040 -0.1060 -0.5530
  398MPD2    C2 5997   2.486   0.844  17.744  1.1800  0.2716 -0.3916
  398MPD2    C3 5998   2.462   0.976  17.701 -0.2910 -0.0352  0.2347
  398MPD2    C4 5999   2.388   0.999  17.589  0.8657 -0.5410  0.3930
  398MPD2    C5 6000   2.346   0.894  17.522  0.1407  0.1586  0.5302
  398MPD2     H 6001   2.551   0.826   0.082  2.4205 -1.7968 -1.7737
  398MPD2    H1 6002   2.364   1.100  17.558  2.7572 -0.3063 -0.3151
  398MPD2    H2 6003   2.323   0.683  17.500  0.4232  0.6509 -0.8142
  398MPD2    H3 6004   2.283   0.915  17.436  1.3739 -2.2591 -0.9582
  398MPD2     N 6005   2.515   1.081   0.041 -0.2673 -0.0801  0.1626
  398MPD2    H5 6006   2.550   1.053   0.132 -1.8355 -0.1961  0.7352
  398MPD2    N1 6007   2.457   0.604  17.741 -0.3608  0.0605  0.4554
  398MPD2    H7 6008   2.518   0.600   0.075  0.5514  2.1128 -0.1576
  399TMC3    C1 6009   2.416   0.360   0.020  0.2469  0.4737 -0.4682
  399TMC3    C2 6010   2.507   0.349   0.115  0.1687  0.3791 -0.5057
  399TMC3    C3 6011   2.528   0.224   0.158 -0.2231 -0.3342  0.1217
  399TMC3    C4 6012   2.349   0.258  17.710  0.0721  0.1384  0.1739
  399TMC3    C5 6013   2.380   0.138   0.008 -0.4627  0.1033  0.3440
  399TMC3    C6 6014   2.464   0.114   0.115  0.2627  0.3746 -0.3007
  399TMC3     C 6015   2.397   0.492  17.696  0.2054  0.2685  0.2173
  399TMC3     O 6016   2.331   0.478  17.591 -0.1927 -0.4608  0.4916
  399TMC3     H 6017   2.565   0.432   0.154 -1.3673  1.0318  0.4312
  399TMC3    H1 6018   2.269   0.270  17.638 -1.5368 -0.9128  1.7955
  399TMC3    H2 6019   2.501   0.012   0.124 -2.3766 -0.5247  0.1163
  399TMC3    C7 6020   2.336   0.023  17.681 -0.5528 -0.7938  0.4350
  399TMC3    C8 6021   2.655   0.196   0.229  0.7993 -0.5020 -0.4090
  399TMC3    O1 6022   2.329   4.651  17.732  0.4156 -0.1605 -0.9159
  399TMC3    O2 6023   2.744   0.278   0.220 -0.1151 -0.0569 -0.7571
  400TMC3    C1 6024   1.412   3.497  16.772 -0.0839  0.0103  0.0962
  400TMC3    C2 6025   1.320   3.399  16.741  0.2314 -0.1920  0.6639
  400TMC3    C3 6026   1.271   3.413  16.616  0.6978  0.2678 -0.1777
  400TMC3    C4 6027   1.435   3.613  16.699  0.1743 -0.2572 -0.3864
  400TMC3    C5 6028   1.361   3.624  16.579 -0.9805  0.4800  0.0738
  400TMC3    C6 6029   1.277   3.527  16.543 -0.7038  0.1497  0.2422
  400TMC3     C 6030   1.430   3.492  16.916  0.1349 -0.6580 -0.1825
  400TMC3     O 6031   1.355   3.419  16.980 -0.2127 -0.4903  0.2636
  400TMC3     H 6032   1.313   3.305  16.795  1.5868  1.2245  3.2963
  400TMC3    H1 6033   1.514   3.680  16.728 -1.0639  0.0913  2.2048
  400TMC3    H2 6034   1.227   3.521  16.447 -0.2914 -2.2247  0.1676
  400TMC3    C7 6035   1.331   3.762  16.547  0.2797  0.1432 -0.3019
  400TMC3    C8 6036   1.159   3.319  16.585  0.1631 -0.7768  0.1950
  400TMC3    O1 6037   1.367   3.842  16.632  0.5327  0.0830 -0.5016
  400TMC3    O2 6038   1.081   3.352  16.492  0.1158  0.5848  0.1917
  401MPD2     C 6039   3.648   2.277   0.635  0.3994 -0.3239 -0.2036
  401MPD2    C1 6040   3.758   2.246   0.707 -0.2466  0.2379  0.0779
  401MPD2    C2 6041   3.777   2.111   0.733 -0.6504  0.7682  0.4616
  401MPD2    C3 6042   3.689   2.016   0.695  0.2776  0.3755 -0.5382
  401MPD2    C4 6043   3.570   2.050   0.644  0.2513 -0.1691 -0.2368
  401MPD2    C5 6044   3.553   2.181   0.604 -0.2040  0.3315 -0.6943
  401MPD2     H 6045   3.871   2.072   0.769 -1.0776 -0.1705  0.5764
  401MPD2    H1 6046   3.495   1.977   0.615  2.7950 -2.7144 -0.4308
  401MPD2    H2 6047   3.622   2.379   0.610 -0.0319 -0.7125 -1.3355
  401MPD2    H3 6048   3.470   2.203   0.537  0.9205 -0.1687 -2.2770
  401MPD2     N 6049   3.723   1.878   0.712 -0.0513 -0.2762  0.7432
  401MPD2    H5 6050   3.807   1.869   0.769 -0.2296 -1.4222  0.8192
  401MPD2    N1 6051   3.869   2.330   0.728  0.3059  0.1740  0.8064
  401MPD2    H7 6052   3.957   2.293   0.761 -0.3613 -1.6106  0.5461
  402TMC3    C1 6053   3.745   1.642   0.663 -0.0678 -0.7684 -0.5122
  402TMC3    C2 6054   3.832   1.630   0.769  0.5993 -0.1350 -0.1967
  402TMC3    C3 6055   3.929   1.529   0.761 -1.0770  0.2535 -0.1856
  402TMC3    C4 6056   3.746   1.564   0.550  0.3042 -0.4699 -0.3259
  402TMC3    C5 6057   3.862   1.490   0.540  0.0739  0.0773  0.0746
  402TMC3    C6 6058   3.949   1.462   0.646  0.6640  0.1427 -0.1296
  402TMC3     C 6059   3.671   1.768   0.643  0.1276 -0.6162  0.3132
  402TMC3     O 6060   3.601   1.774   0.544 -0.2349 -0.2276  0.6175
  402TMC3     H 6061   3.806   1.678   0.863 -1.5930  0.2577 -1.0057
  402TMC3    H1 6062   3.671   1.574   0.473  0.3248 -0.4645 -0.3452
  402TMC3    H2 6063   4.040   1.405   0.633  0.4826 -0.1432 -0.1264
  402TMC3    C7 6064   3.869   1.414   0.409 -0.5148  0.3775  0.1284
  402TMC3    C8 6065   4.047   1.535   0.854 -0.2219 -0.0320 -0.9335
  402TMC3    O1 6066   3.766   1.403   0.346 -0.3791  0.2640  0.1272
  402TMC3    O2 6067   4.117   1.437   0.867  0.2442  0.0412  0.3193
  403MPD2     C 6068   2.943   4.636  13.128  0.8506  0.1990 -0.7411
  403MPD2    C1 6069   2.874   4.654  13.245  0.0656 -0.5626 -0.8668
  403MPD2    C2 6070   2.931   4.620  13.367  0.5207 -0.5093  0.1183
  403MPD2    C3 6071   3.058   4.564  13.369  0.6775  0.3398  0.3755
  403MPD2    C4 6072   3.122   4.534  13.247  0.3571 -0.1601  0.0639
  403MPD2    C5 6073   3.070   4.584  13.132 -0.6374 -0.5995  0.6026
  403MPD2     H 6074   2.867   4.637  13.454 -1.0314  1.1872 -1.3460
  403MPD2    H1 6075   3.220   4.489  13.237  1.0813  1.2482  0.9097
  403MPD2    H2 6076   2.906   4.671  13.032  0.1199  1.0653 -0.1486
  403MPD2    H3 6077   3.128   4.588  13.040  2.1152 -0.6687  2.3435
  403MPD2     N 6078   3.122   4.551  13.496 -0.4633 -0.3432 -0.0354
  403MPD2    H5 6079   3.073   4.585  13.578 -0.0929 -3.2864  1.3910
  403MPD2    N1 6080   2.749   4.708  13.231  0.5293 -0.4932 -0.3853
  403MPD2    H7 6081   2.722   4.728  13.136 -0.6747  2.0596  0.5087
  404TMC3    C1 6082   2.522   0.026  13.264  0.4828 -0.2092 -0.1969
  404TMC3    C2 6083   2.433   4.664  13.303  0.3421  0.3048  0.3364
  404TMC3    C3 6084   2.382   4.578  13.207 -0.1036  0.5731 -0.0297
  404TMC3    C4 6085   2.539   0.055  13.132  0.2046  0.0253 -0.3830
  404TMC3    C5 6086   2.475   4.719  13.033 -0.0433 -0.4937 -0.1912
  404TMC3    C6 6087   2.405   4.599  13.070 -1.1214  0.0703  0.1896
  404TMC3     C 6088   2.657   4.733  13.328 -0.3669 -0.2490  0.0182
  404TMC3     O 6089   2.653   4.727  13.449 -0.3958 -0.7957  0.3899
  404TMC3     H 6090   2.442   4.630  13.406 -1.7972 -1.7330 -0.1521
  404TMC3    H1 6091   2.599   0.142  13.109 -0.5175  1.0302  1.5876
  404TMC3    H2 6092   2.385   4.519  13.000  0.5279 -0.0227 -0.1871
  404TMC3    C7 6093   2.539   4.732  12.904 -0.3723 -0.0975 -0.5473
  404TMC3    C8 6094   2.378   4.439  13.235  0.1103  0.3573  0.6161
  404TMC3    O1 6095   2.660   0.023  12.911  0.9701  0.3967 -0.3779
  404TMC3    O2 6096   2.430   4.351  13.158  0.1854 -0.1230 -0.5662
  405MPD2     C 6097   2.290   0.040  14.333  0.0962 -0.8937  0.2801
  405MPD2    C1 6098   2.402   0.122  14.329  1.1017  0.7015  0.7129
  405MPD2    C2 6099   2.393   0.247  14.270 -0.0394 -0.0027 -0.9935
  405MPD2    C3 6100   2.277   0.290  14.208 -0.4986  0.1902  0.2598
  405MPD2    C4 6101   2.164   0.211  14.234  0.2395 -0.6594  0.8910
  405MPD2    C5 6102   2.169   0.088  14.296  0.1904 -0.3744  0.4705
  405MPD2     H 6103   2.481   0.309  14.263 -0.8317  1.2372  0.0992
  405MPD2    H1 6104   2.068   0.238  14.192 -0.0879 -2.2669  0.5921
  405MPD2    H2 6105   2.290   4.675  14.369 -2.7825 -1.8344 -2.3423
  405MPD2    H3 6106   2.079   0.027  14.300  0.7889 -1.2887  0.0275
  405MPD2     N 6107   2.278   0.405  14.127  0.0530 -0.0988  0.1774
  405MPD2    H5 6108   2.368   0.450  14.116 -0.1955  0.3753  0.0670
  405MPD2    N1 6109   2.521   0.070  14.391  0.4946 -0.1880  0.5486
  405MPD2    H7 6110   2.521   4.708  14.411  0.2221 -0.7961 -2.4400
  406TMC3    C1 6111   2.266   0.769  13.901 -0.4239 -0.4236  0.1873
  406TMC3    C2 6112   2.380   0.732  13.835 -0.5821 -0.1309 -0.5829
  406TMC3    C3 6113   2.421   0.609  13.847 -0.1900 -0.5088  0.8720
  406TMC3    C4 6114   2.182   0.685  13.962  0.1289 -0.0529 -0.2378
  406TMC3    C5 6115   2.224   0.556  13.969 -0.2416 -0.1884 -0.3036
  406TMC3    C6 6116   2.348   0.521  13.912  0.2620  0.1732  0.3629
  406TMC3     C 6117   2.257   0.909  13.936 -0.4882  0.0844  0.1597
  406TMC3     O 6118   2.347   0.978  13.895  0.4338 -0.7467 -0.0812
  406TMC3     H 6119   2.442   0.809  13.790 -0.9931  0.2578 -0.4755
  406TMC3    H1 6120   2.085   0.713  14.001 -1.3734 -0.4977 -3.6196
  406TMC3    H2 6121   2.397   0.425  13.918  2.4378  1.3126  0.8928
  406TMC3    C7 6122   2.168   0.464  14.068  0.5422 -0.9396  0.1073
  406TMC3    C8 6123   2.573   0.593  13.840 -0.3917 -0.0335 -0.3958
  406TMC3    O1 6124   2.051   0.427  14.069 -0.8804 -0.4413  0.9026
  406TMC3    O2 6125   2.633   0.645  13.748 -0.3008  0.2956  0.0610
  407MPD2     C 6126   0.343   1.826   9.751  0.2863  0.2762 -0.1581
  407MPD2    C1 6127   0.422   1.932   9.798 -0.4644  0.3494 -0.5494
  407MPD2    C2 6128   0.386   1.993   9.913 -0.3489  0.5385 -0.4588
  407MPD2    C3 6129   0.273   1.957   9.978 -0.5261  0.0621  0.4308
  407MPD2    C4 6130   0.185   1.861   9.928  0.4047  0.0226 -0.1840
  407MPD2    C5 6131   0.224   1.798   9.813 -0.2091 -0.2008 -0.2785
  407MPD2     H 6132   0.441   2.081   9.944  1.9191 -0.8375 -0.5628
  407MPD2    H1 6133   0.098   1.832   9.986  0.9087  0.7172  0.9193
  407MPD2    H2 6134   0.369   1.767   9.665  0.1778  1.4209 -0.9731
  407MPD2    H3 6135   0.152   1.731   9.767 -1.3324 -0.0388  1.2279
  407MPD2     N 6136   0.216   2.034  10.075  0.6082 -0.8167 -0.7306
  407MPD2    H5 6137   0.119   2.015  10.096  1.4306 -3.0404  1.0661
  407MPD2    N1 6138   0.534   1.987   9.731 -0.5606  0.1798  0.7658
  407MPD2    H7 6139   0.585   2.056   9.785  1.4460 -0.0902 -0.8109
  408TMC3    C1 6140   0.670   2.053   9.551  0.2909  0.3998 -0.0117
  408TMC3    C2 6141   0.776   2.057   9.639  0.0864 -0.3594 -0.0071
  408TMC3    C3 6142   0.869   2.159   9.620 -1.0982  0.6481  0.2362
  408TMC3    C4 6143   0.659   2.142   9.443 -0.0536  0.3811  0.3843
  408TMC3    C5 6144   0.754   2.242   9.439 -0.3205 -0.6411  0.2097
  408TMC3    C6 6145   0.856   2.251   9.527  0.2524  0.3317  0.2903
  408TMC3     C 6146   0.554   1.973   9.590  0.0489 -0.1802  0.5621
  408TMC3     O 6147   0.477   1.921   9.509  0.5013  0.5516 -0.1214
  408TMC3     H 6148   0.792   1.980   9.714 -0.4904 -1.5134 -1.0941
  408TMC3    H1 6149   0.570   2.136   9.382  2.0420  0.9139 -2.7303
  408TMC3    H2 6150   0.928   2.329   9.510  2.7816 -2.0141  0.1560
  408TMC3    C7 6151   0.713   2.374   9.400  0.5417  0.2282 -0.4503
  408TMC3    C8 6152   0.970   2.181   9.725 -0.5285  0.4680 -0.3278
  408TMC3    O1 6153   0.777   2.467   9.448  0.0674  0.5002 -0.2357
  408TMC3    O2 6154   0.985   2.092   9.808  0.2503 -0.2922 -0.8750
  409MPD2     C 6155   4.542   3.033  16.631 -0.3046  0.2121  0.1787
  409MPD2    C1 6156   4.675   2.990  16.662  0.3072 -0.3360  0.3175
  409MPD2    C2 6157   0.044   3.049  16.594  0.4509  0.0771 -0.5468
  409MPD2    C3 6158   0.021   3.160  16.512  0.0869  0.0515  0.0802
  409MPD2    C4 6159   4.630   3.202  16.497  0.1038 -0.1650 -0.1378
  409MPD2    C5 6160   4.525   3.134  16.546  0.0211 -0.5772  0.2407
  409MPD2     H 6161   0.143   3.013  16.616  0.4277  0.6703  0.5170
  409MPD2    H1 6162   4.612   3.295  16.444 -1.8518  0.0971  0.9718
  409MPD2    H2 6163   4.450   2.993  16.673  0.9710 -1.2646  1.5709
  409MPD2    H3 6164   4.432   3.190  16.538 -0.6400 -2.1602 -3.0108
  409MPD2     N 6165   0.127   3.241  16.462  0.1825 -0.0529 -0.3075
  409MPD2    H5 6166   0.097   3.334  16.437  0.6043 -0.2851 -1.7058
  409MPD2    N1 6167   4.699   2.883  16.753 -0.1907  0.7329 -0.4413
  409MPD2    H7 6168   0.056   2.847  16.767 -0.1889  0.9451  0.1046
  410TMC3    C1 6169   0.333   3.332  16.452  0.5035 -0.1629  0.3373
  410TMC3    C2 6170   0.441   3.357  16.536 -0.7131 -0.3785 -0.8678
  410TMC3    C3 6171   0.510   3.476  16.524 -1.1553 -0.4541  0.2496
  410TMC3    C4 6172   0.290   3.422  16.360  0.5534 -0.2628 -0.2683
  410TMC3    C5 6173   0.362   3.540  16.353 -0.1302 -0.5042  0.7621
  410TMC3    C6 6174   0.468   3.572  16.434 -0.6747 -0.1843 -0.2646
  410TMC3     C 6175   0.261   3.213  16.476  0.3811  0.1672 -0.3318
  410TMC3     O 6176   0.315   3.108  16.510  0.0013 -0.3554  0.0216
  410TMC3     H 6177   0.466   3.284  16.612 -1.1689  2.1681  1.7352
  410TMC3    H1 6178   0.208   3.400  16.292 -0.1137 -0.7377  0.6976
  410TMC3    H2 6179   0.521   3.664  16.411  1.4704 -1.4058 -0.1293
  410TMC3    C7 6180   0.321   3.623  16.240 -0.2377 -0.3044  0.0956
  410TMC3    C8 6181   0.633   3.492  16.595 -0.3758 -0.9238 -0.2626
  410TMC3    O1 6182   0.290   3.551  16.144 -0.5352  0.2895 -0.1795
  410TMC3    O2 6183   0.677   3.601  16.596 -0.0982 -0.3691 -0.3266
  411MPD2     C 6184   0.436   3.876  14.710  0.5256  0.2828 -0.3093
  411MPD2    C1 6185   0.395   3.942  14.602 -0.2262 -0.5086 -0.0656
  411MPD2    C2 6186   0.411   3.883  14.481  0.6817  0.0661 -0.2472
  411MPD2    C3 6187   0.440   3.755  14.465 -0.1133  0.0813 -0.7885
  411MPD2    C4 6188   0.472   3.686  14.580  0.2509  0.3672  0.0279
  411MPD2    C5 6189   0.470   3.741  14.703  0.0451 -0.2240 -0.0907
  411MPD2     H 6190   0.388   3.937  14.391 -0.3756 -0.7577 -0.4807
  411MPD2    H1 6191   0.514   3.587  14.565 -0.3579  0.1078  0.0338
  411MPD2    H2 6192   0.453   3.929  14.803 -2.6709  0.2596  0.2639
  411MPD2    H3 6193   0.513   3.686  14.786 -0.2930  1.7502  1.3828
  411MPD2     N 6194   0.440   3.695  14.345  0.0044 -0.1517  0.1559
  411MPD2    H5 6195   0.469   3.598  14.338  2.3635  0.3907  2.5103
  411MPD2    N1 6196   0.345   4.071  14.635 -0.1492  0.0580 -0.2979
  411MPD2    H7 6197   0.341   4.103  14.731 -0.0576 -0.9102  0.0263
  412TMC3    C1 6198   0.445   3.660  14.109  0.8355  0.2897 -0.6107
  412TMC3    C2 6199   0.545   3.569  14.114  0.4392 -0.4524 -0.0569
  412TMC3    C3 6200   0.589   3.507  13.997 -0.4057  0.6210  0.1867
  412TMC3    C4 6201   0.380   3.691  13.993 -0.9305 -0.2639 -0.1032
  412TMC3    C5 6202   0.428   3.644  13.879 -0.9696  0.6862 -1.2800
  412TMC3    C6 6203   0.533   3.555  13.883  0.0871 -0.1974  0.1105
  412TMC3     C 6204   0.413   3.751  14.219  0.3232 -0.1283 -0.1397
  412TMC3     O 6205   0.350   3.849  14.183 -0.3186  0.3768  0.1242
  412TMC3     H 6206   0.589   3.545  14.210 -1.1420 -1.5077  0.4051
  412TMC3    H1 6207   0.299   3.762  13.985 -0.2047  0.2100 -3.1836
  412TMC3    H2 6208   0.597   3.531  13.799 -0.1168 -0.3605  0.0011
  412TMC3    C7 6209   0.331   3.592  13.785 -0.0782  0.0945 -0.8739
  412TMC3    C8 6210   0.583   3.361  14.002  0.1175  0.1406  0.0661
  412TMC3    O1 6211   0.355   3.483  13.742 -0.4039 -0.8397  0.3834
  412TMC3    O2 6212   0.612   3.297  14.100  0.0027  0.5716 -0.0959
  413MPD2     C 6213   1.962   2.169  15.459  0.8449 -0.2047 -0.2813
  413MPD2    C1 6214   1.914   2.054  15.395 -0.3917  0.3564 -0.4593
  413MPD2    C2 6215   1.991   1.990  15.301 -0.0851 -0.2279 -0.2226
  413MPD2    C3 6216   2.119   2.034  15.267 -0.1435 -0.0665 -0.2540
  413MPD2    C4 6217   2.162   2.155  15.319 -0.7399 -0.5565  0.1145
  413MPD2    C5 6218   2.091   2.210  15.428 -0.6817  0.1326 -0.1484
  413MPD2     H 6219   1.964   1.893  15.259 -2.2466  0.1906  0.2482
  413MPD2    H1 6220   2.257   2.200  15.294 -0.8093 -0.8351 -0.6504
  413MPD2    H2 6221   1.903   2.229  15.528 -0.3984 -0.6772 -0.9315
  413MPD2    H3 6222   2.130   2.296  15.482  2.8123 -1.7316  0.3613
  413MPD2     N 6223   2.188   1.958  15.170  0.1482 -0.2392  0.1851
  413MPD2    H5 6224   2.144   1.873  15.134 -0.3961 -0.3410  1.0675
  413MPD2    N1 6225   1.781   2.012  15.424 -0.3564  0.6362  0.3401
  413MPD2    H7 6226   1.723   2.067  15.487 -0.3974  2.1121 -0.9793
  414TMC3    C1 6227   2.362   1.904  15.021 -0.2308  0.8173 -0.8250
  414TMC3    C2 6228   2.361   1.779  15.073 -0.1871  0.0411  0.5835
  414TMC3    C3 6229   2.375   1.674  14.987  0.0721  0.5242 -0.4454
  414TMC3    C4 6230   2.367   1.925  14.887  0.0478  0.0972  0.2689
  414TMC3    C5 6231   2.373   1.815  14.803  0.5169  0.6565 -0.1730
  414TMC3    C6 6232   2.369   1.688  14.854 -0.3399 -0.2572 -0.0135
  414TMC3     C 6233   2.290   2.007  15.099 -0.2722 -0.2596 -0.1270
  414TMC3     O 6234   2.325   2.122  15.077 -0.3427 -0.0857 -0.3311
  414TMC3     H 6235   2.382   1.762  15.178 -0.4869 -0.2764  0.5926
  414TMC3    H1 6236   2.334   2.021  14.851 -1.5149 -1.0012 -1.1820
  414TMC3    H2 6237   2.357   1.597  14.796  1.1736 -1.3955  1.4686
  414TMC3    C7 6238   2.341   1.847  14.658  0.1819 -0.0311  0.0276
  414TMC3    C8 6239   2.443   1.550  15.021  0.2704  0.4399 -0.7335
  414TMC3    O1 6240   2.300   1.956  14.640  0.0016 -0.1632 -0.5192
  414TMC3    O2 6241   2.414   1.454  14.950 -0.1903  0.7607  0.4827
  415TMC3    C1 6242   2.514   4.021  10.119  0.3379 -0.3759 -0.2603
  415TMC3    C2 6243   2.631   4.023  10.039  0.6182 -0.9841  0.1487
  415TMC3    C3 6244   2.616   3.990   9.905  0.0395 -0.2100  0.3124
  415TMC3    C4 6245   2.400   3.966  10.079 -0.7435 -0.9318  0.0501
  415TMC3    C5 6246   2.403   3.919   9.952  0.8884 -0.2004 -0.4502
  415TMC3    C6 6247   2.497   3.937   9.855  0.3622  0.1268 -0.1009
  415TMC3     C 6248   2.528   4.021  10.263  0.2468  0.7802  0.7183
  415TMC3     O 6249   2.449   3.964  10.336  0.4637 -0.3621 -0.2064
  415TMC3     H 6250   2.731   4.046  10.075 -0.1766  3.6959 -0.6400
  415TMC3    H1 6251   2.317   3.936  10.141 -1.4285  0.8746  0.0130
  415TMC3    H2 6252   2.498   3.881   9.762  1.0934 -0.1583  0.0730
  415TMC3    C7 6253   2.296   3.825   9.912  0.0636  0.6986  0.3425
  415TMC3    C8 6254   2.723   3.984   9.811  0.2736 -0.4401 -0.1203
  415TMC3    O1 6255   2.254   3.838   9.796  0.6733  0.2030 -0.6776
  415TMC3    O2 6256   2.694   3.920   9.705  0.2377 -0.2556 -0.2435
  416MPD2     C 6257   4.464   3.567  11.277  0.6632  0.0639 -0.1346
  416MPD2    C1 6258   4.367   3.478  11.267 -0.4028  0.4870  0.4092
  416MPD2    C2 6259   4.393   3.376  11.174 -0.1860  0.6690  0.5634
  416MPD2    C3 6260   4.509   3.359  11.096 -0.1605 -0.2335  0.9208
  416MPD2    C4 6261   4.598   3.464  11.116 -0.8511  0.2357 -0.1276
  416MPD2    C5 6262   4.570   3.564  11.196 -0.2838  0.1840 -0.1823
  416MPD2     H 6263   4.322   3.294  11.173  0.7679 -0.1157 -1.1199
  416MPD2    H1 6264   4.684   3.479  11.052 -0.5864  0.7741  0.3629
  416MPD2    H2 6265   4.456   3.654  11.341  0.7348 -0.1376  0.1440
  416MPD2    H3 6266   4.629   3.654  11.201 -0.2671  0.0305  2.1080
  416MPD2     N 6267   4.522   3.254  10.998  0.1303  0.6474 -0.1853
  416MPD2    H5 6268   4.443   3.191  10.994 -0.4849  1.5053 -1.8404
  416MPD2    N1 6269   4.252   3.481  11.342  0.4454 -0.0882  0.4720
  416MPD2    H7 6270   4.250   3.552  11.415  1.4202 -0.6798  1.0721
  417TMC3    C1 6271   4.035   3.449  11.411  0.5057  0.6024 -0.1127
  417TMC3    C2 6272   4.052   3.434  11.546 -0.3990  0.6301  0.1077
  417TMC3    C3 6273   3.941   3.428  11.623  0.2315  0.4541  0.7611
  417TMC3    C4 6274   3.915   3.457  11.353  0.0733 -0.3489  0.0522
  417TMC3    C5 6275   3.803   3.446  11.433  0.3545  0.5031  0.4371
  417TMC3    C6 6276   3.818   3.428  11.571  0.3591 -0.4092 -0.3386
  417TMC3     C 6277   4.146   3.402  11.331  0.3297 -0.3024 -0.9650
  417TMC3     O 6278   4.115   3.327  11.242  0.0615 -0.6061 -0.4727
  417TMC3     H 6279   4.155   3.433  11.581 -0.4414 -2.9570  0.1473
  417TMC3    H1 6280   3.904   3.471  11.246  1.7587 -1.1085 -0.2164
  417TMC3    H2 6281   3.734   3.432  11.640 -0.4621  0.4718 -1.3697
  417TMC3    C7 6282   3.690   3.519  11.384 -0.7183 -0.9493 -0.0564
  417TMC3    C8 6283   3.948   3.447  11.761 -0.5517  0.0713  0.0507
  417TMC3    O1 6284   3.669   3.505  11.265 -0.1343  0.1981 -0.1911
  417TMC3    O2 6285   3.997   3.545  11.815  0.6170 -0.4147 -1.2101
  418TMC3    C1 6286   2.704   1.474   0.155  0.5307 -0.0644 -0.5649
  418TMC3    C2 6287   2.603   1.411   0.084 -0.1367 -0.5828  0.6557
  418TMC3    C3 6288   2.561   1.293   0.123 -0.2388 -0.6720  0.3327
  418TMC3    C4 6289   2.770   1.427   0.265  0.4189 -0.8486  0.7064
  418TMC3    C5 6290   2.717   1.313   0.311  0.2006 -1.2019 -0.1106
  418TMC3    C6 6291   2.613   1.244   0.239  0.0034 -0.1727 -0.1689
  418TMC3     C 6292   2.778   1.563   0.072 -0.3064  0.2355  0.6530
  418TMC3     O 6293   2.712   1.635  17.744 -0.3959 -0.4861 -0.0223
  418TMC3     H 6294   2.555   1.470   0.006  1.2134 -0.4685 -0.1078
  418TMC3    H1 6295   2.863   1.468   0.303  0.4737 -1.4923  1.2660
  418TMC3    H2 6296   2.547   1.176   0.293 -1.2124  1.6761  0.6682
  418TMC3    C7 6297   2.799   1.238   0.411  0.5526 -0.1253  0.4263
  418TMC3    C8 6298   2.509   1.213   0.013 -0.9813 -0.1696  0.1044
  418TMC3    O1 6299   2.773   1.117   0.402  0.1510 -0.1439  0.1081
  418TMC3    O2 6300   2.472   1.268  17.658  0.3414 -0.9737  0.2144
  419MPD2     C 6301   1.439   3.133  12.309  0.8753  0.2172  0.5763
  419MPD2    C1 6302   1.542   3.200  12.378  0.1811 -0.7629 -0.1549
  419MPD2    C2 6303   1.509   3.236  12.504 -0.1031  0.5522 -0.3251
  419MPD2    C3 6304   1.397   3.182  12.571 -0.5553  0.5810 -0.1074
  419MPD2    C4 6305   1.320   3.091  12.506  0.0863 -0.1181  0.4230
  419MPD2    C5 6306   1.337   3.068  12.373 -0.7320  0.1146 -0.2504
  419MPD2     H 6307   1.567   3.307  12.561  0.1618 -1.1106  1.4837
  419MPD2    H1 6308   1.233   3.040  12.548  0.3080 -1.2278 -0.4657
  419MPD2    H2 6309   1.436   3.113  12.202 -0.6645 -0.0313  0.6733
  419MPD2    H3 6310   1.271   3.005  12.315 -0.2256  0.2945 -1.0101
  419MPD2     N 6311   1.375   3.235  12.700 -0.0208 -0.0794 -0.2649
  419MPD2    H5 6312   1.454   3.282  12.743 -0.3932  0.2139  0.0900
  419MPD2    N1 6313   1.649   3.255  12.311  0.2757  0.3515 -0.1830
  419MPD2    H7 6314   1.702   3.323  12.365  0.9653 -0.7203  0.4860
  420TMC3    C1 6315   1.256   3.266  12.903 -0.3487  0.2095  0.3219
  420TMC3    C2 6316   1.137   3.294  12.958 -0.4413  0.2110  0.4815
  420TMC3    C3 6317   1.131   3.309  13.095  0.1132 -0.3036  0.5731
  420TMC3    C4 6318   1.371   3.241  12.984  0.0476  0.9060 -0.1672
  420TMC3    C5 6319   1.359   3.264  13.117 -0.3905  0.5626  0.4822
  420TMC3    C6 6320   1.242   3.283  13.177 -0.5268  0.0489  0.1242
  420TMC3     C 6321   1.253   3.238  12.761  0.1986  0.1265 -0.3336
  420TMC3     O 6322   1.145   3.203  12.715  0.6702  0.0353 -0.2252
  420TMC3     H 6323   1.055   3.322  12.894 -0.3803  0.8356  0.6752
  420TMC3    H1 6324   1.467   3.224  12.935  1.1391 -2.1266  3.0077
  420TMC3    H2 6325   1.236   3.315  13.280 -3.3159  0.1506 -0.0686
  420TMC3    C7 6326   1.457   3.350  13.183  0.1036 -0.0739 -0.5901
  420TMC3    C8 6327   1.030   3.391  13.156  0.4737 -0.1942  0.4976
  420TMC3    O1 6328   1.422   3.453  13.237 -0.5625  0.0053 -0.4867
  420TMC3    O2 6329   1.074   3.462  13.250  0.3337 -0.3305  0.3261
  421TMC3    C1 6330   3.288   4.486  13.660  0.1910 -0.3300  0.0084
  421TMC3    C2 6331   3.306   4.611  13.711 -0.2727 -0.5323 -0.3892
  421TMC3    C3 6332   3.412   4.626  13.798 -0.4219 -0.1883 -0.5285
  421TMC3    C4 6333   3.370   4.378  13.690  0.2717 -0.1488 -0.0653
  421TMC3    C5 6334   3.472   4.401  13.775  0.2447 -0.2791  1.1748
  421TMC3    C6 6335   3.498   4.528  13.825  0.2069  0.1165  0.3915
  421TMC3     C 6336   3.238   4.480  13.522 -0.0670  0.0602  0.3146
  421TMC3     O 6337   3.312   4.424  13.443  0.2416  0.2366  0.7377
  421TMC3     H 6338   3.239   4.694  13.688  1.2730  0.4228 -1.4558
  421TMC3    H1 6339   3.355   4.279  13.648  2.4722 -1.8687  3.1859
  421TMC3    H2 6340   3.574   4.549  13.900  0.5780 -0.7651  0.2612
  421TMC3    C7 6341   3.573   4.307  13.783 -0.1945  0.6297 -0.4702
  421TMC3    C8 6342   3.458   0.021  13.845  0.0519 -0.1080 -0.0835
  421TMC3    O1 6343   3.540   4.190  13.780  0.5193 -0.3268  0.3375
  421TMC3    O2 6344   3.551   0.029  13.927  0.7954 -0.0415  0.0335
  422TMC3    C1 6345   0.650   1.658  12.678 -0.7525  0.2967 -0.4041
  422TMC3    C2 6346   0.674   1.721  12.797 -0.5780 -1.0675  0.2739
  422TMC3    C3 6347   0.583   1.690  12.902 -0.2752 -0.1943 -0.4334
  422TMC3    C4 6348   0.548   1.573  12.657  1.3053 -0.5186  0.5038
  422TMC3    C5 6349   0.460   1.545  12.762  0.2125 -1.0070 -0.4331
  422TMC3    C6 6350   0.479   1.602  12.886  0.2923 -0.5860 -0.7892
  422TMC3     C 6351   0.716   1.736  12.577 -0.1472 -0.1411  0.1506
  422TMC3     O 6352   0.761   1.848  12.597  0.0152  0.0346 -0.6144
  422TMC3     H 6353   0.760   1.785  12.816  2.0482 -4.1204 -1.3456
  422TMC3    H1 6354   0.539   1.527  12.560  0.2286  1.2543 -0.2562
  422TMC3    H2 6355   0.431   1.564  12.976  0.7673 -1.4997 -0.9191
  422TMC3    C7 6356   0.352   1.448  12.745  0.2561  0.7434 -0.2060
  422TMC3    C8 6357   0.573   1.788  13.015  0.0291 -0.5475  0.1342
  422TMC3    O1 6358   0.363   1.377  12.647  0.3328 -0.2271 -0.4461
  422TMC3    O2 6359   0.663   1.869  13.006  0.2975 -0.2644 -0.2243
  423MPD2     C 6360   1.488   2.111   0.353 -0.1685  0.3165 -0.1617
  423MPD2    C1 6361   1.578   2.208   0.313  0.3952 -0.1300  0.5304
  423MPD2    C2 6362   1.630   2.205   0.186  1.1668 -0.6013  0.0949
  423MPD2    C3 6363   1.594   2.104   0.096  0.0651  0.7607 -0.2923
  423MPD2    C4 6364   1.505   2.008   0.138 -0.1482  0.3312 -0.6688
  423MPD2    C5 6365   1.448   2.015   0.262  0.2810  0.3001 -0.4935
  423MPD2     H 6366   1.707   2.279   0.164 -1.4160  1.7831 -0.9571
  423MPD2    H1 6367   1.459   1.936   0.071  1.2524 -0.8035 -0.4028
  423MPD2    H2 6368   1.435   2.106   0.447  0.1788 -1.8767 -0.0741
  423MPD2    H3 6369   1.361   1.953   0.280  0.3768  0.3950  0.2959
  423MPD2     N 6370   1.626   2.098  17.710 -0.0279 -0.7854  0.3385
  423MPD2    H5 6371   1.578   2.033  17.648 -0.3651  1.7215 -2.0087
  423MPD2    N1 6372   1.612   2.307   0.406 -0.2325 -0.1062  0.4056
  423MPD2    H7 6373   1.673   2.381   0.374 -3.0555  1.8486 -0.4337
  424TMC3    C1 6374   1.637   2.405   0.616 -0.2954 -0.1022 -0.4857
  424TMC3    C2 6375   1.773   2.401   0.607 -0.0188 -0.1910  0.1497
  424TMC3    C3 6376   1.848   2.477   0.701  0.2955 -0.3874  0.7793
  424TMC3    C4 6377   1.570   2.463   0.724  0.0067 -0.8161 -0.4076
  424TMC3    C5 6378   1.648   2.530   0.817 -0.4960 -0.3185 -0.8159
  424TMC3    C6 6379   1.785   2.534   0.809  0.4079 -0.0934  0.1078
  424TMC3     C 6380   1.563   2.322   0.528  0.2341  0.1164  0.1761
  424TMC3     O 6381   1.464   2.270   0.580  0.0840  0.2672  0.2909
  424TMC3     H 6382   1.832   2.347   0.533  0.2235  0.2716  0.0061
  424TMC3    H1 6383   1.467   2.435   0.743  0.1077  0.5864  2.1589
  424TMC3    H2 6384   1.834   2.602   0.877  0.6869 -1.0980  0.9081
  424TMC3    C7 6385   1.584   2.602   0.926 -0.2449 -0.1011  0.2864
  424TMC3    C8 6386   1.989   2.449   0.718 -0.3852  0.0907 -0.1211
  424TMC3    O1 6387   1.654   2.650   1.015  0.3085  0.4801 -0.1003
  424TMC3    O2 6388   2.045   2.410   0.619  0.1559  0.0505 -0.6087
  425MPD2     C 6389   0.777   1.877  17.139  0.4505  0.3014  0.1307
  425MPD2    C1 6390   0.695   1.772  17.154  0.2761 -0.0545  0.3192
  425MPD2    C2 6391   0.557   1.796  17.168 -0.4783 -0.2706 -0.6030
  425MPD2    C3 6392   0.501   1.919  17.188  0.0067  0.0711 -0.5600
  425MPD2    C4 6393   0.594   2.026  17.180 -0.1026 -0.0014 -0.8595
  425MPD2    C5 6394   0.723   2.000  17.152 -0.3049 -0.8149  0.5767
  425MPD2     H 6395   0.491   1.712  17.181 -1.4622  0.6638  0.3410
  425MPD2    H1 6396   0.564   2.130  17.183 -0.1834 -0.0044 -1.7933
  425MPD2    H2 6397   0.879   1.858  17.108  0.0733 -1.5401 -0.0017
  425MPD2    H3 6398   0.775   2.093  17.132 -1.0079 -0.7642 -1.0373
  425MPD2     N 6399   0.363   1.928  17.211 -0.0208  0.2882 -0.4044
  425MPD2    H5 6400   0.316   1.840  17.227 -3.0572  1.7479 -1.2663
  425MPD2    N1 6401   0.749   1.645  17.137  0.1462  0.3624  0.1689
  425MPD2    H7 6402   0.839   1.633  17.093  0.6435  0.0132  1.3020
  426TMC3    C1 6403   0.758   1.409  17.170 -0.2859 -0.1624 -0.2710
  426TMC3    C2 6404   0.800   1.384  17.039 -0.5727 -0.3132 -0.2652
  426TMC3    C3 6405   0.848   1.259  17.004  0.7326  0.3988 -0.6206
  426TMC3    C4 6406   0.740   1.304  17.255  0.0326  0.0279 -0.0173
  426TMC3    C5 6407   0.773   1.178  17.210  0.2332  0.3990 -0.6203
  426TMC3    C6 6408   0.827   1.153  17.094 -0.8417 -0.2227 -0.2697
  426TMC3     C 6409   0.695   1.535  17.193 -0.0572  0.4305 -0.1952
  426TMC3     O 6410   0.609   1.530  17.276 -0.3807 -0.0294 -0.5090
  426TMC3     H 6411   0.832   1.470  16.982 -0.5675 -0.4407 -0.4565
  426TMC3    H1 6412   0.711   1.331  17.356  3.2157 -1.0090  1.1825
  426TMC3    H2 6413   0.830   1.051  17.057  2.5226 -0.8074  1.5926
  426TMC3    C7 6414   0.730   1.068  17.287 -0.1553  1.0336 -0.5210
  426TMC3    C8 6415   0.883   1.230  16.868  0.1739 -0.2311 -0.3612
  426TMC3    O1 6416   0.793   0.965  17.290  0.4704  0.0880 -0.1122
  426TMC3    O2 6417   0.934   1.126  16.832 -0.4173 -0.4042  0.7097
  427MPD2     C 6418   4.102   3.581  14.866 -0.0654  0.0935  0.2674
  427MPD2    C1 6419   4.091   3.550  15.004  0.3408 -0.3249  0.1507
  427MPD2    C2 6420   3.967   3.552  15.068 -0.4679  0.5031  0.6281
  427MPD2    C3 6421   3.855   3.594  14.993  0.0678 -0.2812  0.3655
  427MPD2    C4 6422   3.865   3.623  14.858 -0.4663 -0.1780  0.2016
  427MPD2    C5 6423   3.992   3.622  14.799 -0.1428 -0.2741 -0.2406
  427MPD2     H 6424   3.953   3.536  15.175 -2.0205  0.3222  0.3950
  427MPD2    H1 6425   3.787   3.664  14.796 -0.8367 -1.8610 -0.4363
  427MPD2    H2 6426   4.196   3.589  14.812 -0.1722 -0.6953 -0.0395
  427MPD2    H3 6427   4.001   3.661  14.699 -2.7218  0.0710 -0.3202
  427MPD2     N 6428   3.731   3.612  15.050 -0.5311  0.3398 -0.2000
  427MPD2    H5 6429   3.656   3.623  14.982  0.1375  1.7529 -0.7265
  427MPD2    N1 6430   4.204   3.525  15.085 -0.5077 -0.4642 -0.2249
  427MPD2    H7 6431   4.180   3.491  15.178  0.7506  0.2535  0.3656
  428TMC3    C1 6432   4.423   3.515  15.163  0.1679 -0.1607  0.1791
  428TMC3    C2 6433   4.379   3.440  15.272  0.0351  0.5238  0.0552
  428TMC3    C3 6434   4.471   3.424  15.376  0.4260 -0.0329 -0.1139
  428TMC3    C4 6435   4.553   3.566  15.156  0.2982  0.0279 -0.0482
  428TMC3    C5 6436   4.635   3.547  15.263 -0.4632 -0.2576  0.1370
  428TMC3    C6 6437   4.599   3.471  15.373  0.4616 -0.5947 -0.5183
  428TMC3     C 6438   4.336   3.543  15.052 -0.3474  0.2927  0.1182
  428TMC3     O 6439   4.387   3.604  14.959 -1.4552  0.1957  0.4949
  428TMC3     H 6440   4.278   3.407  15.289  1.0544 -1.7831  1.6602
  428TMC3    H1 6441   4.568   3.624  15.066 -1.9048 -1.5313 -1.4334
  428TMC3    H2 6442   4.673   3.443  15.447 -0.8406 -2.5424  0.0453
  428TMC3    C7 6443   0.017   3.629  15.286  0.8570  0.1562 -0.7588
  428TMC3    C8 6444   4.420   3.351  15.482 -1.5925  0.7144  0.0078
  428TMC3    O1 6445   0.076   3.623  15.396 -0.5299 -0.4303  0.2091
  428TMC3    O2 6446   4.304   3.365  15.520  0.2129  0.2525  0.3344
  429MPD2     C 6447   0.990   3.953  17.466  0.1353  0.1046 -0.0768
  429MPD2    C1 6448   0.929   3.896  17.361  0.0123 -0.5198 -0.4890
  429MPD2    C2 6449   0.899   3.975  17.249  0.1364  0.3601  0.1986
  429MPD2    C3 6450   0.945   4.105  17.237 -0.0898 -0.0011 -0.5144
  429MPD2    C4 6451   1.005   4.162  17.344  0.0974  0.2907  0.3052
  429MPD2    C5 6452   1.019   4.086  17.459 -0.8269 -0.6340  0.3314
  429MPD2     H 6453   0.867   3.928  17.157 -1.3883 -0.4249  1.1418
  429MPD2    H1 6454   1.044   4.263  17.336  0.0412  0.4000  1.3615
  429MPD2    H2 6455   1.026   3.900  17.554 -2.5223  0.9933  1.5600
  429MPD2    H3 6456   1.079   4.128  17.539  2.0274 -0.4420 -1.8791
  429MPD2     N 6457   0.934   4.163  17.107 -0.4177  0.2622 -0.4181
  429MPD2    H5 6458   0.873   4.111  17.045 -0.9275  2.3732 -1.7080
  429MPD2    N1 6459   0.892   3.760  17.364  0.2972  0.1288  0.3955
  429MPD2    H7 6460   0.919   3.720  17.454  0.4921 -1.6833 -0.4650
  430TMC3    C1 6461   0.950   4.325  16.934 -0.4773 -0.6766 -0.4667
  430TMC3    C2 6462   0.968   4.455  16.890 -0.7886  0.6960  0.7753
  430TMC3    C3 6463   0.963   4.480  16.753 -0.9964 -0.9481 -0.2959
  430TMC3    C4 6464   0.948   4.220  16.844 -0.7850  0.2391  0.4048
  430TMC3    C5 6465   0.945   4.251  16.716 -0.2670 -0.2406 -0.7760
  430TMC3    C6 6466   0.941   4.380  16.667 -0.3034 -0.2337 -0.3021
  430TMC3     C 6467   0.958   4.296  17.077 -0.6953 -1.0279 -0.2826
  430TMC3     O 6468   1.019   4.379  17.145 -0.0266 -0.3260 -0.3642
  430TMC3     H 6469   0.993   4.529  16.965  0.2630  0.2117  0.9092
  430TMC3    H1 6470   0.952   4.114  16.867 -1.3111 -0.4488 -2.6539
  430TMC3    H2 6471   0.937   4.392  16.559  0.9802  0.3468 -0.2844
  430TMC3    C7 6472   0.998   4.138  16.625 -0.5771 -0.1499  0.7486
  430TMC3    C8 6473   0.902   4.600  16.718 -0.4668  1.0365  0.2059
  430TMC3    O1 6474   0.975   4.024  16.662  0.5457 -0.6263 -0.0104
  430TMC3    O2 6475   0.930   4.688  16.792 -0.0890  0.4114 -0.3233
  431MPD2     C 6476   1.618   4.111  12.257 -0.4717  0.1399  0.2757
  431MPD2    C1 6477   1.755   4.078  12.222 -0.1856 -0.2330  0.6704
  431MPD2    C2 6478   1.789   3.944  12.197 -0.3359 -0.4099  0.1067
  431MPD2    C3 6479   1.697   3.845  12.210 -0.7862  0.0059 -0.4614
  431MPD2    C4 6480   1.571   3.876  12.253  0.9890  0.3679  0.1163
  431MPD2    C5 6481   1.533   4.006  12.270 -0.6286  0.9553 -0.5223
  431MPD2     H 6482   1.893   3.922  12.175 -0.4378 -0.4364 -0.3325
  431MPD2    H1 6483   1.485   3.811  12.272  1.1290  0.3300  0.6381
  431MPD2    H2 6484   1.576   4.206  12.285 -0.0489  0.8881 -1.6902
  431MPD2    H3 6485   1.430   4.016  12.302  0.0379 -0.1622  1.9559
  431MPD2     N 6486   1.724   3.710  12.172 -0.0719 -0.6018 -0.0482
  431MPD2    H5 6487   1.649   3.641  12.176 -2.0189  1.5563  0.2071
  431MPD2    N1 6488   1.846   4.178  12.197 -0.3391  0.4399 -0.5283
  431MPD2    H7 6489   1.935   4.148  12.157  0.1816  1.5993 -0.2374
  432TMC3    C1 6490   1.846   3.532  12.072 -0.1796 -0.3342 -0.1548
  432TMC3    C2 6491   1.946   3.488  11.992 -0.2449  0.2587 -0.1579
  432TMC3    C3 6492   1.960   3.351  11.968 -0.0920  0.8531 -0.3966
  432TMC3    C4 6493   1.755   3.447  12.132  0.5012 -0.0091  0.2953
  432TMC3    C5 6494   1.776   3.318  12.109  0.4155 -0.9318  0.0069
  432TMC3    C6 6495   1.870   3.262  12.028  0.5653 -0.2073  0.4423
  432TMC3     C 6496   1.841   3.676  12.102 -0.4518  0.3336  0.0638
  432TMC3     O 6497   1.937   3.742  12.068  0.2300 -0.3783 -0.2572
  432TMC3     H 6498   2.022   3.557  11.955  1.1402 -1.0970  0.1918
  432TMC3    H1 6499   1.672   3.482  12.192  0.9157 -0.9754  1.4182
  432TMC3    H2 6500   1.883   3.154  12.026 -1.2708 -0.4153 -0.2746
  432TMC3    C7 6501   1.688   3.224  12.177 -0.0926  0.6194  0.5361
  432TMC3    C8 6502   2.066   3.307  11.885 -0.0279 -0.0724  0.0881
  432TMC3    O1 6503   1.672   3.116  12.123  0.0510 -0.0196 -0.2943
  432TMC3    O2 6504   2.159   3.381  11.878  0.1979  0.7955 -0.1117
  433MPD2     C 6505   0.443   2.686  10.906 -0.0881 -0.3162 -0.4112
  433MPD2    C1 6506   0.376   2.604  11.003 -0.2333  1.0276 -0.7243
  433MPD2    C2 6507   0.432   2.590  11.125  0.3591  0.5738 -0.7623
  433MPD2    C3 6508   0.535   2.678  11.163 -0.1940  1.2136 -0.0699
  433MPD2    C4 6509   0.585   2.775  11.077  0.0148 -0.1975 -0.2722
  433MPD2    C5 6510   0.550   2.767  10.945  1.0454 -0.0120 -0.5048
  433MPD2     H 6511   0.393   2.518  11.196  2.1362 -0.2605 -0.6489
  433MPD2    H1 6512   0.664   2.848  11.092 -2.1284  1.7872  1.3557
  433MPD2    H2 6513   0.409   2.675  10.804 -0.2991 -0.9641 -0.2723
  433MPD2    H3 6514   0.596   2.835  10.874  0.3577  1.1123  0.1181
  433MPD2     N 6515   0.576   2.678  11.300 -0.2887  0.4532  0.5569
  433MPD2    H5 6516   0.536   2.606  11.359 -0.4743 -0.6540 -0.9228
  433MPD2    N1 6517   0.273   2.519  10.960 -0.3060  0.6211  0.6156
  433MPD2    H7 6518   0.256   2.520  10.860  0.6012  1.5875  0.4819
  434TMC3    C1 6519   0.121   2.347  10.965 -0.0001 -0.7030 -0.2437
  434TMC3    C2 6520   0.208   2.248  10.934 -0.1113  0.1363 -0.0026
  434TMC3    C3 6521   0.156   2.116  10.939 -0.3244 -0.2620  0.2217
  434TMC3    C4 6522   4.727   2.323  10.995 -0.5030 -0.7153 -0.1739
  434TMC3    C5 6523   4.683   2.194  10.980  0.1649 -0.1117 -0.0622
  434TMC3    C6 6524   0.022   2.089  10.953 -0.3357  0.6525  0.1538
  434TMC3     C 6525   0.177   2.455  11.038  0.0870 -0.7646 -0.3024
  434TMC3     O 6526   0.159   2.455  11.159 -0.1531  0.2811 -0.0312
  434TMC3     H 6527   0.313   2.259  10.956  0.0058 -1.7103  0.3519
  434TMC3    H1 6528   4.672   2.407  11.036 -1.1378 -1.5777  0.7592
  434TMC3    H2 6529   4.725   1.987  10.965  0.8067  0.2691  0.1576
  434TMC3    C7 6530   4.556   2.201  10.905 -0.3450 -0.8163  0.6336
  434TMC3    C8 6531   0.247   2.011  10.982 -0.3492 -0.9451  0.1941
  434TMC3    O1 6532   4.522   2.306  10.861 -0.2766  0.3789 -0.1779
  434TMC3    O2 6533   0.198   1.918  11.041  0.1987 -0.4797  0.7207
  435MPD2     C 6534   2.464   2.418  15.184  0.3067 -0.6083 -0.3145
  435MPD2    C1 6535   2.435   2.451  15.315 -0.1958 -0.6161  0.2190
  435MPD2    C2 6536   2.536   2.422  15.410  0.2870  0.4034 -0.6775
  435MPD2    C3 6537   2.653   2.357  15.381 -0.2462  0.2596  0.1497
  435MPD2    C4 6538   2.669   2.324  15.254 -0.5215 -0.8351  0.1228
  435MPD2    C5 6539   2.583   2.354  15.157 -0.3261  0.0321  0.0164
  435MPD2     H 6540   2.520   2.442  15.516  0.6787  1.5496 -0.8367
  435MPD2    H1 6541   2.759   2.273  15.220 -0.8148 -0.7659 -0.7553
  435MPD2    H2 6542   2.394   2.433  15.103  0.3407  2.3485  0.2221
  435MPD2    H3 6543   2.612   2.323  15.057  0.4562  0.0445  0.2408
  435MPD2     N 6544   2.740   2.322  15.486 -0.1142  0.1491  0.5602
  435MPD2    H5 6545   2.714   2.354  15.579 -1.3158  0.3166  0.1699
  435MPD2    N1 6546   2.315   2.513  15.356  0.3697 -0.0754  0.3703
  435MPD2    H7 6547   2.300   2.547  15.450  0.0644  0.4552  0.1323
  436TMC3    C1 6548   2.029   2.645  15.568 -0.5417 -0.0417 -0.2440
  436TMC3    C2 6549   2.133   2.643  15.471  0.8083 -0.7505  0.6526
  436TMC3    C3 6550   2.099   2.591  15.351  0.3781  0.7035  0.4218
  436TMC3    C4 6551   1.901   2.593  15.551 -0.1928  0.4630  0.1418
  436TMC3    C5 6552   1.881   2.534  15.425  0.6942 -0.1150 -0.6928
  436TMC3    C6 6553   1.982   2.524  15.330  0.3953  0.6478 -0.4298
  436TMC3     C 6554   2.034   2.743  15.673  0.6867 -0.4419 -0.6356
  436TMC3     O 6555   2.113   2.830  15.640 -0.0458 -0.1795 -0.4392
  436TMC3     H 6556   2.218   2.707  15.494  0.5624 -0.2118  0.0527
  436TMC3    H1 6557   1.821   2.601  15.624 -0.4638  0.6656 -0.1810
  436TMC3    H2 6558   1.983   2.466  15.239 -1.6877  0.4782 -0.3439
  436TMC3    C7 6559   1.757   2.456  15.424  0.1422  0.3061  0.5979
  436TMC3    C8 6560   2.208   2.534  15.275 -0.2744  0.3454 -0.4989
  436TMC3    O1 6561   1.716   2.422  15.536  0.5025 -0.3253  0.8830
  436TMC3    O2 6562   2.196   2.490  15.162  0.7966  0.3313  0.0304
  437TMC3    C1 6563   0.893   0.508  12.508  0.0123 -0.2862 -0.0230
  437TMC3    C2 6564   0.842   0.515  12.390 -0.2058  0.2245  0.0893
  437TMC3    C3 6565   0.920   0.511  12.279 -0.6183 -0.5012  0.0473
  437TMC3    C4 6566   1.021   0.475  12.525  1.0277 -0.1867  0.1053
  437TMC3    C5 6567   1.099   0.448  12.416  0.5126  0.6420  0.7186
  437TMC3    C6 6568   1.050   0.473  12.288 -0.1060 -0.3282  0.1372
  437TMC3     C 6569   0.812   0.489  12.623  0.7187  0.8830  0.7388
  437TMC3     O 6570   0.844   0.397  12.698  0.1606 -0.1141 -0.3176
  437TMC3     H 6571   0.734   0.527  12.383 -0.0657  0.5924 -1.5709
  437TMC3    H1 6572   1.050   0.458  12.628 -0.8089 -2.1341  0.2940
  437TMC3    H2 6573   1.120   0.466  12.205  3.7816  1.7348  3.1999
  437TMC3    C7 6574   1.235   0.408  12.438  0.2867  0.3233 -1.1337
  437TMC3    C8 6575   0.854   0.481  12.158 -0.0980  0.4765 -0.2724
  437TMC3    O1 6576   1.292   0.433  12.544  0.2515 -0.2585 -0.1302
  437TMC3    O2 6577   0.742   0.530  12.154 -0.3080  0.8799 -0.2341
  438MPD2     C 6578   3.537   0.946  16.908 -0.4986  0.2907 -0.5162
  438MPD2    C1 6579   3.604   0.836  16.956  0.5853  0.6565 -0.3146
  438MPD2    C2 6580   3.595   0.814  17.095  0.3915  1.4395  0.0679
  438MPD2    C3 6581   3.532   0.906  17.182  0.2621  0.1071 -0.3313
  438MPD2    C4 6582   3.477   1.015  17.130  0.2861 -0.1040 -0.5083
  438MPD2    C5 6583   3.485   1.034  16.993 -0.0738  0.2834  0.3644
  438MPD2     H 6584   3.632   0.719  17.131 -2.5995  0.7493  1.2710
  438MPD2    H1 6585   3.440   1.098  17.189 -1.0537 -1.7891  1.0287
  438MPD2    H2 6586   3.534   0.960  16.801  0.5237  0.6436 -0.5061
  438MPD2    H3 6587   3.430   1.119  16.955 -0.1965  0.3967  0.7970
  438MPD2     N 6588   3.523   0.882  17.324 -0.7486  0.2402  0.2188
  438MPD2    H5 6589   3.464   0.952  17.368  1.1904  1.4091  0.9825
  438MPD2    N1 6590   3.654   0.734  16.877 -0.2477 -0.0964  0.6479
  438MPD2    H7 6591   3.696   0.658  16.929 -0.4238 -0.2902  0.5060
  439TMC3    C1 6592   3.745   0.625  16.700 -0.2117 -0.0863  0.1383
  439TMC3    C2 6593   3.713   0.581  16.571 -0.4227 -0.7267  0.3003
  439TMC3    C3 6594   3.815   0.508  16.514 -0.4088 -0.3225  0.0642
  439TMC3    C4 6595   3.863   0.610  16.760 -0.4639  0.0308 -0.1443
  439TMC3    C5 6596   3.960   0.540  16.695  0.1854 -0.5352  0.4658
  439TMC3    C6 6597   3.937   0.493  16.568 -0.5032  0.3964 -0.3497
  439TMC3     C 6598   3.652   0.728  16.739 -0.2027 -0.2359  0.4081
  439TMC3     O 6599   3.593   0.788  16.653  0.1817 -0.3692 -0.2487
  439TMC3     H 6600   3.615   0.584  16.524 -0.7453  0.2441  1.0409
  439TMC3    H1 6601   3.879   0.662  16.854 -1.5328  1.1634 -0.5834
  439TMC3    H2 6602   4.001   0.419  16.521  0.1749  1.6960 -1.4840
  439TMC3    C7 6603   4.091   0.528  16.753  0.0091  0.4206 -0.0028
  439TMC3    C8 6604   3.768   0.413  16.411  0.0275  0.7605  0.1149
  439TMC3    O1 6605   4.096   0.512  16.874  0.1748 -0.8752  0.2044
  439TMC3    O2 6606   3.816   0.301  16.421  0.3610  0.1388  0.2604
  440MPD2     C 6607   2.162   1.062  14.643  0.0275  0.2469 -0.0018
  440MPD2    C1 6608   2.252   1.151  14.700 -0.3600 -0.2963  0.3705
  440MPD2    C2 6609   2.377   1.100  14.726  0.1005 -0.4767  0.1091
  440MPD2    C3 6610   2.413   0.970  14.697  0.1140  0.3845 -0.4273
  440MPD2    C4 6611   2.319   0.885  14.638  0.0384  0.7516 -0.4366
  440MPD2    C5 6612   2.195   0.934  14.605 -0.4797  0.5898  0.2969
  440MPD2     H 6613   2.447   1.164  14.777 -0.1000 -0.0764 -0.1194
  440MPD2    H1 6614   2.348   0.781  14.633  0.9216  0.9409  0.6190
  440MPD2    H2 6615   2.058   1.093  14.632  0.3681  1.2123 -0.4130
  440MPD2    H3 6616   2.116   0.875  14.560 -1.0424  0.3452  1.6224
  440MPD2     N 6617   2.536   0.918  14.743  0.0636 -0.4899  0.2218
  440MPD2    H5 6618   2.545   0.817  14.734 -2.4102 -0.6406 -0.6764
  440MPD2    N1 6619   2.211   1.270  14.761 -0.3635 -0.0988  0.2996
  440MPD2    H7 6620   2.281   1.304  14.827 -1.1557  1.5212  0.3097
  441TMC3    C1 6621   2.762   0.919  14.850  0.3113  0.1756 -0.3411
  441TMC3    C2 6622   2.864   1.011  14.861  0.2946  0.4651  0.0482
  441TMC3    C3 6623   2.951   0.996  14.964 -0.3763 -0.2275 -0.1626
  441TMC3    C4 6624   2.749   0.819  14.948 -0.0985 -0.4729  0.2697
  441TMC3    C5 6625   2.860   0.798  15.027 -0.7621  1.2576  0.1314
  441TMC3    C6 6626   2.969   0.876  15.028  0.0463  0.0693 -0.0475
  441TMC3     C 6627   2.640   0.994  14.801  0.0453 -0.2672 -0.6873
  441TMC3     O 6628   2.649   1.116  14.812  0.2536  0.2217 -0.0498
  441TMC3     H 6629   2.869   1.100  14.800 -0.1790  0.2150 -0.3626
  441TMC3    H1 6630   2.664   0.751  14.948 -1.8174  1.6823 -1.2998
  441TMC3    H2 6631   3.029   0.872  15.119 -2.5447 -0.1922  1.6482
  441TMC3    C7 6632   2.856   0.677  15.112 -0.6405 -0.0815 -0.3914
  441TMC3    C8 6633   2.934   1.102  15.063  0.0301  0.6775  0.5497
  441TMC3    O1 6634   2.749   0.650  15.163  0.0455 -0.0054  0.0829
  441TMC3    O2 6635   3.022   1.112  15.148  0.5682  0.1293 -0.0952
  442MPD2     C 6636   0.517   1.633  16.235  0.3950  0.0195  0.2343
  442MPD2    C1 6637   0.450   1.550  16.321  0.2810 -0.5552  0.0983
  442MPD2    C2 6638   0.453   1.413  16.304 -1.0627  0.9007 -0.0463
  442MPD2    C3 6639   0.529   1.355  16.205  0.1161  0.1011 -1.1009
  442MPD2    C4 6640   0.605   1.440  16.140 -1.0768  0.3159 -0.6331
  442MPD2    C5 6641   0.593   1.578  16.138  0.0221 -0.4001  0.4476
  442MPD2     H 6642   0.389   1.348  16.364 -0.0211 -0.5539 -0.5219
  442MPD2    H1 6643   0.662   1.390  16.062 -0.4229  0.3345 -0.1642
  442MPD2    H2 6644   0.520   1.740  16.246 -1.6224  0.1018 -0.0586
  442MPD2    H3 6645   0.663   1.639  16.083  1.1650  0.3354  2.7178
  442MPD2     N 6646   0.551   1.217  16.183  0.7047 -0.1239  0.3668
  442MPD2    H5 6647   0.622   1.194  16.114  2.6919 -0.9775  2.6582
  442MPD2    N1 6648   0.381   1.592  16.441 -0.9682 -0.2613  0.1169
  442MPD2    H7 6649   0.355   1.519  16.506 -0.6683 -1.6154 -1.2638
  443TMC3    C1 6650   0.259   1.744  16.582  0.5920 -0.5640 -0.3384
  443TMC3    C2 6651   0.172   1.839  16.532  0.1560 -0.6686  0.2498
  443TMC3    C3 6652   0.044   1.834  16.565 -0.1279  0.5404 -0.4743
  443TMC3    C4 6653   0.225   1.646  16.672  0.6529  0.3402  0.5130
  443TMC3    C5 6654   0.095   1.657  16.721  0.1580  0.7432  0.0374
  443TMC3    C6 6655   0.001   1.749  16.670  0.1268 -0.5061  0.0378
  443TMC3     C 6656   0.365   1.721  16.484  0.1435 -0.1836  0.1618
  443TMC3     O 6657   0.412   1.821  16.432  0.0993 -0.4027 -0.0689
  443TMC3     H 6658   0.208   1.921  16.470 -2.8423  0.6384  0.2435
  443TMC3    H1 6659   0.307   1.586  16.711  0.3552  0.7915  1.8457
  443TMC3    H2 6660   4.632   1.731  16.687 -0.4047  1.2945 -1.3592
  443TMC3    C7 6661   0.045   1.557  16.811 -0.0051  0.4563  0.1490
  443TMC3    C8 6662   4.695   1.940  16.524 -0.0812  0.8322 -0.0891
  443TMC3    O1 6663   4.676   1.579  16.863 -0.2286  0.8042 -0.0288
  443TMC3    O2 6664   4.627   1.986  16.612  0.1569 -0.2081  0.2319
  444MPD2     C 6665   0.645   1.004  16.711  0.3393  0.1266 -0.3995
  444MPD2    C1 6666   0.617   0.883  16.769  0.6385 -0.2543  0.7817
  444MPD2    C2 6667   0.668   0.771  16.710 -0.0682  0.7895  0.4554
  444MPD2    C3 6668   0.753   0.785  16.600 -0.4295 -0.4980 -0.2575
  444MPD2    C4 6669   0.772   0.913  16.538 -0.0557 -0.3578 -0.3602
  444MPD2    C5 6670   0.703   1.019  16.586  0.1191  0.5158 -0.4617
  444MPD2     H 6671   0.656   0.671  16.750 -1.4767  0.7611 -0.0144
  444MPD2    H1 6672   0.834   0.930  16.450 -0.3770 -0.6582 -0.6434
  444MPD2    H2 6673   0.593   1.093  16.746  0.0634 -0.5573  0.9334
  444MPD2    H3 6674   0.704   1.116  16.537  0.2543  0.1116 -1.2539
  444MPD2     N 6675   0.826   0.672  16.559  0.3393  0.3664  0.1603
  444MPD2    H5 6676   0.796   0.580  16.590  3.1992 -0.7439 -0.3419
  444MPD2    N1 6677   0.547   0.858  16.892  0.1694 -0.1389  0.4635
  444MPD2    H7 6678   0.523   0.764  16.921  2.9796 -0.7536  0.7496
  445TMC3    C1 6679   0.961   0.540  16.417 -0.5885 -0.1130 -0.6596
  445TMC3    C2 6680   0.863   0.463  16.355 -0.1131 -0.2734 -0.0734
  445TMC3    C3 6681   0.901   0.340  16.313  0.7759 -0.1339 -0.3364
  445TMC3    C4 6682   1.087   0.501  16.431 -0.2273 -0.1010  0.1030
  445TMC3    C5 6683   1.121   0.372  16.393 -0.0606  0.5400  0.5143
  445TMC3    C6 6684   1.028   0.293  16.336 -0.3566 -0.7863  0.4686
  445TMC3     C 6685   0.938   0.679  16.473  0.0572 -0.3339  0.0319
  445TMC3     O 6686   1.018   0.768  16.442  0.4236 -0.0628  0.1270
  445TMC3     H 6687   0.764   0.504  16.342 -0.9427 -2.1038  0.3843
  445TMC3    H1 6688   1.162   0.574  16.459 -1.1674  0.9612 -0.1537
  445TMC3    H2 6689   1.060   0.206  16.280 -0.5127 -2.0784  2.3850
  445TMC3    C7 6690   1.264   0.337  16.395  0.1007  0.6360  0.0068
  445TMC3    C8 6691   0.805   0.266  16.235  0.2276  0.3609  0.1087
  445TMC3    O1 6692   1.344   0.430  16.393 -0.5706  0.8235 -0.3541
  445TMC3    O2 6693   0.704   0.328  16.204  0.3131 -0.0754 -1.1326
  446MPD2     C 6694   0.203   1.858  11.516  0.2889  0.1864 -0.3209
  446MPD2    C1 6695   0.172   1.917  11.395 -0.2398 -1.0333 -0.1169
  446MPD2    C2 6696   0.262   2.015  11.346  0.2126 -0.0678 -0.1395
  446MPD2    C3 6697   0.373   2.054  11.413  0.0014  0.0863  0.3130
  446MPD2    C4 6698   0.394   1.998  11.536 -0.4432  0.2165  0.1223
  446MPD2    C5 6699   0.316   1.901  11.582  0.2718  0.5934  0.5371
  446MPD2     H 6700   0.231   2.062  11.254  0.0160  0.4075  0.1718
  446MPD2    H1 6701   0.469   2.025  11.610 -1.0636 -0.6372  1.0740
  446MPD2    H2 6702   0.135   1.789  11.565  2.7702 -1.3061  1.0565
  446MPD2    H3 6703   0.340   1.863  11.681  1.4395  0.3677  0.1672
  446MPD2     N 6704   0.471   2.136  11.356  0.4578  0.2552  0.7236
  446MPD2    H5 6705   0.456   2.169  11.261  0.7291 -0.5237  0.4086
  446MPD2    N1 6706   0.051   1.888  11.327 -0.1876  0.4965  0.1855
  446MPD2    H7 6707   0.035   1.945  11.244  0.1709 -0.5686 -0.6220
  447TMC3    C1 6708   0.695   2.210  11.294 -0.9748 -0.1422 -0.1351
  447TMC3    C2 6709   0.634   2.266  11.184 -0.0917 -0.4802 -0.4850
  447TMC3    C3 6710   0.716   2.280  11.081 -0.8160 -0.1039  0.2085
  447TMC3    C4 6711   0.828   2.179  11.300 -0.0800  0.0552  0.0470
  447TMC3    C5 6712   0.903   2.199  11.189 -0.3371 -0.5365  0.2871
  447TMC3    C6 6713   0.850   2.246  11.071 -0.0631 -0.7002  0.0412
  447TMC3     C 6714   0.606   2.144  11.390 -0.1255  0.0447  0.2669
  447TMC3     O 6715   0.655   2.105  11.494 -0.4362 -0.0028 -0.3555
  447TMC3     H 6716   0.531   2.296  11.173 -0.2081 -0.6273  0.1933
  447TMC3    H1 6717   0.864   2.124  11.386 -1.2170 -0.1127  0.4289
  447TMC3    H2 6718   0.900   2.245  10.975 -0.4689 -0.0798 -0.1747
  447TMC3    C7 6719   1.035   2.143  11.196 -0.0832  0.2884 -0.3116
  447TMC3    C8 6720   0.651   2.325  10.954 -0.1930 -0.0689  0.0606
  447TMC3    O1 6721   1.091   2.117  11.091  0.0130  0.4581 -0.3406
  447TMC3    O2 6722   0.542   2.280  10.944  0.0436  0.6285 -0.0244
  448TMC3    C1 6723   3.315   2.161  17.127  0.2032  0.2062 -0.5599
  448TMC3    C2 6724   3.322   2.091  17.012 -0.4463  0.1185  0.3037
  448TMC3    C3 6725   3.446   2.046  16.971 -0.4639  0.2983 -0.4294
  448TMC3    C4 6726   3.429   2.199  17.194  0.3071 -0.1516 -0.2919
  448TMC3    C5 6727   3.549   2.150  17.155 -0.4214 -0.0026  0.6040
  448TMC3    C6 6728   3.562   2.082  17.037 -0.0971 -0.0521 -0.3552
  448TMC3     C 6729   3.208   2.261  17.128 -0.2971 -0.4376  0.3988
  448TMC3     O 6730   3.164   2.279  17.014  0.2269  0.1181 -0.5172
  448TMC3     H 6731   3.231   2.058  16.963  0.1203  0.3606 -0.9015
  448TMC3    H1 6732   3.432   2.274  17.272 -0.9173  0.9224 -1.2775
  448TMC3    H2 6733   3.657   2.038  17.010  0.2570  1.6516 -1.8840
  448TMC3    C7 6734   3.634   2.118  17.261  0.3499 -0.1724 -0.0677
  448TMC3    C8 6735   3.454   1.927  16.895 -0.1622 -0.2693  0.2021
  448TMC3    O1 6736   3.748   2.089  17.225  0.0278 -0.0473 -0.1026
  448TMC3    O2 6737   3.557   1.862  16.925  0.2101  0.2397  0.3536
  449MPD2     C 6738   4.643   0.599  13.387  0.2390 -0.0095 -0.0259
  449MPD2    C1 6739   4.639   0.604  13.521  0.1440  0.0838 -0.8787
  449MPD2    C2 6740   4.718   0.511  13.591 -0.7113 -0.3723  0.2546
  449MPD2    C3 6741   0.058   0.417  13.524 -0.0154  0.1903 -0.2017
  449MPD2    C4 6742   0.077   0.430  13.392  0.0850 -0.4699 -0.1009
  449MPD2    C5 6743   0.005   0.523  13.325 -0.4774 -0.1267  0.0210
  449MPD2     H 6744   4.726   0.521  13.698 -1.1098  0.7837  0.1762
  449MPD2    H1 6745   0.135   0.369  13.324 -1.5663 -0.7792 -1.2489
  449MPD2    H2 6746   4.589   0.666  13.322 -0.0564 -0.6490 -0.4433
  449MPD2    H3 6747   0.010   0.513  13.217 -1.0566 -0.3902  0.0195
  449MPD2     N 6748   0.129   0.331  13.602  0.5091 -0.1332  0.2841
  449MPD2    H5 6749   0.113   0.327  13.702  0.9438 -0.3974  0.3452
  449MPD2    N1 6750   4.557   0.692  13.599  0.0286  0.3270 -0.0882
  449MPD2    H7 6751   4.561   0.679  13.700 -1.2225  0.1836 -0.0635
  450TMC3    C1 6752   4.512   0.910  13.654 -1.0196 -0.6811  0.3075
  450TMC3    C2 6753   4.590   1.026  13.626 -0.2801 -0.3246 -0.2601
  450TMC3    C3 6754   4.655   1.092  13.727  0.5683  0.3735  0.0856
  450TMC3    C4 6755   4.513   0.862  13.777  0.5669 -0.1442 -0.0442
  450TMC3    C5 6756   4.602   0.917  13.865  0.5591 -0.4345 -0.4883
  450TMC3    C6 6757   4.668   1.038  13.850 -0.8869 -0.6586 -0.0216
  450TMC3     C 6758   4.522   0.811  13.553 -0.0566  0.2332  0.2443
  450TMC3     O 6759   4.526   0.853  13.440 -0.3123 -0.0374 -0.0719
  450TMC3     H 6760   4.591   1.068  13.526  0.9442 -1.7615 -0.8493
  450TMC3    H1 6761   4.445   0.786  13.814  2.1314 -0.9077  1.2394
  450TMC3    H2 6762   4.732   1.090  13.920  0.8980  0.1421 -2.2385
  450TMC3    C7 6763   4.666   0.806  13.927  0.0832 -0.1123 -0.6958
  450TMC3    C8 6764   0.010   1.192  13.673 -0.3078 -0.1397 -0.1389
  450TMC3    O1 6765   4.648   0.699  13.870 -0.2609 -0.6213 -0.2076
  450TMC3    O2 6766   0.017   1.297  13.740  0.6666  0.3377  0.3992
  451MPD2     C 6767   1.610   4.121   0.827  0.7054  0.5352 -0.6200
  451MPD2    C1 6768   1.515   4.029   0.809 -0.0161  0.0636 -0.0725
  451MPD2    C2 6769   1.548   3.899   0.779  0.6302  0.3193 -0.6778
  451MPD2    C3 6770   1.677   3.859   0.764 -0.1377  0.4371  0.4957
  451MPD2    C4 6771   1.773   3.959   0.783 -0.1159 -0.8255 -0.1083
  451MPD2    C5 6772   1.742   4.081   0.829 -0.1283  0.2952 -0.0989
  451MPD2     H 6773   1.469   3.829   0.753 -0.3409  0.9976  0.4697
  451MPD2    H1 6774   1.879   3.939   0.780  0.2205  0.8787  0.6826
  451MPD2    H2 6775   1.588   4.224   0.851  0.4097  0.4721 -0.6188
  451MPD2    H3 6776   1.818   4.156   0.845  0.6538 -0.2195 -1.3478
  451MPD2     N 6777   1.720   3.728   0.714  0.3675  1.3733  1.2488
  451MPD2    H5 6778   1.818   3.720   0.689 -0.0636 -0.3476  0.0858
  451MPD2    N1 6779   1.384   4.072   0.829 -0.7709 -0.1307 -0.3891
  451MPD2    H7 6780   1.356   4.169   0.824 -2.9470 -0.6667  1.6118
  452TMC3    C1 6781   1.697   3.517   0.612 -0.7379  0.7007 -0.3567
  452TMC3    C2 6782   1.624   3.407   0.605 -0.2349 -0.9487  0.8705
  452TMC3    C3 6783   1.597   3.358   0.481 -0.1758  0.4355  0.1701
  452TMC3    C4 6784   1.759   3.567   0.503  0.6586  0.3394 -0.1063
  452TMC3    C5 6785   1.732   3.515   0.383 -0.1249 -0.4925 -0.6377
  452TMC3    C6 6786   1.646   3.412   0.365  0.7681  0.4480 -0.5168
  452TMC3     C 6787   1.636   3.623   0.690  0.1883  0.7794 -0.0926
  452TMC3     O 6788   1.520   3.612   0.726  0.1030 -0.2301  0.2200
  452TMC3     H 6789   1.576   3.368   0.694 -1.2434  1.0080  1.1892
  452TMC3    H1 6790   1.820   3.656   0.514  3.2186 -1.5650  1.2240
  452TMC3    H2 6791   1.609   3.381   0.268  0.8686 -0.6186 -0.2082
  452TMC3    C7 6792   1.789   3.594   0.272  0.3207  0.1879 -1.0824
  452TMC3    C8 6793   1.470   3.283   0.469  0.3999  0.2305 -0.3670
  452TMC3    O1 6794   1.724   3.611   0.174 -0.2862  0.0032  0.4405
  452TMC3    O2 6795   1.423   3.303   0.363  0.0612 -0.0578  0.0688
  453TMC3    C1 6796   2.238   0.870  12.115  0.2578  0.2880  0.3612
  453TMC3    C2 6797   2.194   0.741  12.125 -0.8667 -0.1169  0.2799
  453TMC3    C3 6798   2.063   0.729  12.164 -0.2634 -0.1048 -0.2828
  453TMC3    C4 6799   2.166   0.981  12.148 -0.0755 -0.0247  0.3381
  453TMC3    C5 6800   2.036   0.961  12.204 -0.3496  0.2158  0.2965
  453TMC3    C6 6801   1.991   0.839  12.208 -0.1050  0.3358 -0.6300
  453TMC3     C 6802   2.385   0.897  12.124 -0.0370 -0.3149 -0.6232
  453TMC3     O 6803   2.416   1.012  12.096 -0.5920  0.5281 -0.6998
  453TMC3     H 6804   2.255   0.661  12.086 -1.7823 -1.2863  1.2403
  453TMC3    H1 6805   2.202   1.083  12.144 -0.7238  0.2204  0.7792
  453TMC3    H2 6806   1.890   0.825  12.246  0.5178 -0.1967  0.8549
  453TMC3    C7 6807   1.953   1.076  12.225 -0.1407  0.1054  0.5547
  453TMC3    C8 6808   1.989   0.609  12.141  0.1472 -0.9354 -0.2484
  453TMC3    O1 6809   1.984   1.169  12.150 -0.1744 -0.5348 -0.5713
  453TMC3    O2 6810   1.887   0.598  12.208 -0.0077 -0.2584  0.1949
  454MPD2     C 6811   1.655   0.589  15.951  0.1474  0.4241 -0.1354
  454MPD2    C1 6812   1.571   0.640  15.850 -0.2479 -0.0882 -0.5318
  454MPD2    C2 6813   1.525   0.767  15.863 -0.3653  0.3859 -0.4785
  454MPD2    C3 6814   1.555   0.843  15.969  0.5512  1.0399 -0.5188
  454MPD2    C4 6815   1.640   0.796  16.064  0.4807  0.4244 -0.4131
  454MPD2    C5 6816   1.691   0.673  16.050 -1.0569  0.4349  0.4810
  454MPD2     H 6817   1.469   0.813  15.782 -2.2608 -0.2826  0.4379
  454MPD2    H1 6818   1.653   0.847  16.159 -2.1672  0.0631  0.1306
  454MPD2    H2 6819   1.691   0.488  15.962 -2.6179 -0.5016  0.3286
  454MPD2    H3 6820   1.747   0.629  16.132  0.4986 -0.3247 -0.9849
  454MPD2     N 6821   1.492   0.969  15.990 -0.4819 -0.6012 -0.2769
  454MPD2    H5 6822   1.506   1.006  16.083  0.0921  0.6159 -0.8444
  454MPD2    N1 6823   1.508   0.565  15.750  0.1456  0.0045 -0.8270
  454MPD2    H7 6824   1.454   0.614  15.679 -1.9574 -0.0614  0.7336
  455TMC3    C1 6825   1.268   1.009  15.998  0.5774  0.2970 -0.1790
  455TMC3    C2 6826   1.253   1.101  16.099  0.1471  0.5710  0.9930
  455TMC3    C3 6827   1.157   1.074  16.193 -0.1197  0.0442 -0.2118
  455TMC3    C4 6828   1.227   0.884  16.006  0.3454  0.4602 -0.2140
  455TMC3    C5 6829   1.139   0.864  16.107  0.5517 -0.8985  0.3648
  455TMC3    C6 6830   1.096   0.952  16.200 -0.5514  0.3543  0.1253
  455TMC3     C 6831   1.384   1.014  15.915  0.0684  0.0267  0.0935
  455TMC3     O 6832   1.353   1.002  15.796 -0.4424  0.2096 -0.2805
  455TMC3     H 6833   1.286   1.203  16.083  1.3604  0.1890  1.0270
  455TMC3    H1 6834   1.238   0.815  15.923  0.3526 -1.6809  1.5690
  455TMC3    H2 6835   0.999   0.925  16.241  0.9381 -0.9210  2.7861
  455TMC3    C7 6836   1.103   0.725  16.118 -0.2119  0.1203 -0.0183
  455TMC3    C8 6837   1.077   1.189  16.236 -0.0852 -0.5587 -0.3111
  455TMC3    O1 6838   0.989   0.690  16.134  0.4450  0.1953 -0.9238
  455TMC3    O2 6839   1.045   1.275  16.155 -0.1717 -0.5909  0.7650
  456MPD2     C 6840   3.834   0.738  16.151 -0.0078  0.3395  0.2602
  456MPD2    C1 6841   3.930   0.723  16.244  0.4651 -0.4443 -0.2314
  456MPD2    C2 6842   3.928   0.791  16.358  0.2684  0.1646 -0.9050
  456MPD2    C3 6843   3.822   0.874  16.388  0.8478  0.0058 -0.4959
  456MPD2    C4 6844   3.716   0.876  16.302  0.1809  0.3143  0.1127
  456MPD2    C5 6845   3.725   0.808  16.180  0.3291 -0.2064  0.1875
  456MPD2     H 6846   3.996   0.767  16.439 -0.8013  0.0062 -0.0558
  456MPD2    H1 6847   3.624   0.933  16.302 -0.8645 -1.3650  0.5343
  456MPD2    H2 6848   3.838   0.698  16.051  0.5924 -0.1564  0.4815
  456MPD2    H3 6849   3.637   0.804  16.117  0.6222  1.2409 -0.3239
  456MPD2     N 6850   3.822   0.953  16.506  0.2188 -0.7063  0.0643
  456MPD2    H5 6851   3.894   0.937  16.575 -0.4238 -1.7399  0.4807
  456MPD2    N1 6852   4.033   0.650  16.196  0.0121 -0.2238 -0.1658
  456MPD2    H7 6853   4.030   0.624  16.098 -0.3105 -2.6176  0.4926
  457TMC3    C1 6854   3.727   1.118  16.659 -0.1642 -0.0404  0.1082
  457TMC3    C2 6855   3.648   1.230  16.672 -0.2749  0.5869  0.2907
  457TMC3    C3 6856   3.644   1.296  16.790 -0.8678  0.0225 -0.3924
  457TMC3    C4 6857   3.813   1.089  16.763  0.1670 -0.0045  1.0232
  457TMC3    C5 6858   3.806   1.168  16.880 -0.2652  0.7954  0.6360
  457TMC3    C6 6859   3.716   1.265  16.900 -0.1201  0.0120 -0.2097
  457TMC3     C 6860   3.730   1.054  16.527 -0.8397  0.0232 -0.4305
  457TMC3     O 6861   3.652   1.111  16.449  0.3387 -0.3723  0.7205
  457TMC3     H 6862   3.600   1.261  16.580 -0.3770 -0.8414 -0.1362
  457TMC3    H1 6863   3.877   1.002  16.756  0.4510  0.3484 -0.9016
  457TMC3    H2 6864   3.710   1.331  16.985  1.1169  0.7445 -0.6924
  457TMC3    C7 6865   3.884   1.115  16.994 -0.0202 -0.1111  0.2506
  457TMC3    C8 6866   3.576   1.421  16.786  0.8962 -0.5410 -0.2597
  457TMC3    O1 6867   3.898   0.995  17.008 -0.4133 -0.5068 -0.4937
  457TMC3    O2 6868   3.599   1.498  16.879 -0.2593 -0.0334  0.7469
  458MPD2     C 6869   1.588   0.054  12.308  0.4312  0.2961 -0.4209
  458MPD2    C1 6870   1.597   0.170  12.382  0.3852 -0.3205  0.2682
  458MPD2    C2 6871   1.495   0.258  12.388 -0.1621 -0.1510  0.4371
  458MPD2    C3 6872   1.378   0.237  12.327  0.2090  0.1010 -0.5542
  458MPD2    C4 6873   1.362   0.123  12.247  0.3324  0.1213 -0.3839
  458MPD2    C5 6874   1.472   0.034  12.243 -0.2198 -0.3998 -0.0379
  458MPD2     H 6875   1.504   0.339  12.460 -3.1147 -0.1664  0.8067
  458MPD2    H1 6876   1.268   0.093  12.202 -0.2829 -0.2846  1.1623
  458MPD2    H2 6877   1.663   4.714  12.301 -1.5958 -1.6300 -0.6277
  458MPD2    H3 6878   1.441   4.677  12.200 -0.3523  0.1466 -1.1305
  458MPD2     N 6879   1.267   0.314  12.343  0.0333 -0.3683 -0.0163
  458MPD2    H5 6880   1.187   0.283  12.290 -0.8963 -1.7682  2.2174
  458MPD2    N1 6881   1.721   0.206  12.448 -0.1049  1.2319  0.3455
  458MPD2    H7 6882   1.741   0.303  12.467 -1.7519  2.0993 -2.3381
  459TMC3    C1 6883   1.912   0.152  12.568  0.0328 -0.0190  0.5232
  459TMC3    C2 6884   2.016   0.234  12.527 -0.2029  1.0887  0.2836
  459TMC3    C3 6885   2.129   0.244  12.607 -0.1192 -0.3679 -1.0071
  459TMC3    C4 6886   1.926   0.067  12.673  0.0593  0.6656  0.3270
  459TMC3    C5 6887   2.044   0.074  12.749  0.5545  0.0520  0.1465
  459TMC3    C6 6888   2.154   0.152  12.709  0.1783 -0.1747 -0.1378
  459TMC3     C 6889   1.820   0.113  12.465  0.2057 -0.0774 -0.3960
  459TMC3     O 6890   1.820   4.732  12.443  0.7043 -0.5842  0.2583
  459TMC3     H 6891   2.004   0.306  12.447  0.3987  2.3997  1.3661
  459TMC3    H1 6892   1.854   4.724  12.684  1.2409 -0.5098 -0.4464
  459TMC3    H2 6893   2.251   0.152  12.758  0.5028 -0.0176 -0.7887
  459TMC3    C7 6894   2.070   4.699  12.840 -0.0459  0.3576  0.5447
  459TMC3    C8 6895   2.234   0.324  12.562  0.0765  0.1973 -0.3453
  459TMC3    O1 6896   2.183   4.665  12.858 -0.0060  0.1396 -0.1157
  459TMC3    O2 6897   2.210   0.373  12.446 -0.3002 -0.0961  0.0662
  460MPD2     C 6898   0.704   2.588  10.709  0.2938  0.3986  0.3860
  460MPD2    C1 6899   0.661   2.467  10.757 -0.3547  0.2152  0.7815
  460MPD2    C2 6900   0.544   2.419  10.696 -0.1792 -0.6300 -0.6580
  460MPD2    C3 6901   0.489   2.488  10.587 -0.0212 -0.5085  0.9935
  460MPD2    C4 6902   0.543   2.609  10.537 -0.4895 -0.5565  0.0743
  460MPD2    C5 6903   0.657   2.655  10.604  0.0732  0.0205  1.1730
  460MPD2     H 6904   0.499   2.322  10.713  1.2149 -0.6253  3.0881
  460MPD2    H1 6905   0.491   2.673  10.465 -4.1643 -2.0705  1.3605
  460MPD2    H2 6906   0.792   2.636  10.753  0.9590 -1.6801  1.3057
  460MPD2    H3 6907   0.706   2.749  10.582 -0.8162 -0.6482 -3.6854
  460MPD2     N 6908   0.380   2.422  10.522  0.4908  0.6821  1.0086
  460MPD2    H5 6909   0.370   2.324  10.547  1.2332  0.3844  0.1410
  460MPD2    N1 6910   0.721   2.408  10.870 -0.4189  1.0357 -0.3959
  460MPD2    H7 6911   0.808   2.445  10.907  0.1190  0.5600 -1.1714
  461TMC3    C1 6912   0.190   2.386  10.391 -0.3502  0.2851  0.3048
  461TMC3    C2 6913   0.240   2.268  10.346  0.3646 -0.4644  0.4169
  461TMC3    C3 6914   0.184   2.200  10.241  1.0066  0.5712 -0.3335
  461TMC3    C4 6915   0.074   2.437  10.334  0.1599  0.2603 -0.0680
  461TMC3    C5 6916   0.021   2.369  10.229 -0.7536 -0.0372 -0.0331
  461TMC3    C6 6917   0.076   2.257  10.181 -0.3586  0.0486 -0.5231
  461TMC3     C 6918   0.287   2.483  10.441 -1.1015  0.1247 -0.3699
  461TMC3     O 6919   0.289   2.600  10.403  0.0250 -0.9672  0.7803
  461TMC3     H 6920   0.338   2.233  10.376  0.2528  0.1330  1.4651
  461TMC3    H1 6921   0.034   2.530  10.373  1.9761  0.8822  0.3415
  461TMC3    H2 6922   0.045   2.215  10.086 -0.8042 -0.2925 -0.2247
  461TMC3    C7 6923   4.675   2.448  10.138  0.3693 -0.8487 -0.6099
  461TMC3    C8 6924   0.277   2.128  10.149 -0.7016 -1.0979 -0.0290
  461TMC3    O1 6925   4.670   2.567  10.156  0.2385  0.4717 -0.2672
  461TMC3    O2 6926   0.397   2.141  10.174 -0.5011  0.0669 -0.6140
  462TMC3    C1 6927   0.361   3.768   0.189  0.4926  0.2098 -0.4835
  462TMC3    C2 6928   0.444   3.721   0.288  0.5178 -1.0348  0.5731
  462TMC3    C3 6929   0.552   3.646   0.256 -0.1298 -0.2190  0.1228
  462TMC3    C4 6930   0.366   3.724   0.064  0.5961 -0.8974  0.4602
  462TMC3    C5 6931   0.472   3.648   0.027 -0.3797 -0.0064 -0.4512
  462TMC3    C6 6932   0.566   3.611   0.122  0.3378 -0.4438  0.2752
  462TMC3     C 6933   0.257   3.860   0.225 -0.0080  0.3860  0.9291
  462TMC3     O 6934   0.150   3.849   0.164 -0.0502 -0.2059  0.1888
  462TMC3     H 6935   0.450   3.758   0.390 -1.3729 -0.2342  0.3917
  462TMC3    H1 6936   0.281   3.741  17.746  1.6175  0.9562 -0.3605
  462TMC3    H2 6937   0.631   3.528   0.099  0.0529 -1.1047  1.8912
  462TMC3    C7 6938   0.432   3.538  17.689 -0.1459  0.1309  0.1741
  462TMC3    C8 6939   0.665   3.629   0.356  0.3553 -0.6704  0.1291
  462TMC3    O1 6940   0.455   3.430  17.737  0.0799 -0.2058  0.7836
  462TMC3    O2 6941   0.643   3.646   0.475 -0.3095 -0.3136 -0.3299
  463MPD2     C 6942   2.342   1.548   0.891  0.1575  0.5259  0.5632
  463MPD2    C1 6943   2.325   1.681   0.896 -0.4932  0.1167  0.8189
  463MPD2    C2 6944   2.408   1.761   0.970  0.5810  0.3839 -0.3396
  463MPD2    C3 6945   2.515   1.715   1.044 -0.1663  0.3276  0.0585
  463MPD2    C4 6946   2.539   1.579   1.039 -0.0840  0.0192 -0.7405
  463MPD2    C5 6947   2.445   1.498   0.971  0.1977 -0.0403 -0.1216
  463MPD2     H 6948   2.381   1.866   0.973  0.8285  0.3916  1.5787
  463MPD2    H1 6949   2.637   1.544   1.071  0.7545  1.8284 -1.3132
  463MPD2    H2 6950   2.282   1.477   0.835 -0.0146 -0.5804  2.1411
  463MPD2    H3 6951   2.470   1.394   0.954 -0.6664  0.0191 -1.7872
  463MPD2     N 6952   2.601   1.788   1.124 -1.1388  0.2771 -0.5239
  463MPD2    H5 6953   2.681   1.742   1.166 -0.9905  1.0488  0.0519
  463MPD2    N1 6954   2.229   1.761   0.826 -0.1093 -0.3033  0.8774
  463MPD2    H7 6955   2.189   1.843   0.870 -0.2493 -0.4414  1.0072
  464TMC3    C1 6956   2.055   1.789   0.673  0.3374 -0.2758  0.0509
  464TMC3    C2 6957   2.040   1.912   0.726  0.1360  0.3083  0.0475
  464TMC3    C3 6958   1.918   1.967   0.686 -0.6839 -0.1752 -0.4226
  464TMC3    C4 6959   1.964   1.713   0.608 -0.1339  0.0222 -0.8512
  464TMC3    C5 6960   1.843   1.769   0.588 -0.5048 -0.5515  0.1872
  464TMC3    C6 6961   1.818   1.901   0.615 -0.4995 -0.1971  0.1345
  464TMC3     C 6962   2.169   1.705   0.718 -0.0533  0.5224 -0.3006
  464TMC3     O 6963   2.209   1.617   0.641 -0.1970  0.2979 -0.2628
  464TMC3     H 6964   2.120   1.965   0.776  0.7550 -0.5986  0.0001
  464TMC3    H1 6965   1.988   1.607   0.608  2.5713  0.6184  2.4720
  464TMC3    H2 6966   1.733   1.956   0.577 -0.1115  0.3092  0.0075
  464TMC3    C7 6967   1.729   1.693   0.535  0.1965 -0.7613  0.0326
  464TMC3    C8 6968   1.862   2.074   0.767  0.0388 -0.0000 -0.9756
  464TMC3    O1 6969   1.755   1.587   0.481 -0.6050  0.3931  0.3504
  464TMC3    O2 6970   1.770   2.128   0.709 -0.1388  0.2704 -0.0690
  465MPD2     C 6971   3.373   0.528  16.583 -0.0254 -0.4284  0.1295
  465MPD2    C1 6972   3.283   0.583  16.668 -1.1269 -0.3404  0.5802
  465MPD2    C2 6973   3.171   0.644  16.623  0.4080  0.0507 -0.6009
  465MPD2    C3 6974   3.158   0.668  16.488 -0.3394 -0.1778  0.9191
  465MPD2    C4 6975   3.259   0.623  16.407 -0.3995 -0.5457 -0.3928
  465MPD2    C5 6976   3.362   0.549  16.449  0.1001 -0.4910  0.3997
  465MPD2     H 6977   3.099   0.678  16.697  2.9134 -1.0130  2.3115
  465MPD2    H1 6978   3.260   0.634  16.299  1.5009  0.5769 -0.2582
  465MPD2    H2 6979   3.459   0.474  16.619 -0.7022 -2.2128 -0.9503
  465MPD2    H3 6980   3.422   0.498  16.374 -0.4191 -0.3790 -0.0970
  465MPD2     N 6981   3.049   0.745  16.432 -0.4855 -0.1546 -0.0082
  465MPD2    H5 6982   2.972   0.760  16.495 -0.2265 -0.7690  0.4591
  465MPD2    N1 6983   3.298   0.582  16.810 -1.0932  0.4593 -0.1537
  465MPD2    H7 6984   3.222   0.621  16.864 -1.0681  0.6494 -0.2545
  466TMC3    C1 6985   2.671   0.816  16.341 -0.2568 -0.0073  0.3201
  466TMC3    C2 6986   2.647   0.925  16.262  1.0295  0.1980 -0.2098
  466TMC3    C3 6987   2.753   0.976  16.190  1.3379 -0.6901  0.3060
  466TMC3    C4 6988   2.792   0.759  16.359 -0.1859  0.1005  0.4477
  466TMC3    C5 6989   2.889   0.807  16.272 -0.8539 -0.3151 -0.7330
  466TMC3    C6 6990   2.877   0.918  16.192  0.6049  0.2911  0.4385
  466TMC3     C 6991   2.565   0.759  16.418 -0.0216  0.1695 -0.6792
  466TMC3     O 6992   2.451   0.773  16.379 -0.0146 -0.1738 -0.4219
  466TMC3     H 6993   2.546   0.961  16.245  1.2201  1.4551  1.3216
  466TMC3    H1 6994   2.807   0.674  16.424 -1.7350 -0.5372 -0.0187
  466TMC3    H2 6995   2.960   0.977  16.154 -0.5486  1.0800 -0.8828
  466TMC3    C7 6996   3.031   0.764  16.294  0.2737  0.0409  0.0478
  466TMC3    C8 6997   2.750   1.116  16.160 -0.2431 -0.5012  0.7468
  466TMC3    O1 6998   3.106   0.760  16.199 -0.1088  0.2045 -0.2818
  466TMC3    O2 6999   2.846   1.175  16.107 -0.1632  0.2521  0.0503
  467TMC3    C1 7000   3.930   4.009  13.562  0.3517 -0.3921  0.2043
  467TMC3    C2 7001   4.011   4.115  13.538 -0.0239 -0.3893 -0.4972
  467TMC3    C3 7002   3.972   4.214  13.451  0.2857  0.8460 -0.3799
  467TMC3    C4 7003   3.800   4.018  13.513 -0.1139 -0.0982  0.0129
  467TMC3    C5 7004   3.761   4.115  13.425 -0.6142  0.4122 -0.2075
  467TMC3    C6 7005   3.847   4.218  13.391  0.0224  0.4361 -0.4476
  467TMC3     C 7006   3.977   3.883  13.611 -0.7268 -0.3483  1.5448
  467TMC3     O 7007   3.897   3.790  13.602 -0.4067  0.2929  0.0513
  467TMC3     H 7008   4.107   4.119  13.589 -0.4544 -0.7895  0.3448
  467TMC3    H1 7009   3.725   3.956  13.561 -1.5299  1.1442 -0.6145
  467TMC3    H2 7010   3.808   4.294  13.325 -2.8638 -1.2859 -0.7165
  467TMC3    C7 7011   3.627   4.114  13.374 -0.2959 -0.0235  0.4141
  467TMC3    C8 7012   4.074   4.319  13.430 -0.6207  0.5950  0.3583
  467TMC3    O1 7013   3.614   4.163  13.267 -0.2264  0.0795 -0.0335
  467TMC3    O2 7014   4.037   4.432  13.392  0.0321 -0.1537 -0.1906
  468MPD2     C 7015   2.879   2.559  10.523  0.1212 -0.1356 -0.4644
  468MPD2    C1 7016   2.832   2.526  10.645 -0.1213 -0.3232 -0.0193
  468MPD2    C2 7017   2.721   2.437  10.646 -0.3599  0.5446 -0.7119
  468MPD2    C3 7018   2.669   2.382  10.531 -0.3514 -0.2326  0.6963
  468MPD2    C4 7019   2.735   2.405  10.408  0.4961  0.4738  0.5118
  468MPD2    C5 7020   2.833   2.498  10.408 -0.4745  0.0474 -0.3276
  468MPD2     H 7021   2.690   2.407  10.745 -1.5263  1.1222 -0.8934
  468MPD2    H1 7022   2.717   2.356  10.313  0.6854  0.4823  0.4711
  468MPD2    H2 7023   2.956   2.630  10.497 -0.0702  0.5606  0.8754
  468MPD2    H3 7024   2.888   2.514  10.316  0.2978  1.2339  0.3443
  468MPD2     N 7025   2.579   2.269  10.550 -0.0652  0.4641 -0.6790
  468MPD2    H5 7026   2.561   2.209  10.469  0.4188 -0.4698 -0.0864
  468MPD2    N1 7027   2.885   2.577  10.764 -0.2535  0.0596 -0.0685
  468MPD2    H7 7028   2.831   2.551  10.846  0.8323  2.6942  1.4900
  469TMC3    C1 7029   3.054   2.642  10.909 -0.0552 -0.2410 -0.7105
  469TMC3    C2 7030   3.187   2.641  10.928 -0.0392  0.2129  0.0846
  469TMC3    C3 7031   3.234   2.630  11.063 -0.8650  1.0508 -0.3152
  469TMC3    C4 7032   2.971   2.656  11.013  0.0803  0.3495  0.4457
  469TMC3    C5 7033   3.022   2.658  11.143  0.2669 -0.2550 -0.8684
  469TMC3    C6 7034   3.153   2.642  11.178 -0.7171  0.2653  0.1055
  469TMC3     C 7035   3.010   2.625  10.776 -0.0910  0.1216 -0.0391
  469TMC3     O 7036   3.086   2.632  10.681 -0.4061 -0.3829 -0.5207
  469TMC3     H 7037   3.256   2.623  10.847  0.0414 -2.0438  0.6590
  469TMC3    H1 7038   2.867   2.685  11.000  0.5816  1.0275 -1.8989
  469TMC3    H2 7039   3.189   2.623  11.279 -1.3571 -0.4981  0.1864
  469TMC3    C7 7040   2.917   2.654  11.250 -0.3610 -0.2359  0.0755
  469TMC3    C8 7041   3.370   2.589  11.076  0.3957 -0.3942 -0.0463
  469TMC3    O1 7042   2.804   2.682  11.214  0.4160  0.4254  0.3337
  469TMC3    O2 7043   3.412   2.515  10.991  0.2900  0.0103  0.3074
  470TMC3    C1 7044   0.079   2.967   0.670 -0.2475 -0.5741 -0.1527
  470TMC3    C2 7045   0.059   3.097   0.638 -0.2568 -0.9837  0.4715
  470TMC3    C3 7046   0.144   3.186   0.676  0.3301  0.4732  0.9553
  470TMC3    C4 7047   0.187   2.928   0.747 -0.2979  0.5196  0.5417
  470TMC3    C5 7048   0.274   3.028   0.789 -0.0633  0.4186 -0.6207
  470TMC3    C6 7049   0.254   3.156   0.754  0.4876  0.0444  0.4614
  470TMC3     C 7050   4.730   2.876   0.599  0.2261  0.8159 -0.1496
  470TMC3     O 7051   4.674   2.925   0.500  0.1050  0.7733  0.5192
  470TMC3     H 7052   4.700   3.129   0.601  1.7149 -0.5736 -4.3500
  470TMC3    H1 7053   0.213   2.823   0.757 -0.1466  0.4918 -0.1388
  470TMC3    H2 7054   0.329   3.230   0.782 -0.4098  1.8714 -1.9342
  470TMC3    C7 7055   0.391   2.991   0.861 -0.4946 -0.2255  0.1561
  470TMC3    C8 7056   0.103   3.326   0.668  0.1605  0.1250  0.0350
  470TMC3    O1 7057   0.496   3.050   0.836 -0.3736  0.1356  0.2196
  470TMC3    O2 7058   0.146   3.398   0.760 -0.3753  0.6657 -0.1442
  471MPD2     C 7059   0.534   0.101  16.466 -0.1885  0.3985  0.1346
  471MPD2    C1 7060   0.499   4.701  16.481 -0.2592  0.1362  0.0439
  471MPD2    C2 7061   0.591   4.624  16.542  0.3558 -0.1839 -0.2294
  471MPD2    C3 7062   0.707   4.674  16.591 -0.6195 -0.5453  0.3693
  471MPD2    C4 7063   0.742   0.068  16.581  0.1588  0.2971  0.2479
  471MPD2    C5 7064   0.655   0.150  16.515  0.7527 -0.2004 -0.4478
  471MPD2     H 7065   0.565   4.522  16.568 -0.9925 -0.6745 -3.4322
  471MPD2    H1 7066   0.837   0.109  16.613  0.6032 -0.2197 -0.4059
  471MPD2    H2 7067   0.462   0.175  16.431 -1.1871  0.1837  1.7314
  471MPD2    H3 7068   0.667   0.258  16.516 -0.0124 -0.1242  0.5593
  471MPD2     N 7069   0.793   4.577  16.643 -0.1502 -0.1125  0.0993
  471MPD2    H5 7070   0.761   4.480  16.647  2.9075 -1.0354  1.6322
  471MPD2    N1 7071   0.380   4.635  16.442 -0.2525  0.1750 -0.3417
  471MPD2    H7 7072   0.369   4.535  16.456 -0.3539  0.5226  2.0104
  472TMC3    C1 7073   0.178   4.606  16.334 -0.0565 -0.6207 -0.2590
  472TMC3    C2 7074   0.054   4.640  16.320 -0.5344  0.5440 -0.2645
  472TMC3    C3 7075   4.694   4.552  16.303 -0.2948  0.5869 -0.5855
  472TMC3    C4 7076   0.221   4.475  16.317  0.1944  0.3163 -0.2816
  472TMC3    C5 7077   0.123   4.383  16.310  1.4118 -0.1220 -0.5490
  472TMC3    C6 7078   4.721   4.421  16.293  0.4882 -0.0743  0.0519
  472TMC3     C 7079   0.275   4.696  16.381  0.0998 -0.6024 -0.1494
  472TMC3     O 7080   0.255   0.076  16.350  0.0180 -0.5360  0.1682
  472TMC3     H 7081   0.038   0.008  16.337  0.6128  0.3944  1.7503
  472TMC3    H1 7082   0.326   4.450  16.311 -0.3741 -1.6382 -2.2440
  472TMC3    H2 7083   4.649   4.340  16.284  0.4515 -0.1016  0.6188
  472TMC3    C7 7084   0.163   4.251  16.297 -0.2329  0.6022 -0.0167
  472TMC3    C8 7085   4.562   4.588  16.345  0.0698 -0.1216 -0.8116
  472TMC3    O1 7086   0.259   4.210  16.362 -0.8852 -0.0623 -0.5500
  472TMC3    O2 7087   4.526   4.702  16.325  0.1183 -0.2194  0.2522
  473MPD2     C 7088   0.269   1.707  14.088  0.6823  0.1183 -0.4520
  473MPD2    C1 7089   0.300   1.809  14.007  0.2643 -0.6703 -0.0739
  473MPD2    C2 7090   0.367   1.922  14.050  0.1366  0.4325 -0.8302
  473MPD2    C3 7091   0.418   1.924  14.180  0.5800 -0.5983 -0.6538
  473MPD2    C4 7092   0.395   1.817  14.261  0.0596 -0.0786 -0.1806
  473MPD2    C5 7093   0.320   1.716  14.214  0.3443  1.0877 -0.6337
  473MPD2     H 7094   0.393   2.004  13.984  0.7298  0.0070 -1.1269
  473MPD2    H1 7095   0.412   1.815  14.368 -1.3196 -2.1774 -0.0002
  473MPD2    H2 7096   0.207   1.622  14.061  2.1086 -1.2550  0.6170
  473MPD2    H3 7097   0.297   1.645  14.292  1.5153  0.8519 -0.5057
  473MPD2     N 7098   0.495   2.032  14.227  0.8454 -0.0514 -0.6092
  473MPD2    H5 7099   0.489   2.117  14.172  0.5069  0.4557  0.2086
  473MPD2    N1 7100   0.265   1.802  13.870 -0.1662  0.3858 -0.0569
  473MPD2    H7 7101   0.310   1.874  13.814  4.2525 -1.8679  0.6112
  474TMC3    C1 7102   0.626   2.166  14.371 -0.0936 -1.3760  0.1171
  474TMC3    C2 7103   0.547   2.281  14.352  0.0472 -0.0943  1.0872
  474TMC3    C3 7104   0.597   2.398  14.394 -0.3155 -0.1595 -0.5204
  474TMC3    C4 7105   0.743   2.160  14.440  0.3492  0.4598 -0.1592
  474TMC3    C5 7106   0.791   2.286  14.481  0.0067 -0.0400 -0.1504
  474TMC3    C6 7107   0.716   2.406  14.461 -0.5122 -0.1354 -0.2594
  474TMC3     C 7108   0.573   2.034  14.341  0.3391  0.3649 -0.3003
  474TMC3     O 7109   0.616   1.935  14.398 -0.4229  0.1586  0.2209
  474TMC3     H 7110   0.463   2.281  14.284  0.2906  1.0903  0.7951
  474TMC3    H1 7111   0.799   2.071  14.463 -1.3730 -0.9571 -1.4455
  474TMC3    H2 7112   0.753   2.498  14.505  0.1296 -0.1315 -0.8183
  474TMC3    C7 7113   0.930   2.292  14.517  0.5500 -0.3033 -0.6036
  474TMC3    C8 7114   0.524   2.520  14.363 -0.4698  1.0132  0.6158
  474TMC3    O1 7115   0.996   2.197  14.475  0.1903 -0.4318 -0.0586
  474TMC3    O2 7116   0.401   2.519  14.343  0.6138  0.1120 -0.7047
  475MPD2     C 7117   4.108   4.051  10.364 -0.2539  0.5806  0.8053
  475MPD2    C1 7118   4.132   4.179  10.406 -0.1415  0.1778 -0.3494
  475MPD2    C2 7119   4.030   4.252  10.460 -0.4201 -0.3104 -0.4337
  475MPD2    C3 7120   3.901   4.207  10.453 -0.2202 -0.2599  0.3826
  475MPD2    C4 7121   3.880   4.075  10.417  0.2738  0.9342 -0.2955
  475MPD2    C5 7122   3.984   3.999  10.378  0.5272  0.0140 -0.1779
  475MPD2     H 7123   4.044   4.352  10.498 -0.5492 -0.2653 -0.5042
  475MPD2    H1 7124   3.781   4.033  10.408  0.6428  0.5590 -2.4987
  475MPD2    H2 7125   4.182   3.992  10.311 -1.6103 -0.5587  0.1854
  475MPD2    H3 7126   3.968   3.902  10.331 -0.8728 -0.3747  1.0795
  475MPD2     N 7127   3.794   4.294  10.494  0.4880 -0.2385 -0.0631
  475MPD2    H5 7128   3.821   4.388  10.524  0.0334  0.0880 -0.6871
  475MPD2    N1 7129   4.258   4.233  10.375  0.1674 -1.0503 -0.2660
  475MPD2    H7 7130   4.323   4.189  10.310 -0.0634 -1.0458 -0.4992
  476TMC3    C1 7131   4.384   4.426  10.324  0.6898 -0.5088 -0.6294
  476TMC3    C2 7132   4.301   4.459  10.223 -0.2179 -0.4279 -0.0220
  476TMC3    C3 7133   4.282   4.587  10.185  0.0991  0.2490 -0.1211
  476TMC3    C4 7134   4.448   4.521  10.389 -0.1467  0.4467 -0.0050
  476TMC3    C5 7135   4.423   4.651  10.359  0.2906 -0.6921 -0.3248
  476TMC3    C6 7136   4.331   4.685  10.267 -0.0643 -0.2007 -0.2012
  476TMC3     C 7137   4.291   4.355  10.411 -0.2687  0.2836  0.1238
  476TMC3     O 7138   4.261   4.422  10.507 -0.3765  0.7125  0.3663
  476TMC3     H 7139   4.263   4.372  10.171 -0.7992 -0.3453  0.2700
  476TMC3    H1 7140   4.517   4.490  10.467 -1.3108  0.5952  1.0716
  476TMC3    H2 7141   4.312   0.053  10.251 -0.0150 -0.4144 -1.7083
  476TMC3    C7 7142   4.476   0.008  10.456 -0.2191 -0.0997 -0.2820
  476TMC3    C8 7143   4.144   4.612  10.147 -0.2066  0.6709 -0.2489
  476TMC3    O1 7144   4.575   4.704  10.515 -0.7678  0.4979  0.1443
  476TMC3    O2 7145   4.114   4.729  10.147 -0.0505 -0.5885  0.5409
  477MPD2     C 7146   1.254   1.458  11.510  0.3392  0.3895  0.1528
  477MPD2    C1 7147   1.169   1.478  11.618 -0.6698  0.6894  0.0313
  477MPD2    C2 7148   1.210   1.459  11.752  0.3420 -0.0812 -0.3479
  477MPD2    C3 7149   1.339   1.419  11.765 -0.4529  0.2817  0.2034
  477MPD2    C4 7150   1.428   1.409  11.658 -0.8143  0.4102 -0.1519
  477MPD2    C5 7151   1.388   1.429  11.530 -0.0067  0.6930 -0.0374
  477MPD2     H 7152   1.143   1.466  11.837 -1.0233  1.6812 -1.5744
  477MPD2    H1 7153   1.530   1.376  11.669 -0.4601  1.4142 -0.4326
  477MPD2    H2 7154   1.214   1.489  11.414  1.7693 -0.3455 -0.6686
  477MPD2    H3 7155   1.459   1.403  11.452  0.2420 -1.1159  0.7970
  477MPD2     N 7156   1.390   1.392  11.891 -0.4024 -0.2017 -0.1210
  477MPD2    H5 7157   1.488   1.366  11.889  0.2064  2.1146 -0.1140
  477MPD2    N1 7158   1.036   1.503  11.591 -0.3013  0.0428 -0.4184
  477MPD2    H7 7159   1.011   1.538  11.499  3.3478  2.5343 -0.4964
  478TMC3    C1 7160   0.809   1.555  11.640  0.0576  0.1725 -0.5094
  478TMC3    C2 7161   0.749   1.614  11.742 -0.3900 -0.3819  0.8588
  478TMC3    C3 7162   0.664   1.720  11.714  0.2391 -0.4413  0.1578
  478TMC3    C4 7163   0.791   1.589  11.512 -0.7563  0.2403 -0.1050
  478TMC3    C5 7164   0.709   1.690  11.482  0.6008 -0.2827  0.3618
  478TMC3    C6 7165   0.645   1.768  11.579  0.9282  0.2106  0.0187
  478TMC3     C 7166   0.932   1.484  11.674 -0.1918  0.0238  0.2605
  478TMC3     O 7167   0.933   1.430  11.786 -0.1462 -0.5581 -0.0901
  478TMC3     H 7168   0.768   1.582  11.844 -0.6416 -0.9147  0.7346
  478TMC3    H1 7169   0.850   1.537  11.438  0.7015 -0.7767  1.7695
  478TMC3    H2 7170   0.564   1.837  11.557  0.5334 -1.1554 -2.7356
  478TMC3    C7 7171   0.731   1.743  11.350 -0.4054  0.4772 -0.0294
  478TMC3    C8 7172   0.643   1.812  11.830 -0.0405  0.0234  0.2036
  478TMC3    O1 7173   0.844   1.727  11.305  0.4749 -0.3809 -0.2102
  478TMC3    O2 7174   0.616   1.752  11.932 -0.5137  0.0706 -0.5142
  479MPD2     C 7175   0.133   3.897  15.055  0.1403 -0.1570  0.1339
  479MPD2    C1 7176   0.131   3.821  15.171 -0.1043  0.6779  0.4820
  479MPD2    C2 7177   0.218   3.857  15.267 -0.0851 -0.2852  0.0331
  479MPD2    C3 7178   0.295   3.978  15.258  0.2024 -0.1700  0.8430
  479MPD2    C4 7179   0.295   4.052  15.147  0.2433  0.2749 -0.1407
  479MPD2    C5 7180   0.216   4.009  15.045 -0.3859  0.2702 -0.2267
  479MPD2     H 7181   0.236   3.785  15.345 -1.9465 -2.9608 -2.0019
  479MPD2    H1 7182   0.357   4.139  15.134 -0.7594  1.0518  0.2830
  479MPD2    H2 7183   0.066   3.878  14.973  0.2324  1.1091 -0.2274
  479MPD2    H3 7184   0.218   4.074  14.958  0.6179 -0.6668 -0.8966
  479MPD2     N 7185   0.386   4.018  15.359 -0.4375  0.5489 -0.5758
  479MPD2    H5 7186   0.455   4.090  15.340  1.0874 -0.9038 -0.5275
  479MPD2    N1 7187   0.039   3.709  15.177  0.0812  1.2220  0.0316
  479MPD2    H7 7188   4.708   3.703  15.101 -0.9062  2.9773  0.7804
  480TMC3    C1 7189   0.127   3.770  15.651  0.7838 -0.5828  0.1461
  480TMC3    C2 7190   0.017   3.840  15.609  0.1410  0.0836  0.0539
  480TMC3    C3 7191   0.025   3.962  15.543  0.3811 -0.1851  0.5031
  480TMC3    C4 7192   0.253   3.824  15.625  0.4579 -0.3593  0.5674
  480TMC3    C5 7193   0.257   3.942  15.557  0.1589  0.4651 -0.1207
  480TMC3    C6 7194   0.146   4.016  15.523 -0.0000  0.1332 -0.2306
  480TMC3     C 7195   0.106   3.652  15.736  0.5247  0.4824  1.2025
  480TMC3     O 7196   0.208   3.598  15.782 -0.3462  0.1310 -0.8890
  480TMC3     H 7197   4.658   3.791  15.622 -0.0752  0.5597  0.2222
  480TMC3    H1 7198   0.344   3.766  15.635 -0.6537 -2.5268 -2.0075
  480TMC3    H2 7199   0.171   4.116  15.488  0.7277  0.4758  1.2581
  480TMC3    C7 7200   0.387   3.977  15.494 -0.2762 -0.1252  0.4085
  480TMC3    C8 7201   4.647   4.002  15.473  0.5287 -0.3135 -0.2638
  480TMC3    O1 7202   0.485   3.996  15.562 -0.1449  0.1548  0.1986
  480TMC3    O2 7203   4.535   3.947  15.481  0.2191 -0.0056  0.5124
  481MPD2     C 7204   2.237   3.198  14.132 -0.2930  0.5304  0.8621
  481MPD2    C1 7205   2.114   3.212  14.197 -0.1941 -0.3054  0.2264
  481MPD2    C2 7206   2.108   3.168  14.331 -0.0200 -0.0669  0.5390
  481MPD2    C3 7207   2.223   3.124  14.402 -0.2824  0.8239 -0.2265
  481MPD2    C4 7208   2.340   3.110  14.333  0.4771 -0.2100 -0.6135
  481MPD2    C5 7209   2.347   3.154  14.203  0.1733 -0.0950 -0.4537
  481MPD2     H 7210   2.016   3.182  14.386 -1.2488  0.8539 -1.7436
  481MPD2    H1 7211   2.434   3.080  14.377 -0.0539  1.5502  1.7368
  481MPD2    H2 7212   2.253   3.228  14.030 -0.4687 -0.0018  0.6775
  481MPD2    H3 7213   2.445   3.134  14.162 -0.2991 -0.8829 -1.2018
  481MPD2     N 7214   2.217   3.071  14.538 -0.2149  0.0600  0.2216
  481MPD2    H5 7215   2.304   3.035  14.575 -0.2556 -0.9870 -0.7108
  481MPD2    N1 7216   2.002   3.259  14.120 -0.3031  0.1123 -0.3669
  481MPD2    H7 7217   2.011   3.298  14.026  2.1971  0.1907 -0.0946
  482TMC3    C1 7218   1.777   3.283  14.066  0.1942 -0.1573 -0.8279
  482TMC3    C2 7219   1.663   3.207  14.055 -0.4783 -0.0103 -0.5066
  482TMC3    C3 7220   1.581   3.227  13.949  0.4387 -0.1412  0.5608
  482TMC3    C4 7221   1.811   3.372  13.970  0.1272  0.3833 -0.4337
  482TMC3    C5 7222   1.727   3.383  13.862  0.5834  0.1708  0.4554
  482TMC3    C6 7223   1.606   3.328  13.856 -0.2606 -0.2743 -0.9690
  482TMC3     C 7224   1.876   3.230  14.160  0.2386 -0.6199  0.7411
  482TMC3     O 7225   1.831   3.152  14.242 -0.2226  0.2162  0.5741
  482TMC3     H 7226   1.645   3.139  14.137 -1.4141  2.8481  1.6489
  482TMC3    H1 7227   1.895   3.440  13.971  0.7731 -0.4116 -0.6616
  482TMC3    H2 7228   1.527   3.358  13.788 -0.9945  1.1208  0.4932
  482TMC3    C7 7229   1.801   3.398  13.735 -0.1935 -0.0775  0.2975
  482TMC3    C8 7230   1.531   3.105  13.882 -0.0731  0.0201 -0.3706
  482TMC3    O1 7231   1.921   3.421  13.731  0.0126  0.2192 -0.2514
  482TMC3    O2 7232   1.561   2.997  13.936 -0.6836  0.4749  0.1756
  483TMC3    C1 7233   4.001   2.526   0.690 -0.6926 -0.5395  0.2768
  483TMC3    C2 7234   4.037   2.618   0.591  0.3400 -0.1804 -0.5020
  483TMC3    C3 7235   4.162   2.665   0.595 -0.3033  0.7011  0.1088
  483TMC3    C4 7236   4.087   2.478   0.786 -0.1606  0.3802  0.1940
  483TMC3    C5 7237   4.205   2.544   0.789 -0.0890  0.2787 -0.0931
  483TMC3    C6 7238   4.241   2.635   0.697 -0.0024  0.4071 -0.1189
  483TMC3     C 7239   3.877   2.460   0.677  0.2454 -0.5427 -0.5768
  483TMC3     O 7240   3.797   2.511   0.602 -0.0534  0.0292 -0.1830
  483TMC3     H 7241   3.970   2.637   0.508 -1.0613 -0.0987  0.6369
  483TMC3    H1 7242   4.054   2.411   0.865 -1.9767  0.3225 -0.6249
  483TMC3    H2 7243   4.339   2.681   0.695 -0.8118  2.0938 -0.9515
  483TMC3    C7 7244   4.302   2.500   0.893  0.0363  0.2631  0.5795
  483TMC3    C8 7245   4.198   2.770   0.497  0.2513  0.0925 -0.6314
  483TMC3    O1 7246   4.287   2.390   0.941  0.5098  0.4888 -0.9957
  483TMC3    O2 7247   4.156   2.751   0.380 -0.4003 -0.1114 -0.4078
  484MPD2     C 7248   2.593   0.340  12.675  0.6617  0.6271  0.6338
  484MPD2    C1 7249   2.485   0.361  12.589  0.1066  0.0677 -0.5657
  484MPD2    C2 7250   2.512   0.407  12.458  0.2648 -0.1386  0.5240
  484MPD2    C3 7251   2.645   0.423  12.416  0.0606 -0.1380 -0.5669
  484MPD2    C4 7252   2.746   0.409  12.502 -0.1886 -0.2123 -0.0871
  484MPD2    C5 7253   2.724   0.358  12.629  0.1141 -0.0449 -0.6316
  484MPD2     H 7254   2.433   0.426  12.387  1.9824 -0.6555 -1.5097
  484MPD2    H1 7255   2.844   0.441  12.468  1.1318 -1.0950  2.8679
  484MPD2    H2 7256   2.572   0.310  12.777  1.8415  1.3297  1.0834
  484MPD2    H3 7257   2.802   0.353  12.704 -0.0778  2.7077 -0.2358
  484MPD2     N 7258   2.685   0.467  12.289  0.6639 -0.2018 -0.5608
  484MPD2    H5 7259   2.786   0.464  12.278  0.5322 -0.1963 -1.7373
  484MPD2    N1 7260   2.350   0.322  12.635 -0.2155 -0.1500  0.4933
  484MPD2    H7 7261   2.347   0.278  12.726 -2.1494 -1.1099 -0.0573
  485TMC3    C1 7262   2.691   0.519  12.066  0.0553  1.2006 -0.9055
  485TMC3    C2 7263   2.796   0.596  12.104 -0.6050  0.1278  0.2794
  485TMC3    C3 7264   2.896   0.621  12.019 -0.4538 -0.0711  0.1732
  485TMC3    C4 7265   2.684   0.455  11.944 -0.7809 -0.0543  0.7623
  485TMC3    C5 7266   2.790   0.478  11.865 -0.5577  0.5133 -0.1449
  485TMC3    C6 7267   2.896   0.555  11.901 -0.1525 -0.5179 -0.8024
  485TMC3     C 7268   2.606   0.479  12.177  0.5364  0.1380  0.6484
  485TMC3     O 7269   2.489   0.452  12.164 -0.1112  0.0023 -0.0833
  485TMC3     H 7270   2.805   0.650  12.198  1.5442  0.1478  0.0667
  485TMC3    H1 7271   2.613   0.374  11.931 -0.0455 -0.7884  1.3311
  485TMC3    H2 7272   2.970   0.574  11.824 -1.5259 -0.2080 -2.0661
  485TMC3    C7 7273   2.838   0.364  11.788 -0.2381  0.1376 -0.1918
  485TMC3    C8 7274   3.021   0.595  12.090  0.0458 -0.3619 -0.7330
  485TMC3    O1 7275   2.958   0.341  11.782  0.6676  0.1069 -0.3494
  485TMC3    O2 7276   3.057   0.653  12.189 -0.0520  0.8567 -0.3011
  486MPD2     C 7277   4.256   3.566  12.753  0.4970 -0.1786 -0.0453
  486MPD2    C1 7278   4.304   3.563  12.622 -0.2038  0.0466 -0.2023
  486MPD2    C2 7279   4.281   3.681  12.551 -0.0060  0.2943 -0.0058
  486MPD2    C3 7280   4.233   3.802  12.606  0.2626  0.0735  0.1146
  486MPD2    C4 7281   4.192   3.804  12.738  0.1116  0.3615  0.5272
  486MPD2    C5 7282   4.204   3.684  12.807  0.5856  0.0856 -0.2970
  486MPD2     H 7283   4.312   3.688  12.447  3.4380  0.2008  1.0309
  486MPD2    H1 7284   4.143   3.885  12.791 -1.2323  0.6238 -1.0902
  486MPD2    H2 7285   4.269   3.476  12.812 -1.2431 -0.5884 -0.2982
  486MPD2    H3 7286   4.165   3.686  12.908 -2.5383  1.5524 -1.5320
  486MPD2     N 7287   4.247   3.921  12.534  0.1008  1.0264  0.2890
  486MPD2    H5 7288   4.278   3.905  12.439 -0.8800 -0.2395  0.1793
  486MPD2    N1 7289   4.357   3.441  12.569 -0.3399 -0.3767 -0.2012
  486MPD2    H7 7290   4.335   3.355  12.619  0.4887 -2.4295 -3.3404
  487TMC3    C1 7291   4.482   3.294  12.434 -0.0839  0.0427  0.2876
  487TMC3    C2 7292   4.411   3.178  12.465 -0.8481 -0.0637  0.5257
  487TMC3    C3 7293   4.475   3.057  12.446  0.2997 -0.1048 -0.0699
  487TMC3    C4 7294   4.609   3.286  12.389  0.7672  0.0663  0.8348
  487TMC3    C5 7295   4.675   3.165  12.383  0.1832  0.3197  0.0574
  487TMC3    C6 7296   4.598   3.047  12.388 -0.5939  0.1084  0.2972
  487TMC3     C 7297   4.435   3.433  12.453 -0.0460 -0.2549 -0.1536
  487TMC3     O 7298   4.501   3.524  12.405  0.4784 -0.5383 -0.2827
  487TMC3     H 7299   4.307   3.179  12.495 -1.1086 -1.1159 -0.3396
  487TMC3    H1 7300   4.669   3.373  12.369 -1.0764  1.5272  1.6265
  487TMC3    H2 7301   4.662   2.961  12.409  1.7199  1.9359  0.7585
  487TMC3    C7 7302   0.026   3.168  12.491  0.6394 -0.3982 -0.5289
  487TMC3    C8 7303   4.460   2.963  12.551 -0.4949  0.0637  0.1297
  487TMC3    O1 7304   0.025   3.263  12.564 -0.0545  0.3404  0.2295
  487TMC3    O2 7305   4.476   2.843  12.526  0.0929  0.1026 -0.3239
  488MPD2     C 7306   4.476   0.889  16.284  0.0830 -0.0595  0.3436
  488MPD2    C1 7307   4.556   0.964  16.372 -0.5095  0.1119  0.2930
  488MPD2    C2 7308   4.506   0.989  16.500 -0.1893 -1.1130  0.4971
  488MPD2    C3 7309   4.376   0.950  16.535 -0.3209  0.8086  0.9561
  488MPD2    C4 7310   4.299   0.881  16.446  0.6808 -1.2230  0.2898
  488MPD2    C5 7311   4.348   0.851  16.324 -0.3670 -0.0696  0.2780
  488MPD2     H 7312   4.560   1.059  16.563 -0.6648 -0.0505 -0.2753
  488MPD2    H1 7313   4.193   0.862  16.461  1.1779 -2.5062  2.2949
  488MPD2    H2 7314   4.503   0.855  16.184  0.6712  0.2838  0.3840
  488MPD2    H3 7315   4.278   0.815  16.250 -0.0318  2.3163 -1.2048
  488MPD2     N 7316   4.324   0.977  16.663  0.4953  0.2483 -0.4272
  488MPD2    H5 7317   4.392   1.017  16.726  0.5017 -1.1855  0.4780
  488MPD2    N1 7318   4.678   1.021  16.339  0.2737 -0.2627  0.5351
  488MPD2    H7 7319   4.725   1.080  16.407 -1.5076 -0.3287  1.8402
  489TMC3    C1 7320   4.213   0.952  16.862  0.6899  1.2358 -0.3122
  489TMC3    C2 7321   4.263   1.078  16.892  0.3110  0.2500 -0.4425
  489TMC3    C3 7322   4.335   1.099  17.005  0.3585 -0.4280 -0.0516
  489TMC3    C4 7323   4.242   0.849  16.947  0.0793  0.3727  0.0232
  489TMC3    C5 7324   4.320   0.864  17.052 -0.4124 -0.1641 -0.2758
  489TMC3    C6 7325   4.366   0.990  17.084  0.5407 -0.9321  0.3364
  489TMC3     C 7326   4.212   0.920  16.720  0.2451 -0.6292  0.1032
  489TMC3     O 7327   4.128   0.849  16.667 -0.2220  0.0265 -0.6231
  489TMC3     H 7328   4.239   1.165  16.831 -0.1882  0.8567  0.6082
  489TMC3    H1 7329   4.205   0.750  16.921 -1.6079  0.8680  0.5249
  489TMC3    H2 7330   4.433   0.994  17.168  0.2756  1.6946  0.4183
  489TMC3    C7 7331   4.361   0.752  17.139 -0.0707 -0.5875  1.2596
  489TMC3    C8 7332   4.443   1.179  16.969  0.4815  0.0728  0.1841
  489TMC3    O1 7333   4.471   0.760  17.198  0.5263 -0.1796  0.0644
  489TMC3    O2 7334   4.423   1.291  16.920 -0.4354  0.7026 -0.3942
  490MPD2     C 7335   0.787   0.482  17.060 -0.5268  0.7608  0.1278
  490MPD2    C1 7336   0.755   0.426  17.179 -0.1601  0.5540 -0.3442
  490MPD2    C2 7337   0.778   0.499  17.293 -0.1629  0.0787 -0.0746
  490MPD2    C3 7338   0.832   0.623  17.291  0.6280  0.3629  0.1143
  490MPD2    C4 7339   0.854   0.675  17.165 -0.0120 -0.3318 -0.7531
  490MPD2    C5 7340   0.835   0.606  17.049  1.1315  0.4995  0.3322
  490MPD2     H 7341   0.754   0.454  17.389 -2.1851  1.7719  0.2217
  490MPD2    H1 7342   0.903   0.771  17.161 -0.8253  0.0602 -1.2725
  490MPD2    H2 7343   0.771   0.433  16.965 -0.1679  0.7861  0.0533
  490MPD2    H3 7344   0.850   0.648  16.950 -0.3722  0.0500 -0.0982
  490MPD2     N 7345   0.878   0.695  17.398 -0.5042 -0.6128 -0.5076
  490MPD2    H5 7346   0.909   0.789  17.379 -0.8755 -0.6018 -1.0738
  490MPD2    N1 7347   0.706   0.291  17.187 -0.3365  0.5493 -0.5037
  490MPD2    H7 7348   0.677   0.252  17.277 -1.7366 -1.2581 -1.7456
  491TMC3    C1 7349   0.587   0.088  17.125 -0.0815  0.1160 -0.2264
  491TMC3    C2 7350   0.639   0.017  17.227 -0.6262  0.3088 -1.2565
  491TMC3    C3 7351   0.595   4.628  17.242  0.0713 -0.5440 -0.9000
  491TMC3    C4 7352   0.495   0.035  17.037 -0.1999 -0.2255  0.1374
  491TMC3    C5 7353   0.454   4.643  17.058  0.1245 -0.1507  0.1906
  491TMC3    C6 7354   0.490   4.574  17.173  0.4284 -0.4930  0.6949
  491TMC3     C 7355   0.658   0.214  17.084 -0.1057  0.1347 -0.4236
  491TMC3     O 7356   0.653   0.237  16.965 -0.0651  0.0922  0.1209
  491TMC3     H 7357   0.717   0.053  17.293  1.2135 -3.6139 -1.2682
  491TMC3    H1 7358   0.456   0.105  16.963  0.7489 -1.3662 -1.4483
  491TMC3    H2 7359   0.434   4.489  17.211  0.7891 -0.7736  0.6058
  491TMC3    C7 7360   0.328   4.598  17.002  0.1105  0.0227  0.6511
  491TMC3    C8 7361   0.574   4.599  17.388 -0.6694  0.1714  0.6111
  491TMC3    O1 7362   0.268   4.508  17.062 -0.0308  0.3826  0.1962
  491TMC3    O2 7363   0.460   4.592  17.420  0.1493  0.2467 -0.2424
  492MPD2     C 7364   0.439   4.530  11.193  0.9107  0.6477 -0.1842
  492MPD2    C1 7365   0.505   4.622  11.265 -0.0432  0.0488 -0.2961
  492MPD2    C2 7366   0.493   4.633  11.402  0.4887 -0.4623  1.1661
  492MPD2    C3 7367   0.397   4.556  11.465 -0.3924  0.1716  0.3250
  492MPD2    C4 7368   0.314   4.471  11.396  0.0946 -0.5876 -0.0794
  492MPD2    C5 7369   0.338   4.466  11.259  0.6385 -0.0285 -0.3146
  492MPD2     H 7370   0.556   4.704  11.454  1.1365 -0.4663  0.3756
  492MPD2    H1 7371   0.229   4.423  11.442 -0.8286  0.4326 -0.7103
  492MPD2    H2 7372   0.449   4.510  11.087 -1.1357 -1.8016  0.0751
  492MPD2    H3 7373   0.280   4.387  11.212  0.9313 -0.6784  0.4095
  492MPD2     N 7374   0.358   4.575  11.600 -0.1929 -0.2414 -0.7999
  492MPD2    H5 7375   0.276   4.526  11.633  0.6393 -0.2813  1.1874
  492MPD2    N1 7376   0.608   4.690  11.194 -0.2272  0.8687  0.4211
  492MPD2    H7 7377   0.615   4.665  11.096 -2.5934 -0.5074  0.6039
  493TMC3    C1 7378   0.767   0.124  11.142  0.1779 -0.0411 -0.0479
  493TMC3    C2 7379   0.819   0.248  11.174  0.1597  0.7361 -0.2702
  493TMC3    C3 7380   0.889   0.314  11.076 -0.4604 -0.2381  1.1056
  493TMC3    C4 7381   0.777   0.069  11.021 -0.1888 -0.2145  0.0646
  493TMC3    C5 7382   0.835   0.138  10.919 -0.3724 -1.2064 -0.2975
  493TMC3    C6 7383   0.888   0.258  10.951 -0.3688  0.4467  0.5840
  493TMC3     C 7384   0.671   0.069  11.242  0.1358  0.1041 -0.3895
  493TMC3     O 7385   0.667   0.130  11.353  0.3283 -0.2415 -0.6048
  493TMC3     H 7386   0.797   0.288  11.272 -1.2163 -0.3047 -0.1584
  493TMC3    H1 7387   0.724   4.715  10.997 -2.5775  1.2915 -0.4296
  493TMC3    H2 7388   0.943   0.303  10.869  0.0438 -0.3934  0.4002
  493TMC3    C7 7389   0.806   0.082  10.789 -1.0755  0.0250  0.5430
  493TMC3    C8 7390   0.917   0.449  11.107  0.4969  0.4711 -0.0094
  493TMC3    O1 7391   0.785   4.698  10.782 -0.4708 -0.5467 -0.2759
  493TMC3    O2 7392   0.936   0.471  11.223  0.4844 -0.1883  0.1378
  494TMC3    C1 7393   1.060   2.226   0.205  0.5288  0.1610 -0.4417
  494TMC3    C2 7394   0.986   2.116   0.173 -0.1632 -0.1917 -0.1672
  494TMC3    C3 7395   1.007   2.054   0.055 -0.5532 -0.0355  0.5632
  494TMC3    C4 7396   1.171   2.261   0.135  0.1031 -0.7941  0.2818
  494TMC3    C5 7397   1.177   2.214   0.011 -0.2661 -0.3649 -0.1224
  494TMC3    C6 7398   1.108   2.101  17.722  0.2365 -0.0310  0.7650
  494TMC3     C 7399   1.045   2.289   0.333 -0.5203 -0.4537  0.1493
  494TMC3     O 7400   1.134   2.356   0.384  0.0382  0.6983 -0.0388
  494TMC3     H 7401   0.929   2.058   0.245 -0.4774  0.5576  0.1837
  494TMC3    H1 7402   1.218   2.353   0.166 -1.1720  0.3829 -1.2775
  494TMC3    H2 7403   1.107   2.050  17.627  1.0406 -0.5049  1.0135
  494TMC3    C7 7404   1.267   2.261  17.656  0.8706  0.3269  0.2767
  494TMC3    C8 7405   0.995   1.906   0.057 -0.4030  0.0238 -0.2207
  494TMC3    O1 7406   1.308   2.183  17.570  0.0617  0.3306 -0.3947
  494TMC3    O2 7407   0.897   1.852   0.103 -0.2413 -0.1687  0.2297
  495TMC3    C1 7408   0.244   4.285  14.602 -0.1538  0.3916  0.8409
  495TMC3    C2 7409   0.257   4.404  14.533  0.4815  0.5378 -0.1430
  495TMC3    C3 7410   0.189   4.510  14.591 -0.0173  0.5002 -0.1034
  495TMC3    C4 7411   0.175   4.265  14.725 -0.1718  0.0056  0.6235
  495TMC3    C5 7412   0.111   4.377  14.774  0.6214 -0.2809 -0.4128
  495TMC3    C6 7413   0.114   4.497  14.706  0.5142  0.1517 -0.3197
  495TMC3     C 7414   0.313   4.170  14.540  0.0907 -0.1218 -0.7755
  495TMC3     O 7415   0.348   4.181  14.427  0.4083  0.1053  0.1504
  495TMC3     H 7416   0.308   4.403  14.438  0.8737 -0.0435  0.0725
  495TMC3    H1 7417   0.174   4.175  14.785 -0.1450 -0.3364  0.1119
  495TMC3    H2 7418   0.051   4.580  14.737  0.0877 -0.8130  1.3783
  495TMC3    C7 7419   4.729   4.340  14.845  0.1782 -0.1075  0.5143
  495TMC3    C8 7420   0.101   4.575  14.501  0.1852 -0.0426  0.4129
  495TMC3    O1 7421   4.622   4.373  14.794 -0.2714  0.3626  0.3420
  495TMC3    O2 7422   0.153   4.632  14.404  0.1323  0.2596  0.2003
  496MPD2     C 7423   2.569   4.062  15.366  0.5373 -0.2989  0.0360
  496MPD2    C1 7424   2.479   4.023  15.264  0.3011 -0.1243 -0.5027
  496MPD2    C2 7425   2.361   4.089  15.250 -0.0368 -0.4003  0.5580
  496MPD2    C3 7426   2.319   4.183  15.342  0.3580 -0.7560  0.7206
  496MPD2    C4 7427   2.405   4.217  15.450  0.2055  0.0164  0.1067
  496MPD2    C5 7428   2.524   4.155  15.457  0.1857  0.5101  0.7517
  496MPD2     H 7429   2.301   4.061  15.165  0.9265  0.0523 -0.2658
  496MPD2    H1 7430   2.388   4.286  15.531  2.2784  0.3510  0.2596
  496MPD2    H2 7431   2.673   4.031  15.364  0.6277 -0.0634  1.2905
  496MPD2    H3 7432   2.601   4.190  15.525  0.8734  0.1350  0.1704
  496MPD2     N 7433   2.192   4.249  15.341  0.2029  0.7508  0.1400
  496MPD2    H5 7434   2.167   4.300  15.426  2.1046  1.8467  0.0471
  496MPD2    N1 7435   2.531   3.937  15.168 -0.1098 -0.2547 -0.1656
  496MPD2    H7 7436   2.626   3.902  15.177 -1.3628 -2.9881  2.3631
  497TMC3    C1 7437   1.968   4.238  15.306  0.5547 -0.6296  0.5417
  497TMC3    C2 7438   1.872   4.243  15.199  0.0048 -0.0371 -0.6568
  497TMC3    C3 7439   1.773   4.147  15.194  0.7119 -0.2332 -0.4873
  497TMC3    C4 7440   1.948   4.148  15.407  0.4137  0.3442  0.0569
  497TMC3    C5 7441   1.847   4.054  15.397 -0.1374  0.1480 -0.1992
  497TMC3    C6 7442   1.759   4.052  15.295  0.4517  0.7125 -0.2667
  497TMC3     C 7443   2.095   4.233  15.245 -0.3844 -0.4654  0.1445
  497TMC3     O 7444   2.099   4.172  15.135  0.0786 -0.1538 -0.2585
  497TMC3     H 7445   1.901   4.306  15.116  4.0435 -2.2660 -0.9206
  497TMC3    H1 7446   2.034   4.126  15.469 -0.8818 -1.0301  1.3776
  497TMC3    H2 7447   1.686   3.973  15.284  2.0927 -0.7779 -0.5575
  497TMC3    C7 7448   1.847   3.928  15.484  0.5974 -0.2994 -0.1510
  497TMC3    C8 7449   1.728   4.097  15.055 -0.4491  0.5495  0.0894
  497TMC3    O1 7450   1.797   3.830  15.430  0.6170  0.4415 -0.0397
  497TMC3    O2 7451   1.738   3.979  15.036  0.0094 -0.0996  0.4180
  498MPD2     C 7452   3.181   4.103   9.636  0.6832 -0.3021 -0.0171
  498MPD2    C1 7453   3.150   4.188   9.741  0.9490  0.2427  0.6048
  498MPD2    C2 7454   3.037   4.176   9.811  0.4340  0.0561 -0.8506
  498MPD2    C3 7455   2.948   4.074   9.770  0.0462 -0.3644 -0.1046
  498MPD2    C4 7456   2.978   3.992   9.662 -0.3277  0.1349  0.0528
  498MPD2    C5 7457   3.091   4.009   9.591  0.1358 -0.3709 -0.7387
  498MPD2     H 7458   3.020   4.236   9.900  0.1580 -0.4798 -0.5482
  498MPD2    H1 7459   2.910   3.908   9.652  0.5280 -0.1296 -3.4494
  498MPD2    H2 7460   3.271   4.108   9.576  0.2741  1.0753 -0.5155
  498MPD2    H3 7461   3.112   3.943   9.507 -1.5406  0.2009 -1.6000
  498MPD2     N 7462   2.834   4.052   9.849  0.0064  0.0947 -0.1346
  498MPD2    H5 7463   2.824   4.116   9.927  0.6612  0.0736 -0.0365
  498MPD2    N1 7464   3.246   4.290   9.790  0.4508 -0.1983  0.1177
  498MPD2    H7 7465   3.203   4.365   9.843 -0.2437 -2.0485  2.1162
  499TMC3    C1 7466   3.470   4.393   9.810  0.1041 -0.0504  0.2612
  499TMC3    C2 7467   3.603   4.371   9.798  0.0221 -0.2097  0.3941
  499TMC3    C3 7468   3.695   4.475   9.806  0.5600 -0.0344  0.0238
  499TMC3    C4 7469   3.421   4.518   9.847  0.1159  0.6232  0.5902
  499TMC3    C5 7470   3.516   4.615   9.859 -0.3993  0.2445  0.2502
  499TMC3    C6 7471   3.655   4.601   9.839  0.0843 -0.2462  0.3181
  499TMC3     C 7472   3.382   4.283   9.755 -0.1500  0.2595 -0.7628
  499TMC3     O 7473   3.440   4.192   9.692  0.4000  0.0376 -0.5367
  499TMC3     H 7474   3.638   4.271   9.772  1.0796 -0.2074  1.8177
  499TMC3    H1 7475   3.314   4.538   9.854  0.3756  2.3028 -0.1046
  499TMC3    H2 7476   3.730   4.668   9.879  0.2838  0.9666 -2.0695
  499TMC3    C7 7477   3.471   0.013   9.877 -0.2827 -0.4403  0.1364
  499TMC3    C8 7478   3.841   4.441   9.796  0.2833 -0.0771  0.2740
  499TMC3    O1 7479   3.353   0.022   9.910 -0.1731 -0.5785  0.5685
  499TMC3    O2 7480   3.856   4.320   9.789 -1.0594 -0.3579 -0.0606
  500MPD2     C 7481   4.299   1.419   9.900  0.3255 -0.5953 -0.6114
  500MPD2    C1 7482   4.247   1.481  10.012  0.1268  0.4136 -0.5280
  500MPD2    C2 7483   4.112   1.516  10.014  0.2118  0.0512 -0.1406
  500MPD2    C3 7484   4.031   1.490   9.906  0.5459  0.2209  0.4230
  500MPD2    C4 7485   4.091   1.431   9.792  0.2771 -0.1241  0.5781
  500MPD2    C5 7486   4.220   1.400   9.789 -0.0789 -0.7885 -0.0646
  500MPD2     H 7487   4.073   1.552  10.108  0.2227 -0.4246  0.0449
  500MPD2    H1 7488   4.037   1.402   9.702  0.5789  0.5644  0.1782
  500MPD2    H2 7489   4.403   1.395   9.886  0.7409  1.0489 -0.3005
  500MPD2    H3 7490   4.265   1.353   9.703 -1.8331 -0.1048 -1.3448
  500MPD2     N 7491   3.888   1.486   9.916  0.3158 -0.4310  0.1642
  500MPD2    H5 7492   3.841   1.439   9.839  1.4474 -0.4886 -0.4926
  500MPD2    N1 7493   4.321   1.502  10.131  0.2102  0.7115  0.4364
  500MPD2    H7 7494   4.276   1.550  10.209  0.0077 -1.0901  1.4209
  501TMC3    C1 7495   4.499   1.483  10.277  0.3866  0.2515  0.1657
  501TMC3    C2 7496   4.435   1.574  10.345  0.3139  0.0720  0.2604
  501TMC3    C3 7497   4.436   1.569  10.480 -0.3988  0.2093 -0.0317
  501TMC3    C4 7498   4.575   1.379  10.330 -0.0426  1.0714  0.4352
  501TMC3    C5 7499   4.594   1.388  10.463 -0.3554  0.2493 -0.3314
  501TMC3    C6 7500   4.519   1.472  10.539 -0.3202 -0.5147 -0.6913
  501TMC3     C 7501   4.449   1.457  10.143 -0.0554  0.1516 -0.2650
  501TMC3     O 7502   4.517   1.386  10.072 -0.1402 -0.1246 -0.1200
  501TMC3     H 7503   4.395   1.657  10.287  0.4371  0.0365  0.1256
  501TMC3    H1 7504   4.649   1.324  10.273 -3.0701 -0.1376 -2.3650
  501TMC3    H2 7505   4.525   1.464  10.647  1.3713 -0.5889 -0.7940
  501TMC3    C7 7506   4.730   1.384  10.509  0.3344 -0.0936  0.1625
  501TMC3    C8 7507   4.450   1.689  10.552 -0.2412 -0.0523  0.8207
  501TMC3    O1 7508   0.067   1.305  10.454  0.3304  0.3726 -0.0777
  501TMC3    O2 7509   4.556   1.702  10.617 -0.5547  0.3518 -0.6049
  502TMC3    C1 7510   3.883   4.284  15.353  0.4680 -0.3145  0.0052
  502TMC3    C2 7511   3.953   4.389  15.396 -0.3943  0.4385  1.0232
  502TMC3    C3 7512   3.908   4.520  15.362 -0.1324  0.1374  0.4885
  502TMC3    C4 7513   3.755   4.301  15.307 -0.9369  0.4052  0.1236
  502TMC3    C5 7514   3.700   4.427  15.288  0.0184  0.0608 -0.3344
  502TMC3    C6 7515   3.779   4.536  15.314  0.3581 -0.4323  0.2982
  502TMC3     C 7516   3.889   4.166  15.433  0.8710  0.1293  0.7049
  502TMC3     O 7517   3.880   4.048  15.396 -0.2324  0.2184  0.4307
  502TMC3     H 7518   4.058   4.372  15.414 -1.0206 -1.3477  2.9262
  502TMC3    H1 7519   3.700   4.214  15.272 -1.3766  0.4240  0.7884
  502TMC3    H2 7520   3.738   4.637  15.308 -2.1496 -1.5017 -0.5078
  502TMC3    C7 7521   3.558   4.435  15.279 -0.1001  0.2315 -0.0016
  502TMC3    C8 7522   4.000   4.632  15.344  0.2205 -0.0116  0.5006
  502TMC3    O1 7523   3.502   4.336  15.334 -0.4841  0.2016  0.2351
  502TMC3    O2 7524   3.968   4.713  15.260 -0.0406 -0.6415 -0.0851
  503MPD2     C 7525   1.494   0.653  16.709 -0.2963 -0.1082 -0.4361
  503MPD2    C1 7526   1.518   0.677  16.848 -0.0995 -0.1028  0.2216
  503MPD2    C2 7527   1.593   0.597  16.926  0.5165 -0.1851  0.3223
  503MPD2    C3 7528   1.643   0.475  16.874 -0.1174 -0.2015  0.1170
  503MPD2    C4 7529   1.599   0.435  16.750 -0.3994 -0.2473  0.0229
  503MPD2    C5 7530   1.528   0.525  16.669  0.0462 -1.2307  0.7311
  503MPD2     H 7531   1.620   0.629  17.026 -0.7877 -0.0187  0.6216
  503MPD2    H1 7532   1.608   0.331  16.720  1.1457  0.1303 -0.8276
  503MPD2    H2 7533   1.444   0.722  16.643 -0.7095 -0.5597 -0.5949
  503MPD2    H3 7534   1.495   0.496  16.569 -1.7484  1.8617  0.4151
  503MPD2     N 7535   1.733   0.397  16.955  0.4091  0.6003 -0.6897
  503MPD2    H5 7536   1.748   0.432  17.049 -0.2208  0.3967 -0.5142
  503MPD2    N1 7537   1.483   0.799  16.912 -0.0855 -0.0530 -0.0579
  503MPD2    H7 7538   1.502   0.804  17.012  0.2146 -0.0200 -0.1176
  504TMC3    C1 7539   1.895   0.247  17.002  0.1902  0.6078 -0.1441
  504TMC3    C2 7540   1.849   0.230  17.131 -0.2676 -0.5739  0.1746
  504TMC3    C3 7541   1.938   0.258  17.234 -0.1744 -0.6097  0.5255
  504TMC3    C4 7542   2.022   0.288  16.973  0.3537 -0.0952 -0.3908
  504TMC3    C5 7543   2.102   0.329  17.078 -0.3958 -0.3979  0.1777
  504TMC3    C6 7544   2.059   0.311  17.211  0.1050 -0.7913 -0.2730
  504TMC3     C 7545   1.805   0.294  16.906  0.1040 -0.2018 -0.8035
  504TMC3     O 7546   1.819   0.258  16.789  0.0565  0.1781 -0.1351
  504TMC3     H 7547   1.745   0.208  17.151 -0.6711  0.5843 -0.6168
  504TMC3    H1 7548   2.053   0.299  16.870  1.8079 -0.1720  0.0351
  504TMC3    H2 7549   2.131   0.319  17.292  0.2460  2.1614 -0.6812
  504TMC3    C7 7550   2.248   0.337  17.057 -0.6914  0.5218 -0.4471
  504TMC3    C8 7551   1.908   0.187  17.358  0.3152 -0.0917 -0.4979
  504TMC3    O1 7552   2.283   0.257  16.972 -0.1804 -0.0198  0.1328
  504TMC3    O2 7553   1.842   0.081  17.351 -0.1608  0.2896 -0.2649
  505MPD2     C 7554   2.065   3.012  11.040 -0.5915  0.7661  0.0795
  505MPD2    C1 7555   2.058   3.107  10.936  0.3217  0.4715 -0.1235
  505MPD2    C2 7556   2.143   3.214  10.939  0.9038 -0.2739 -0.0284
  505MPD2    C3 7557   2.241   3.238  11.030 -0.2990 -0.1421  0.0573
  505MPD2    C4 7558   2.245   3.146  11.133  0.5868 -0.2009 -0.2408
  505MPD2    C5 7559   2.162   3.037  11.135  0.0090  0.4001  0.2947
  505MPD2     H 7560   2.141   3.290  10.862  0.7121  1.0679  1.2824
  505MPD2    H1 7561   2.322   3.156  11.208  1.2016  1.3900 -1.0781
  505MPD2    H2 7562   1.994   2.930  11.048 -1.2606  1.2765 -0.6257
  505MPD2    H3 7563   2.167   2.971  11.221 -1.6781 -0.3670 -0.1920
  505MPD2     N 7564   2.339   3.335  11.019 -0.7038  0.1333  0.2270
  505MPD2    H5 7565   2.408   3.327  11.092 -0.0849 -2.1037 -0.5960
  505MPD2    N1 7566   1.974   3.088  10.825 -0.1820 -0.4141 -0.1523
  505MPD2    H7 7567   1.927   2.999  10.812 -0.6762 -0.1637 -0.0796
  506TMC3    C1 7568   1.870   3.140  10.621 -0.4056 -0.3108  0.3366
  506TMC3    C2 7569   1.835   3.242  10.534 -0.7408 -0.4562 -0.0201
  506TMC3    C3 7570   1.906   3.269  10.424  0.4078 -0.0135  0.2243
  506TMC3    C4 7571   1.965   3.053  10.577  0.4536 -0.5236 -0.0777
  506TMC3    C5 7572   2.042   3.080  10.470  0.5316 -0.5595 -0.0260
  506TMC3    C6 7573   2.015   3.189  10.392  0.4952  0.8443  0.0636
  506TMC3     C 7574   1.919   3.188  10.746 -0.1886  0.1638  0.1032
  506TMC3     O 7575   1.927   3.312  10.758  0.1719 -0.4361 -0.2259
  506TMC3     H 7576   1.758   3.316  10.554 -0.3558 -0.3988  1.2487
  506TMC3    H1 7577   1.975   2.960  10.631  1.1564 -0.4888 -0.1509
  506TMC3    H2 7578   2.065   3.192  10.296 -0.1689 -2.8477 -0.4126
  506TMC3    C7 7579   2.170   3.015  10.470  0.2297 -0.0619  0.0568
  506TMC3    C8 7580   1.862   3.372  10.325 -0.5952 -0.4265  0.1380
  506TMC3    O1 7581   2.170   2.892  10.465 -0.1078 -0.8847  0.2236
  506TMC3    O2 7582   1.741   3.405  10.313  0.1093 -0.0245  0.2805
  507TMC3    C1 7583   2.833   4.630  14.371 -0.5770 -0.0610  0.1705
  507TMC3    C2 7584   2.951   4.698  14.333 -0.2190  0.2987 -0.0186
  507TMC3    C3 7585   2.954   0.090  14.366 -0.9944  0.6910 -0.3656
  507TMC3    C4 7586   2.738   4.677  14.454 -0.1380 -0.0005 -0.5105
  507TMC3    C5 7587   2.739   0.075  14.477 -0.4483 -0.1207  0.5680
  507TMC3    C6 7588   2.858   0.146  14.448 -0.1675  0.2287  0.0243
  507TMC3     C 7589   2.799   4.509  14.300  0.7855 -0.2198  0.3141
  507TMC3     O 7590   2.702   4.437  14.338  0.1761  0.3999 -0.0376
  507TMC3     H 7591   3.030   4.655  14.273 -0.1479  2.1217 -1.2137
  507TMC3    H1 7592   2.655   4.615  14.486  0.1229  0.6087  1.4148
  507TMC3    H2 7593   2.871   0.252  14.468  0.0792  0.4471 -1.2689
  507TMC3    C7 7594   2.628   0.144  14.417 -0.4806  0.3632  0.1191
  507TMC3    C8 7595   2.997   0.176  14.260  0.3799 -0.0745  0.0079
  507TMC3    O1 7596   2.644   0.270  14.408  0.4446  0.2570 -0.5476
  507TMC3    O2 7597   3.096   0.139  14.193  0.0903 -0.4564  0.1346
  508MPD2     C 7598   3.600   2.404  16.489 -0.9211 -0.4113 -0.5465
  508MPD2    C1 7599   3.735   2.424  16.474  0.0719  0.5550  0.1142
  508MPD2    C2 7600   3.781   2.475  16.351 -0.7442 -0.0220  0.1897
  508MPD2    C3 7601   3.687   2.518  16.260 -0.0669  0.3621  0.1990
  508MPD2    C4 7602   3.547   2.493  16.276 -0.0731 -0.9590 -0.4579
  508MPD2    C5 7603   3.506   2.425  16.387  0.0684 -0.2736  0.8265
  508MPD2     H 7604   3.884   2.495  16.324 -1.3199  0.2892 -1.8220
  508MPD2    H1 7605   3.478   2.515  16.196  0.1726 -0.6809 -0.5910
  508MPD2    H2 7606   3.554   2.368  16.580 -0.3227  0.9560  0.2909
  508MPD2    H3 7607   3.403   2.397  16.408 -0.5010 -0.1374 -1.8390
  508MPD2     N 7608   3.737   2.584  16.150  0.1508 -0.2543 -0.0065
  508MPD2    H5 7609   3.838   2.587  16.140  0.3443  0.0277  2.0946
  508MPD2    N1 7610   3.815   2.395  16.581  0.2014 -0.0552 -0.1671
  508MPD2    H7 7611   3.775   2.377  16.673  1.0504  2.8767  0.7849
  509TMC3    C1 7612   3.690   2.898  15.826 -0.4197 -0.2558  0.2172
  509TMC3    C2 7613   3.824   2.918  15.816 -0.1267  0.1454 -0.3288
  509TMC3    C3 7614   3.908   2.837  15.893 -0.0973  0.0073  0.3790
  509TMC3    C4 7615   3.639   2.785  15.874 -1.0200 -0.3900  0.0648
  509TMC3    C5 7616   3.724   2.706  15.949  1.0539 -0.0191 -0.6337
  509TMC3    C6 7617   3.862   2.725  15.958  0.2949  0.1837  0.3890
  509TMC3     C 7618   3.607   2.989  15.746 -0.5912  0.7835 -0.2718
  509TMC3     O 7619   3.653   3.013  15.636  0.1968 -0.5855  0.1783
  509TMC3     H 7620   3.866   3.008  15.772  1.5943 -0.5095 -0.0398
  509TMC3    H1 7621   3.535   2.754  15.863 -1.2548  0.3986  0.0306
  509TMC3    H2 7622   3.918   2.662  16.026  1.8511  1.0217 -0.1140
  509TMC3    C7 7623   3.656   2.656  16.068  0.1151  0.4721 -1.0696
  509TMC3    C8 7624   4.025   2.894  15.957  0.0982 -0.0175  1.0671
  509TMC3    O1 7625   3.536   2.682  16.077 -0.2424 -0.1196  0.8443
  509TMC3    O2 7626   4.113   2.811  15.997  0.0124 -0.0606 -0.8736
  510MPD2     C 7627   1.404   4.406  14.365 -0.2060 -0.5557  0.0556
  510MPD2    C1 7628   1.433   4.276  14.392 -0.0661  0.0372 -0.4490
  510MPD2    C2 7629   1.511   4.206  14.308 -0.2973 -0.8647  0.2346
  510MPD2    C3 7630   1.572   4.263  14.196 -0.3849  0.5141  0.9304
  510MPD2    C4 7631   1.546   4.397  14.168 -0.3307 -0.1406 -0.0817
  510MPD2    C5 7632   1.453   4.464  14.249 -0.3883 -0.1861  0.0327
  510MPD2     H 7633   1.524   4.100  14.331  1.7208 -0.8892 -1.0323
  510MPD2    H1 7634   1.601   4.452  14.092 -1.0871 -0.7481 -1.0630
  510MPD2    H2 7635   1.339   4.462  14.432 -0.9465 -1.3555  0.0048
  510MPD2    H3 7636   1.427   4.567  14.228 -0.2369 -0.4809 -1.5417
  510MPD2     N 7637   1.667   4.178  14.127  0.5120 -0.2084 -0.3542
  510MPD2    H5 7638   1.681   4.088  14.172 -1.4934 -0.3678 -0.0339
  510MPD2    N1 7639   1.401   4.214  14.516 -0.4803  0.7366 -0.0057
  510MPD2    H7 7640   1.422   4.115  14.517 -0.5790  0.7239  3.7358
  511TMC3    C1 7641   1.373   4.196  14.758  0.0637 -0.9735  0.6874
  511TMC3    C2 7642   1.305   4.235  14.865  0.1615  0.4460  0.9490
  511TMC3    C3 7643   1.284   4.148  14.971 -0.2486  0.1191  0.6931
  511TMC3    C4 7644   1.429   4.072  14.753 -0.8139  1.1732  0.8033
  511TMC3    C5 7645   1.409   3.986  14.855  0.1571 -0.3242 -0.0444
  511TMC3    C6 7646   1.330   4.019  14.961  0.1458  0.1143  0.0997
  511TMC3     C 7647   1.383   4.283  14.639 -0.4137  0.4348 -0.1079
  511TMC3     O 7648   1.351   4.401  14.656 -0.4514  0.9360  0.1124
  511TMC3     H 7649   1.259   4.333  14.865 -0.8001  0.0006 -0.5009
  511TMC3    H1 7650   1.503   4.048  14.678 -0.1718 -0.5835  1.9916
  511TMC3    H2 7651   1.307   3.952  15.043  1.5758  0.1287  0.5153
  511TMC3    C7 7652   1.472   3.856  14.851  0.3633 -0.3644  0.3747
  511TMC3    C8 7653   1.244   4.207  15.104  0.3449  0.4655  0.4960
  511TMC3    O1 7654   1.569   3.843  14.777  0.1027 -0.2194 -0.6745
  511TMC3    O2 7655   1.272   4.327  15.110 -0.9955 -0.0223  0.3578
  512TMC3    C1 7656   0.368   3.617  13.373 -0.0568 -0.1685  0.6405
  512TMC3    C2 7657   0.483   3.666  13.422  0.1585  0.3409 -0.7307
  512TMC3    C3 7658   0.569   3.571  13.473  0.2167 -0.9342 -0.0618
  512TMC3    C4 7659   0.348   3.483  13.348 -0.4195  0.0879 -0.0193
  512TMC3    C5 7660   0.448   3.398  13.372  0.0426 -1.1998  0.2536
  512TMC3    C6 7661   0.563   3.434  13.439 -0.2091 -0.1262  0.5887
  512TMC3     C 7662   0.287   3.713  13.302 -0.1908  0.3258 -0.7312
  512TMC3     O 7663   0.322   3.829  13.329 -0.2289 -0.2080  0.1942
  512TMC3     H 7664   0.497   3.773  13.428 -1.3551  0.3865  1.9168
  512TMC3    H1 7665   0.253   3.446  13.311 -1.9616  0.8504  3.1735
  512TMC3    H2 7666   0.645   3.363  13.438  2.4646  2.9209 -0.0913
  512TMC3    C7 7667   0.453   3.276  13.299 -0.4455  0.2138  0.2401
  512TMC3    C8 7668   0.689   3.616  13.546  0.5004  0.3299 -0.2285
  512TMC3    O1 7669   0.371   3.280  13.205  0.2745 -0.2543  0.6308
  512TMC3    O2 7670   0.776   3.533  13.561 -0.0195 -0.2573  0.3105
  513MPD2     C 7671   2.180   3.033  13.015 -0.0071 -0.4161  0.4374
  513MPD2    C1 7672   2.309   3.028  12.962 -0.4170  0.4831  0.2599
  513MPD2    C2 7673   2.370   3.150  12.946 -0.1235  0.0536  0.2167
  513MPD2    C3 7674   2.316   3.271  12.998 -0.1989  0.0868 -0.3511
  513MPD2    C4 7675   2.185   3.270  13.044 -0.2091  0.1206  0.5382
  513MPD2    C5 7676   2.114   3.153  13.043 -0.6381  0.1313 -0.0333
  513MPD2     H 7677   2.467   3.154  12.896 -0.1846 -1.3898 -0.0099
  513MPD2    H1 7678   2.127   3.356  13.077 -0.7854  0.3188 -0.9746
  513MPD2    H2 7679   2.131   2.939  13.036  0.5655 -0.6905  0.5288
  513MPD2    H3 7680   2.014   3.154  13.083 -0.5030  0.6749  0.2971
  513MPD2     N 7681   2.381   3.390  12.971  0.4301  0.8616 -0.0352
  513MPD2    H5 7682   2.448   3.395  12.895  0.7104  1.5454  0.2510
  513MPD2    N1 7683   2.375   2.909  12.916  0.5729  0.0564 -0.1692
  513MPD2    H7 7684   2.476   2.914  12.911  0.5447 -1.8926 -3.2436
  514TMC3    C1 7685   2.394   2.730  12.768  0.5610  0.3580  0.6930
  514TMC3    C2 7686   2.346   2.708  12.645  0.7605  0.8451  0.0010
  514TMC3    C3 7687   2.431   2.716  12.539 -0.0494 -0.1928  1.1249
  514TMC3    C4 7688   2.531   2.751  12.795 -0.7708  0.2260  0.0087
  514TMC3    C5 7689   2.609   2.786  12.685  0.8013  0.2168 -0.1179
  514TMC3    C6 7690   2.560   2.769  12.561 -0.0431 -0.6093 -0.4060
  514TMC3     C 7691   2.306   2.796  12.865  0.2067  0.2884 -0.8772
  514TMC3     O 7692   2.185   2.780  12.852  0.3667 -0.1109 -0.5306
  514TMC3     H 7693   2.239   2.691  12.634  0.8126 -0.5678  1.5776
  514TMC3    H1 7694   2.579   2.765  12.891 -2.8264  1.9505  0.7849
  514TMC3    H2 7695   2.623   2.795  12.477  0.0890 -0.2917 -0.2134
  514TMC3    C7 7696   2.669   2.921  12.707 -0.3333  0.3156  0.3541
  514TMC3    C8 7697   2.370   2.719  12.402  0.4794  0.9000 -0.8896
  514TMC3    O1 7698   2.635   2.980  12.810  0.5033 -0.5652  0.8851
  514TMC3    O2 7699   2.264   2.662  12.391 -0.2676  0.6505 -0.1641
  515MPD2     C 7700   0.409   0.968  15.321  0.9614  0.3280  0.6668
  515MPD2    C1 7701   0.444   0.924  15.197  0.0152  0.0125  0.2597
  515MPD2    C2 7702   0.560   0.979  15.139 -0.2950  0.5494  0.3623
  515MPD2    C3 7703   0.643   1.065  15.206 -0.2767 -0.3352  0.0180
  515MPD2    C4 7704   0.594   1.122  15.322 -0.2353 -0.1176 -0.1525
  515MPD2    C5 7705   0.482   1.069  15.380 -0.5911 -0.7285 -0.6678
  515MPD2     H 7706   0.577   0.948  15.036 -2.8599 -0.5727  0.2648
  515MPD2    H1 7707   0.661   1.185  15.379  0.0358  0.7533 -1.4220
  515MPD2    H2 7708   0.320   0.942  15.378  0.4984  0.2246 -0.1002
  515MPD2    H3 7709   0.449   1.093  15.480  1.5340 -0.6927  0.0132
  515MPD2     N 7710   0.770   1.112  15.159  0.1179  0.2503  0.4058
  515MPD2    H5 7711   0.818   1.179  15.219 -1.2471  1.9359 -0.3809
  515MPD2    N1 7712   0.376   0.817  15.138  0.2046  0.0245  0.2616
  515MPD2    H7 7713   0.392   0.807  15.039  0.7582  1.1134  0.2481
  516TMC3    C1 7714   0.217   0.648  15.108 -0.4088 -0.6764 -0.3129
  516TMC3    C2 7715   0.216   0.679  14.976 -0.0171  0.1790 -0.5684
  516TMC3    C3 7716   0.186   0.595  14.879 -0.3319  0.2921  0.0341
  516TMC3    C4 7717   0.193   0.521  15.146  0.4355  0.1635  0.3390
  516TMC3    C5 7718   0.146   0.432  15.045 -0.7589 -0.1956 -0.5407
  516TMC3    C6 7719   0.146   0.465  14.909 -0.7666 -0.5685  0.4867
  516TMC3     C 7720   0.292   0.734  15.202 -0.4848 -0.0979  0.0198
  516TMC3     O 7721   0.268   0.718  15.318 -0.0295  0.1113  0.2544
  516TMC3     H 7722   0.231   0.784  14.957 -0.7716  0.6292  1.3699
  516TMC3    H1 7723   0.220   0.484  15.245 -0.1359 -1.1594 -0.0054
  516TMC3    H2 7724   0.107   0.404  14.827  0.2377 -1.5126  0.7033
  516TMC3    C7 7725   0.097   0.298  15.084  0.0721 -0.2634  0.1874
  516TMC3    C8 7726   0.146   0.643  14.746 -0.4390  0.4475 -0.4965
  516TMC3    O1 7727   0.107   0.263  15.201 -0.6874 -0.0708 -0.2471
  516TMC3    O2 7728   0.057   0.581  14.693 -0.4661 -0.3306  0.0122
  517MPD2     C 7729   4.470   2.198  17.673  0.1792 -0.6445 -0.2438
  517MPD2    C1 7730   4.565   2.249  17.583  0.2585 -0.1106  0.1403
  517MPD2    C2 7731   4.590   2.387  17.577 -0.9855  0.2053 -0.0339
  517MPD2    C3 7732   4.527   2.473  17.663  0.2100 -0.0307  0.0579
  517MPD2    C4 7733   4.450   2.418   0.018 -0.3691 -0.0424  0.4281
  517MPD2    C5 7734   4.420   2.286   0.022  0.0967 -0.6406  0.4210
  517MPD2     H 7735   4.647   2.428  17.495 -0.3704 -0.2870  0.1472
  517MPD2    H1 7736   4.410   2.483   0.095  0.1329  0.8103 -0.0320
  517MPD2    H2 7737   4.429   2.098  17.668 -1.8303  0.0518  2.2616
  517MPD2    H3 7738   4.361   2.245   0.103 -2.1489  2.2291  0.2064
  517MPD2     N 7739   4.541   2.616  17.668  0.7854 -0.3999  0.3001
  517MPD2    H5 7740   4.492   2.678  17.732  1.9469  0.4448  0.3692
  517MPD2    N1 7741   4.628   2.165  17.480 -0.2203 -0.0574 -0.3431
  517MPD2    H7 7742   4.660   2.214  17.397 -0.6748 -2.0133 -1.6887
  518TMC3    C1 7743   4.729   1.975  17.394  0.1773 -0.7086  0.2529
  518TMC3    C2 7744   4.698   1.848  17.360 -0.2322  0.4980 -0.9006
  518TMC3    C3 7745   0.028   1.795  17.254  0.3420  0.3795  0.1798
  518TMC3    C4 7746   0.073   2.061  17.327 -0.1389  0.8636 -0.2543
  518TMC3    C5 7747   0.143   2.002  17.224  0.5907  0.2767  0.3692
  518TMC3    C6 7748   0.125   1.871  17.190 -0.9105 -0.0107  0.2921
  518TMC3     C 7749   4.634   2.028  17.488  0.4749 -0.0683  0.8090
  518TMC3     O 7750   4.598   1.950  17.578  0.1980 -0.0217  0.1625
  518TMC3     H 7751   4.627   1.788  17.416 -0.9039  0.5358 -1.7240
  518TMC3    H1 7752   0.105   2.155  17.372 -1.6495  0.0624  2.4783
  518TMC3    H2 7753   0.183   1.831  17.108  1.8100  2.2580  1.0870
  518TMC3    C7 7754   0.287   2.042  17.222  0.0754  0.0151 -0.2474
  518TMC3    C8 7755   0.054   1.649  17.243 -0.0268  0.2477 -0.0265
  518TMC3    O1 7756   0.314   2.160  17.244 -0.0718  0.5201  0.3489
  518TMC3    O2 7757   0.168   1.626  17.205 -0.2010 -0.2754  0.7219
  519MPD2     C 7758   1.829   0.442  14.623 -0.0057  0.5440 -0.3835
  519MPD2    C1 7759   1.703   0.423  14.575  0.6024  0.1867 -0.1832
  519MPD2    C2 7760   1.683   0.326  14.471  0.0917  0.8775 -0.5959
  519MPD2    C3 7761   1.787   0.237  14.443  0.2671  0.3816  0.6442
  519MPD2    C4 7762   1.909   0.258  14.501  0.0624  0.7619  0.4809
  519MPD2    C5 7763   1.928   0.356  14.595  0.5111  0.2144  0.2230
  519MPD2     H 7764   1.583   0.311  14.431  1.2797 -0.1898 -3.1255
  519MPD2    H1 7765   1.990   0.189  14.480  1.0292  2.2728 -0.8405
  519MPD2    H2 7766   1.850   0.524  14.691  1.3482  1.3175 -1.7177
  519MPD2    H3 7767   2.027   0.363  14.637  0.5494  0.1608  0.1433
  519MPD2     N 7768   1.771   0.121  14.361 -0.8537  0.1853  0.2891
  519MPD2    H5 7769   1.859   0.072  14.346 -0.3792  0.6588  1.6065
  519MPD2    N1 7770   1.604   0.516  14.606  0.8047 -0.3653 -0.2031
  519MPD2    H7 7771   1.632   0.597  14.662 -2.0032  0.4843 -0.0536
  520TMC3    C1 7772   1.709   4.719  14.198  0.4111  0.3723 -0.6143
  520TMC3    C2 7773   1.678   0.010  14.068 -0.7997 -0.5741 -0.1021
  520TMC3    C3 7774   1.741   4.682  13.966  0.2715  0.0571  0.1093
  520TMC3    C4 7775   1.801   4.631  14.232 -0.5581  0.1562 -0.2711
  520TMC3    C5 7776   1.862   4.567  14.134  0.5004  0.6869  0.0484
  520TMC3    C6 7777   1.846   4.597  14.000 -0.1033 -0.7218 -0.1218
  520TMC3     C 7778   1.658   0.076  14.298 -0.0809 -0.5183 -0.2290
  520TMC3     O 7779   1.545   0.127  14.290 -0.0757 -0.3162 -0.3266
  520TMC3     H 7780   1.602   0.083  14.041 -0.4856  0.3352  1.4935
  520TMC3    H1 7781   1.817   4.605  14.336  0.1588  1.1525 -0.1337
  520TMC3    H2 7782   1.891   4.544  13.917  1.4567 -0.0698  0.3162
  520TMC3    C7 7783   1.967   4.472  14.168  0.2309  0.3890 -0.1326
  520TMC3    C8 7784   1.718   4.717  13.827 -0.3808  0.2479  0.1213
  520TMC3    O1 7785   1.954   4.412  14.275  0.1591 -0.0749  1.0096
  520TMC3    O2 7786   1.786   4.663  13.743 -0.2288 -0.6822  0.0458
  521MPD2     C 7787   2.652   3.511  17.478  0.7153  0.7327 -0.0940
  521MPD2    C1 7788   2.624   3.422  17.373 -0.2695 -0.3308  0.8585
  521MPD2    C2 7789   2.731   3.361  17.315  0.8044  0.0969 -0.1717
  521MPD2    C3 7790   2.863   3.386  17.347 -0.5893  0.3338 -0.2512
  521MPD2    C4 7791   2.881   3.451  17.468  0.5069 -0.1717  0.6000
  521MPD2    C5 7792   2.781   3.520  17.532  1.0854 -0.6326  0.2338
  521MPD2     H 7793   2.713   3.306  17.224 -0.7133  0.3537 -0.0207
  521MPD2    H1 7794   2.981   3.465  17.506  0.7645 -0.9271  0.1975
  521MPD2    H2 7795   2.575   3.550  17.543 -0.9928 -3.1762  0.1882
  521MPD2    H3 7796   2.799   3.574  17.624 -1.4101 -1.4127  1.1728
  521MPD2     N 7797   2.966   3.318  17.275 -0.2748  0.0716 -0.0349
  521MPD2    H5 7798   2.945   3.273  17.187 -1.4256 -0.6526  0.6012
  521MPD2    N1 7799   2.491   3.396  17.325  0.8030  0.0432  0.0445
  521MPD2    H7 7800   2.404   3.417  17.372 -0.7855 -2.0825 -1.9055
  522TMC3    C1 7801   3.183   3.247  17.211  1.3237 -0.1794 -0.2913
  522TMC3    C2 7802   3.319   3.254  17.231 -0.1144 -0.1169 -0.0133
  522TMC3    C3 7803   3.404   3.204  17.138 -0.2384 -0.5638  0.0810
  522TMC3    C4 7804   3.129   3.191  17.097 -0.2534 -0.0777  0.5365
  522TMC3    C5 7805   3.220   3.145  17.006  0.3748  0.1913  0.1565
  522TMC3    C6 7806   3.355   3.147  17.026  0.2023 -0.1036 -0.3078
  522TMC3     C 7807   3.099   3.322  17.309 -0.0518 -0.8257  0.0397
  522TMC3     O 7808   3.158   3.370  17.408  0.3135  0.2854  0.0187
  522TMC3     H 7809   3.363   3.292  17.323 -0.5189  0.5494 -0.0937
  522TMC3    H1 7810   3.024   3.176  17.074 -0.0805  0.5966 -0.7306
  522TMC3    H2 7811   3.419   3.110  16.946  0.5216 -0.4366  0.0981
  522TMC3    C7 7812   3.182   3.107  16.867  0.1739  0.6813 -0.0027
  522TMC3    C8 7813   3.539   3.211  17.173 -0.3341 -0.6715 -0.3695
  522TMC3    O1 7814   3.265   3.052  16.795 -0.0707  0.8154  0.4333
  522TMC3    O2 7815   3.572   3.291  17.261 -0.3791 -0.0814  0.2608
  523MPD2     C 7816   4.419   2.313   9.913 -0.2614 -0.0601 -0.5514
  523MPD2    C1 7817   4.484   2.413   9.978  0.3971 -0.6359  0.2888
  523MPD2    C2 7818   4.475   2.547   9.927  0.7213 -0.2147 -0.3692
  523MPD2    C3 7819   4.394   2.571   9.817  0.2955 -0.0437 -0.1688
  523MPD2    C4 7820   4.330   2.466   9.755  0.0425 -0.3178 -0.6308
  523MPD2    C5 7821   4.346   2.336   9.801  0.6217 -0.5748  0.0898
  523MPD2     H 7822   4.522   2.629   9.979  3.4705 -0.8775 -1.8174
  523MPD2    H1 7823   4.267   2.488   9.670 -1.8470  2.3001  1.4463
  523MPD2    H2 7824   4.437   2.208   9.934 -0.4778  0.0798  0.3604
  523MPD2    H3 7825   4.289   2.258   9.751  3.4738 -0.7665 -2.8129
  523MPD2     N 7826   4.371   2.704   9.764 -0.3175 -0.3379  1.2550
  523MPD2    H5 7827   4.305   2.711   9.687 -0.2729 -0.2649  1.2233
  523MPD2    N1 7828   4.585   2.368  10.069 -0.6868 -0.0807 -0.6721
  523MPD2    H7 7829   4.607   2.269  10.073 -0.3915  0.1593  3.5616
  524TMC3    C1 7830   4.374   2.940   9.738  0.0815 -0.2645 -0.1578
  524TMC3    C2 7831   4.284   2.916   9.640  0.8887  0.7890  0.6730
  524TMC3    C3 7832   4.229   3.027   9.575 -0.2242  0.3513  0.0359
  524TMC3    C4 7833   4.397   3.067   9.792 -0.3840  0.0269  0.2105
  524TMC3    C5 7834   4.327   3.171   9.727  0.1450 -0.2080  0.2655
  524TMC3    C6 7835   4.242   3.154   9.621 -0.6030 -0.8937 -0.6304
  524TMC3     C 7836   4.410   2.824   9.819 -0.1854  0.2271 -0.3119
  524TMC3     O 7837   4.478   2.833   9.921 -0.0977 -0.0249  0.1927
  524TMC3     H 7838   4.291   2.822   9.586  0.5471  1.0848  0.1107
  524TMC3    H1 7839   4.473   3.090   9.865 -0.0271  0.9291 -0.4338
  524TMC3    H2 7840   4.188   3.235   9.575 -1.9500 -1.7477 -0.5457
  524TMC3    C7 7841   4.337   3.298   9.785  0.9673  0.2102 -0.1281
  524TMC3    C8 7842   4.140   3.009   9.472 -0.5947  0.0151  0.0901
  524TMC3    O1 7843   4.425   3.309   9.868  0.7590  0.5081  0.0679
  524TMC3    O2 7844   4.090   3.109   9.414  0.1948 -0.4513 -0.2269
  525MPD2     C 7845   3.070   4.375  14.588  0.1136 -0.2783  0.1599
  525MPD2    C1 7846   3.187   4.402  14.660  0.5163  0.1284  0.3559
  525MPD2    C2 7847   3.297   4.433  14.581 -0.2780  0.5503  0.4087
  525MPD2    C3 7848   3.292   4.431  14.444  0.8606 -0.8166  0.3270
  525MPD2    C4 7849   3.177   4.405  14.375 -0.3790 -0.5576  0.2288
  525MPD2    C5 7850   3.071   4.371  14.454  0.7859  0.3167  0.2634
  525MPD2     H 7851   3.386   4.469  14.633 -0.7449 -0.9033  2.2013
  525MPD2    H1 7852   3.176   4.397  14.267  0.8369 -0.1301  0.1829
  525MPD2    H2 7853   2.974   4.357  14.634 -0.5065  0.5942 -0.7746
  525MPD2    H3 7854   2.980   4.346  14.401  0.6766 -0.4365  0.8101
  525MPD2     N 7855   3.405   4.455  14.359  0.5662 -0.5761  0.3496
  525MPD2    H5 7856   3.379   4.451  14.261  1.4325 -1.1811  0.1436
  525MPD2    N1 7857   3.196   4.403  14.797 -0.2677 -0.4588  0.0214
  525MPD2    H7 7858   3.289   4.407  14.836 -0.9259  2.2436  1.3490
  526TMC3    C1 7859   3.159   4.322  15.003 -0.0685 -0.5753 -0.0924
  526TMC3    C2 7860   3.070   4.312  15.105  0.2756  0.1434  0.4276
  526TMC3    C3 7861   3.114   4.225  15.204 -0.1580 -0.1923 -0.3721
  526TMC3    C4 7862   3.272   4.247  14.989 -0.1343 -0.4828  0.4224
  526TMC3    C5 7863   3.313   4.178  15.101  0.1574 -0.1289  0.2590
  526TMC3    C6 7864   3.237   4.160  15.211  0.2116  0.1534 -0.1906
  526TMC3     C 7865   3.096   4.365  14.881 -0.3646 -0.4298 -0.1381
  526TMC3     O 7866   2.974   4.364  14.873  0.4677  0.8594 -0.3324
  526TMC3     H 7867   2.981   4.373  15.101 -0.6552 -1.3223 -1.4000
  526TMC3    H1 7868   3.320   4.236  14.893  0.0845  2.6454  0.1919
  526TMC3    H2 7869   3.258   4.095  15.295 -0.9935  1.8171  1.4022
  526TMC3    C7 7870   3.442   4.111  15.109 -0.9082 -0.1309  0.2660
  526TMC3    C8 7871   3.036   4.223  15.332 -0.5927 -0.7800 -0.3804
  526TMC3    O1 7872   3.447   4.020  15.188 -0.2251  0.2537  0.1503
  526TMC3    O2 7873   3.093   4.162  15.423 -0.2635  0.1272  0.2634
  527MPD2     C 7874   1.161   2.617   1.207  0.0961 -0.4334 -0.1181
  527MPD2    C1 7875   1.125   2.616   1.070 -0.0661  0.6943  0.2515
  527MPD2    C2 7876   1.229   2.618   0.974 -0.1985 -0.0308 -0.5558
  527MPD2    C3 7877   1.365   2.629   1.015 -0.3643 -0.1630 -0.0161
  527MPD2    C4 7878   1.393   2.631   1.150  0.3404 -0.3168 -0.8357
  527MPD2    C5 7879   1.293   2.629   1.240  0.1815  0.0170  0.6154
  527MPD2     H 7880   1.199   2.616   0.869 -1.4247 -0.3177 -0.1955
  527MPD2    H1 7881   1.498   2.638   1.176 -0.4510  1.1977  1.9782
  527MPD2    H2 7882   1.095   2.615   1.293  2.8546 -0.2371  1.9791
  527MPD2    H3 7883   1.310   2.628   1.347  0.0723 -0.0327  0.6328
  527MPD2     N 7884   1.452   2.625   0.903  0.4527 -0.3582  0.5056
  527MPD2    H5 7885   1.423   2.602   0.809 -1.9520  1.9514  0.6952
  527MPD2    N1 7886   0.989   2.598   1.028  0.0233  0.0274 -0.1711
  527MPD2    H7 7887   0.960   2.635   0.938  1.5698 -0.5240 -0.8930
  528TMC3    C1 7888   0.763   2.539   1.043  0.0421  0.0694  0.3168
  528TMC3    C2 7889   0.740   2.597   0.920 -0.2077 -0.6498  0.1886
  528TMC3    C3 7890   0.615   2.582   0.861 -0.9299  0.3938 -0.1543
  528TMC3    C4 7891   0.653   2.486   1.115  0.1742  1.0533 -0.1614
  528TMC3    C5 7892   0.533   2.480   1.052  0.1260  0.1177  0.2459
  528TMC3    C6 7893   0.508   2.531   0.930  0.8378  0.2101 -0.4659
  528TMC3     C 7894   0.895   2.537   1.105 -1.0505  0.5134 -0.0201
  528TMC3     O 7895   0.916   2.473   1.206 -0.0628 -0.8536  0.0735
  528TMC3     H 7896   0.822   2.637   0.860 -1.2867 -1.1910 -1.6409
  528TMC3    H1 7897   0.668   2.451   1.216  0.5782  0.8898 -0.2773
  528TMC3    H2 7898   0.410   2.529   0.885  0.9356  0.0572 -0.6702
  528TMC3    C7 7899   0.413   2.436   1.119 -0.2317 -0.4259  0.1619
  528TMC3    C8 7900   0.592   2.665   0.741 -0.7850  0.0020 -0.4201
  528TMC3    O1 7901   0.304   2.446   1.065  0.2277 -0.1053 -0.5612
  528TMC3    O2 7902   0.681   2.742   0.706  1.6443 -0.1185 -0.1665
  529MPD2     C 7903   3.373   1.576   1.060 -0.5341  0.4781  0.0369
  529MPD2    C1 7904   3.448   1.511   0.956  0.5847 -0.3748 -0.3356
  529MPD2    C2 7905   3.411   1.530   0.827 -0.1150  0.1485  0.9469
  529MPD2    C3 7906   3.316   1.632   0.793 -0.3181 -0.0140  0.3252
  529MPD2    C4 7907   3.251   1.695   0.896  0.3782  0.3109  0.2208
  529MPD2    C5 7908   3.282   1.673   1.027 -0.9133 -0.4848  0.7047
  529MPD2     H 7909   3.467   1.475   0.752 -1.4426  1.1956 -0.8188
  529MPD2    H1 7910   3.176   1.771   0.877  0.3261  0.3608  0.6308
  529MPD2    H2 7911   3.399   1.553   1.163  0.8190 -0.1428 -0.4374
  529MPD2    H3 7912   3.237   1.734   1.104  0.2168  0.2835  0.7554
  529MPD2     N 7913   3.298   1.677   0.663  0.3077 -0.3082 -0.0391
  529MPD2    H5 7914   3.265   1.772   0.650 -1.4290 -0.6989  1.4924
  529MPD2    N1 7915   3.561   1.426   0.978  0.4260  0.1483  0.4761
  529MPD2    H7 7916   3.597   1.376   0.898  0.9990  0.3082  0.6355
  530TMC3    C1 7917   3.762   1.352   1.089 -0.0226  0.0206 -0.2959
  530TMC3    C2 7918   3.859   1.388   1.179 -0.0774  0.2434 -0.2086
  530TMC3    C3 7919   3.971   1.311   1.189  0.2167  0.3804  0.0942
  530TMC3    C4 7920   3.770   1.231   1.027 -0.7613 -0.4473  0.0719
  530TMC3    C5 7921   3.876   1.155   1.047 -0.2131 -0.0839  0.1380
  530TMC3    C6 7922   3.980   1.189   1.128 -0.5386  0.0143 -0.6955
  530TMC3     C 7923   3.629   1.414   1.098 -0.8040 -0.5480 -0.2858
  530TMC3     O 7924   3.605   1.467   1.208  0.1023  0.9105 -0.0938
  530TMC3     H 7925   3.840   1.470   1.247  0.6387  0.0797  0.1871
  530TMC3    H1 7926   3.695   1.193   0.958 -0.2738  0.3351 -0.8717
  530TMC3    H2 7927   4.063   1.120   1.130  0.5947  1.3439 -1.3588
  530TMC3    C7 7928   3.908   1.037   0.966  0.3335 -0.4443 -0.4281
  530TMC3    C8 7929   4.075   1.339   1.291  0.2089  0.1648  0.0401
  530TMC3    O1 7930   4.023   1.011   0.952 -0.9343 -0.5679  0.7884
  530TMC3    O2 7931   4.046   1.406   1.388  0.1467 -0.2787 -0.3578
  531MPD2     C 7932   2.907   3.343  12.542 -0.3008  0.2833 -0.7649
  531MPD2    C1 7933   2.799   3.334  12.626 -0.4424  0.6930  0.1028
  531MPD2    C2 7934   2.750   3.209  12.662  0.2179  1.5857 -0.2579
  531MPD2    C3 7935   2.808   3.094  12.607 -0.0025  0.7376 -0.5093
  531MPD2    C4 7936   2.909   3.112  12.515 -0.3766 -0.2760 -0.0939
  531MPD2    C5 7937   2.957   3.238  12.480  0.8970  0.0430  0.5556
  531MPD2     H 7938   2.665   3.200  12.727  0.2812 -1.0674 -0.5353
  531MPD2    H1 7939   2.939   3.041  12.438  1.2598  1.8282 -1.4028
  531MPD2    H2 7940   2.960   3.435  12.518 -2.1749  1.9174  1.3281
  531MPD2    H3 7941   3.031   3.244  12.402 -0.6002  0.9282 -0.7899
  531MPD2     N 7942   2.761   2.964  12.619  0.4169  0.1125 -0.6128
  531MPD2    H5 7943   2.808   2.899  12.556  0.0688 -1.7474  1.0529
  531MPD2    N1 7944   2.745   3.455  12.671 -0.2366 -0.3932  0.4683
  531MPD2    H7 7945   2.781   3.547  12.649  0.9562 -0.5718  1.6463
  532TMC3    C1 7946   2.604   3.589  12.797 -0.0737 -0.7646 -0.0900
  532TMC3    C2 7947   2.485   3.590  12.866 -0.2839  1.1010 -0.2437
  532TMC3    C3 7948   2.482   3.586  12.998  0.7066  0.1146 -1.1611
  532TMC3    C4 7949   2.716   3.610  12.875  0.3777  0.2504 -0.1874
  532TMC3    C5 7950   2.710   3.625  13.009 -0.2970 -0.2022 -0.0417
  532TMC3    C6 7951   2.591   3.604  13.079 -0.3599 -0.1867  0.0698
  532TMC3     C 7952   2.615   3.468  12.713 -0.4269 -0.1106  0.0251
  532TMC3     O 7953   2.523   3.387  12.738 -0.2069  0.4978  0.0478
  532TMC3     H 7954   2.386   3.591  12.822  0.5304 -1.5019 -2.1243
  532TMC3    H1 7955   2.815   3.625  12.835  0.5753  2.0930  0.9926
  532TMC3    H2 7956   2.582   3.615  13.187 -0.9205 -0.2865  0.0339
  532TMC3    C7 7957   2.832   3.590  13.076  0.3594 -0.4698 -0.0806
  532TMC3    C8 7958   2.383   3.507  13.053 -0.2257 -0.2960  0.2223
  532TMC3    O1 7959   2.859   3.649  13.181  0.2403  0.5836 -0.3018
  532TMC3    O2 7960   2.328   3.544  13.156  0.0690 -0.4525 -0.3164
  533TMC3    C1 7961   3.626   4.539  14.310  0.5156 -0.6866 -0.1840
  533TMC3    C2 7962   3.750   4.546  14.372  0.3513  0.1646 -1.1495
  533TMC3    C3 7963   3.832   4.652  14.351 -0.1009  1.0130  0.4663
  533TMC3    C4 7964   3.580   4.647  14.237  0.0239  0.0572  1.1108
  533TMC3    C5 7965   3.660   0.021  14.233  0.1768 -0.4156 -0.0572
  533TMC3    C6 7966   3.786   0.023  14.280  0.5800  0.0142  0.5705
  533TMC3     C 7967   3.533   4.483  14.401 -1.1319 -0.1108 -0.3192
  533TMC3     O 7968   3.579   4.473  14.515 -0.2309  0.4993 -1.0647
  533TMC3     H 7969   3.788   4.461  14.426  1.3978 -0.1689 -2.3977
  533TMC3    H1 7970   3.475   4.652  14.212  0.5400  1.4954 -0.8041
  533TMC3    H2 7971   3.848   0.111  14.268 -1.2184  1.4508  1.8056
  533TMC3    C7 7972   3.586   0.146  14.241  0.5329  0.4882 -0.1965
  533TMC3    C8 7973   3.966   4.664  14.411  0.2883  0.8053 -0.1837
  533TMC3    O1 7974   3.632   0.246  14.193 -0.1628 -0.4735 -0.2566
  533TMC3    O2 7975   3.979   4.647  14.535  0.1551  0.1653  0.1806
  534MPD2     C 7976   1.458   1.631   0.423  0.0225 -0.2746  0.0400
  534MPD2    C1 7977   1.478   1.726   0.514  1.0479  1.0670 -0.2713
  534MPD2    C2 7978   1.372   1.786   0.581  0.1262  0.7795 -0.3463
  534MPD2    C3 7979   1.245   1.742   0.560  0.1918 -0.2071  0.0724
  534MPD2    C4 7980   1.222   1.643   0.467 -0.0566 -0.3263  0.6587
  534MPD2    C5 7981   1.331   1.586   0.407  0.2539  0.3351 -0.1377
  534MPD2     H 7982   1.400   1.861   0.655 -1.3809  2.3779 -1.4002
  534MPD2    H1 7983   1.126   1.593   0.458 -2.0477  3.5268  0.2649
  534MPD2    H2 7984   1.532   1.567   0.376  0.6345 -0.8665  1.8291
  534MPD2    H3 7985   1.318   1.497   0.346  1.9439  0.0468 -0.0774
  534MPD2     N 7986   1.135   1.787   0.635  0.0855  0.0769  0.1864
  534MPD2    H5 7987   1.043   1.756   0.606  0.5088  0.6745 -1.7620
  534MPD2    N1 7988   1.612   1.765   0.554  0.3841  0.1506  0.2026
  534MPD2    H7 7989   1.616   1.837   0.626 -3.6682  1.5312 -0.9562
  535TMC3    C1 7990   1.008   1.908   0.773 -0.8350 -0.4350  0.4045
  535TMC3    C2 7991   0.947   1.858   0.884  0.1998  0.0465  0.2519
  535TMC3    C3 7992   0.820   1.824   0.874 -0.0955 -0.6851 -0.9516
  535TMC3    C4 7993   0.942   1.954   0.663  0.6242  0.3198  0.2448
  535TMC3    C5 7994   0.812   1.930   0.662  0.4034 -0.0492 -0.3476
  535TMC3    C6 7995   0.748   1.861   0.764  0.2590 -0.5420  0.1957
  535TMC3     C 7996   1.138   1.864   0.748  0.6205  0.1847 -0.0764
  535TMC3     O 7997   1.225   1.896   0.830 -0.2360 -0.3310  0.8462
  535TMC3     H 7998   1.016   1.819   0.958 -0.0593  2.1070  1.5840
  535TMC3    H1 7999   0.994   1.982   0.573 -0.2567  1.3395  0.0553
  535TMC3    H2 8000   0.642   1.840   0.755 -0.1561  1.3363  0.6390
  535TMC3    C7 8001   0.747   1.964   0.541 -0.0604 -0.2341  1.0701
  535TMC3    C8 8002   0.749   1.747   0.971 -0.2595 -0.3686 -0.0497
  535TMC3    O1 8003   0.811   1.957   0.436 -0.3184  0.0593 -0.2745
  535TMC3    O2 8004   0.671   1.658   0.929  0.5369  0.0281 -0.2570
  536MPD2     C 8005   4.028   4.715  16.749  0.1010  0.4985  0.9570
  536MPD2    C1 8006   4.007   4.582  16.756  0.2097 -0.1514  0.2313
  536MPD2    C2 8007   3.903   4.526  16.687 -0.7090 -0.1079 -0.2905
  536MPD2    C3 8008   3.817   4.595  16.605 -0.1519  0.3193 -0.2973
  536MPD2    C4 8009   3.835   4.730  16.609 -0.0458 -0.1381  0.1401
  536MPD2    C5 8010   3.939   0.051  16.675  0.6053 -0.3767 -0.1638
  536MPD2     H 8011   3.885   4.420  16.683  0.5470 -0.3288 -0.0089
  536MPD2    H1 8012   3.773   0.061  16.552 -1.8867 -0.8065  1.3213
  536MPD2    H2 8013   4.112   0.032  16.792  0.7973 -0.7438  1.1661
  536MPD2    H3 8014   3.962   0.156  16.667 -0.4043 -0.0619  1.1329
  536MPD2     N 8015   3.721   4.543  16.515 -0.4554  0.2369 -0.4105
  536MPD2    H5 8016   3.662   4.606  16.460 -0.2838  1.4600  0.8124
  536MPD2    N1 8017   4.107   4.508  16.818  0.2052 -0.0204 -0.6894
  536MPD2    H7 8018   4.199   4.551  16.815  0.1468  0.0567 -1.4989
  537TMC3    C1 8019   4.204   4.311  16.911  0.0683 -0.4040 -0.0974
  537TMC3    C2 8020   4.328   4.368  16.875 -0.2251 -0.3906 -0.4163
  537TMC3    C3 8021   4.439   4.317  16.934  0.3698 -0.1003 -0.2390
  537TMC3    C4 8022   4.198   4.215  17.010  0.0772  0.2890 -0.5618
  537TMC3    C5 8023   4.311   4.161  17.060  0.2725  0.1084  0.4356
  537TMC3    C6 8024   4.430   4.220  17.028 -1.4483  0.3905  0.3677
  537TMC3     C 8025   4.081   4.382  16.878 -0.5273  0.2990  0.2286
  537TMC3     O 8026   3.974   4.332  16.910 -0.0190  0.0429  0.6123
  537TMC3     H 8027   4.336   4.433  16.789 -1.3033  1.8130  1.1204
  537TMC3    H1 8028   4.101   4.179  17.041  0.7048 -1.9969 -1.2839
  537TMC3    H2 8029   4.516   4.195  17.090  0.0883 -0.9676 -2.2901
  537TMC3    C7 8030   4.291   4.086  17.184  0.2173 -0.0968  1.0790
  537TMC3    C8 8031   4.563   4.391  16.923  1.0083 -0.8086  0.3935
  537TMC3    O1 8032   4.179   4.096  17.244  0.3009 -1.3326 -0.1675
  537TMC3    O2 8033   4.663   4.328  16.959 -0.2194  0.6923 -0.1538
  538TMC3    C1 8034   1.173   2.619  10.811  0.1468  0.6345  0.0713
  538TMC3    C2 8035   1.301   2.658  10.842  0.3276 -0.0366  0.5831
  538TMC3    C3 8036   1.351   2.773  10.784  0.2824 -0.6956 -0.8696
  538TMC3    C4 8037   1.107   2.677  10.709 -0.0088 -0.2292 -0.9254
  538TMC3    C5 8038   1.165   2.777  10.638 -0.1004  0.4064 -0.7284
  538TMC3    C6 8039   1.282   2.835  10.682 -0.4493 -0.0164 -0.4106
  538TMC3     C 8040   1.092   2.573  10.919 -0.3362  0.1432 -0.5484
  538TMC3     O 8041   0.979   2.531  10.895  0.2213 -0.0175  0.3816
  538TMC3     H 8042   1.369   2.618  10.916 -1.7242 -2.3175  1.2342
  538TMC3    H1 8043   1.006   2.646  10.689 -0.3623  1.5523 -1.8816
  538TMC3    H2 8044   1.320   2.923  10.631 -0.1239 -0.4847 -0.9855
  538TMC3    C7 8045   1.056   2.872  10.582 -0.4001 -0.8767  0.0346
  538TMC3    C8 8046   1.439   2.846  10.867  0.8829  0.4943 -0.4093
  538TMC3    O1 8047   0.953   2.818  10.554 -0.7542  0.5281  0.2770
  538TMC3    O2 8048   1.448   2.806  10.986 -0.3374  0.3059 -0.1010
  539MPD2     C 8049   0.638   2.037  12.035  0.2255 -0.1454  0.2007
  539MPD2    C1 8050   0.656   2.051  11.897 -0.3844  0.2059  0.5573
  539MPD2    C2 8051   0.651   2.176  11.839 -0.6929  0.8457  0.5101
  539MPD2    C3 8052   0.622   2.288  11.911 -0.4867 -0.5070  0.4934
  539MPD2    C4 8053   0.620   2.282  12.051  0.1900  0.0678 -0.9812
  539MPD2    C5 8054   0.619   2.158  12.108 -0.2755  0.3521  0.1411
  539MPD2     H 8055   0.649   2.182  11.731 -0.9349  0.4571  0.4904
  539MPD2    H1 8056   0.602   2.365  12.118  0.0628  0.4353 -1.4793
  539MPD2    H2 8057   0.649   1.941  12.085  0.4146 -0.2827 -0.1031
  539MPD2    H3 8058   0.610   2.147  12.216  1.1266  0.5472  0.2778
  539MPD2     N 8059   0.618   2.421  11.852 -0.0550 -0.0628 -0.2228
  539MPD2    H5 8060   0.575   2.490  11.913 -0.6248  0.2759 -1.0144
  539MPD2    N1 8061   0.672   1.946  11.805 -0.1643  0.6269  0.3727
  539MPD2    H7 8062   0.696   1.966  11.709 -2.1285 -2.5008 -0.7570
  540TMC3    C1 8063   0.631   2.587  11.684 -0.6753 -0.3341 -0.6653
  540TMC3    C2 8064   0.655   2.611  11.551  0.1788  0.5992  0.3202
  540TMC3    C3 8065   0.657   2.740  11.505  0.4572 -0.1544  0.0483
  540TMC3    C4 8066   0.594   2.689  11.765 -0.5015  0.6536 -0.2101
  540TMC3    C5 8067   0.601   2.816  11.720 -0.5660 -0.0983  0.6436
  540TMC3    C6 8068   0.632   2.844  11.588  0.3075  0.6444 -0.0415
  540TMC3     C 8069   0.675   2.454  11.734 -0.0511  0.3540 -0.2096
  540TMC3     O 8070   0.761   2.400  11.665 -0.0602 -0.1282  0.2644
  540TMC3     H 8071   0.690   2.533  11.484 -1.2028 -0.5879  0.9604
  540TMC3    H1 8072   0.577   2.670  11.870  1.2619 -4.4165 -0.8601
  540TMC3    H2 8073   0.613   2.942  11.547  0.4280  0.7585  0.1796
  540TMC3    C7 8074   0.518   2.908  11.790 -0.5122  0.8146  0.3916
  540TMC3    C8 8075   0.659   2.768  11.363 -1.0617  0.0002 -0.1744
  540TMC3    O1 8076   0.435   2.854  11.861  0.0679 -0.4475  0.5779
  540TMC3    O2 8077   0.701   2.878  11.327 -0.3146  0.1531 -0.2678
  541MPD2     C 8078   3.965   3.818  13.228 -0.7634 -0.0065 -0.0979
  541MPD2    C1 8079   3.979   3.696  13.162 -0.2415  0.5188 -1.0990
  541MPD2    C2 8080   3.938   3.699  13.031  0.0618  0.4025  0.5559
  541MPD2    C3 8081   3.895   3.808  12.964  0.5258  0.4623  0.6773
  541MPD2    C4 8082   3.878   3.922  13.039 -0.3403  0.6416  0.0826
  541MPD2    C5 8083   3.916   3.931  13.171  0.3817  0.2840  0.6621
  541MPD2     H 8084   3.950   3.602  12.984 -1.8211  0.2536  0.3863
  541MPD2    H1 8085   3.829   4.008  12.995  0.9905  1.9903  1.2203
  541MPD2    H2 8086   4.005   3.834  13.328  1.9123 -3.4886 -0.6106
  541MPD2    H3 8087   3.914   4.024  13.228  1.7340  0.4512  0.4380
  541MPD2     N 8088   3.864   3.816  12.827  0.2436  0.5390  0.3372
  541MPD2    H5 8089   3.824   3.905  12.800  0.1838  0.5676  0.5202
  541MPD2    N1 8090   4.032   3.585  13.235 -0.3860  0.2983  0.5198
  541MPD2    H7 8091   4.070   3.610  13.326  0.8700  0.6267 -0.1005
  542TMC3    C1 8092   3.879   3.780  12.597  0.0714  0.1646  0.3323
  542TMC3    C2 8093   3.851   3.691  12.497 -0.0542  0.0783 -0.0984
  542TMC3    C3 8094   3.826   3.743  12.371 -0.2752  0.5039 -0.1731
  542TMC3    C4 8095   3.883   3.914  12.574  0.2020  0.1228 -0.3331
  542TMC3    C5 8096   3.861   3.961  12.445  0.5125 -0.0175 -0.6561
  542TMC3    C6 8097   3.821   3.879  12.346 -0.3072 -0.5507 -0.9216
  542TMC3     C 8098   3.882   3.726  12.728  0.9372 -0.0159 -0.3749
  542TMC3     O 8099   3.897   3.604  12.738 -0.2120  0.0338 -0.7960
  542TMC3     H 8100   3.851   3.583  12.509  1.6522  0.0628 -0.2172
  542TMC3    H1 8101   3.914   3.981  12.653 -1.8637 -1.0215  1.4814
  542TMC3    H2 8102   3.788   3.927  12.255 -0.3213  0.2573 -0.4946
  542TMC3    C7 8103   3.817   4.107  12.444  0.1183  0.5909 -0.3606
  542TMC3    C8 8104   3.833   3.671  12.245  0.2879  0.7577 -0.0800
  542TMC3    O1 8105   3.872   4.177  12.532  0.1707 -0.0377 -0.5658
  542TMC3    O2 8106   3.853   3.730  12.140  0.6538  0.7551 -0.3883
  543TMC3    C1 8107   3.525   0.767  17.527 -0.5463  0.0568  0.5617
  543TMC3    C2 8108   3.532   0.643  17.586  0.0023  0.3388 -0.3404
  543TMC3    C3 8109   3.457   0.623  17.692 -0.0926 -0.0905  0.4543
  543TMC3    C4 8110   3.439   0.860  17.573 -0.3992 -0.1087  0.5179
  543TMC3    C5 8111   3.359   0.829  17.674 -0.6903  0.5173 -0.1392
  543TMC3    C6 8112   3.362   0.709  17.736  0.3687  1.0564  0.4647
  543TMC3     C 8113   3.582   0.779  17.396  0.5490  0.1506  0.4675
  543TMC3     O 8114   3.658   0.689  17.363 -0.4441  0.0549  0.2663
  543TMC3     H 8115   3.593   0.564  17.542 -0.1422  0.1436 -0.1874
  543TMC3    H1 8116   3.445   0.965  17.544  1.5158 -1.1211 -2.8127
  543TMC3    H2 8117   3.303   0.671   0.072 -0.3573  1.7075  0.2436
  543TMC3    C7 8118   3.247   0.910  17.713  0.3302  0.2025  0.4855
  543TMC3    C8 8119   3.409   0.490  17.699 -0.3419  0.0568 -0.1473
  543TMC3    O1 8120   3.176   0.870   0.057 -0.1226 -0.0563 -0.0189
  543TMC3    O2 8121   3.376   0.438  17.592  0.5604  0.8076  0.2223
  544MPD2     C 8122   3.277   0.075   0.214 -0.2664  0.0587 -0.0188
  544MPD2    C1 8123   3.277   0.088   0.075 -1.0246 -0.0642 -0.1667
  544MPD2    C2 8124   3.336   0.202   0.020  0.2847  0.5286  0.9584
  544MPD2    C3 8125   3.391   0.297   0.109 -0.2984 -0.0440  0.1912
  544MPD2    C4 8126   3.403   0.266   0.241  0.1498  0.5038  0.3652
  544MPD2    C5 8127   3.334   0.162   0.296 -0.1951 -0.0718 -0.6230
  544MPD2     H 8128   3.343   0.222  17.661  1.1669 -1.5042  0.6281
  544MPD2    H1 8129   3.439   0.349   0.301 -0.2051  2.3398 -1.9371
  544MPD2    H2 8130   3.233   4.721   0.253 -0.3050  0.3859  0.7171
  544MPD2    H3 8131   3.331   0.163   0.405 -0.4196 -2.3364 -0.6127
  544MPD2     N 8132   3.421   0.430   0.076  0.4337 -0.0670 -0.4058
  544MPD2    H5 8133   3.435   0.490   0.157  0.5868 -0.8967  0.1908
  544MPD2    N1 8134   3.220   4.723  17.744 -0.4458  0.3239  0.0581
  544MPD2    H7 8135   3.164   4.656   0.049 -0.2028 -0.9980 -1.3717
  545TMC3    C1 8136   3.120   4.638  17.540  0.5263 -1.1072 -0.4331
  545TMC3    C2 8137   3.071   4.665  17.414 -0.6865  0.5038  0.0251
  545TMC3    C3 8138   2.971   4.593  17.362  0.5034  0.0956 -0.0829
  545TMC3    C4 8139   3.093   4.512  17.588  0.3443 -0.2642 -0.5122
  545TMC3    C5 8140   2.985   4.444  17.538  0.3008  0.5013 -0.5022
  545TMC3    C6 8141   2.926   4.478  17.422 -0.3243 -0.1718 -0.2785
  545TMC3     C 8142   3.222   4.727  17.603  0.5558  0.2165 -0.9036
  545TMC3     O 8143   3.290   0.052  17.527 -0.3456  0.8173 -0.1510
  545TMC3     H 8144   3.098   0.023  17.371  0.9721 -0.1666 -0.4279
  545TMC3    H1 8145   3.140   4.482  17.681  0.4642 -0.4163 -0.6232
  545TMC3    H2 8146   2.839   4.423  17.388 -0.6457  0.1524  0.0191
  545TMC3    C7 8147   2.937   4.323  17.594 -0.1767 -0.1691  0.4783
  545TMC3    C8 8148   2.917   4.634  17.234 -0.9302 -0.3933 -1.1915
  545TMC3    O1 8149   2.818   4.296  17.574 -0.2680 -0.3209  0.3191
  545TMC3    O2 8150   2.949   0.005  17.192  0.2412 -0.3916  0.0056
  546MPD2     C 8151   0.117   0.218  17.571  0.0463  0.1356 -0.2288
  546MPD2    C1 8152   0.142   0.235  17.438  0.4595 -0.0762 -0.4781
  546MPD2    C2 8153   0.221   0.336  17.390 -0.1674 -0.1720 -0.5904
  546MPD2    C3 8154   0.258   0.441  17.472 -0.0901  0.2734 -0.6585
  546MPD2    C4 8155   0.222   0.431  17.603 -0.2240 -0.2226  0.3924
  546MPD2    C5 8156   0.158   0.319  17.654  0.1108 -0.4902  0.0700
  546MPD2     H 8157   0.237   0.346  17.284  2.1311 -0.2840 -0.2506
  546MPD2    H1 8158   0.254   0.510  17.671 -2.2761 -0.7157  1.9132
  546MPD2    H2 8159   0.073   0.126  17.607  0.0136  0.2395 -0.0013
  546MPD2    H3 8160   0.139   0.298   0.011  0.1762 -0.4010  0.1002
  546MPD2     N 8161   0.316   0.561  17.434  1.2583  0.3029  0.8462
  546MPD2    H5 8162   0.318   0.635  17.504  0.4556  0.3262  0.8450
  546MPD2    N1 8163   0.081   0.144  17.350  0.3134  0.2307 -0.9402
  546MPD2    H7 8164   0.010   0.077  17.381  1.7787  0.2001  2.3679
  547TMC3    C1 8165   0.003   0.056  17.159  0.7031 -0.0497 -0.1176
  547TMC3    C2 8166   4.678   0.135  17.071 -0.4463 -0.2940  0.5731
  547TMC3    C3 8167   4.547   0.101  17.037 -0.5469  0.2351  0.3497
  547TMC3    C4 8168   4.688   4.677  17.209 -0.4779  0.1854 -0.5239
  547TMC3    C5 8169   4.558   4.644  17.168 -0.1753  0.1981  0.0984
  547TMC3    C6 8170   4.484   4.730  17.094 -0.3335 -0.0301  0.2903
  547TMC3     C 8171   0.115   0.117  17.218  0.5840 -0.4696 -0.4019
  547TMC3     O 8172   0.198   0.176  17.146  0.0870 -0.1231 -0.2849
  547TMC3     H 8173   4.727   0.220  17.025  1.1319  0.7471  4.1945
  547TMC3    H1 8174   4.732   4.625  17.293 -0.7514 -0.0173 -0.5064
  547TMC3    H2 8175   4.393   4.698  17.044  0.4159 -3.1885  0.9113
  547TMC3    C7 8176   4.471   4.548  17.236 -0.5838  0.1153 -0.6961
  547TMC3    C8 8177   4.465   0.190  16.951 -0.0363  0.1861  0.3564
  547TMC3    O1 8178   4.359   4.594  17.261 -0.5261 -0.1360 -0.6006
  547TMC3    O2 8179   4.347   0.168  16.942  0.2045 -0.1052 -0.1731
  548MPD2     C 8180   4.403   0.850  12.556 -0.4846  0.6711  0.0774
  548MPD2    C1 8181   4.359   0.730  12.500 -0.0920  0.3477  0.3374
  548MPD2    C2 8182   4.451   0.661  12.422 -0.0032  0.8196 -0.5503
  548MPD2    C3 8183   4.583   0.706  12.403 -0.8356  0.0211 -0.2015
  548MPD2    C4 8184   4.623   0.826  12.461 -0.1435 -0.0028  0.9438
  548MPD2    C5 8185   4.531   0.896  12.534  0.4642 -0.1443  0.8013
  548MPD2     H 8186   4.433   0.558  12.394  1.0338  0.1744  1.1514
  548MPD2    H1 8187   4.722   0.868  12.448 -0.3804  0.4778  0.6953
  548MPD2    H2 8188   4.343   0.907  12.626  0.4528  1.8077 -0.0512
  548MPD2    H3 8189   4.570   0.986  12.581 -1.3175  0.8536  0.3641
  548MPD2     N 8190   4.662   0.628  12.317  0.1445  0.2637 -0.2079
  548MPD2    H5 8191   4.611   0.546  12.285  0.1663  0.5180 -0.9050
  548MPD2    N1 8192   4.225   0.686  12.522  0.1123 -0.3793  0.4578
  548MPD2    H7 8193   4.169   0.757  12.567  0.7641 -0.1222  0.8707
  549TMC3    C1 8194   4.029   0.553  12.512 -0.6590 -0.0645 -0.1446
  549TMC3    C2 8195   3.966   0.667  12.478 -0.3172  0.2285 -0.3843
  549TMC3    C3 8196   3.833   0.652  12.470 -0.2666 -0.2751 -0.0841
  549TMC3    C4 8197   3.973   0.430  12.526  0.9866  0.3499  0.2479
  549TMC3    C5 8198   3.835   0.421  12.533 -0.0583 -0.1141 -0.1979
  549TMC3    C6 8199   3.766   0.534  12.492 -0.5932  0.7027 -0.0074
  549TMC3     C 8200   4.170   0.559  12.490  0.2698  0.8986  0.6923
  549TMC3     O 8201   4.233   0.455  12.467  0.1433  0.2943  0.3011
  549TMC3     H 8202   4.022   0.754  12.446  0.4602  0.5323  1.8329
  549TMC3    H1 8203   4.045   0.349  12.532  1.2800  0.5921 -0.0042
  549TMC3    H2 8204   3.658   0.532  12.479 -0.2235 -2.5549 -2.6763
  549TMC3    C7 8205   3.775   0.294  12.517  0.2032  0.0800 -0.2122
  549TMC3    C8 8206   3.752   0.760  12.422  0.3563  0.9942  0.0872
  549TMC3    O1 8207   3.659   0.306  12.476 -0.3275  0.2749 -0.2441
  549TMC3    O2 8208   3.649   0.738  12.359  0.1293  0.3950  0.3733
  550TMC3    C1 8209   3.086   3.763  12.595  0.0472  0.9512  0.3746
  550TMC3    C2 8210   3.086   3.871  12.676  0.1377 -0.1579 -0.0667
  550TMC3    C3 8211   3.050   3.990  12.617 -0.1615  0.0288  0.5041
  550TMC3    C4 8212   3.050   3.762  12.462  0.3789 -0.6873 -0.0792
  550TMC3    C5 8213   3.013   3.885  12.408 -0.3986  0.4356  0.1292
  550TMC3    C6 8214   3.018   4.002  12.483  0.4692  0.5574  0.7190
  550TMC3     C 8215   3.155   3.646  12.650 -0.5303 -0.0514  0.0512
  550TMC3     O 8216   3.172   3.649  12.773 -0.2824 -0.0918 -0.4244
  550TMC3     H 8217   3.127   3.877  12.777 -0.1846 -0.5694  0.0895
  550TMC3    H1 8218   3.029   3.673  12.403  0.8202 -0.5731 -0.4109
  550TMC3    H2 8219   2.986   4.092  12.432 -1.1554  0.2996  1.2891
  550TMC3    C7 8220   2.934   3.894  12.290  0.2143 -0.7775 -0.3295
  550TMC3    C8 8221   3.004   4.101  12.696 -0.2663  0.2118 -0.5029
  550TMC3    O1 8222   2.863   3.993  12.279 -0.2712  0.0417  0.5027
  550TMC3    O2 8223   2.955   4.197  12.637  0.3512  0.5785  0.0832
  551TMC3    C1 8224   0.874   1.457  13.228  0.1477 -0.7989 -0.5774
  551TMC3    C2 8225   0.995   1.457  13.179 -0.0849 -0.0970 -0.2552
  551TMC3    C3 8226   1.102   1.489  13.257  0.3194  0.0035 -0.2769
  551TMC3    C4 8227   0.848   1.487  13.364 -1.2614  0.0949  0.6841
  551TMC3    C5 8228   0.958   1.518  13.450  0.8811 -0.7815  0.4436
  551TMC3    C6 8229   1.083   1.529  13.386 -0.0747 -0.2321 -0.0308
  551TMC3     C 8230   0.774   1.381  13.153  0.0499 -0.1842 -0.2804
  551TMC3     O 8231   0.822   1.326  13.055  0.6461  0.0348  0.3363
  551TMC3     H 8232   1.007   1.439  13.073  0.5672  1.1290 -0.3987
  551TMC3    H1 8233   0.749   1.471  13.403 -0.9228 -0.8767  1.1572
  551TMC3    H2 8234   1.165   1.529  13.457 -0.0590  0.7109 -0.0538
  551TMC3    C7 8235   0.950   1.558  13.591  0.0035  0.6759 -0.1899
  551TMC3    C8 8236   1.232   1.485  13.192  0.0909 -0.1105 -0.7985
  551TMC3    O1 8237   1.053   1.555  13.659 -0.3233  0.7575  0.0891
  551TMC3    O2 8238   1.316   1.558  13.243 -0.4663  0.2865  0.0762
  552MPD2     C 8239   3.126   3.571  13.708 -0.0367 -0.4420 -0.3250
  552MPD2    C1 8240   3.053   3.469  13.770 -0.0325 -0.0498 -0.4260
  552MPD2    C2 8241   3.110   3.413  13.890  0.1130 -0.0154 -0.7499
  552MPD2    C3 8242   3.228   3.468  13.940 -0.1871  0.0391 -0.5159
  552MPD2    C4 8243   3.293   3.565  13.871  0.3615  0.1676 -0.7898
  552MPD2    C5 8244   3.249   3.613  13.757  0.2583 -0.2474  0.8436
  552MPD2     H 8245   3.068   3.325  13.937 -0.5782 -0.6070 -2.4729
  552MPD2    H1 8246   3.381   3.613  13.913  0.2857  0.0912 -0.5391
  552MPD2    H2 8247   3.089   3.619  13.617  0.3731 -1.1707 -0.8709
  552MPD2    H3 8248   3.307   3.694  13.712 -0.6227 -0.1427 -0.0960
  552MPD2     N 8249   3.290   3.429  14.066  0.3624 -0.0095 -0.1141
  552MPD2    H5 8250   3.375   3.482  14.083  1.0073 -0.8467 -0.7062
  552MPD2    N1 8251   2.931   3.404  13.724 -0.5565  0.0627 -0.0538
  552MPD2    H7 8252   2.892   3.332  13.785  1.1394 -0.0549  0.8897
  553TMC3    C1 8253   2.748   3.363  13.580  0.4001  1.2888  0.2173
  553TMC3    C2 8254   2.715   3.325  13.447 -0.0649  0.3824 -0.7484
  553TMC3    C3 8255   2.631   3.220  13.429 -0.4707 -0.7647 -0.7779
  553TMC3    C4 8256   2.697   3.291  13.682 -0.3439  0.2741  0.0286
  553TMC3    C5 8257   2.623   3.177  13.650  0.2090 -0.4993  0.8103
  553TMC3    C6 8258   2.575   3.146  13.533 -0.1962 -0.4927  0.7534
  553TMC3     C 8259   2.867   3.446  13.613 -0.3708 -0.4470  0.8674
  553TMC3     O 8260   2.898   3.531  13.532 -0.1834  0.2966  0.7844
  553TMC3     H 8261   2.773   3.377  13.372  2.7415 -0.8445  0.5950
  553TMC3    H1 8262   2.713   3.316  13.787 -0.8993 -2.6393  0.8102
  553TMC3    H2 8263   2.533   3.047  13.526 -1.6932  0.2423 -0.7472
  553TMC3    C7 8264   2.602   3.079  13.748 -0.3844 -0.5638 -0.2924
  553TMC3    C8 8265   2.657   3.145  13.308  0.4523 -0.9591  0.0399
  553TMC3    O1 8266   2.482   3.066  13.775 -0.1060 -0.1326  0.0038
  553TMC3    O2 8267   2.744   3.188  13.232  0.9968 -0.4288 -0.0036
  554TMC3    C1 8268   4.432   2.547  11.741 -0.9957  0.2762 -1.0396
  554TMC3    C2 8269   4.342   2.580  11.647  0.2914  0.1586 -0.1695
  554TMC3    C3 8270   4.375   2.666  11.547  0.6698 -0.4808 -0.2681
  554TMC3    C4 8271   4.558   2.607  11.736 -0.2252  0.4206 -0.3347
  554TMC3    C5 8272   4.587   2.696  11.636 -0.2535 -0.7813 -0.1052
  554TMC3    C6 8273   4.501   2.717  11.537  0.1525  1.1018  0.2723
  554TMC3     C 8274   4.407   2.428  11.821  0.4094 -0.6327 -0.1385
  554TMC3     O 8275   4.305   2.365  11.791 -0.1096 -0.0253 -0.5208
  554TMC3     H 8276   4.252   2.521  11.639 -0.0967  0.9089 -1.3380
  554TMC3    H1 8277   4.642   2.582  11.801 -2.0430  1.9013  2.5731
  554TMC3    H2 8278   4.517   2.789  11.457  0.7876  1.7456  0.9803
  554TMC3    C7 8279   4.714   2.766  11.643  0.1260 -0.0913  0.0823
  554TMC3    C8 8280   4.302   2.659  11.426  0.3006  0.2615 -0.6726
  554TMC3    O1 8281   0.040   2.766  11.747 -0.1373  0.5601  0.1850
  554TMC3    O2 8282   4.373   2.679  11.326  0.0343  0.2696 -0.6387
  555TMC3    C1 8283   3.658   1.361  14.782  0.1351 -0.5179 -0.0948
  555TMC3    C2 8284   3.654   1.487  14.833  0.6664 -0.5826 -0.1442
  555TMC3    C3 8285   3.675   1.504  14.965  1.4867 -0.3921 -0.3114
  555TMC3    C4 8286   3.669   1.252  14.862 -0.5460 -0.3111 -0.1064
  555TMC3    C5 8287   3.672   1.267  14.996 -0.4244 -0.2896 -0.5649
  555TMC3    C6 8288   3.675   1.393  15.045  0.3074 -0.4679  0.2133
  555TMC3     C 8289   3.587   1.335  14.664 -0.2981  0.6581 -0.4030
  555TMC3     O 8290   3.603   1.227  14.609 -0.1026  0.3579  0.4515
  555TMC3     H 8291   3.636   1.576  14.774  3.6047  0.7070  0.8930
  555TMC3    H1 8292   3.656   1.156  14.814 -1.3514  0.0280 -0.5610
  555TMC3    H2 8293   3.686   1.391  15.153  4.1084  2.0904 -0.1269
  555TMC3    C7 8294   3.677   1.150  15.087  0.9165 -0.0816 -0.0934
  555TMC3    C8 8295   3.696   1.641  15.024  0.4683 -0.3155  1.2699
  555TMC3    O1 8296   3.640   1.167  15.201 -0.2335 -0.2312  0.5029
  555TMC3    O2 8297   3.676   1.738  14.954 -0.3633  0.0151  0.1547
  556MPD2     C 8298   1.402   4.087  11.281 -0.9822  0.9029 -0.7372
  556MPD2    C1 8299   1.476   3.972  11.281  0.0488  0.2335 -0.4066
  556MPD2    C2 8300   1.517   3.910  11.169 -0.4196 -0.0919 -0.5178
  556MPD2    C3 8301   1.472   3.960  11.055 -0.3696 -0.1211 -0.2443
  556MPD2    C4 8302   1.380   4.064  11.050 -0.3711  0.4915 -0.4795
  556MPD2    C5 8303   1.345   4.135  11.165 -0.0732 -0.2334 -0.0653
  556MPD2     H 8304   1.571   3.816  11.175 -0.5194 -0.1410 -0.3914
  556MPD2    H1 8305   1.337   4.110  10.961 -1.1779 -0.3727 -0.5386
  556MPD2    H2 8306   1.364   4.137  11.370  0.1771  1.0590 -0.3276
  556MPD2    H3 8307   1.269   4.212  11.171  0.0669 -0.1768  0.9629
  556MPD2     N 8308   1.520   3.894  10.939 -0.3153 -0.1815  0.4218
  556MPD2    H5 8309   1.579   3.815  10.960 -3.1714 -2.4229  0.0118
  556MPD2    N1 8310   1.537   3.920  11.397 -0.0560 -0.1878 -0.1026
  556MPD2    H7 8311   1.591   3.834  11.389  0.1855 -0.0948  0.4990
  557TMC3    C1 8312   1.531   3.823  10.717  0.5620 -0.0116  0.5884
  557TMC3    C2 8313   1.570   3.861  10.587  0.0400 -0.3040 -0.3102
  557TMC3    C3 8314   1.601   3.769  10.492  0.6493 -0.7442 -0.0879
  557TMC3    C4 8315   1.524   3.694  10.759 -0.6562 -0.2439  0.0680
  557TMC3    C5 8316   1.565   3.604  10.661 -0.2112  0.2928 -0.2774
  557TMC3    C6 8317   1.604   3.636  10.534  0.3450 -0.4887 -0.2355
  557TMC3     C 8318   1.485   3.924  10.810  0.0534 -0.5932 -0.3551
  557TMC3     O 8319   1.415   4.015  10.763  0.3398 -0.0265  0.6342
  557TMC3     H 8320   1.569   3.966  10.561 -1.3176 -0.3811 -0.5633
  557TMC3    H1 8321   1.465   3.674  10.847 -1.9857  0.0448 -0.7537
  557TMC3    H2 8322   1.640   3.555  10.472 -1.0798 -0.3939 -1.1881
  557TMC3    C7 8323   1.553   3.458  10.677  0.2806 -0.5882  0.3572
  557TMC3    C8 8324   1.568   3.788  10.355  0.5399  0.1263  0.7060
  557TMC3    O1 8325   1.511   3.381  10.592  0.1900  0.1661 -0.0634
  557TMC3    O2 8326   1.532   3.904  10.321  0.4379  0.5317 -0.2951
  558TMC3    C1 8327   3.683   1.463  10.015  0.1648 -0.1670 -0.4266
  558TMC3    C2 8328   3.635   1.415  10.133 -0.3340  0.0018  0.7111
  558TMC3    C3 8329   3.506   1.384  10.150 -0.3667 -0.0548 -0.4283
  558TMC3    C4 8330   3.601   1.462   9.902  0.9069  0.2249 -0.4195
  558TMC3    C5 8331   3.468   1.431   9.923  0.1363  0.4628 -0.6660
  558TMC3    C6 8332   3.416   1.407  10.045  0.4574  0.4600 -0.0683
  558TMC3     C 8333   3.812   1.522  10.028  0.1542  0.1441 -0.3638
  558TMC3     O 8334   3.834   1.588  10.126  0.1764  0.0691  0.1985
  558TMC3     H 8335   3.707   1.411  10.214  1.5715  0.9706 -0.9196
  558TMC3    H1 8336   3.629   1.512   9.810 -1.4246  3.7088  0.7559
  558TMC3    H2 8337   3.310   1.394  10.063  0.1041  0.4068 -2.1456
  558TMC3    C7 8338   3.396   1.390   9.806 -0.3411  0.2130 -0.4553
  558TMC3    C8 8339   3.486   1.247  10.180 -0.3591 -0.9572 -0.0145
  558TMC3    O1 8340   3.425   1.433   9.696 -0.8459 -0.3327  0.1745
  558TMC3    O2 8341   3.394   1.188  10.126 -0.3866  0.2264 -0.4665
  559MPD2     C 8342   3.948   2.275  10.977  0.4581 -0.2995  0.1873
  559MPD2    C1 8343   3.943   2.150  10.924 -0.2139  0.7146  1.0046
  559MPD2    C2 8344   4.053   2.065  10.948  0.4680 -0.3754 -0.8672
  559MPD2    C3 8345   4.147   2.091  11.048  0.4077 -0.1813  0.7534
  559MPD2    C4 8346   4.126   2.201  11.124  0.2670 -0.3809  0.1100
  559MPD2    C5 8347   4.033   2.297  11.084 -0.5923 -0.0349 -0.7011
  559MPD2     H 8348   4.054   1.969  10.897 -0.3326 -0.1674 -1.2765
  559MPD2    H1 8349   4.181   2.216  11.216 -0.5333 -0.2677  0.5634
  559MPD2    H2 8350   3.873   2.347  10.946  0.5836  1.1377  3.1666
  559MPD2    H3 8351   4.022   2.387  11.144  0.8114 -1.2280  1.3306
  559MPD2     N 8352   4.249   1.997  11.079  0.2293 -0.1421  0.4958
  559MPD2    H5 8353   4.247   1.906  11.035  0.2183  0.1185 -0.0475
  559MPD2    N1 8354   3.845   2.114  10.821 -0.0366 -0.3623  0.0661
  559MPD2    H7 8355   3.782   2.181  10.778  0.9852  0.3880 -0.2688
  560TMC3    C1 8356   4.408   1.877  11.199  0.8556  0.1191 -0.2344
  560TMC3    C2 8357   4.340   1.760  11.207  0.4050 -0.2899 -0.7422
  560TMC3    C3 8358   4.403   1.646  11.229 -0.2890 -0.6485 -0.6184
  560TMC3    C4 8359   4.542   1.885  11.222 -0.2515 -0.5017  0.2375
  560TMC3    C5 8360   4.605   1.765  11.246 -0.0330 -0.3872 -0.0323
  560TMC3    C6 8361   4.539   1.647  11.250  0.1366  0.4730  0.1106
  560TMC3     C 8362   4.343   2.006  11.184  0.0211 -0.1201  0.4276
  560TMC3     O 8363   4.377   2.101  11.256 -0.2417 -0.1792 -0.4567
  560TMC3     H 8364   4.236   1.762  11.179 -0.3265  1.8767  2.1991
  560TMC3    H1 8365   4.587   1.983  11.232 -0.2065 -0.8121  3.0390
  560TMC3    H2 8366   4.594   1.562  11.292 -1.6574 -0.6653  0.1510
  560TMC3    C7 8367   4.718   1.771  11.341  0.1174 -0.0724  0.0509
  560TMC3    C8 8368   4.336   1.524  11.197  0.3371 -0.0991  0.0089
  560TMC3    O1 8369   4.718   1.680  11.423  0.3362  0.4703  0.0787
  560TMC3    O2 8370   4.407   1.441  11.147 -0.7319  0.1364 -0.0781
  561TMC3    C1 8371   2.135   1.087  11.266 -0.6115  0.5257 -0.3173
  561TMC3    C2 8372   2.131   0.998  11.371  0.3449 -0.4805  1.0585
  561TMC3    C3 8373   2.132   1.056  11.494  0.2171  0.9267 -0.3497
  561TMC3    C4 8374   2.129   1.223  11.271  0.0148  0.3277  0.2955
  561TMC3    C5 8375   2.134   1.272  11.396  0.0866 -0.2630  0.3387
  561TMC3    C6 8376   2.125   1.190  11.510 -0.2206  0.1930  0.3573
  561TMC3     C 8377   2.144   1.024  11.128 -0.0349  0.8809  0.0836
  561TMC3     O 8378   2.100   0.912  11.116 -0.1486 -0.3643  0.8776
  561TMC3     H 8379   2.134   0.891  11.353 -0.3010  0.2517 -3.3829
  561TMC3    H1 8380   2.125   1.286  11.183 -0.6627 -1.3975 -0.9106
  561TMC3    H2 8381   2.120   1.232  11.610 -0.3539  0.3452  0.2866
  561TMC3    C7 8382   2.100   1.411  11.417  0.0473 -0.7701  0.6444
  561TMC3    C8 8383   2.085   0.963  11.599  0.6722  0.9078  0.3352
  561TMC3    O1 8384   2.024   1.447  11.506  0.3612  0.3295  0.3677
  561TMC3    O2 8385   2.126   0.848  11.592 -0.0027 -0.1229 -0.0302
  562TMC3    C1 8386   3.580   2.112  15.943  0.1269  0.5909  0.1486
  562TMC3    C2 8387   3.518   2.228  15.898  0.0690  0.1577  0.7483
  562TMC3    C3 8388   3.441   2.222  15.790 -0.1509 -0.1666 -0.4831
  562TMC3    C4 8389   3.576   1.994  15.883  0.8021  0.3295 -0.2733
  562TMC3    C5 8390   3.508   1.989  15.764  0.0700 -0.5416  0.1459
  562TMC3    C6 8391   3.438   2.100  15.720 -0.1643 -0.1544 -0.2487
  562TMC3     C 8392   3.620   2.119  16.082 -0.5349  0.0100  0.2735
  562TMC3     O 8393   3.667   2.230  16.112 -0.0471  0.7103  0.0291
  562TMC3     H 8394   3.526   2.319  15.957  0.6489  0.9807 -0.6080
  562TMC3    H1 8395   3.627   1.909  15.924 -0.5365 -0.1106  0.4775
  562TMC3    H2 8396   3.378   2.081  15.632  0.8670 -2.1611 -0.5205
  562TMC3    C7 8397   3.525   1.878  15.680  0.0274  0.2049  0.4732
  562TMC3    C8 8398   3.353   2.335  15.757 -0.3346  0.3947 -0.3719
  562TMC3    O1 8399   3.456   1.877  15.578 -0.0983  0.0838 -0.4681
  562TMC3    O2 8400   3.327   2.410  15.847  0.2843 -0.5168 -0.0467
  563MPD2     C 8401   0.943   3.618  15.582 -0.6115  0.8532 -0.3415
  563MPD2    C1 8402   0.988   3.653  15.708  0.2154 -0.1043  0.1231
  563MPD2    C2 8403   1.091   3.580  15.770 -0.0450 -0.1043 -0.1892
  563MPD2    C3 8404   1.157   3.480  15.702 -0.5273  0.2920  0.2983
  563MPD2    C4 8405   1.099   3.436  15.589  0.2283  0.9468 -0.0998
  563MPD2    C5 8406   0.999   3.504  15.529 -0.0169  0.2841  0.1968
  563MPD2     H 8407   1.126   3.600  15.871 -0.3876  2.1127 -0.4961
  563MPD2    H1 8408   1.153   3.361  15.532 -0.1086  0.9197 -0.3804
  563MPD2    H2 8409   0.862   3.673  15.536 -0.6055  1.2901  0.1651
  563MPD2    H3 8410   0.957   3.468  15.436 -0.1610 -0.2157  0.4555
  563MPD2     N 8411   1.270   3.421  15.765 -1.0805  0.1134 -0.2687
  563MPD2    H5 8412   1.297   3.465  15.852 -1.2653  2.1789 -1.2508
  563MPD2    N1 8413   0.925   3.752  15.784  0.3117  0.0533  0.5401
  563MPD2    H7 8414   0.830   3.774  15.756  0.5849  1.6951  0.9022
  564TMC3    C1 8415   0.886   3.797  16.025 -0.3529 -0.0551  0.2507
  564TMC3    C2 8416   0.769   3.740  15.997 -0.2781  0.0124 -0.5542
  564TMC3    C3 8417   0.724   3.637  16.079 -0.4414  0.3384  0.0094
  564TMC3    C4 8418   0.956   3.754  16.138  0.2290 -0.3961  0.1925
  564TMC3    C5 8419   0.924   3.646  16.207  0.3111  0.2173  0.0795
  564TMC3    C6 8420   0.803   3.589  16.181  0.1553  0.0659 -0.3131
  564TMC3     C 8421   0.976   3.800  15.909 -0.1828 -0.3196 -0.1850
  564TMC3     O 8422   1.096   3.807  15.941  0.4336 -0.8466 -0.0059
  564TMC3     H 8423   0.715   3.783  15.913 -1.3303 -1.4290 -0.6206
  564TMC3    H1 8424   1.049   3.800  16.168  0.6911 -1.7322  0.7859
  564TMC3    H2 8425   0.783   3.496  16.233  0.8461  0.5855  0.8759
  564TMC3    C7 8426   1.028   3.549  16.206 -0.1127  0.2015 -0.1029
  564TMC3    C8 8427   0.642   3.534  16.029  0.0736 -0.9329  0.1439
  564TMC3    O1 8428   1.147   3.572  16.236 -0.2175  0.5601  0.4507
  564TMC3    O2 8429   0.585   3.468  16.117  0.2958 -0.2774 -0.0832
  565TMC3    C1 8430   1.719   4.454  10.168  0.8608 -0.3753  0.1442
  565TMC3    C2 8431   1.741   4.379  10.281  0.2522  0.8687  0.4761
  565TMC3    C3 8432   1.732   4.242  10.281 -0.2468  0.9000  0.5346
  565TMC3    C4 8433   1.669   4.397  10.053  0.4621  0.3852 -1.4094
  565TMC3    C5 8434   1.641   4.259  10.065  0.2615  0.0825 -0.1286
  565TMC3    C6 8435   1.692   4.188  10.168 -0.8670 -0.3262  0.0192
  565TMC3     C 8436   1.722   4.590  10.171  0.6033 -0.1393  0.6410
  565TMC3     O 8437   1.748   4.641  10.061 -0.0087  0.1618 -0.1680
  565TMC3     H 8438   1.807   4.422  10.355 -0.0752  0.5157  0.9681
  565TMC3    H1 8439   1.649   4.461   9.968 -0.0066  1.8577 -0.1882
  565TMC3    H2 8440   1.668   4.082  10.163  0.9775 -0.7340 -0.1502
  565TMC3    C7 8441   1.594   4.187   9.950  0.0541 -0.0095  0.1158
  565TMC3    C8 8442   1.778   4.167  10.399  0.1681  0.4921  0.4822
  565TMC3    O1 8443   1.616   4.069   9.936 -0.2037 -0.3034 -0.1118
  565TMC3    O2 8444   1.786   4.232  10.503  0.2965  0.0298  0.1419
  566MPD2     C 8445   2.958   0.731  14.478  0.2277  0.2835  0.9429
  566MPD2    C1 8446   3.038   0.769  14.367 -0.1350  0.5342 -0.0645
  566MPD2    C2 8447   2.969   0.790  14.243 -0.7644  0.1556  0.1325
  566MPD2    C3 8448   2.827   0.791  14.235 -0.1225  0.3299 -0.7171
  566MPD2    C4 8449   2.757   0.762  14.349 -0.0579 -1.2368  0.3615
  566MPD2    C5 8450   2.820   0.727  14.471  0.3469 -0.7251 -0.1023
  566MPD2     H 8451   3.023   0.823  14.155 -1.0149 -1.6343 -0.6973
  566MPD2    H1 8452   2.649   0.766  14.355  0.1867  1.2152  2.8759
  566MPD2    H2 8453   2.994   0.716  14.579 -0.8277 -0.8793  1.1382
  566MPD2    H3 8454   2.755   0.713  14.557  0.5846  2.4284  0.6234
  566MPD2     N 8455   2.772   0.834  14.112  0.5558  0.3861  0.3976
  566MPD2    H5 8456   2.831   0.853  14.032  0.9787 -1.1990  0.3255
  566MPD2    N1 8457   3.178   0.768  14.387 -0.0970 -0.0650  0.2339
  566MPD2    H7 8458   3.209   0.767  14.483  1.3459 -3.3067 -0.3028
  567TMC3    C1 8459   3.402   0.783  14.316  0.6623 -0.0435  0.0227
  567TMC3    C2 8460   3.457   0.875  14.232 -0.1776  0.4515  0.2006
  567TMC3    C3 8461   3.546   0.968  14.282  0.3914  0.1654 -0.1082
  567TMC3    C4 8462   3.444   0.761  14.439  0.7049  0.1199  0.7040
  567TMC3    C5 8463   3.531   0.858  14.486 -0.9612  0.1813 -0.1508
  567TMC3    C6 8464   3.578   0.969  14.415 -0.7279 -0.0152  0.0713
  567TMC3     C 8465   3.265   0.770  14.277 -0.7414  0.7426 -0.1386
  567TMC3     O 8466   3.235   0.764  14.160 -0.2069  0.3426 -0.2546
  567TMC3     H 8467   3.423   0.877  14.129  1.1387 -0.1164 -0.2409
  567TMC3    H1 8468   3.397   0.686  14.502 -0.4267  0.7558  0.6075
  567TMC3    H2 8469   3.635   1.052  14.455 -0.6853 -0.4609  0.9396
  567TMC3    C7 8470   3.547   0.850  14.632 -0.5667  0.3656  0.2159
  567TMC3    C8 8471   3.577   1.087  14.202  0.2057 -0.1521  0.0222
  567TMC3    O1 8472   3.530   0.738  14.681  0.0616 -0.6013  0.3428
  567TMC3    O2 8473   3.566   1.201  14.244  0.1621 -0.4126 -0.5610
  568MPD2     C 8474   0.473   2.038  16.182 -0.0419  0.3485 -0.4014
  568MPD2    C1 8475   0.561   2.091  16.277  0.3526 -0.9039  0.2415
  568MPD2    C2 8476   0.618   2.210  16.252  0.1226  0.2555 -0.5780
  568MPD2    C3 8477   0.585   2.283  16.144 -0.0018 -0.6319  0.3454
  568MPD2    C4 8478   0.485   2.241  16.056 -0.3081 -0.7348 -0.3822
  568MPD2    C5 8479   0.429   2.116  16.076  0.5429 -0.7832  0.7264
  568MPD2     H 8480   0.684   2.266  16.318 -0.3858 -0.1520  0.2683
  568MPD2    H1 8481   0.431   2.308  15.990 -2.4548 -1.5399  0.5202
  568MPD2    H2 8482   0.430   1.940  16.201 -0.5821  0.4411 -1.1684
  568MPD2    H3 8483   0.351   2.077  16.012 -0.7734  4.0400 -0.6660
  568MPD2     N 8484   0.637   2.412  16.136 -0.4914  0.1284 -0.1887
  568MPD2    H5 8485   0.708   2.440  16.202 -0.8216  1.4149 -0.3783
  568MPD2    N1 8486   0.598   2.021  16.391 -0.9255 -0.3524  0.2933
  568MPD2    H7 8487   0.528   1.956  16.427 -0.9858 -0.6535 -0.3632
  569TMC3    C1 8488   0.686   2.622  16.071  0.0889  0.9832 -0.2911
  569TMC3    C2 8489   0.699   2.668  16.199 -0.4597  0.2211 -1.1929
  569TMC3    C3 8490   0.758   2.791  16.207  0.8890 -0.7548 -0.3332
  569TMC3    C4 8491   0.724   2.696  15.951  0.1453 -0.0242 -0.6595
  569TMC3    C5 8492   0.785   2.821  15.978  0.0730  0.0031  0.0971
  569TMC3    C6 8493   0.805   2.865  16.105  0.3637 -0.0768  0.3359
  569TMC3     C 8494   0.617   2.497  16.036  0.6787 -0.3253  0.1203
  569TMC3     O 8495   0.561   2.480  15.928 -0.2458  0.0763 -0.9010
  569TMC3     H 8496   0.671   2.610  16.286  1.5565  0.6939 -0.2240
  569TMC3    H1 8497   0.684   2.669  15.853  0.0069 -2.9789  0.2056
  569TMC3    H2 8498   0.871   2.947  16.126  0.7089 -1.0099  2.8132
  569TMC3    C7 8499   0.757   2.911  15.866 -0.0192  0.0314  0.2605
  569TMC3    C8 8500   0.820   2.798  16.341 -0.3191  0.4653 -1.4115
  569TMC3    O1 8501   0.759   2.868  15.751  0.1350  0.4761 -0.1486
  569TMC3    O2 8502   0.838   2.684  16.388  0.5777 -0.1148 -0.1511
  570TMC3    C1 8503   0.088   1.125  16.197  0.4401  0.0960  0.5145
  570TMC3    C2 8504   0.163   1.116  16.086  0.3269 -0.0012  0.4090
  570TMC3    C3 8505   0.224   1.228  16.031 -0.2055  0.3702  0.0958
  570TMC3    C4 8506   0.073   1.246  16.262 -0.1731  0.1973  0.7394
  570TMC3    C5 8507   0.126   1.356  16.199  0.1153 -0.2415  0.3302
  570TMC3    C6 8508   0.208   1.350  16.090 -0.7627  0.2884 -0.0381
  570TMC3     C 8509   0.004   1.015  16.218 -0.5565  0.7614 -0.1632
  570TMC3     O 8510   4.723   0.940  16.120  0.2833 -0.1213 -0.1998
  570TMC3     H 8511   0.189   1.017  16.052  0.6275  1.2919 -3.1868
  570TMC3    H1 8512   4.735   1.257  16.340 -0.7553  0.3791  0.1559
  570TMC3    H2 8513   0.249   1.438  16.042 -0.2916  1.2245  2.0479
  570TMC3    C7 8514   0.065   1.487  16.228  0.4651  0.7482  0.1684
  570TMC3    C8 8515   0.305   1.226  15.915 -0.6554 -0.0371  0.7554
  570TMC3    O1 8516   4.727   1.497  16.320  0.6004 -0.2281 -0.4155
  570TMC3    O2 8517   0.318   1.335  15.859 -0.1430  0.7943 -0.1670
  571MPD2     C 8518   3.216   2.951   0.280  0.3831 -0.1404 -1.0220
  571MPD2    C1 8519   3.155   3.060   0.227 -0.1847 -0.2509  0.1491
  571MPD2    C2 8520   3.154   3.180   0.297  0.1536  0.2576 -0.2553
  571MPD2    C3 8521   3.225   3.187   0.422 -0.7181  0.5335  0.1319
  571MPD2    C4 8522   3.286   3.072   0.475  0.0427 -0.3070 -0.0638
  571MPD2    C5 8523   3.275   2.957   0.400 -0.2259 -0.5197 -0.6517
  571MPD2     H 8524   3.116   3.270   0.251  0.5351  0.9091  0.7194
  571MPD2    H1 8525   3.338   3.061   0.570  2.5402  0.6728 -1.3213
  571MPD2    H2 8526   3.212   2.855   0.230  0.2609 -1.7701  2.1110
  571MPD2    H3 8527   3.329   2.868   0.431 -0.8351 -1.2662 -1.7130
  571MPD2     N 8528   3.242   3.306   0.501 -0.0964  0.5638 -0.4260
  571MPD2    H5 8529   3.278   3.291   0.595  1.4907  3.0794 -0.6067
  571MPD2    N1 8530   3.095   3.051   0.106  0.7035  0.1173 -0.4712
  571MPD2    H7 8531   3.103   2.960   0.063  1.8856 -0.1851  0.3854
  572TMC3    C1 8532   3.249   3.544   0.544 -0.1381 -0.2469 -0.0286
  572TMC3    C2 8533   3.344   3.529   0.643 -0.9645 -0.5077 -0.3208
  572TMC3    C3 8534   3.393   3.645   0.701 -0.2517  0.0395 -0.3527
  572TMC3    C4 8535   3.201   3.660   0.516  0.6707  0.3846 -0.2626
  572TMC3    C5 8536   3.252   3.775   0.573 -0.0242 -0.1408  0.3429
  572TMC3    C6 8537   3.351   3.767   0.670 -0.3356 -0.8336 -0.5954
  572TMC3     C 8538   3.199   3.432   0.465 -0.5957  0.4231  0.2822
  572TMC3     O 8539   3.125   3.458   0.370 -0.1013  0.1550 -0.1732
  572TMC3     H 8540   3.393   3.434   0.662 -4.3691 -1.9909  1.0266
  572TMC3    H1 8541   3.131   3.678   0.435  1.9960  0.0505 -1.4776
  572TMC3    H2 8542   3.389   3.854   0.721  0.3227 -0.5121 -1.6553
  572TMC3    C7 8543   3.226   3.905   0.500  0.1646  0.5262  0.0227
  572TMC3    C8 8544   3.464   3.633   0.829  0.0059  0.4150  0.1340
  572TMC3    O1 8545   3.109   3.918   0.468  0.4495 -0.8992  0.4747
  572TMC3    O2 8546   3.494   3.742   0.884  0.0397 -0.0623  0.1746
  573MPD2     C 8547   3.698   3.264   0.735  0.3463  1.0990  0.1291
  573MPD2    C1 8548   3.750   3.389   0.721  0.3872  0.6046  0.0311
  573MPD2    C2 8549   3.725   3.463   0.606 -0.8790 -0.3866  0.2587
  573MPD2    C3 8550   3.656   3.405   0.500 -0.6225  0.2756 -0.0758
  573MPD2    C4 8551   3.597   3.280   0.517 -0.5497  0.3007  0.4406
  573MPD2    C5 8552   3.619   3.206   0.636 -0.2457 -0.8155  0.0554
  573MPD2     H 8553   3.768   3.561   0.591  0.4501 -1.1542 -1.0188
  573MPD2    H1 8554   3.540   3.228   0.442 -0.8467  2.5438 -0.8822
  573MPD2    H2 8555   3.717   3.206   0.825  0.2954 -1.1108 -1.2850
  573MPD2    H3 8556   3.581   3.106   0.652 -2.3032 -0.4412 -2.4690
  573MPD2     N 8557   3.642   3.475   0.377 -0.1704  0.1804 -1.1227
  573MPD2    H5 8558   3.576   3.431   0.314  0.4537 -1.6167 -0.5189
  573MPD2    N1 8559   3.843   3.434   0.818  0.0747 -0.1399  0.4078
  573MPD2    H7 8560   3.855   3.373   0.898  2.6032  0.4182  0.4573
  574TMC3    C1 8561   3.621   3.674   0.239 -0.1359 -0.4540 -0.3272
  574TMC3    C2 8562   3.490   3.648   0.201  0.6120 -0.7781  0.4160
  574TMC3    C3 8563   3.440   3.714   0.095  0.2982  0.1045 -0.3840
  574TMC3    C4 8564   3.702   3.748   0.167 -0.0696 -0.2139  0.4815
  574TMC3    C5 8565   3.653   3.812   0.059 -0.2033 -0.1911 -0.2576
  574TMC3    C6 8566   3.520   3.797   0.018  0.3627 -0.4655  0.1613
  574TMC3     C 8567   3.684   3.603   0.348 -0.1005  0.5172  0.7725
  574TMC3     O 8568   3.772   3.667   0.407  0.5456  0.1459 -0.1444
  574TMC3     H 8569   3.423   3.586   0.260 -2.9513  1.5738 -1.2150
  574TMC3    H1 8570   3.807   3.746   0.195 -0.2611  0.2197  1.2122
  574TMC3    H2 8571   3.483   3.860  17.685 -2.4077  0.3096  2.0805
  574TMC3    C7 8572   3.742   3.892  17.723  0.2959  0.0086 -0.6612
  574TMC3    C8 8573   3.298   3.746   0.107 -0.1539 -0.3581 -0.2685
  574TMC3    O1 8574   3.832   3.953   0.032 -0.1354 -0.6147 -0.2664
  574TMC3    O2 8575   3.227   3.662   0.159  0.4414 -0.1100 -0.2339
  575TMC3    C1 8576   2.211   4.039  11.141  0.6889 -0.3932  0.2751
  575TMC3    C2 8577   2.133   4.078  11.250 -0.5113  0.2203 -0.0691
  575TMC3    C3 8578   1.996   4.105  11.237  0.1679  0.6657  0.1863
  575TMC3    C4 8579   2.148   4.021  11.022  0.1995  0.4869  0.4009
  575TMC3    C5 8580   2.015   4.047  11.024 -0.0620  0.2258  0.1478
  575TMC3    C6 8581   1.933   4.094  11.119 -0.4667 -0.1254  0.2260
  575TMC3     C 8582   2.349   4.086  11.147 -0.8842 -0.0985  0.2304
  575TMC3     O 8583   2.407   4.068  11.254 -0.1728  0.3642 -0.0328
  575TMC3     H 8584   2.176   4.100  11.347  2.5208  1.3350 -1.6761
  575TMC3    H1 8585   2.214   3.995  10.940 -0.5419 -0.8634  0.2357
  575TMC3    H2 8586   1.826   4.106  11.112 -0.5049 -1.1038 -0.8713
  575TMC3    C7 8587   1.947   4.041  10.895 -0.6736  0.1066  0.1010
  575TMC3    C8 8588   1.922   4.143  11.345  0.3016 -0.7524  0.5958
  575TMC3    O1 8589   1.850   4.113  10.869  0.1304  0.1226  0.4572
  575TMC3    O2 8590   1.833   4.221  11.321  0.6640  0.2064  0.4892
  576MPD2     C 8591   1.122   1.286  12.681 -0.1074 -0.1506 -0.5368
  576MPD2    C1 8592   1.219   1.367  12.633  0.2871 -0.3260 -0.2518
  576MPD2    C2 8593   1.240   1.491  12.689  0.3942 -0.5462  0.9491
  576MPD2    C3 8594   1.150   1.541  12.784 -0.9716 -0.5141  0.1492
  576MPD2    C4 8595   1.043   1.462  12.823 -0.3109 -0.3472  0.4585
  576MPD2    C5 8596   1.030   1.330  12.775  0.5993  0.4392  0.4205
  576MPD2     H 8597   1.330   1.545  12.663  0.0950 -0.9987 -1.0706
  576MPD2    H1 8598   0.958   1.498  12.880 -0.8612 -0.1207 -0.5165
  576MPD2    H2 8599   1.104   1.184  12.648 -1.4116 -0.1652  0.2544
  576MPD2    H3 8600   0.940   1.276  12.802 -0.0689  0.6144 -1.4394
  576MPD2     N 8601   1.167   1.670  12.824 -0.1400  0.4329 -0.0789
  576MPD2    H5 8602   1.250   1.718  12.791  1.3841 -0.3514  2.6617
  576MPD2    N1 8603   1.292   1.340  12.512  0.6382 -0.0445  0.5025
  576MPD2    H7 8604   1.346   1.416  12.473 -2.4243  3.0918  2.3087
  577TMC3    C1 8605   1.373   1.224  12.328 -0.1868  0.4975 -0.5449
  577TMC3    C2 8606   1.442   1.112  12.294 -0.8804  0.0723 -0.1013
  577TMC3    C3 8607   1.493   1.115  12.168  0.5684 -0.9155  0.6987
  577TMC3    C4 8608   1.349   1.332  12.243 -0.1311  0.5006 -0.1031
  577TMC3    C5 8609   1.389   1.321  12.116  0.1136 -0.0276  0.5586
  577TMC3    C6 8610   1.465   1.214  12.085 -0.0140 -0.6814  0.6166
  577TMC3     C 8611   1.300   1.215  12.451  0.1018  0.0998 -1.0473
  577TMC3     O 8612   1.235   1.115  12.475 -0.2839 -0.3946  0.0620
  577TMC3     H 8613   1.469   1.032  12.362 -0.6872 -0.9896 -1.4188
  577TMC3    H1 8614   1.293   1.420  12.270 -0.3079 -0.6096  3.2372
  577TMC3    H2 8615   1.489   1.195  11.981  0.5977 -3.3999  1.2453
  577TMC3    C7 8616   1.324   1.404  12.014  0.1745  0.0354  1.0251
  577TMC3    C8 8617   1.595   1.019  12.133 -0.3744  0.7521  0.3490
  577TMC3    O1 8618   1.228   1.467  12.045 -0.0578 -0.2089  0.2700
  577TMC3    O2 8619   1.599   0.916  12.199 -0.8067  0.2124  0.0414
  578MPD2     C 8620   4.132   1.809   1.092 -0.3843 -0.2278 -0.4177
  578MPD2    C1 8621   4.141   1.687   1.041  0.0691  0.1618  1.0034
  578MPD2    C2 8622   4.228   1.596   1.097  0.0441 -0.8152  0.2856
  578MPD2    C3 8623   4.328   1.643   1.186  0.7008  0.2548  0.3511
  578MPD2    C4 8624   4.308   1.773   1.237  0.0958 -0.4728  0.0658
  578MPD2    C5 8625   4.206   1.854   1.192 -0.1286 -0.2714  0.0316
  578MPD2     H 8626   4.240   1.498   1.054 -3.4644 -0.6754 -0.9827
  578MPD2    H1 8627   4.373   1.821   1.309 -0.4276 -1.1328  0.9905
  578MPD2    H2 8628   4.058   1.877   1.049  0.1330 -0.1949 -1.2519
  578MPD2    H3 8629   4.201   1.959   1.218 -0.3133 -0.6150  1.3769
  578MPD2     N 8630   4.443   1.564   1.210 -0.0311  0.4426  0.6629
  578MPD2    H5 8631   4.439   1.464   1.189 -1.1741  0.2695  1.6900
  578MPD2    N1 8632   4.047   1.654   0.935  0.5100  0.1580 -0.1245
  578MPD2    H7 8633   3.994   1.737   0.911 -1.1313 -0.6235  0.7841
  579TMC3    C1 8634   4.672   1.510   1.265 -0.1327  0.2856 -0.0065
  579TMC3    C2 8635   0.037   1.536   1.348  0.8135 -0.0587  0.1593
  579TMC3    C3 8636   0.162   1.489   1.309 -0.1167 -0.8503  0.5447
  579TMC3    C4 8637   4.680   1.430   1.153  0.0283  0.5620 -0.3623
  579TMC3    C5 8638   0.069   1.373   1.127  0.4894 -0.2254 -0.1041
  579TMC3    C6 8639   0.176   1.404   1.207  0.3066  0.5282  0.2820
  579TMC3     C 8640   4.558   1.601   1.274  0.4444 -0.9202 -0.8907
  579TMC3     O 8641   4.584   1.707   1.327  0.2157  0.1726 -0.1625
  579TMC3     H 8642   0.024   1.600   1.435 -0.2262 -1.2734  0.8929
  579TMC3    H1 8643   4.601   1.427   1.079  0.5392 -1.9662 -0.8080
  579TMC3    H2 8644   0.271   1.358   1.178  0.8252  0.6934  1.7375
  579TMC3    C7 8645   0.098   1.279   1.024  0.3389  0.2033  0.1152
  579TMC3    C8 8646   0.278   1.546   1.378 -0.8966  0.3251 -0.1659
  579TMC3    O1 8647   0.216   1.248   1.000 -0.0290  0.1953 -0.5562
  579TMC3    O2 8648   0.257   1.612   1.478  0.5756 -0.1093  0.3233
  580TMC3    C1 8649   3.692   0.345  12.011 -0.7771  0.3514 -0.3188
  580TMC3    C2 8650   3.772   0.434  12.077 -0.0549  0.0998  0.4019
  580TMC3    C3 8651   3.876   0.382  12.148  0.8276  0.3657  0.0106
  580TMC3    C4 8652   3.703   0.208  12.033 -0.0434  0.2635  0.3090
  580TMC3    C5 8653   3.798   0.163  12.114  0.4042  0.2757  0.3441
  580TMC3    C6 8654   3.890   0.249  12.170  0.3000  0.3188  0.3014
  580TMC3     C 8655   3.608   0.401  11.903 -0.4000  0.0792 -0.0475
  580TMC3     O 8656   3.514   0.340  11.857  0.4822 -0.4302  0.1009
  580TMC3     H 8657   3.780   0.539  12.049 -0.3764  0.1813  0.6177
  580TMC3    H1 8658   3.635   0.143  11.977  2.3704 -1.0405 -1.1046
  580TMC3    H2 8659   3.982   0.221  12.220  0.8717  1.0595 -0.3480
  580TMC3    C7 8660   3.848   0.034  12.089  0.5439 -0.0368  0.3491
  580TMC3    C8 8661   4.003   0.460  12.154 -0.6792  0.5517 -0.1204
  580TMC3    O1 8662   3.969   0.034  12.075 -0.2829  0.1856  0.0266
  580TMC3    O2 8663   4.005   0.583  12.171 -0.4510 -0.2333  0.3258
  581MPD2     C 8664   1.947   0.012  14.804  0.1244  0.6003 -0.6147
  581MPD2    C1 8665   1.962   0.123  14.888  0.8153  0.1439  0.6157
  581MPD2    C2 8666   1.858   0.207  14.922 -0.3565  0.2931 -0.1970
  581MPD2    C3 8667   1.731   0.188  14.867 -0.1310  0.5923  0.3866
  581MPD2    C4 8668   1.712   0.076  14.789 -0.7013 -0.3735  0.3563
  581MPD2    C5 8669   1.815   4.726  14.764 -1.0021  0.2625  0.5607
  581MPD2     H 8670   1.866   0.280  15.002  3.2599  1.9179 -2.0581
  581MPD2    H1 8671   1.619   0.041  14.747 -0.0260  0.0974 -1.5287
  581MPD2    H2 8672   2.023   4.678  14.776 -2.4650 -2.2182 -0.4827
  581MPD2    H3 8673   1.796   4.633  14.711 -0.4730  0.4832 -0.0188
  581MPD2     N 8674   1.625   0.279  14.899 -0.8706  0.6737 -0.0325
  581MPD2    H5 8675   1.646   0.366  14.946 -1.0576  0.5323  0.3096
  581MPD2    N1 8676   2.090   0.140  14.944  0.0434  0.4411  0.2831
  581MPD2    H7 8677   2.162   0.091  14.892 -0.1307 -1.4058  1.7810
  582TMC3    C1 8678   2.263   0.172  15.101 -0.0734  0.0891  0.0497
  582TMC3    C2 8679   2.290   0.221  15.225  0.0731 -0.4203  0.0405
  582TMC3    C3 8680   2.365   0.145  15.313  0.1567  0.1216 -0.1425
  582TMC3    C4 8681   2.312   0.051  15.062  0.1357  0.3322 -0.1898
  582TMC3    C5 8682   2.377   4.716  15.156  0.0992 -0.1595  0.9311
  582TMC3    C6 8683   2.417   0.024  15.281  0.7351 -0.2388  0.0265
  582TMC3     C 8684   2.134   0.208  15.053 -0.3784  0.2427  0.2526
  582TMC3     O 8685   2.064   0.279  15.122 -0.1821  0.0596  0.1314
  582TMC3     H 8686   2.228   0.302  15.263  1.4854  0.8527 -0.3894
  582TMC3    H1 8687   2.302   0.000  14.967  0.1070  0.1708 -0.1006
  582TMC3    H2 8688   2.472   4.701  15.351 -0.5665 -1.9751 -0.4509
  582TMC3    C7 8689   2.412   4.577  15.128  0.2535 -0.0127  0.8101
  582TMC3    C8 8690   2.383   0.200  15.444 -0.5385  0.5733  0.5483
  582TMC3    O1 8691   2.520   4.535  15.167 -0.0856 -0.3085 -0.2116
  582TMC3    O2 8692   2.347   0.314  15.473  0.5424 -0.3740  0.0493
  583MPD2     C 8693   2.001   1.702  16.702  0.0881  0.1617  0.4725
  583MPD2    C1 8694   1.972   1.795  16.603 -0.0683  0.2313  0.0407
  583MPD2    C2 8695   1.898   1.909  16.631 -0.3837  0.0985  0.1113
  583MPD2    C3 8696   1.841   1.919  16.758 -0.2360  1.4129 -0.1836
  583MPD2    C4 8697   1.854   1.818  16.847  0.8058  0.1525 -0.2652
  583MPD2    C5 8698   1.933   1.714  16.816  0.7056 -0.3286 -0.1052
  583MPD2     H 8699   1.887   1.995  16.566  1.3697 -0.2034 -0.5906
  583MPD2    H1 8700   1.817   1.819  16.948  1.1972 -2.0337 -0.1000
  583MPD2    H2 8701   2.072   1.620  16.705 -2.5641 -2.2089 -1.3083
  583MPD2    H3 8702   1.940   1.640  16.895 -0.8461 -1.6537 -1.2136
  583MPD2     N 8703   1.785   2.044  16.797 -0.0952 -0.0393  0.1154
  583MPD2    H5 8704   1.770   2.102  16.715 -2.2217 -0.2424  0.3428
  583MPD2    N1 8705   2.032   1.787  16.474  0.2483 -0.5078 -0.7905
  583MPD2    H7 8706   2.020   1.868  16.415  2.7406 -0.1530 -0.8399
  584TMC3    C1 8707   1.669   2.207  16.937  0.8693  0.7120  0.0147
  584TMC3    C2 8708   1.700   2.314  16.854 -0.9282 -0.0117  0.2188
  584TMC3    C3 8709   1.654   2.435  16.893 -0.3638  0.3081 -0.5293
  584TMC3    C4 8710   1.606   2.223  17.051  0.5220 -0.7565 -0.2295
  584TMC3    C5 8711   1.559   2.351  17.082  0.2889 -0.9184 -0.1433
  584TMC3    C6 8712   1.590   2.460  17.007 -0.2615 -0.4557  0.2710
  584TMC3     C 8713   1.730   2.079  16.916 -0.0681  0.3664 -0.7296
  584TMC3     O 8714   1.704   2.000  17.007 -0.0011 -0.0196 -0.5203
  584TMC3     H 8715   1.774   2.305  16.775 -0.5098  2.7697  0.2889
  584TMC3    H1 8716   1.583   2.147  17.125  0.1678 -0.9144 -0.5001
  584TMC3    H2 8717   1.540   2.555  17.021  1.5235  0.2748  1.6564
  584TMC3    C7 8718   1.493   2.366  17.206  0.0596  0.7686  0.3193
  584TMC3    C8 8719   1.704   2.546  16.803  0.4287 -0.3866  1.1503
  584TMC3    O1 8720   1.440   2.265  17.253  0.1548  0.2706 -0.3045
  584TMC3    O2 8721   1.718   2.509  16.685  0.1118  0.0799 -0.2862
  585MPD2     C 8722   0.633   1.377   0.168  0.8176  0.5273 -0.4005
  585MPD2    C1 8723   0.684   1.406   0.047 -0.3234 -0.6079 -0.3159
  585MPD2    C2 8724   0.757   1.312  17.723 -0.3424 -0.3078  0.2945
  585MPD2    C3 8725   0.789   1.200   0.042 -0.0533 -0.0921  0.1313
  585MPD2    C4 8726   0.748   1.175   0.167 -0.3790 -0.4823  0.9390
  585MPD2    C5 8727   0.671   1.263   0.228  0.0004 -0.5112  0.7672
  585MPD2     H 8728   0.771   1.317  17.616 -1.0266  1.3946  0.2802
  585MPD2    H1 8729   0.771   1.078   0.209  2.3543 -0.3608 -0.3062
  585MPD2    H2 8730   0.573   1.447   0.225  0.9542 -0.4300  0.9233
  585MPD2    H3 8731   0.620   1.237   0.320 -1.3064 -0.5956  0.0152
  585MPD2     N 8732   0.863   1.097  17.727  0.0116  0.3311 -0.0755
  585MPD2    H5 8733   0.882   1.006   0.020  0.5409  0.9549  1.1176
  585MPD2    N1 8734   0.642   1.531  17.741  0.7474  0.0728  0.6649
  585MPD2    H7 8735   0.581   1.587   0.053 -1.8001 -0.1228 -1.7741
  586TMC3    C1 8736   0.987   0.972  17.569  0.7767 -0.4614  0.4939
  586TMC3    C2 8737   1.101   0.963  17.489  0.0422  0.4620  0.3291
  586TMC3    C3 8738   1.162   0.847  17.490 -0.8028 -0.8985 -0.1281
  586TMC3    C4 8739   0.929   0.861  17.630 -0.4719 -0.6078 -0.9072
  586TMC3    C5 8740   0.977   0.735  17.603 -0.0158  0.1210 -0.3430
  586TMC3    C6 8741   1.100   0.736  17.541  0.0896 -0.0163 -0.9830
  586TMC3     C 8742   0.935   1.102  17.606  0.3107  0.1015  0.0624
  586TMC3     O 8743   0.965   1.203  17.544  0.1915  0.1406 -0.1649
  586TMC3     H 8744   1.152   1.052  17.455  0.2941  0.6201  1.1190
  586TMC3    H1 8745   0.834   0.859  17.683  0.9911 -0.2508  1.7267
  586TMC3    H2 8746   1.122   0.639  17.498 -2.1650 -0.7287 -0.5305
  586TMC3    C7 8747   0.885   0.650  17.529  0.0438 -0.5172  0.1605
  586TMC3    C8 8748   1.232   0.819  17.362 -0.0577 -0.2188 -0.4007
  586TMC3    O1 8749   0.819   0.562  17.584 -0.1090 -0.1560 -0.2300
  586TMC3    O2 8750   1.311   0.724  17.356 -0.3718  0.3309 -0.0556
  587TMC3    C1 8751   2.969   3.990  16.788 -0.2455 -0.5850 -0.7314
  587TMC3    C2 8752   3.020   4.076  16.887 -0.4173 -0.1107 -0.8078
  587TMC3    C3 8753   3.137   4.044  16.948 -0.7508 -0.4227 -0.2661
  587TMC3    C4 8754   3.027   3.865  16.763  0.2876  1.2046 -0.7822
  587TMC3    C5 8755   3.148   3.839  16.823  0.7645 -0.5971 -0.7135
  587TMC3    C6 8756   3.208   3.928  16.908 -0.2981  0.4245  0.3151
  587TMC3     C 8757   2.845   4.021  16.713  0.2616  0.1430  0.1349
  587TMC3     O 8758   2.759   3.932  16.716 -0.1996  0.2259  0.3558
  587TMC3     H 8759   2.968   4.168  16.910 -1.3177 -1.1256  1.1731
  587TMC3    H1 8760   2.976   3.784  16.712 -2.4066  2.1645  0.4005
  587TMC3    H2 8761   3.298   3.904  16.963 -0.4786  1.0108  0.8711
  587TMC3    C7 8762   3.220   3.722  16.779 -0.0184  0.1306 -0.3805
  587TMC3    C8 8763   3.213   4.149  17.011  0.3779 -0.2538  0.0141
  587TMC3    O1 8764   3.168   3.658  16.687 -0.2073  0.1323  0.6279
  587TMC3    O2 8765   3.321   4.105  17.054  0.0125  0.5164  0.6181
  588TMC3    C1 8766   0.769   2.147  10.082 -0.8226  0.1147 -0.4701
  588TMC3    C2 8767   0.740   2.014  10.088 -0.0695  0.1901  0.4239
  588TMC3    C3 8768   0.819   1.914  10.148  0.3276 -0.5378  0.6118
  588TMC3    C4 8769   0.881   2.188  10.145  0.4995  0.3663 -0.7317
  588TMC3    C5 8770   0.958   2.091  10.215  0.3345 -0.3355 -0.2531
  588TMC3    C6 8771   0.924   1.955  10.218  0.4142  0.0764 -0.0759
  588TMC3     C 8772   0.711   2.230   9.981 -0.6907  0.1034  1.0652
  588TMC3     O 8773   0.649   2.181   9.887 -0.4090  0.1978  0.0832
  588TMC3     H 8774   0.654   1.982  10.030  1.4503 -0.5190 -1.4571
  588TMC3    H1 8775   0.925   2.284  10.123  0.0693  0.8524  0.5535
  588TMC3    H2 8776   1.001   1.888  10.256 -2.0265 -3.5387 -1.4432
  588TMC3    C7 8777   1.086   2.142  10.262  0.7013  1.1899  0.0178
  588TMC3    C8 8778   0.773   1.777  10.140  0.3141  0.1320  0.4536
  588TMC3    O1 8779   1.181   2.069  10.260 -0.0882  0.3862 -0.2777
  588TMC3    O2 8780   0.663   1.761  10.096 -0.2977  0.5887  0.4993
  589TMC3    C1 8781   4.602   4.123   0.926  0.3490  0.6054 -0.1432
  589TMC3    C2 8782   4.689   4.150   1.025  0.0107  0.4094 -0.1946
  589TMC3    C3 8783   0.060   4.071   1.032  0.2873 -0.1845  0.0244
  589TMC3    C4 8784   4.626   4.023   0.836  0.0316  0.1347  0.1181
  589TMC3    C5 8785   0.003   3.948   0.840  0.1272 -0.4503 -0.7030
  589TMC3    C6 8786   0.098   3.970   0.943 -0.4201  0.0618  0.2986
  589TMC3     C 8787   4.510   4.222   0.895  0.0258 -0.8252 -0.4358
  589TMC3     O 8788   4.407   4.193   0.834  0.1103  0.1953  0.4037
  589TMC3     H 8789   4.661   4.220   1.104  0.9177  1.0772 -0.4684
  589TMC3    H1 8790   4.550   4.018   0.759 -0.1993  1.7062  0.2442
  589TMC3    H2 8791   0.196   3.926   0.932 -0.4266  0.5254 -1.5368
  589TMC3    C7 8792   0.034   3.842   0.743 -0.0253  0.8612 -0.4018
  589TMC3    C8 8793   0.155   4.118   1.134  0.1286 -0.1877  0.0484
  589TMC3    O1 8794   0.135   3.774   0.764  0.2385 -0.0036 -0.5927
  589TMC3    O2 8795   0.113   4.189   1.226  0.0678  0.0441 -0.1960
  590MPD2     C 8796   4.636   2.430  16.624 -0.5053  0.2446  0.6131
  590MPD2    C1 8797   4.548   2.530  16.586 -0.0843  0.2304 -0.2493
  590MPD2    C2 8798   4.607   2.635  16.517  0.5082 -0.5063 -0.2235
  590MPD2    C3 8799   0.003   2.639  16.472 -0.6283 -0.0825  0.0397
  590MPD2    C4 8800   0.088   2.549  16.525 -0.1463 -0.1270 -0.4111
  590MPD2    C5 8801   0.031   2.448  16.601 -0.6851 -0.2765 -0.1666
  590MPD2     H 8802   4.544   2.713  16.476  0.2561 -0.8410 -0.4806
  590MPD2    H1 8803   0.196   2.551  16.522 -0.1439 -0.0492 -0.2511
  590MPD2    H2 8804   4.610   2.348  16.690 -0.0330 -0.7367 -0.4380
  590MPD2    H3 8805   0.101   2.379  16.647  0.4998  0.6439 -0.5774
  590MPD2     N 8806   0.051   2.732  16.377  0.2997  0.2999 -0.2147
  590MPD2    H5 8807   4.722   2.797  16.336 -0.4469 -0.2221  0.1628
  590MPD2    N1 8808   4.413   2.519  16.632  0.0405  0.0434  0.3426
  590MPD2    H7 8809   4.400   2.440  16.694 -1.3349 -0.2350 -0.3130
  591TMC3    C1 8810   0.206   2.830  16.224 -0.4494  0.3879 -0.1009
  591TMC3    C2 8811   0.270   2.789  16.113  0.4148  0.4162 -0.1838
  591TMC3    C3 8812   0.266   2.861  15.995 -0.9105 -0.2275 -0.3174
  591TMC3    C4 8813   0.129   2.942  16.215 -0.0631 -0.2263  0.8955
  591TMC3    C5 8814   0.123   3.013  16.098  0.2511 -0.7422 -0.6625
  591TMC3    C6 8815   0.189   2.974  15.979  0.1074  0.3222  0.7733
  591TMC3     C 8816   0.178   2.731  16.323 -0.1673  0.4345 -0.0370
  591TMC3     O 8817   0.278   2.664  16.348 -0.3667  0.5910 -0.2611
  591TMC3     H 8818   0.324   2.695  16.118  1.7093  1.0029 -3.1585
  591TMC3    H1 8819   0.079   2.982  16.302 -0.3520 -1.1702  1.1695
  591TMC3    H2 8820   0.157   3.017  15.885 -1.7481  1.3592  1.9014
  591TMC3    C7 8821   0.016   3.104  16.090 -0.3072 -0.6034  0.3231
  591TMC3    C8 8822   0.340   2.797  15.891  0.0207  0.4110  0.3017
  591TMC3    O1 8823   4.651   3.078  16.154  0.3180 -0.1763 -0.2288
  591TMC3    O2 8824   0.352   2.675  15.900 -0.3164 -0.2762  0.6736
  592MPD2     C 8825   0.089   4.719  11.184  0.8839  0.1049 -0.5250
  592MPD2    C1 8826   0.117   0.006  11.317  0.2266  0.0612 -0.3745
  592MPD2    C2 8827   0.033   4.671  11.405  0.9122  0.0875 -0.4014
  592MPD2    C3 8828   4.669   4.587  11.362  0.2193  0.0496 -0.2557
  592MPD2    C4 8829   4.643   4.577  11.225 -0.5827  0.1404  0.0788
  592MPD2    C5 8830   4.724   4.641  11.140 -0.8073  0.7571 -0.0449
  592MPD2     H 8831   0.047   4.667  11.512  0.3626  0.7651 -0.3080
  592MPD2    H1 8832   4.568   4.519  11.174  0.8534 -2.0318  0.4538
  592MPD2    H2 8833   0.140   0.039  11.107 -0.5072  0.3528 -1.2509
  592MPD2    H3 8834   4.708   4.629  11.033  0.3701 -0.3108 -0.1050
  592MPD2     N 8835   4.602   4.510  11.461  0.1917 -0.3969 -0.5200
  592MPD2    H5 8836   4.635   4.503  11.557  1.6323 -4.1287 -1.2767
  592MPD2    N1 8837   0.223   0.090  11.351 -0.5364 -0.9318 -0.5423
  592MPD2    H7 8838   0.281   0.118  11.273  2.0763 -2.0393  1.0009
  593TMC3    C1 8839   0.333   0.231  11.492  0.6823 -0.6984 -0.0380
  593TMC3    C2 8840   0.326   0.304  11.613  0.4592 -0.2704 -0.3594
  593TMC3    C3 8841   0.392   0.427  11.610 -0.6210  0.0280  0.0831
  593TMC3    C4 8842   0.392   0.283  11.382  0.5873 -0.4441  0.3398
  593TMC3    C5 8843   0.459   0.396  11.392 -0.3034 -0.6721 -0.4790
  593TMC3    C6 8844   0.467   0.473  11.513  0.0597  0.4544  0.5567
  593TMC3     C 8845   0.232   0.138  11.475  0.2122  0.3748  0.2322
  593TMC3     O 8846   0.155   0.135  11.570 -0.6123  0.3489  0.6775
  593TMC3     H 8847   0.251   0.287  11.689  0.0873  1.8293 -0.2564
  593TMC3    H1 8848   0.421   0.225  11.295  0.5507 -1.6769  1.1441
  593TMC3    H2 8849   0.519   0.568  11.502  0.0993  0.4280  0.5154
  593TMC3    C7 8850   0.540   0.455  11.286  0.1937 -0.0141  0.4117
  593TMC3    C8 8851   0.331   0.532  11.693 -0.1086  0.4086 -0.2283
  593TMC3    O1 8852   0.610   0.556  11.313  0.0772 -0.6254  0.0493
  593TMC3    O2 8853   0.210   0.535  11.698  0.0399 -0.1867 -0.1145
  594MPD2     C 8854   3.918   3.396  14.231 -0.2186 -0.3000  0.6840
  594MPD2    C1 8855   3.835   3.462  14.321 -0.0736  0.4220  0.6459
  594MPD2    C2 8856   3.862   3.597  14.339  0.1253 -0.3819 -0.7143
  594MPD2    C3 8857   3.961   3.660  14.277  0.0618 -0.1240  0.7582
  594MPD2    C4 8858   4.048   3.595  14.192 -0.2828  0.3665 -0.9080
  594MPD2    C5 8859   4.014   3.467  14.155  0.1454 -0.2108 -0.7618
  594MPD2     H 8860   3.804   3.654  14.410  1.2260 -0.1977  0.0411
  594MPD2    H1 8861   4.128   3.649  14.141 -0.3016 -0.2756 -1.6179
  594MPD2    H2 8862   3.894   3.296  14.197 -0.3268  0.4319 -1.4239
  594MPD2    H3 8863   4.062   3.406  14.079  0.9617  0.2674 -0.6330
  594MPD2     N 8864   3.970   3.799  14.302  0.5663  0.1413 -0.5163
  594MPD2    H5 8865   3.893   3.838  14.356 -0.2116 -1.1929 -0.6638
  594MPD2    N1 8866   3.724   3.397  14.376 -0.1071 -0.4539  0.4569
  594MPD2    H7 8867   3.722   3.296  14.371  2.2310 -0.5953  2.8080
  595TMC3    C1 8868   4.090   4.242  14.324 -0.0203  0.1683 -0.2709
  595TMC3    C2 8869   4.099   4.126  14.261 -0.1955  0.1579  0.1259
  595TMC3    C3 8870   4.048   4.017  14.327  0.6350 -0.1578  0.5680
  595TMC3    C4 8871   4.032   4.256  14.444 -0.1773 -0.4543 -0.1578
  595TMC3    C5 8872   3.985   4.140  14.509 -0.1911 -0.1606  0.9781
  595TMC3    C6 8873   3.990   4.017  14.450  0.7251  0.5039  0.0166
  595TMC3     C 8874   4.175   4.347  14.267  0.0267 -0.1914 -0.3390
  595TMC3     O 8875   4.158   4.379  14.147  0.4697  0.1788 -0.2557
  595TMC3     H 8876   4.159   4.118  14.171  0.4897 -1.5443  0.7177
  595TMC3    H1 8877   4.031   4.353  14.493 -0.2840  0.0125 -1.0837
  595TMC3    H2 8878   3.955   3.926  14.497  1.0939 -0.3276 -1.2891
  595TMC3    C7 8879   3.888   4.153  14.615 -0.1286  0.6612  0.0185
  595TMC3    C8 8880   4.060   3.893  14.260 -0.1942 -0.3652  0.0845
  595TMC3    O1 8881   3.824   4.258  14.627 -0.0316  0.0367  0.8472
  595TMC3    O2 8882   4.136   3.884  14.169  0.0227 -0.2606  1.0171
  596MPD2     C 8883   2.838   1.585  16.585 -0.1578  1.2095 -0.1343
  596MPD2    C1 8884   2.828   1.697  16.506  0.0899 -0.3682  0.4563
  596MPD2    C2 8885   2.867   1.692  16.373  0.0883  0.3286  0.8588
  596MPD2    C3 8886   2.886   1.570  16.317 -0.1409 -0.5179 -0.2578
  596MPD2    C4 8887   2.874   1.453  16.392  0.1205 -0.4486  0.4949
  596MPD2    C5 8888   2.852   1.467  16.524 -0.6546  0.1449  0.0576
  596MPD2     H 8889   2.863   1.786  16.320  2.0483  0.5748  1.1446
  596MPD2    H1 8890   2.884   1.351  16.357  0.8109  0.3479 -1.6261
  596MPD2    H2 8891   2.810   1.591  16.689 -1.0741 -0.9683 -0.2407
  596MPD2    H3 8892   2.847   1.376  16.583  1.1437 -1.1625 -1.7539
  596MPD2     N 8893   2.912   1.556  16.179  0.5695  0.0499 -0.0975
  596MPD2    H5 8894   2.951   1.466  16.155  1.7903  0.3176  0.9209
  596MPD2    N1 8895   2.802   1.825  16.560  0.5966 -0.2636  0.0987
  596MPD2    H7 8896   2.797   1.893  16.485 -1.7561 -0.8544 -0.2902
  597TMC3    C1 8897   2.719   1.993  16.694 -0.0841 -1.0307 -0.1182
  597TMC3    C2 8898   2.767   2.070  16.597  0.1096  0.5027  0.3039
  597TMC3    C3 8899   2.709   2.193  16.574  0.2691  0.4839 -0.1071
  597TMC3    C4 8900   2.607   2.030  16.768  0.3939 -0.6215  0.3640
  597TMC3    C5 8901   2.538   2.148  16.742  0.4180  0.0075 -0.8992
  597TMC3    C6 8902   2.586   2.228  16.636 -0.1342  0.3302  0.0083
  597TMC3     C 8903   2.754   1.854  16.683 -0.1590  0.1312  0.1208
  597TMC3     O 8904   2.710   1.779  16.770  0.2402  0.2202 -0.0876
  597TMC3     H 8905   2.863   2.051  16.550  0.7350  1.5353  1.1580
  597TMC3    H1 8906   2.579   1.963  16.849  1.4943 -0.5078  0.8399
  597TMC3    H2 8907   2.540   2.322  16.607 -1.0296 -0.3335 -0.7000
  597TMC3    C7 8908   2.431   2.193  16.835 -0.3439  0.3798 -0.1267
  597TMC3    C8 8909   2.765   2.294  16.481  0.4513  0.3489  0.8273
  597TMC3    O1 8910   2.407   2.111  16.920  0.0491  0.9550 -0.4112
  597TMC3    O2 8911   2.709   2.398  16.484 -0.0895 -0.0295 -0.2868
  598TMC3    C1 8912   1.075   3.086  15.432  0.1026  0.6660  0.1355
  598TMC3    C2 8913   0.949   3.122  15.398  0.3592 -0.1686  0.5751
  598TMC3    C3 8914   0.934   3.182  15.276 -0.5970  0.0750  0.4126
  598TMC3    C4 8915   1.184   3.116  15.351 -0.3916  0.3153  0.5191
  598TMC3    C5 8916   1.161   3.174  15.236  0.5513 -0.9851 -0.3867
  598TMC3    C6 8917   1.038   3.208  15.187  0.5176  0.3667 -0.3185
  598TMC3     C 8918   1.092   2.991  15.545 -0.5333  0.4145  0.4849
  598TMC3     O 8919   0.988   2.936  15.571  0.3872  0.3032 -0.1228
  598TMC3     H 8920   0.867   3.101  15.465  0.4145  1.7821  1.2631
  598TMC3    H1 8921   1.284   3.080  15.373  0.4457  1.8241 -0.7652
  598TMC3    H2 8922   1.010   3.238  15.087  1.0169  0.1431 -0.5219
  598TMC3    C7 8923   1.274   3.215  15.160  0.0815 -0.4606  0.2634
  598TMC3    C8 8924   0.805   3.169  15.210 -0.1587  0.5205  0.4415
  598TMC3    O1 8925   1.374   3.144  15.162 -0.0891 -0.1294  0.0121
  598TMC3    O2 8926   0.710   3.221  15.263  0.5120  0.7784 -0.3866
  599MPD2     C 8927   1.069   0.852  15.619  0.1921 -0.0343  0.0357
  599MPD2    C1 8928   1.037   0.737  15.682  0.5800 -0.9559  0.4365
  599MPD2    C2 8929   0.954   0.737  15.791  0.0872 -0.4753 -0.0861
  599MPD2    C3 8930   0.906   0.859  15.836  0.0134  0.4063 -0.5705
  599MPD2    C4 8931   0.959   0.977  15.789 -0.0839 -0.5478 -0.7894
  599MPD2    C5 8932   1.034   0.968  15.678 -1.6162 -0.2023  0.2249
  599MPD2     H 8933   0.922   0.648  15.844 -1.3858 -0.7046 -1.3701
  599MPD2    H1 8934   0.930   1.078  15.816  0.1847 -0.0260 -2.4260
  599MPD2    H2 8935   1.134   0.859  15.532  0.8421  0.7923  0.5918
  599MPD2    H3 8936   1.062   1.060  15.628 -1.8350 -0.2066  0.0908
  599MPD2     N 8937   0.813   0.871  15.937  0.6689  0.0283 -0.0707
  599MPD2    H5 8938   0.805   0.963  15.978  0.8783  1.2666 -2.7873
  599MPD2    N1 8939   1.110   0.624  15.635 -0.2446  0.2432  0.1656
  599MPD2    H7 8940   1.181   0.649  15.567 -0.7584 -0.8114 -0.7425
  600TMC3    C1 8941   0.639   0.812  16.084 -0.4010 -0.0302 -0.1813
  600TMC3    C2 8942   0.625   0.721  16.183  0.4141 -0.3074 -1.0660
  600TMC3    C3 8943   0.567   0.754  16.300  0.1226 -0.1774  0.7239
  600TMC3    C4 8944   0.622   0.948  16.111  0.1832 -0.2483  0.9325
  600TMC3    C5 8945   0.546   0.977  16.223  0.2144  0.1748 -0.0368
  600TMC3    C6 8946   0.518   0.882  16.317  0.0184  0.1591  0.1066
  600TMC3     C 8947   0.721   0.772  15.974 -0.0015 -0.5150  0.3605
  600TMC3     O 8948   0.717   0.661  15.919 -0.6717 -0.3439 -0.0335
  600TMC3     H 8949   0.632   0.618  16.147 -0.1752 -0.6946 -0.0618
  600TMC3    H1 8950   0.632   1.019  16.030 -2.4000 -0.0843  0.7869
  600TMC3    H2 8951   0.471   0.904  16.413  1.2210 -0.7152  0.9008
  600TMC3    C7 8952   0.491   1.110  16.245  0.5985  0.4614 -0.4191
  600TMC3    C8 8953   0.501   0.641  16.371 -0.7129  0.3534 -1.3184
  600TMC3    O1 8954   0.389   1.124  16.312  0.0692 -0.0821  0.1838
  600TMC3    O2 8955   0.531   0.621  16.489  0.0952 -0.4107 -0.3169
  601MPD2     C 8956   3.283   4.365   0.283 -0.4955  0.2801  0.2097
  601MPD2    C1 8957   3.176   4.287   0.309 -0.4673 -0.5911 -0.0936
  601MPD2    C2 8958   3.188   4.178   0.390  0.4124  0.0844  0.4037
  601MPD2    C3 8959   3.319   4.123   0.425 -0.1731 -0.6444 -0.3205
  601MPD2    C4 8960   3.429   4.192   0.388 -0.1142  0.3087  0.0427
  601MPD2    C5 8961   3.409   4.315   0.323 -0.6265 -0.3999 -0.5066
  601MPD2     H 8962   3.098   4.123   0.415  0.1926 -1.2683 -3.2882
  601MPD2    H1 8963   3.525   4.145   0.406 -0.6398 -0.1200  1.7353
  601MPD2    H2 8964   3.270   4.454   0.224  0.2832 -0.3371 -0.8926
  601MPD2    H3 8965   3.501   4.364   0.291 -0.0327  1.3899  3.9275
  601MPD2     N 8966   3.328   3.997   0.492 -0.2767 -0.6911  0.2472
  601MPD2    H5 8967   3.421   3.969   0.523  0.0387  1.3985  1.1679
  601MPD2    N1 8968   3.044   4.328   0.268  0.0741  0.8952 -0.3225
  601MPD2    H7 8969   2.971   4.259   0.282 -0.1752  1.0176 -1.0233
  602TMC3    C1 8970   2.869   4.447   0.180 -0.5106  0.2745  0.7635
  602TMC3    C2 8971   2.824   4.546   0.096  0.4504 -0.1822 -0.0517
  602TMC3    C3 8972   2.698   4.536   0.040  0.2561  0.8364  0.6841
  602TMC3    C4 8973   2.794   4.336   0.203  0.2318 -0.5278  0.5960
  602TMC3    C5 8974   2.673   4.328   0.139  0.0660 -0.4274  0.7417
  602TMC3    C6 8975   2.625   4.423   0.047  0.4390  0.1131  0.1772
  602TMC3     C 8976   3.011   4.438   0.195 -0.6240 -0.4155  0.4904
  602TMC3     O 8977   3.080   4.532   0.161  0.3660  0.2018  0.2435
  602TMC3     H 8978   2.879   4.638   0.080 -0.4695  0.4154  0.2279
  602TMC3    H1 8979   2.819   4.256   0.271 -0.7245 -2.8444 -1.7734
  602TMC3    H2 8980   2.520   4.421   0.019  0.8340 -2.6552 -1.1724
  602TMC3    C7 8981   2.616   4.198   0.129 -0.0063  0.3470 -0.4834
  602TMC3    C8 8982   2.669   4.626  17.678  0.3305 -0.3436 -0.4798
  602TMC3    O1 8983   2.643   4.124   0.219  0.0890  0.3134  0.1999
  602TMC3    O2 8984   2.712   0.001  17.691  0.2526  0.6981 -0.7124
  603TMC3    C1 8985   1.096   3.993  11.428 -0.1881  0.0062  0.2509
  603TMC3    C2 8986   1.132   4.056  11.542 -0.3308 -0.0218 -0.5227
  603TMC3    C3 8987   1.095   4.188  11.554  0.1025  0.6439 -0.6940
  603TMC3    C4 8988   1.035   4.061  11.322  0.9923  1.0027  0.1939
  603TMC3    C5 8989   1.004   4.190  11.349  0.6717 -0.5361 -0.0643
  603TMC3    C6 8990   1.039   4.263  11.454  0.2654 -0.4388  0.3162
  603TMC3     C 8991   1.140   3.856  11.404 -0.4449  0.0495  0.0904
  603TMC3     O 8992   1.174   3.790  11.502  0.0071 -0.1044 -0.4357
  603TMC3     H 8993   1.197   4.008  11.614 -0.0302 -0.6345 -1.2085
  603TMC3    H1 8994   0.995   4.013  11.233 -0.8266  0.5279  1.2706
  603TMC3    H2 8995   0.993   4.362  11.455 -0.9028 -0.9551 -1.9223
  603TMC3    C7 8996   0.942   4.263  11.243  0.1393  0.0211  0.2605
  603TMC3    C8 8997   1.088   4.222  11.694  0.6421  0.4097  0.3286
  603TMC3    O1 8998   0.978   4.372  11.211  0.2141  0.0547  0.6341
  603TMC3    O2 8999   1.121   4.138  11.777 -0.0435 -0.5616  0.0607
  604MPD2     C 9000   1.940   3.015  16.088 -0.1334 -0.3431  0.1728
  604MPD2    C1 9001   1.857   2.905  16.085 -0.6319 -0.0539 -0.3273
  604MPD2    C2 9002   1.861   2.814  15.983  0.1039  0.2507 -0.1012
  604MPD2    C3 9003   1.951   2.838  15.882  0.3434 -0.3116 -0.1546
  604MPD2    C4 9004   2.030   2.949  15.884 -0.1034 -0.0312 -0.4828
  604MPD2    C5 9005   2.020   3.036  15.977  0.1003  0.1717 -0.1825
  604MPD2     H 9006   1.800   2.725  15.988  1.2024 -0.4801  0.2072
  604MPD2    H1 9007   2.103   2.970  15.807 -1.7427  0.7964 -1.8111
  604MPD2    H2 9008   1.943   3.090  16.166 -0.5632  0.8704 -0.9833
  604MPD2    H3 9009   2.082   3.125  15.983 -1.1903  1.0906 -0.4733
  604MPD2     N 9010   1.952   2.743  15.777 -0.5210 -0.3866  0.1011
  604MPD2    H5 9011   1.899   2.657  15.788  1.3808 -1.5459  0.2635
  604MPD2    N1 9012   1.767   2.895  16.194  0.2726 -0.0112  0.2385
  604MPD2    H7 9013   1.774   2.973  16.258  1.4362  1.6068 -1.8387
  605TMC3    C1 9014   1.579   2.849  16.322 -0.1156  0.0555  0.0365
  605TMC3    C2 9015   1.645   2.877  16.440 -0.7731  0.1407 -0.4557
  605TMC3    C3 9016   1.596   2.972  16.521 -0.3620 -0.3670  0.7137
  605TMC3    C4 9017   1.452   2.896  16.293  0.2621 -0.8383  0.4288
  605TMC3    C5 9018   1.404   2.989  16.381 -0.2447 -0.1772 -0.0708
  605TMC3    C6 9019   1.475   3.035  16.490  0.5766 -0.2247 -0.1516
  605TMC3     C 9020   1.664   2.810  16.211  0.6687  0.1936  0.0977
  605TMC3     O 9021   1.612   2.733  16.133  0.2045  0.7213 -0.0757
  605TMC3     H 9022   1.745   2.846  16.468 -0.5073 -1.3188 -2.9895
  605TMC3    H1 9023   1.404   2.881  16.197 -1.9298 -1.1452  1.5820
  605TMC3    H2 9024   1.442   3.123  16.545  1.3176 -0.1114  0.1065
  605TMC3    C7 9025   1.313   3.093  16.332 -0.1057 -0.3104  0.0325
  605TMC3    C8 9026   1.706   3.058  16.563  0.5146 -0.7418 -0.0289
  605TMC3    O1 9027   1.348   3.207  16.363  0.6701  0.6786 -0.0289
  605TMC3    O2 9028   1.799   3.078  16.488 -0.3025  0.0402 -0.6824
  606TMC3    C1 9029   2.753   2.226  17.117  0.0442  0.0225  0.4500
  606TMC3    C2 9030   2.774   2.226  17.252 -0.3036  0.0823 -0.2866
  606TMC3    C3 9031   2.834   2.117  17.310 -0.4537 -0.4032 -0.0280
  606TMC3    C4 9032   2.801   2.132  17.039  0.4027  0.5595  0.2829
  606TMC3    C5 9033   2.862   2.023  17.097  0.6909 -0.0868  0.1514
  606TMC3    C6 9034   2.888   2.019  17.231 -0.0974 -0.1518 -1.0205
  606TMC3     C 9035   2.688   2.345  17.058 -0.1356 -0.0489  0.2959
  606TMC3     O 9036   2.620   2.419  17.128 -0.6355 -0.1284 -0.4624
  606TMC3     H 9037   2.756   2.313  17.314 -0.4004  0.7212 -1.2075
  606TMC3    H1 9038   2.769   2.127  16.935 -1.2268  0.0162  0.8122
  606TMC3    H2 9039   2.946   1.936  17.271  0.9860  1.5961  1.0291
  606TMC3    C7 9040   2.914   1.920  17.005 -0.2875 -0.1187  0.3149
  606TMC3    C8 9041   2.883   2.128  17.441 -0.0665 -0.1009  0.2577
  606TMC3    O1 9042   2.964   1.946  16.896  0.0612 -0.0590  0.1202
  606TMC3    O2 9043   2.997   2.080  17.452 -0.2280 -0.0484  0.0453
  607MPD2     C 9044   4.600   4.383  12.108  0.5217 -0.1668 -0.1383
  607MPD2    C1 9045   4.665   4.486  12.171  0.1421  0.3307 -0.6417
  607MPD2    C2 9046   4.666   4.477  12.313 -1.2868 -0.2248 -0.8922
  607MPD2    C3 9047   4.602   4.373  12.382  0.1182  0.5755  0.4025
  607MPD2    C4 9048   4.545   4.278  12.311  0.4067  0.0918 -0.2118
  607MPD2    C5 9049   4.533   4.288  12.180  0.1868 -0.1388 -0.9853
  607MPD2     H 9050   4.726   4.551  12.365 -2.5021  1.5868 -2.0503
  607MPD2    H1 9051   4.502   4.192  12.362 -1.5615 -0.1066 -2.2198
  607MPD2    H2 9052   4.592   4.368  12.000  0.4892 -1.1337 -0.0043
  607MPD2    H3 9053   4.498   4.198  12.131 -0.1964 -0.4942 -0.0619
  607MPD2     N 9054   4.606   4.379  12.521 -0.2801 -0.1974 -0.6135
  607MPD2    H5 9055   4.668   4.449  12.561  0.5202 -0.0188 -2.1717
  607MPD2    N1 9056   0.008   4.581  12.103 -0.3013  0.4103  0.0076
  607MPD2    H7 9057   0.051   4.655  12.157  0.5606 -0.1374  0.0690
  608TMC3    C1 9058   0.149   4.677  11.937  0.4834  0.0128 -0.0185
  608TMC3    C2 9059   0.221   4.719  12.042 -0.1576 -0.4409 -0.0990
  608TMC3    C3 9060   0.356   4.719  12.036 -0.1963  0.3024 -0.4221
  608TMC3    C4 9061   0.209   4.647  11.816  0.1659 -0.0264  0.0995
  608TMC3    C5 9062   0.349   4.656  11.815 -0.2208 -0.2817  0.0742
  608TMC3    C6 9063   0.424   4.695  11.918 -0.4285  0.3560 -0.4208
  608TMC3     C 9064   0.041   4.586  11.966 -0.1320 -0.2806 -0.2482
  608TMC3     O 9065   4.714   4.529  11.879  0.2291 -0.2106 -0.1822
  608TMC3     H 9066   0.172   0.046  12.114  3.6699  2.7624 -0.3262
  608TMC3    H1 9067   0.147   4.604  11.738 -0.5199 -1.6469  1.5410
  608TMC3    H2 9068   0.527   4.725  11.902 -0.2627  0.6121  1.1252
  608TMC3    C7 9069   0.416   4.653  11.692  0.1936  0.0660 -1.4658
  608TMC3    C8 9070   0.433   4.665  12.147 -0.5216  1.0950  0.0623
  608TMC3    O1 9071   0.518   4.721  11.680  0.3172  0.3746  0.3318
  608TMC3    O2 9072   0.545   4.618  12.128  0.6019  0.1041 -0.4348
  609TMC3    C1 9073   2.331   3.222   9.317  0.5889 -0.4015  0.0977
  609TMC3    C2 9074   2.338   3.348   9.273 -0.1208  0.8281 -1.2332
  609TMC3    C3 9075   2.409   3.367   9.162  0.0516  1.1956 -0.5630
  609TMC3    C4 9076   2.405   3.119   9.262 -0.2461 -0.2419  0.5563
  609TMC3    C5 9077   2.476   3.147   9.148 -0.5358  0.2924 -0.1667
  609TMC3    C6 9078   2.480   3.269   9.095  0.6206 -0.5331  0.8192
  609TMC3     C 9079   2.242   3.190   9.427  0.4602  0.7856 -0.1413
  609TMC3     O 9080   2.262   3.085   9.484  0.2109  0.1109  0.1309
  609TMC3     H 9081   2.292   3.432   9.324 -1.3624  1.1814 -2.9471
  609TMC3    H1 9082   2.392   3.022   9.308 -1.1866 -0.8627 -1.0094
  609TMC3    H2 9083   2.541   3.285   9.007  0.0054  1.5240  0.7663
  609TMC3    C7 9084   2.559   3.048   9.088 -1.1357  0.3656 -0.5872
  609TMC3    C8 9085   2.404   3.502   9.110  0.0298 -0.7342 -0.7715
  609TMC3    O1 9086   2.658   3.095   9.031  0.4775 -0.2933 -0.2980
  609TMC3    O2 9087   2.304   3.565   9.141 -0.3380 -0.4054  0.4424
  610TMC3    C1 9088   0.768   4.202  13.379  0.1431 -0.0281 -0.1119
  610TMC3    C2 9089   0.882   4.268  13.362 -0.2033  0.1018 -0.3100
  610TMC3    C3 9090   0.994   4.191  13.329 -0.1820 -0.0627  0.7149
  610TMC3    C4 9091   0.752   4.064  13.358  0.5089  0.5867 -0.0166
  610TMC3    C5 9092   0.856   4.003  13.301 -0.0509 -0.9122 -0.4605
  610TMC3    C6 9093   0.984   4.058  13.292 -0.4726  0.5476  0.0857
  610TMC3     C 9094   0.648   4.269  13.438 -0.0068 -0.3274  0.4134
  610TMC3     O 9095   0.574   4.199  13.512  0.1612  0.2643  0.5589
  610TMC3     H 9096   0.884   4.376  13.369 -1.3797  0.1522 -0.7918
  610TMC3    H1 9097   0.663   4.008  13.383  1.4860 -0.3440  1.4033
  610TMC3    H2 9098   1.068   4.000  13.255 -0.4328  0.1824  0.7493
  610TMC3    C7 9099   0.855   3.861  13.284  0.4796  0.6992  0.3615
  610TMC3    C8 9100   1.109   4.268  13.272  0.0190  1.3602 -0.1464
  610TMC3    O1 9101   0.963   3.808  13.297 -0.2670  0.2830 -0.0330
  610TMC3    O2 9102   1.083   4.374  13.219  0.2178  0.4181  0.5733
  611MPD2     C 9103   4.302   3.839  10.640  0.3613 -0.8261 -0.7956
  611MPD2    C1 9104   4.364   3.776  10.537 -0.4173  0.0736  0.1318
  611MPD2    C2 9105   4.500   3.768  10.535  0.1946 -0.0614 -0.1016
  611MPD2    C3 9106   4.572   3.819  10.642  0.7774  0.1087  0.1908
  611MPD2    C4 9107   4.508   3.880  10.744  0.4366  0.2253  0.0630
  611MPD2    C5 9108   4.373   3.893  10.748 -0.2670 -0.1644 -0.2390
  611MPD2     H 9109   4.562   3.727  10.457 -0.3149  3.0381 -2.1254
  611MPD2    H1 9110   4.563   3.936  10.819 -1.0990  1.8132 -0.0227
  611MPD2    H2 9111   4.194   3.842  10.649  0.6358  2.3568  1.3586
  611MPD2    H3 9112   4.323   3.936  10.834  1.5444 -0.5146  0.9761
  611MPD2     N 9113   4.709   3.831  10.644  0.2983  0.0070 -0.0030
  611MPD2    H5 9114   0.014   3.839  10.737 -0.5336  2.6895  0.1461
  611MPD2    N1 9115   4.283   3.704  10.447  0.4294 -0.5449 -0.2590
  611MPD2    H7 9116   4.185   3.688  10.468  0.9380 -0.5564  2.1711
  612TMC3    C1 9117   0.191   3.861  10.579 -0.0976 -0.2963  0.2983
  612TMC3    C2 9118   0.209   3.966  10.668 -0.2856  0.3067 -0.6458
  612TMC3    C3 9119   0.338   3.989  10.717  0.4736  0.4742  0.0395
  612TMC3    C4 9120   0.297   3.787  10.525 -0.1786 -0.3206  0.3756
  612TMC3    C5 9121   0.424   3.815  10.573 -0.4569 -0.1378 -0.1757
  612TMC3    C6 9122   0.447   3.915  10.662 -0.1912 -0.0613 -0.2038
  612TMC3     C 9123   0.056   3.826  10.540  0.0204 -0.6812 -0.3545
  612TMC3     O 9124   0.031   3.797  10.421  0.2164 -0.0175 -0.4479
  612TMC3     H 9125   0.129   4.033  10.695  1.0235  0.5521  2.5921
  612TMC3    H1 9126   0.282   3.718  10.444 -1.3379  0.6230 -0.2232
  612TMC3    H2 9127   0.545   3.925  10.707 -0.2676  0.8742 -0.2447
  612TMC3    C7 9128   0.535   3.745  10.519 -0.2051  0.0683 -0.0663
  612TMC3    C8 9129   0.376   4.106  10.791  0.5094 -0.0743 -0.0890
  612TMC3    O1 9130   0.633   3.725  10.594  0.7009  0.1735  0.0012
  612TMC3    O2 9131   0.298   4.202  10.802 -0.2108  0.2118  1.0688
  613MPD2     C 9132   3.941   1.651  16.440  0.2206 -0.9226  0.9737
  613MPD2    C1 9133   3.879   1.660  16.314  0.2353 -0.3218  0.6896
  613MPD2    C2 9134   3.805   1.552  16.266 -0.1327 -0.0854  0.5598
  613MPD2    C3 9135   3.800   1.433  16.331 -0.0667  0.3418 -0.9519
  613MPD2    C4 9136   3.860   1.428  16.455  0.3396  0.0713  0.1352
  613MPD2    C5 9137   3.925   1.532  16.508 -0.8010  0.4160  0.6355
  613MPD2     H 9138   3.751   1.567  16.173  1.6309 -0.1329 -0.4827
  613MPD2    H1 9139   3.859   1.338  16.515 -3.0922 -0.1579 -0.3035
  613MPD2    H2 9140   3.995   1.736  16.480  0.7299 -1.6686  1.9150
  613MPD2    H3 9141   3.966   1.527  16.609 -1.6370  0.0966  0.9589
  613MPD2     N 9142   3.741   1.314  16.288  0.7237 -0.2172  0.7350
  613MPD2    H5 9143   3.761   1.230  16.341 -2.1379 -0.0930  1.9504
  613MPD2    N1 9144   3.915   1.776  16.243  0.1273  0.3158 -0.0230
  613MPD2    H7 9145   3.979   1.838  16.293 -1.2617  0.8834  1.0683
  614TMC3    C1 9146   3.966   1.884  16.040  0.1357  0.3009 -0.0149
  614TMC3    C2 9147   4.080   1.809  16.051 -0.1111  0.7327  0.0191
  614TMC3    C3 9148   4.119   1.745  15.939 -0.4213  0.3289  0.4447
  614TMC3    C4 9149   3.918   1.925  15.919  0.1087  0.1995 -0.2493
  614TMC3    C5 9150   3.961   1.857  15.811  0.1536  0.1469  0.3529
  614TMC3    C6 9151   4.064   1.771  15.815 -0.2718 -0.1172  0.0553
  614TMC3     C 9152   3.870   1.808  16.114 -0.4001 -0.8414  0.0801
  614TMC3     O 9153   3.766   1.770  16.060 -0.2230 -0.0548  0.4963
  614TMC3     H 9154   4.109   1.764  16.145  0.1217 -1.6081 -1.1616
  614TMC3    H1 9155   3.833   1.993  15.913  1.0574  1.5390  1.5157
  614TMC3    H2 9156   4.089   1.716  15.725 -0.8419  1.2263 -0.9428
  614TMC3    C7 9157   3.896   1.903  15.693  0.1227 -0.1492  0.4997
  614TMC3    C8 9158   4.173   1.613  15.967 -0.4866 -0.7359  0.4197
  614TMC3    O1 9159   3.837   2.012  15.704 -0.2222  0.7274  0.4406
  614TMC3    O2 9160   4.145   1.555  16.069  0.0441  0.5919 -0.5829
  615MPD2     C 9161   3.277   3.099  16.302 -0.4411  1.2922 -0.6503
  615MPD2    C1 9162   3.180   3.142  16.219  0.2961 -0.5858  0.2878
  615MPD2    C2 9163   3.129   3.059  16.116  0.2469 -0.4805  0.3714
  615MPD2    C3 9164   3.189   2.940  16.083  0.0294 -0.6438 -0.2559
  615MPD2    C4 9165   3.297   2.904  16.160 -0.6234 -0.4076  0.6890
  615MPD2    C5 9166   3.336   2.981  16.270 -0.2269  0.4980  0.6456
  615MPD2     H 9167   3.048   3.105  16.060  0.0165 -3.9241 -2.1213
  615MPD2    H1 9168   3.348   2.811  16.141  0.4604  0.4566 -0.5768
  615MPD2    H2 9169   3.304   3.154  16.392  2.1564 -0.1611 -0.5416
  615MPD2    H3 9170   3.418   2.938  16.325  0.2862 -1.3865 -1.5759
  615MPD2     N 9171   3.147   2.871  15.975 -0.1816 -0.3627 -0.0536
  615MPD2    H5 9172   3.213   2.806  15.934 -1.5506 -1.3621 -0.6613
  615MPD2    N1 9173   3.118   3.270  16.233  0.5252 -0.0192  0.1065
  615MPD2    H7 9174   3.034   3.279  16.178  0.3257  0.0193  0.4198
  616TMC3    C1 9175   3.097   3.499  16.280  0.6255 -0.9315  0.5350
  616TMC3    C2 9176   3.126   3.610  16.364 -0.0078  0.5767  0.4279
  616TMC3    C3 9177   3.080   3.729  16.327  0.2263 -0.1116  0.3557
  616TMC3    C4 9178   3.036   3.518  16.160 -0.1276  0.4118  0.5798
  616TMC3    C5 9179   2.979   3.644  16.136  0.2478 -0.3814 -0.2577
  616TMC3    C6 9180   3.002   3.752  16.216 -0.0336  0.2315 -0.2887
  616TMC3     C 9181   3.171   3.376  16.302 -0.5662  1.3662  0.3237
  616TMC3     O 9182   3.283   3.382  16.350 -0.4120 -0.6719  0.1906
  616TMC3     H 9183   3.182   3.599  16.457  0.6131 -0.0986 -0.0245
  616TMC3    H1 9184   3.039   3.442  16.082  2.0662  0.5468  0.5389
  616TMC3    H2 9185   2.977   3.855  16.195 -1.9237 -0.3828 -1.0321
  616TMC3    C7 9186   2.949   3.669  15.994  0.0435  0.0651 -0.7315
  616TMC3    C8 9187   3.118   3.856  16.404 -0.4385  0.6131  0.0012
  616TMC3    O1 9188   3.000   3.580  15.919  0.3077  0.3499 -0.0934
  616TMC3    O2 9189   3.034   3.944  16.412 -0.3067  0.0884  0.0706
  617MPD2     C 9190   1.592   1.647  13.793 -0.1289  1.1797  0.0610
  617MPD2    C1 9191   1.639   1.572  13.894 -0.2307  0.0671 -0.1225
  617MPD2    C2 9192   1.556   1.520  13.989  0.5003  0.1794 -0.2956
  617MPD2    C3 9193   1.420   1.546  13.987 -0.4134 -0.3319 -0.6935
  617MPD2    C4 9194   1.377   1.623  13.882  0.2245  0.0036  0.3762
  617MPD2    C5 9195   1.456   1.675  13.790 -0.7021  0.2940  0.3364
  617MPD2     H 9196   1.601   1.460  14.067 -0.8668 -0.9176 -0.3388
  617MPD2    H1 9197   1.272   1.649  13.874  0.1037 -0.2473  1.0861
  617MPD2    H2 9198   1.660   1.679  13.715 -1.2737 -1.5493 -2.0456
  617MPD2    H3 9199   1.413   1.726  13.705 -2.6566  0.0743  1.1980
  617MPD2     N 9200   1.325   1.498  14.085 -0.1137 -0.6357 -0.1290
  617MPD2    H5 9201   1.230   1.519  14.059 -0.0698 -0.9306 -0.5360
  617MPD2    N1 9202   1.765   1.522  13.875 -0.1218 -0.4787 -0.1518
  617MPD2    H7 9203   1.800   1.540  13.781 -1.5489  1.9408 -0.2378
  618TMC3    C1 9204   1.972   1.446  13.900  0.1014 -0.2418  0.4945
  618TMC3    C2 9205   2.003   1.313  13.903  0.2325 -0.7537 -0.4840
  618TMC3    C3 9206   2.055   1.261  13.786  0.2448  0.6671 -0.0538
  618TMC3    C4 9207   2.000   1.533  13.794 -0.4069 -0.4544 -0.4788
  618TMC3    C5 9208   2.049   1.473  13.679  0.1784 -0.1120 -0.5051
  618TMC3    C6 9209   2.075   1.340  13.675 -0.7229  0.0136  0.4276
  618TMC3     C 9210   1.853   1.473  13.971  0.0264  0.2874  0.0207
  618TMC3     O 9211   1.835   1.430  14.086 -0.2581 -0.4390 -0.3960
  618TMC3     H 9212   1.972   1.251  13.987  0.1610  0.6900  0.5528
  618TMC3    H1 9213   1.984   1.639  13.808 -0.9515 -0.5743 -0.1745
  618TMC3    H2 9214   2.106   1.291  13.583 -0.2385  0.5621  0.2967
  618TMC3    C7 9215   1.971   1.520  13.568 -0.5317  0.2807  0.5500
  618TMC3    C8 9216   1.999   1.131  13.752  0.0973  0.1457  0.6690
  618TMC3    O1 9217   1.866   1.575  13.602  0.2597 -0.3705  0.1520
  618TMC3    O2 9218   1.901   1.084  13.814 -0.1514  0.8583  0.9810
  619MPD2     C 9219   3.156   2.712  13.620  0.1407 -0.2326 -0.3358
  619MPD2    C1 9220   3.074   2.742  13.520  0.0321 -0.3695  0.5305
  619MPD2    C2 9221   2.937   2.730  13.535 -0.2999  0.1072 -0.7750
  619MPD2    C3 9222   2.885   2.676  13.653 -0.4615  0.0950 -0.1781
  619MPD2    C4 9223   2.968   2.632  13.755  0.0796 -1.1948  0.0435
  619MPD2    C5 9224   3.106   2.656  13.735 -0.5971 -0.4270  0.0424
  619MPD2     H 9225   2.876   2.747  13.447  1.8190  0.1405 -2.2223
  619MPD2    H1 9226   2.948   2.582  13.849 -0.0462 -2.9743 -0.9512
  619MPD2    H2 9227   3.263   2.731  13.622  0.0516  0.4781 -2.3583
  619MPD2    H3 9228   3.171   2.626  13.816 -0.5340 -0.0364  0.1398
  619MPD2     N 9229   2.749   2.654  13.668  0.0199 -0.1630 -0.0142
  619MPD2    H5 9230   2.720   2.602  13.750  1.0816  2.1606  1.8406
  619MPD2    N1 9231   3.125   2.783  13.397  0.0143 -0.5840  0.0157
  619MPD2    H7 9232   3.055   2.822  13.334  0.5577  1.2383  0.5476
  620TMC3    C1 9233   3.254   2.775  13.198 -0.5804 -0.2730 -0.5209
  620TMC3    C2 9234   3.147   2.725  13.130  0.0536 -0.2703  0.0386
  620TMC3    C3 9235   3.117   2.776  13.010 -0.5714  0.3336 -0.5749
  620TMC3    C4 9236   3.342   2.860  13.148 -0.1929  0.3480 -0.2352
  620TMC3    C5 9237   3.308   2.920  13.031  0.4552  0.4838  0.2954
  620TMC3    C6 9238   3.203   2.867  12.957 -0.6654 -1.0440 -0.5074
  620TMC3     C 9239   3.253   2.753  13.348 -0.7971  0.4014  0.5207
  620TMC3     O 9240   3.353   2.713  13.404 -0.1672 -0.3114  0.0413
  620TMC3     H 9241   3.078   2.661  13.182  0.2318 -0.9335 -0.5495
  620TMC3    H1 9242   3.403   2.910  13.223 -0.0172  0.3992 -0.4134
  620TMC3    H2 9243   3.164   2.919  12.870 -0.2758  4.2575  2.4919
  620TMC3    C7 9244   3.334   3.065  13.027  0.2828  0.5210  0.1831
  620TMC3    C8 9245   2.978   2.821  13.006 -0.3045 -0.2080  0.2259
  620TMC3    O1 9246   3.444   3.114  13.052 -0.1521  0.0972 -0.3915
  620TMC3    O2 9247   2.971   2.942  12.996 -0.6297  0.0096 -0.2810
  621MPD2     C 9248   2.539   2.718   9.536  0.3760 -0.6780  0.9282
  621MPD2    C1 9249   2.669   2.670   9.500  0.2881  0.8442  0.2175
  621MPD2    C2 9250   2.754   2.767   9.459 -0.6354 -0.0682  0.6535
  621MPD2    C3 9251   2.717   2.894   9.433  0.0983  0.0261 -0.0695
  621MPD2    C4 9252   2.588   2.938   9.467 -0.2832 -0.9034  0.0580
  621MPD2    C5 9253   2.508   2.848   9.530  0.5854  0.0012 -0.5064
  621MPD2     H 9254   2.849   2.732   9.421 -0.7703  0.6757 -0.3924
  621MPD2    H1 9255   2.558   3.042   9.460  0.0574 -0.7936  0.1914
  621MPD2    H2 9256   2.458   2.654   9.569 -0.3198  0.2327  0.9750
  621MPD2    H3 9257   2.407   2.878   9.557 -0.0454  0.4546 -3.4333
  621MPD2     N 9258   2.810   2.979   9.377 -0.0028  0.8702  0.5200
  621MPD2    H5 9259   2.887   2.937   9.325  0.1308  0.2788  1.1822
  621MPD2    N1 9260   2.714   2.532   9.519  0.2479 -0.3355  0.2341
  621MPD2    H7 9261   2.803   2.517   9.474  1.0521 -0.3038  1.8002
  622TMC3    C1 9262   2.710   2.303   9.576 -0.3606  0.7025 -0.3316
  622TMC3    C2 9263   2.686   2.214   9.674  0.3749 -0.6616  0.5011
  622TMC3    C3 9264   2.744   2.098   9.653  0.2907 -0.1349  0.2830
  622TMC3    C4 9265   2.783   2.272   9.461 -0.5343 -0.3608  0.4594
  622TMC3    C5 9266   2.829   2.146   9.453  0.4868  0.0122  0.8136
  622TMC3    C6 9267   2.808   2.056   9.546  0.2013 -0.5251 -0.4252
  622TMC3     C 9268   2.667   2.439   9.599 -0.6664 -0.1464  0.4458
  622TMC3     O 9269   2.584   2.448   9.693  0.1180  0.1666 -0.1127
  622TMC3     H 9270   2.637   2.248   9.765  0.2388 -1.2328  0.6415
  622TMC3    H1 9271   2.776   2.331   9.370  2.5901  0.8010  1.0053
  622TMC3    H2 9272   2.850   1.957   9.530  0.6093  0.1907 -3.7278
  622TMC3    C7 9273   2.853   2.095   9.318 -0.5509  0.0549 -0.1122
  622TMC3    C8 9274   2.760   2.011   9.770  0.7747  0.4982 -0.1586
  622TMC3    O1 9275   2.906   2.168   9.240 -0.8055 -0.1167  0.2835
  622TMC3    O2 9276   2.866   1.946   9.770 -0.1221 -0.4004 -0.0787
  623MPD2     C 9277   2.051   3.452  15.851 -0.3078 -0.2533  0.7123
  623MPD2    C1 9278   1.977   3.398  15.956  0.0989  0.2108  0.4649
  623MPD2    C2 9279   2.015   3.400  16.086  0.3564 -0.2994 -0.5443
  623MPD2    C3 9280   2.135   3.462  16.120 -0.3858 -0.1008 -0.5150
  623MPD2    C4 9281   2.206   3.528  16.018  0.5532 -0.4721  0.2272
  623MPD2    C5 9282   2.169   3.517  15.884  1.2236 -0.0418 -0.3083
  623MPD2     H 9283   1.954   3.341  16.152  0.8827  0.6375  0.7741
  623MPD2    H1 9284   2.303   3.568  16.043 -1.4345  3.3526  1.8962
  623MPD2    H2 9285   2.031   3.439  15.745  3.0279  0.1259  0.0482
  623MPD2    H3 9286   2.233   3.560  15.808 -0.9966  3.2224 -0.3642
  623MPD2     N 9287   2.184   3.451  16.254 -0.2029  0.0464  0.6555
  623MPD2    H5 9288   2.115   3.427  16.324 -1.4958  0.7570 -0.3728
  623MPD2    N1 9289   1.858   3.326  15.922  0.2603  0.2494 -0.1729
  623MPD2    H7 9290   1.811   3.277  15.999  0.4333 -0.6983 -0.6660
  624TMC3    C1 9291   2.468   3.368  16.598  0.0654  0.3068  0.3492
  624TMC3    C2 9292   2.376   3.394  16.692  0.1655 -0.8490  0.9202
  624TMC3    C3 9293   2.263   3.446  16.644  0.5418 -0.1587  0.6086
  624TMC3    C4 9294   2.456   3.419  16.474  0.2839 -0.4668 -0.4708
  624TMC3    C5 9295   2.338   3.473  16.427 -0.6277 -0.9560 -0.1288
  624TMC3    C6 9296   2.235   3.486  16.515  0.1390 -0.0303  0.2068
  624TMC3     C 9297   2.603   3.333  16.643 -0.1974  0.6031  0.2829
  624TMC3     O 9298   2.624   3.358  16.761  0.6557  0.0302  0.4385
  624TMC3     H 9299   2.386   3.365  16.796  1.3851  0.3163  1.1253
  624TMC3    H1 9300   2.548   3.434  16.419  0.5394  0.8042  0.2890
  624TMC3    H2 9301   2.143   3.535  16.487  0.6159  2.1048  2.3360
  624TMC3    C7 9302   2.317   3.471  16.288 -0.1025  0.1200 -0.0488
  624TMC3    C8 9303   2.162   3.454  16.740 -0.1210 -0.0811  0.0275
  624TMC3    O1 9304   2.415   3.461  16.216 -0.1412 -0.2058  0.1579
  624TMC3    O2 9305   2.185   3.470  16.861 -0.1634  0.3935  0.0685
  625MPD2     C 9306   2.638   0.260   0.606  0.6617  0.1488 -0.4580
  625MPD2    C1 9307   2.625   0.392   0.577 -0.0156  0.6125  0.4869
  625MPD2    C2 9308   2.738   0.463   0.572  0.6528  0.3019  0.0584
  625MPD2    C3 9309   2.867   0.410   0.589 -0.1517  0.0293 -0.3007
  625MPD2    C4 9310   2.873   0.276   0.626 -0.1839 -0.4584 -0.5337
  625MPD2    C5 9311   2.757   0.205   0.627 -0.1503  0.1769 -0.3300
  625MPD2     H 9312   2.738   0.570   0.558 -0.4987  0.2858 -0.0605
  625MPD2    H1 9313   2.969   0.241   0.661  0.0966  0.0435 -0.7994
  625MPD2    H2 9314   2.553   0.194   0.618  0.0917  0.6681 -1.6319
  625MPD2    H3 9315   2.765   0.102   0.659 -2.0395 -0.4210 -1.7827
  625MPD2     N 9316   2.980   0.491   0.581 -0.3115  0.1235 -0.4029
  625MPD2    H5 9317   2.961   0.590   0.587  0.7735  0.2533  0.9082
  625MPD2    N1 9318   2.496   0.451   0.551 -0.7890 -0.0180 -0.0630
  625MPD2    H7 9319   2.492   0.552   0.550  1.8870  0.0704 -1.0200
  626TMC3    C1 9320   2.262   0.460   0.478 -0.6270 -0.5448 -0.6217
  626TMC3    C2 9321   2.209   0.425   0.359 -0.4512  1.3138  0.2412
  626TMC3    C3 9322   2.124   0.516   0.302  0.0689  0.6589 -0.2932
  626TMC3    C4 9323   2.229   0.569   0.550  0.2673  1.4523 -0.0487
  626TMC3    C5 9324   2.126   0.652   0.495  0.2888  0.9468  0.1636
  626TMC3    C6 9325   2.077   0.625   0.370 -0.3016  0.4223 -0.7369
  626TMC3     C 9326   2.382   0.380   0.508 -0.1612  0.4821 -0.3087
  626TMC3     O 9327   2.375   0.264   0.481 -0.5953  0.3984 -0.4616
  626TMC3     H 9328   2.241   0.345   0.293 -0.4470 -0.0683  1.9307
  626TMC3    H1 9329   2.270   0.584   0.649 -1.4537  1.8816  0.6040
  626TMC3    H2 9330   2.004   0.691   0.325 -2.8608 -1.6189  0.4775
  626TMC3    C7 9331   2.063   0.756   0.578  0.2761 -0.7271 -0.3242
  626TMC3    C8 9332   2.040   0.467   0.198 -0.6511 -0.1317  0.4641
  626TMC3    O1 9333   2.141   0.789   0.667  0.3967 -0.2827  0.4513
  626TMC3    O2 9334   1.985   0.553   0.131  0.5229  1.0996  0.8425
  627MPD2     C 9335   0.819   0.301  14.683 -1.0808  0.5571 -0.1327
  627MPD2    C1 9336   0.897   0.201  14.747 -0.3210  0.2467 -0.6387
  627MPD2    C2 9337   0.874   0.067  14.734 -0.0778 -0.4729 -0.6529
  627MPD2    C3 9338   0.779   0.023  14.643 -0.3628  0.3373  0.2272
  627MPD2    C4 9339   0.708   0.115  14.571  0.0840 -0.6937  0.4091
  627MPD2    C5 9340   0.724   0.244  14.598  0.1493 -0.0206 -0.8859
  627MPD2     H 9341   0.929   4.733  14.795 -0.1193 -0.3910 -0.5205
  627MPD2    H1 9342   0.641   0.084  14.492  0.2289  1.9178 -0.7433
  627MPD2    H2 9343   0.827   0.408  14.689  1.6678  0.3116  0.7474
  627MPD2    H3 9344   0.668   0.311  14.534 -1.5789  0.1202  0.7604
  627MPD2     N 9345   0.757   4.621  14.621 -0.5144 -0.3379  0.2404
  627MPD2    H5 9346   0.807   4.553  14.677  0.5857 -0.4550 -0.8823
  627MPD2    N1 9347   1.005   0.241  14.830 -0.1143 -0.5415 -0.3299
  627MPD2    H7 9348   1.075   0.168  14.834  1.8926  1.3496 -0.6654
  628TMC3    C1 9349   1.169   0.406  14.900  0.2620  0.2108  0.0550
  628TMC3    C2 9350   1.266   0.312  14.894 -0.1355  0.0251  0.3234
  628TMC3    C3 9351   1.396   0.348  14.912  0.2825  0.1533  0.4059
  628TMC3    C4 9352   1.200   0.539  14.920 -0.9649  0.0436 -0.0763
  628TMC3    C5 9353   1.329   0.571  14.944 -0.3947  0.5995 -0.1250
  628TMC3    C6 9354   1.430   0.481  14.937  0.3620 -0.1905 -0.0145
  628TMC3     C 9355   1.031   0.374  14.861  0.1224  0.5476  0.5778
  628TMC3     O 9356   0.965   0.475  14.850  0.2244  0.3820  0.4879
  628TMC3     H 9357   1.240   0.206  14.901 -1.2524  0.1729 -1.6277
  628TMC3    H1 9358   1.127   0.615  14.944 -0.4870 -0.1858  2.0918
  628TMC3    H2 9359   1.523   0.513  14.983 -0.2108  0.3732  0.7417
  628TMC3    C7 9360   1.360   0.709  14.973  0.9001 -0.2514 -0.0740
  628TMC3    C8 9361   1.493   0.246  14.873 -0.3109 -0.0653  0.0982
  628TMC3    O1 9362   1.456   0.734  15.045 -0.3935 -0.5855  0.2195
  628TMC3    O2 9363   1.447   0.139  14.838 -0.3616  0.7602 -0.2539
  629MPD2     C 9364   3.445   4.123  16.686 -0.4926 -0.1935  0.2455
  629MPD2    C1 9365   3.511   4.011  16.649  0.3476  0.5758  0.4894
  629MPD2    C2 9366   3.443   3.924  16.559  0.3543  0.6540  0.0189
  629MPD2    C3 9367   3.311   3.947  16.518 -0.1781  0.6184 -0.1336
  629MPD2    C4 9368   3.248   4.068  16.556 -0.2716  0.7096 -0.3517
  629MPD2    C5 9369   3.315   4.143  16.645 -0.0181  0.3150 -0.0780
  629MPD2     H 9370   3.491   3.837  16.517  0.1465  0.0177  1.1027
  629MPD2    H1 9371   3.153   4.110  16.526 -0.3280  0.8229 -0.0243
  629MPD2    H2 9372   3.495   4.195  16.749 -1.9381 -2.1499  3.6048
  629MPD2    H3 9373   3.268   4.235  16.678 -2.1130 -0.6615 -0.3980
  629MPD2     N 9374   3.246   3.852  16.435  0.1092  0.3530 -0.0610
  629MPD2    H5 9375   3.295   3.765  16.419 -0.7135  0.2480 -1.9813
  629MPD2    N1 9376   3.655   3.996  16.679  0.2017 -0.1328 -0.6027
  629MPD2    H7 9377   3.702   4.077  16.719  1.4903 -0.5550 -1.2544
  630TMC3    C1 9378   3.870   3.899  16.674 -0.1649 -0.3649 -0.1548
  630TMC3    C2 9379   3.943   4.015  16.642 -0.7312  0.5155 -0.4989
  630TMC3    C3 9380   4.076   4.015  16.645  0.6644  0.1914 -0.3301
  630TMC3    C4 9381   3.934   3.778  16.688 -0.0488  0.1729 -0.6851
  630TMC3    C5 9382   4.068   3.785  16.687 -0.4706 -0.1797 -0.3706
  630TMC3    C6 9383   4.144   3.898  16.673  0.2009 -1.0175 -0.6936
  630TMC3     C 9384   3.730   3.883  16.643 -0.4818 -0.2819  0.1630
  630TMC3     O 9385   3.698   3.769  16.610 -0.1775 -0.4040 -0.0553
  630TMC3     H 9386   3.883   4.099  16.610  0.3301  1.5710  0.2767
  630TMC3    H1 9387   3.881   3.699  16.741  1.9427  1.3606  3.0704
  630TMC3    H2 9388   4.252   3.892  16.667  0.5537  2.2820  2.2487
  630TMC3    C7 9389   4.135   3.662  16.738 -0.3165 -0.0042  0.4845
  630TMC3    C8 9390   4.160   4.133  16.623 -0.7522  0.0032  0.2639
  630TMC3    O1 9391   4.254   3.680  16.772  0.0020 -0.1877  0.1767
  630TMC3    O2 9392   4.276   4.128  16.663 -0.0813  0.1713 -0.5989
  631MPD2     C 9393   2.472   3.294  15.343 -0.6765 -0.0848 -0.5181
  631MPD2    C1 9394   2.595   3.330  15.309 -0.5303  0.0917 -0.3499
  631MPD2    C2 9395   2.701   3.241  15.328  0.3961 -0.6293 -0.2263
  631MPD2    C3 9396   2.678   3.127  15.404 -0.7613  0.2405  0.5225
  631MPD2    C4 9397   2.548   3.096  15.445  0.2820 -0.8343 -0.0557
  631MPD2    C5 9398   2.445   3.180  15.410 -0.6863 -0.1232  0.2688
  631MPD2     H 9399   2.804   3.262  15.303 -0.8374  1.6865 -3.4128
  631MPD2    H1 9400   2.531   3.003  15.498  1.1543 -1.0402 -0.1323
  631MPD2    H2 9401   2.387   3.359  15.328  0.2385  1.6085  1.6940
  631MPD2    H3 9402   2.343   3.161  15.443  0.2328 -1.3785  2.4423
  631MPD2     N 9403   2.792   3.053  15.436  0.8392 -0.1413  0.2915
  631MPD2    H5 9404   2.872   3.111  15.415  1.7467 -2.0850 -1.6549
  631MPD2    N1 9405   2.607   3.450  15.231 -0.7874 -0.2948 -0.6783
  631MPD2    H7 9406   2.521   3.502  15.212 -1.7383 -2.0748 -1.2393
  632TMC3    C1 9407   2.705   3.620  15.101  0.3756 -0.2793  0.5391
  632TMC3    C2 9408   2.593   3.697  15.121  0.3220 -0.2160 -0.0458
  632TMC3    C3 9409   2.553   3.774  15.017 -0.1466  0.2451  0.1383
  632TMC3    C4 9410   2.778   3.629  14.983  0.2927  0.2283  0.1787
  632TMC3    C5 9411   2.723   3.700  14.880 -0.2802 -0.8165  0.4894
  632TMC3    C6 9412   2.607   3.767  14.892 -0.1164 -0.0345 -0.2206
  632TMC3     C 9413   2.727   3.508  15.188  0.0730 -0.4004 -0.4068
  632TMC3     O 9414   2.840   3.488  15.236 -0.3259 -0.0987  0.0496
  632TMC3     H 9415   2.533   3.697  15.211  1.4391  0.8037  0.7038
  632TMC3    H1 9416   2.862   3.561  14.969  1.0180  0.9055  1.2372
  632TMC3    H2 9417   2.580   3.838  14.815  2.1784 -2.1887 -3.0136
  632TMC3    C7 9418   2.805   3.726  14.766 -0.9764 -0.4891 -0.0687
  632TMC3    C8 9419   2.476   3.885  15.053  0.0738  0.2470 -0.1400
  632TMC3    O1 9420   2.739   3.774  14.672 -0.1232  0.0982 -0.1186
  632TMC3    O2 9421   2.385   3.915  14.977 -0.5995 -0.3653 -0.0589
  633MPD2     C 9422   2.345   1.651  17.266  0.4859  0.7174 -0.2921
  633MPD2    C1 9423   2.353   1.563  17.162 -0.4377 -0.4114  0.3844
  633MPD2    C2 9424   2.385   1.432  17.190 -0.4021  0.1946 -0.8576
  633MPD2    C3 9425   2.432   1.397  17.315 -0.7863 -0.1072 -0.7315
  633MPD2    C4 9426   2.423   1.492  17.416  0.1724 -0.3802 -0.1866
  633MPD2    C5 9427   2.386   1.620  17.392 -0.2170  0.8641  0.2706
  633MPD2     H 9428   2.382   1.360  17.109 -0.7544  1.7167 -2.1902
  633MPD2    H1 9429   2.458   1.467  17.515  0.5485  2.3806  0.3728
  633MPD2    H2 9430   2.312   1.754  17.258 -1.7202  0.0850  0.6650
  633MPD2    H3 9431   2.366   1.687  17.475  0.0922  1.0824  0.1669
  633MPD2     N 9432   2.487   1.272  17.344 -0.1586  0.6473 -0.5272
  633MPD2    H5 9433   2.546   1.262  17.426  1.7837  0.0570 -1.9694
  633MPD2    N1 9434   2.343   1.591  17.028  0.2946 -0.4288 -0.0301
  633MPD2    H7 9435   2.359   1.516  16.961 -0.4563  0.7122 -1.5081
  634TMC3    C1 9436   2.319   1.740  16.832 -0.6313  0.6064  0.5067
  634TMC3    C2 9437   2.384   1.641  16.759  0.5614 -0.1275  0.4279
  634TMC3    C3 9438   2.384   1.661  16.628 -0.0213  0.1552 -0.2527
  634TMC3    C4 9439   2.271   1.859  16.789 -0.3045  0.2004  0.6419
  634TMC3    C5 9440   2.292   1.880  16.658 -0.4158 -0.2744  1.1739
  634TMC3    C6 9441   2.360   1.790  16.579 -0.3691 -0.4967 -1.2083
  634TMC3     C 9442   2.315   1.719  16.981  0.0410  0.2396 -0.0701
  634TMC3     O 9443   2.292   1.817  17.045  0.4427  0.4426  0.2957
  634TMC3     H 9444   2.413   1.545  16.799  0.4928 -1.4773 -2.8092
  634TMC3    H1 9445   2.217   1.928  16.854 -1.5344 -0.1544 -0.0036
  634TMC3    H2 9446   2.372   1.805  16.473  2.8763  1.9173 -0.4669
  634TMC3    C7 9447   2.248   1.993  16.582  0.5986 -0.5474 -0.4597
  634TMC3    C8 9448   2.450   1.562  16.550  0.1220 -0.3613 -0.0299
  634TMC3    O1 9449   2.287   2.002  16.464  0.0021 -0.3351 -0.6413
  634TMC3    O2 9450   2.451   1.450  16.595 -0.4317 -0.2665  0.5845
  635TMC3    C1 9451   2.955   3.087  17.667  0.9295 -0.2119  0.5788
  635TMC3    C2 9452   3.053   3.034  17.594  0.1866 -0.2527 -0.7292
  635TMC3    C3 9453   3.017   2.984  17.469 -0.2445 -0.4799 -0.3426
  635TMC3    C4 9454   2.830   3.114  17.629  0.3201 -0.2589 -0.2008
  635TMC3    C5 9455   2.800   3.073  17.496  0.5022 -0.2611  0.4884
  635TMC3    C6 9456   2.884   2.996  17.420  0.7936  0.4733 -0.1388
  635TMC3     C 9457   2.998   3.136   0.049 -0.1964  0.0392 -0.2164
  635TMC3     O 9458   2.944   3.237   0.092 -0.4692  0.0163 -0.0289
  635TMC3     H 9459   3.157   3.029  17.623 -0.3743  1.8358  1.6633
  635TMC3    H1 9460   2.759   3.171  17.686  1.9518  1.1908  0.3919
  635TMC3    H2 9461   2.855   2.943  17.330 -1.1571 -0.0025  0.7694
  635TMC3    C7 9462   2.656   3.053  17.484 -0.7161 -0.4426  0.8101
  635TMC3    C8 9463   3.114   2.931  17.374 -0.2735  0.0954 -0.2877
  635TMC3    O1 9464   2.588   3.070  17.587 -0.3860  0.7432 -0.1352
  635TMC3    O2 9465   3.073   2.936  17.257 -0.3602 -0.8224 -0.3803
  636MPD2     C 9466   3.532   1.599  15.553  0.7089  0.3736  0.5186
  636MPD2    C1 9467   3.568   1.629  15.685  0.1380 -0.5115  0.1446
  636MPD2    C2 9468   3.600   1.524  15.767 -0.6604  0.3471 -0.2601
  636MPD2    C3 9469   3.602   1.395  15.714 -0.1423 -0.5880 -0.0459
  636MPD2    C4 9470   3.571   1.366  15.583  0.1756  0.2741 -0.1286
  636MPD2    C5 9471   3.538   1.474  15.502  0.9044 -0.5154 -0.8542
  636MPD2     H 9472   3.635   1.545  15.868  1.4811  0.2912 -0.9877
  636MPD2    H1 9473   3.564   1.266  15.543  1.2133 -1.3583  3.7987
  636MPD2    H2 9474   3.507   1.677  15.483  0.5919 -2.5845 -2.7375
  636MPD2    H3 9475   3.510   1.452  15.400  2.9024 -0.6854 -1.3685
  636MPD2     N 9476   3.646   1.298  15.806  0.0734 -0.4766  0.4073
  636MPD2    H5 9477   3.648   1.334  15.901  3.8035 -1.8079  0.8026
  636MPD2    N1 9478   3.567   1.764  15.742 -0.1072 -0.0193 -0.1228
  636MPD2    H7 9479   3.582   1.772  15.842  0.5465  0.6685 -0.2706
  637TMC3    C1 9480   3.699   1.100  15.899  0.2911  0.8931  0.0374
  637TMC3    C2 9481   3.637   1.156  16.005  0.3293 -0.0079 -0.1190
  637TMC3    C3 9482   3.693   1.161  16.127 -0.1288 -0.2215 -0.1392
  637TMC3    C4 9483   3.829   1.056  15.902  0.2367  0.3281  0.4824
  637TMC3    C5 9484   3.888   1.074  16.023  0.0535  0.4418 -0.1881
  637TMC3    C6 9485   3.823   1.117  16.136 -0.9100  0.0730  0.6124
  637TMC3     C 9486   3.663   1.166  15.775  0.0712 -0.2663 -0.0329
  637TMC3     O 9487   3.681   1.108  15.667 -0.1218  0.3321 -0.5613
  637TMC3     H 9488   3.543   1.208  15.992  1.2500  1.4899 -0.7461
  637TMC3    H1 9489   3.880   1.027  15.811 -2.1235  0.5699 -0.9060
  637TMC3    H2 9490   3.891   1.145  16.216  0.8199  0.5417 -1.0059
  637TMC3    C7 9491   4.031   1.104  16.019  0.5007  0.4844  0.0198
  637TMC3    C8 9492   3.669   1.297  16.174  0.2773  0.2009 -0.0403
  637TMC3    O1 9493   4.085   1.155  16.112 -0.5323  0.6091 -0.4032
  637TMC3    O2 9494   3.637   1.376  16.090  0.0590  0.2785  0.5034
  638MPD2     C 9495   3.357   0.337  14.269  0.2004 -0.7884 -0.4445
  638MPD2    C1 9496   3.386   0.240  14.360 -0.1265  0.3300  0.2633
  638MPD2    C2 9497   3.308   0.233  14.473 -0.0808 -0.9701 -0.1846
  638MPD2    C3 9498   3.203   0.318  14.498 -0.0232 -0.3354 -0.3600
  638MPD2    C4 9499   3.178   0.414  14.401  0.4534  0.1346 -0.2576
  638MPD2    C5 9500   3.258   0.427  14.292  0.3141  0.3381  0.3942
  638MPD2     H 9501   3.343   0.165  14.549 -0.3072 -0.4211  0.4054
  638MPD2    H1 9502   3.099   0.486  14.416  0.2512 -0.0204 -0.5793
  638MPD2    H2 9503   3.419   0.351  14.180 -1.2429  1.0682 -1.1505
  638MPD2    H3 9504   3.233   0.499  14.215 -1.5422 -1.0412 -0.3066
  638MPD2     N 9505   3.129   0.310  14.625 -0.7175  0.6384  0.0094
  638MPD2    H5 9506   3.166   0.235  14.683 -0.1043  0.1751 -0.9653
  638MPD2    N1 9507   3.488   0.141  14.339 -0.5105 -0.0035  0.0384
  638MPD2    H7 9508   3.476   0.057  14.395 -2.2436 -0.6874 -1.3577
  639TMC3    C1 9509   2.966   0.355  14.800  0.6745 -0.1113 -0.6319
  639TMC3    C2 9510   2.841   0.415  14.826  0.1225 -0.7169  0.6673
  639TMC3    C3 9511   2.770   0.368  14.932 -0.1290 -0.0011  0.1450
  639TMC3    C4 9512   3.021   0.267  14.890  0.5508  0.9039  0.4506
  639TMC3    C5 9513   2.952   0.227  15.002  0.0840 -0.9109 -0.1562
  639TMC3    C6 9514   2.828   0.269  15.015 -0.1768 -0.0310  0.4334
  639TMC3     C 9515   3.018   0.381  14.665 -0.2366  0.1266 -0.3959
  639TMC3     O 9516   2.952   0.452  14.587  0.2143 -0.0302 -0.5880
  639TMC3     H 9517   2.798   0.495  14.766  1.8373 -0.0966  0.2846
  639TMC3    H1 9518   3.116   0.219  14.869 -1.0343 -0.8614 -2.6143
  639TMC3    H2 9519   2.765   0.250  15.100 -0.6316 -1.9861 -0.3405
  639TMC3    C7 9520   2.987   0.101  15.068  0.4942 -0.1368 -1.2242
  639TMC3    C8 9521   2.637   0.331  14.877  0.5751  0.0529  0.0568
  639TMC3    O1 9522   2.884   0.044  15.105 -0.2216 -0.2695  0.1005
  639TMC3    O2 9523   2.569   0.414  14.821 -0.3064 -0.2643  0.1273
  640MPD2     C 9524   3.632   3.872   9.236 -0.0405  0.0872 -0.8835
  640MPD2    C1 9525   3.714   3.804   9.321 -0.3641  0.4312  1.2871
  640MPD2    C2 9526   3.716   3.834   9.460 -0.3170 -0.2544  0.1185
  640MPD2    C3 9527   3.624   3.932   9.505 -0.0038 -0.0687 -0.6007
  640MPD2    C4 9528   3.544   3.999   9.415  0.0084  0.3569 -0.4531
  640MPD2    C5 9529   3.556   3.978   9.280  0.3448 -0.7424 -0.3488
  640MPD2     H 9530   3.780   3.778   9.527  0.9750  1.0578 -0.0033
  640MPD2    H1 9531   3.466   4.064   9.452  0.4137  0.5479  0.0682
  640MPD2    H2 9532   3.649   3.857   9.131  0.5695  1.6567 -1.0210
  640MPD2    H3 9533   3.482   4.032   9.224  2.6370  0.9408 -1.7618
  640MPD2     N 9534   3.592   3.960   9.634 -0.3199  0.8289 -0.0042
  640MPD2    H5 9535   3.528   4.036   9.652 -0.6443  0.8398 -1.2369
  640MPD2    N1 9536   3.800   3.709   9.267 -0.8245  0.4883  0.8461
  640MPD2    H7 9537   3.789   3.689   9.169  0.6099  2.1404  0.3551
  641TMC3    C1 9538   3.966   3.550   9.248 -0.3250 -0.5484  0.4949
  641TMC3    C2 9539   3.903   3.487   9.145 -0.0687  0.2538 -0.3195
  641TMC3    C3 9540   3.961   3.375   9.101 -0.2258  0.4668 -0.5865
  641TMC3    C4 9541   4.090   3.507   9.290 -0.0272 -0.2158 -0.2150
  641TMC3    C5 9542   4.144   3.394   9.236  0.0940 -0.0575 -0.0048
  641TMC3    C6 9543   4.078   3.321   9.143  0.3108 -0.2045  0.8478
  641TMC3     C 9544   3.910   3.655   9.325  0.1088 -0.9025  0.0564
  641TMC3     O 9545   3.960   3.673   9.436 -0.0967 -0.5926 -0.4016
  641TMC3     H 9546   3.799   3.502   9.120 -0.1054 -0.1752 -0.4358
  641TMC3    H1 9547   4.134   3.562   9.372  1.1088  0.1895 -1.0997
  641TMC3    H2 9548   4.112   3.228   9.099 -1.2774 -0.7300  0.7263
  641TMC3    C7 9549   4.266   3.350   9.302  0.4223  0.2048 -0.6273
  641TMC3    C8 9550   3.897   3.314   8.986 -0.8614  0.0716 -0.5618
  641TMC3    O1 9551   4.302   3.405   9.404  0.1982  0.1306  0.0756
  641TMC3    O2 9552   3.927   3.198   8.963  1.0655  0.3278 -0.3431
  642TMC3    C1 9553   0.109   0.556  12.182  0.1177 -0.2969  0.6763
  642TMC3    C2 9554   0.246   0.537  12.173 -0.8329  0.1318 -0.2142
  642TMC3    C3 9555   0.286   0.444  12.081  0.2341 -0.3009 -0.2086
  642TMC3    C4 9556   0.016   0.479  12.111  0.0283  1.0576 -0.0399
  642TMC3    C5 9557   0.067   0.386  12.029 -0.3985  0.1532  0.6838
  642TMC3    C6 9558   0.199   0.373  12.003 -0.3558 -0.2215  0.1968
  642TMC3     C 9559   0.049   0.658  12.267  0.1774 -0.2813 -0.5093
  642TMC3     O 9560   0.106   0.762  12.285  0.1867  0.0769  0.4719
  642TMC3     H 9561   0.317   0.595  12.230 -1.4353 -1.0663  1.7487
  642TMC3    H1 9562   4.645   0.482  12.121  0.1676 -0.2017  1.8887
  642TMC3    H2 9563   0.242   0.295  11.941  0.3452 -0.7407  1.3381
  642TMC3    C7 9564   4.713   0.277  11.997  0.3572 -0.0918  0.0676
  642TMC3    C8 9565   0.406   0.373  12.111  0.2468 -0.2006 -0.6250
  642TMC3    O1 9566   0.009   0.211  11.902  0.0900  0.0441  0.1504
  642TMC3    O2 9567   0.450   0.287  12.032  0.1049  0.0608 -0.3998
  643TMC3    C1 9568   4.122   4.562   0.217  0.0457 -0.4297  0.1248
  643TMC3    C2 9569   3.987   4.584   0.203 -0.8104  0.2403  0.3974
  643TMC3    C3 9570   3.913   4.532   0.102  0.1548 -0.7451  0.1014
  643TMC3    C4 9571   4.190   4.485   0.125  0.4123 -0.3703 -0.8899
  643TMC3    C5 9572   4.113   4.426   0.027  0.5667 -0.3390 -0.3089
  643TMC3    C6 9573   3.982   4.460   0.008 -0.6319  0.7874 -0.4597
  643TMC3     C 9574   4.180   4.688   0.238 -0.7412  0.9366 -0.2158
  643TMC3     O 9575   4.143   0.050   0.175  0.3087  0.0392 -0.5088
  643TMC3     H 9576   3.948   4.667   0.261 -0.9695 -0.8226  1.7987
  643TMC3    H1 9577   4.297   4.492   0.113  0.6916  0.2357  2.0649
  643TMC3    H2 9578   3.929   4.429  17.665  0.3511 -3.0133  0.2884
  643TMC3    C7 9579   4.189   4.386  17.657 -0.0090 -0.7261  0.9836
  643TMC3    C8 9580   3.831   4.630   0.038 -0.3730  0.1602 -0.5321
  643TMC3    O1 9581   4.144   4.440  17.560 -0.1876 -0.3472 -0.1497
  643TMC3    O2 9582   3.710   4.621   0.057  0.5197 -0.5072  0.1168
  644MPD2     C 9583   3.960   4.651   9.429 -0.3752  0.1177 -0.4568
  644MPD2    C1 9584   3.853   4.563   9.419 -0.8570 -0.3070 -0.6774
  644MPD2    C2 9585   3.717   4.616   9.425 -0.0793 -0.2410 -0.2657
  644MPD2    C3 9586   3.690   0.016   9.448  0.6273 -0.5159 -0.1876
  644MPD2    C4 9587   3.806   0.101   9.456  0.1233  0.5287 -0.5260
  644MPD2    C5 9588   3.936   0.046   9.450  0.8935 -0.3117 -0.2429
  644MPD2     H 9589   3.637   4.543   9.424 -0.5406  0.2612  0.5048
  644MPD2    H1 9590   3.806   0.209   9.462 -0.2953  0.4407  0.8780
  644MPD2    H2 9591   4.061   4.612   9.415  0.7088  2.3099  1.3634
  644MPD2    H3 9592   4.024   0.109   9.455  1.0937 -0.4252 -2.4316
  644MPD2     N 9593   3.552   0.060   9.444  0.1255 -0.4561 -0.2731
  644MPD2    H5 9594   3.480   4.727   9.429 -0.6297  0.3545 -0.3984
  644MPD2    N1 9595   3.888   4.428   9.414  0.3183 -0.0727  0.5761
  644MPD2    H7 9596   3.986   4.403   9.413 -0.2808 -2.3767 -2.2688
  645TMC3    C1 9597   3.375   0.206   9.430 -0.3210 -0.2759 -0.7166
  645TMC3    C2 9598   3.328   0.330   9.377  0.0537 -0.2519  0.2361
  645TMC3    C3 9599   3.203   0.364   9.419 -0.6493  0.0745 -0.5091
  645TMC3    C4 9600   3.306   0.129   9.523  0.2211 -0.5069 -0.4161
  645TMC3    C5 9601   3.178   0.176   9.557  0.5457 -0.7045 -0.1444
  645TMC3    C6 9602   3.125   0.282   9.497  0.3859  0.1870 -0.3494
  645TMC3     C 9603   3.518   0.191   9.428 -0.0394 -0.2908  0.3249
  645TMC3     O 9604   3.589   0.289   9.408 -0.4598  0.0654 -0.5933
  645TMC3     H 9605   3.397   0.403   9.336 -1.6166  1.3296  0.2141
  645TMC3    H1 9606   3.340   0.036   9.567  1.9815  0.7700  0.8742
  645TMC3    H2 9607   3.027   0.317   9.527  1.2874  1.8447  0.6482
  645TMC3    C7 9608   3.081   0.085   9.596  0.0397 -0.2252  0.2592
  645TMC3    C8 9609   3.148   0.497   9.402  0.3291 -0.0201 -0.4632
  645TMC3    O1 9610   2.990   0.136   9.663 -0.0069 -0.0697  0.1924
  645TMC3    O2 9611   3.034   0.516   9.443  0.3744 -0.3785  0.1284
  646MPD2     C 9612   3.352   3.929  14.764  0.1410  1.0841 -0.7778
  646MPD2    C1 9613   3.265   3.913  14.868 -0.4970  0.0664 -0.0897
  646MPD2    C2 9614   3.131   3.953  14.857 -0.3475  0.0867 -0.0700
  646MPD2    C3 9615   3.083   4.005  14.735  0.7656 -0.1088 -0.0003
  646MPD2    C4 9616   3.175   4.015  14.633 -0.8827  0.0203 -0.4226
  646MPD2    C5 9617   3.307   3.988  14.653  0.2294 -0.9649  0.3982
  646MPD2     H 9618   3.064   3.940  14.941 -0.7043  1.3408 -0.1527
  646MPD2    H1 9619   3.157   4.055  14.534  0.4221  0.8091 -0.3418
  646MPD2    H2 9620   3.456   3.900  14.771  0.1056  0.6741 -1.9236
  646MPD2    H3 9621   3.373   4.010  14.570 -0.0382 -0.3861  0.3388
  646MPD2     N 9622   2.946   4.032  14.721 -0.9301  0.0316  0.1284
  646MPD2    H5 9623   2.885   4.032  14.802  1.3530  0.0293  1.8482
  646MPD2    N1 9624   3.317   3.835  14.975 -0.4145  0.4502  0.7057
  646MPD2    H7 9625   3.415   3.812  14.963 -0.0484  0.7331  3.0083
  647TMC3    C1 9626   3.336   3.698  15.168  0.4157  0.0419  0.0306
  647TMC3    C2 9627   3.277   3.618  15.263 -0.0844 -0.1036  0.8503
  647TMC3    C3 9628   3.364   3.535  15.335 -0.2105 -0.0002  0.3371
  647TMC3    C4 9629   3.469   3.684  15.142  0.3538 -0.4157 -0.0817
  647TMC3    C5 9630   3.553   3.602  15.210 -0.0728  0.7282  0.1831
  647TMC3    C6 9631   3.503   3.523  15.311 -0.2813  0.6410  0.2521
  647TMC3     C 9632   3.245   3.777  15.075  0.0652 -0.0846  0.5768
  647TMC3     O 9633   3.125   3.776  15.101  0.0124  0.6785  0.7321
  647TMC3     H 9634   3.173   3.639  15.288 -0.5953 -0.2727 -1.1475
  647TMC3    H1 9635   3.517   3.755  15.075 -0.0302 -0.2912 -0.2230
  647TMC3    H2 9636   3.569   3.464  15.374 -0.0002  1.0382  0.3326
  647TMC3    C7 9637   3.696   3.592  15.183  0.1152  0.3823 -0.4020
  647TMC3    C8 9638   3.311   3.502  15.464 -0.6051  0.5984 -0.2394
  647TMC3    O1 9639   3.753   3.535  15.273 -0.3767  0.3059  0.2369
  647TMC3    O2 9640   3.213   3.561  15.514 -0.6217  0.4882 -0.9506
  648TMC3    C1 9641   2.918   1.622  15.950  0.3037 -0.3964  0.2549
  648TMC3    C2 9642   2.936   1.495  15.916 -0.1109  0.3244  0.2911
  648TMC3    C3 9643   2.894   1.453  15.791 -0.4091 -0.0922  0.0786
  648TMC3    C4 9644   2.880   1.723  15.865  0.6830  0.4845 -0.3894
  648TMC3    C5 9645   2.838   1.678  15.742  0.3827  0.2683 -0.7824
  648TMC3    C6 9646   2.845   1.547  15.706 -0.3202 -0.0258  0.2564
  648TMC3     C 9647   2.912   1.660  16.091  0.3904 -0.7012  0.7239
  648TMC3     O 9648   2.920   1.780  16.105 -0.2113  0.2528  0.3015
  648TMC3     H 9649   2.968   1.426  15.994  0.9849 -1.6927 -1.9434
  648TMC3    H1 9650   2.877   1.828  15.891 -0.9781  0.5710 -0.8839
  648TMC3    H2 9651   2.800   1.523  15.610  0.0751  1.3322 -0.2761
  648TMC3    C7 9652   2.754   1.762  15.659  0.2323  0.3026  0.0315
  648TMC3    C8 9653   2.854   1.316  15.761  0.0937 -0.0410  0.1540
  648TMC3    O1 9654   2.737   1.721  15.544  0.0699 -0.0543  0.5890
  648TMC3    O2 9655   2.755   1.309  15.683  0.7853  0.4520 -0.1659
  649TMC3    C1 9656   1.905   2.479  12.270  0.0004  0.2612 -0.5415
  649TMC3    C2 9657   1.981   2.372  12.227  0.0166 -0.0259  0.0158
  649TMC3    C3 9658   2.043   2.300  12.325  0.3740 -0.4447 -0.5507
  649TMC3    C4 9659   1.882   2.507  12.404 -0.7350 -0.9475  0.1545
  649TMC3    C5 9660   1.939   2.422  12.497 -0.3495 -0.2650  0.1682
  649TMC3    C6 9661   2.021   2.316  12.462  0.3725  0.9142 -0.3535
  649TMC3     C 9662   1.834   2.562  12.174  0.2200 -0.3935  0.6268
  649TMC3     O 9663   1.722   2.599  12.215  0.0094  0.6348  0.1493
  649TMC3     H 9664   1.982   2.340  12.124 -2.9119  1.2658 -0.4209
  649TMC3    H1 9665   1.838   2.603  12.426  1.0708  0.1177 -0.9680
  649TMC3    H2 9666   2.057   2.243  12.534 -0.2608 -0.6278 -1.5837
  649TMC3    C7 9667   1.951   2.479  12.632  0.3284  0.2300 -0.5927
  649TMC3    C8 9668   2.108   2.174  12.282  0.1750 -0.1113  0.6567
  649TMC3    O1 9669   1.872   2.566  12.661  0.5858  0.0752 -0.0961
  649TMC3    O2 9670   2.122   2.087  12.363 -0.2697  0.3591  0.1595
  650TMC3    C1 9671   4.240   4.154  12.472 -0.3945  0.0401 -0.5587
  650TMC3    C2 9672   4.238   4.282  12.521  0.5397 -0.2355 -0.8457
  650TMC3    C3 9673   4.213   4.377  12.428 -0.3689  0.1407 -0.2899
  650TMC3    C4 9674   4.221   4.118  12.341 -0.2373 -0.0254  0.3215
  650TMC3    C5 9675   4.208   4.219  12.255  0.1298 -0.7452  0.5584
  650TMC3    C6 9676   4.201   4.349  12.296  1.5450 -0.9090  0.3362
  650TMC3     C 9677   4.218   4.052  12.572  0.1901  0.0863  0.6781
  650TMC3     O 9678   4.176   4.093  12.681  0.3229  0.0618  0.6842
  650TMC3     H 9679   4.258   4.308  12.624  0.7043 -0.5018 -0.8108
  650TMC3    H1 9680   4.226   4.016  12.303 -0.7124 -0.3022  0.9974
  650TMC3    H2 9681   4.195   4.436  12.231 -0.5444  0.0671  1.8348
  650TMC3    C7 9682   4.096   4.200  12.165  0.5034  0.2245  0.7720
  650TMC3    C8 9683   4.128   4.490  12.466 -0.3063  0.8107  0.7598
  650TMC3    O1 9684   4.036   4.095  12.185  0.2759  1.1148  0.5257
  650TMC3    O2 9685   4.183   4.576  12.535 -0.6315  0.1396 -0.0034
  651MPD2     C 9686   2.897   1.643  10.664 -0.3431 -0.2175 -0.6306
  651MPD2    C1 9687   2.897   1.782  10.674  0.4543  0.2407  0.5500
  651MPD2    C2 9688   3.013   1.857  10.677 -0.0488 -0.5395  0.3835
  651MPD2    C3 9689   3.133   1.796  10.682 -0.4734 -0.4206 -0.0189
  651MPD2    C4 9690   3.139   1.660  10.677  0.5493  0.6544 -0.3074
  651MPD2    C5 9691   3.024   1.589  10.666 -0.5292 -0.6535 -0.7077
  651MPD2     H 9692   3.011   1.965  10.687  0.4299 -0.6025  1.2012
  651MPD2    H1 9693   3.229   1.601  10.668 -1.4737 -2.0587 -2.7992
  651MPD2    H2 9694   2.817   1.573  10.646 -1.3086  0.5012  0.8746
  651MPD2    H3 9695   3.023   1.481  10.654  3.7493 -0.6041 -1.4519
  651MPD2     N 9696   3.251   1.882  10.680 -0.0386 -0.3414  0.0689
  651MPD2    H5 9697   3.234   1.979  10.704 -0.5667 -0.5000  0.3325
  651MPD2    N1 9698   2.777   1.849  10.697 -0.7966  0.0741 -0.2387
  651MPD2    H7 9699   2.778   1.949  10.678 -0.0381  0.3108  1.0989
  652TMC3    C1 9700   3.698   2.000  10.689  0.7952  0.0377 -0.6212
  652TMC3    C2 9701   3.596   1.912  10.721  0.8312 -0.2509 -0.1897
  652TMC3    C3 9702   3.470   1.939  10.677 -0.0748 -0.2801 -0.4553
  652TMC3    C4 9703   3.679   2.115  10.630  0.2572  0.0903 -0.2085
  652TMC3    C5 9704   3.553   2.147  10.602 -0.3572  0.8093  0.2647
  652TMC3    C6 9705   3.449   2.058  10.623 -0.2299 -0.2384  0.1479
  652TMC3     C 9706   3.806   1.990  10.783 -0.6506 -0.1777 -0.2639
  652TMC3     O 9707   3.840   1.876  10.817  0.2348 -0.9863  0.4507
  652TMC3     H 9708   3.626   1.820  10.770  0.4711  0.6890  1.7859
  652TMC3    H1 9709   3.760   2.180  10.600 -0.5846  1.6334  0.8737
  652TMC3    H2 9710   3.353   2.094  10.586 -1.1013 -1.7739  0.9124
  652TMC3    C7 9711   3.544   2.249  10.506 -0.1664  0.0464  0.1854
  652TMC3    C8 9712   3.380   1.829  10.676 -0.2003 -0.3118 -0.6946
  652TMC3    O1 9713   3.635   2.260  10.429 -0.0180 -0.1675 -0.0404
  652TMC3    O2 9714   3.429   1.715  10.663 -0.3379 -0.3902 -0.1845
  653MPD2     C 9715   2.013   1.619  17.140  0.6533 -0.3607 -0.5198
  653MPD2    C1 9716   1.889   1.667  17.163  0.1739  0.1947  0.3306
  653MPD2    C2 9717   1.777   1.587  17.136 -0.1625 -0.0383 -0.0644
  653MPD2    C3 9718   1.783   1.459  17.103 -0.0263  0.4723  0.8190
  653MPD2    C4 9719   1.906   1.409  17.078 -0.4229  1.0541  0.0515
  653MPD2    C5 9720   2.019   1.487  17.103  0.4286  0.0821 -0.2716
  653MPD2     H 9721   1.684   1.636  17.160  1.2459  2.9634 -0.8174
  653MPD2    H1 9722   1.917   1.312  17.032 -2.9409  1.0742 -0.5592
  653MPD2    H2 9723   2.107   1.670  17.154 -1.0626  2.4376  0.6620
  653MPD2    H3 9724   2.117   1.439  17.104 -1.6067 -4.0505 -0.8459
  653MPD2     N 9725   1.667   1.382  17.092  0.0906  0.3273  0.4299
  653MPD2    H5 9726   1.588   1.443  17.073 -0.0297  0.4117  1.1710
  653MPD2    N1 9727   1.884   1.797  17.219 -0.1572 -0.0886  0.6637
  653MPD2    H7 9728   1.968   1.853  17.229  0.8913 -1.4221 -0.6978
  654TMC3    C1 9729   1.530   1.187  17.069  0.7049 -0.3865 -0.2564
  654TMC3    C2 9730   1.423   1.276  17.069 -0.2132  0.6556  0.2930
  654TMC3    C3 9731   1.314   1.232  16.995  0.5126  0.3225  0.0094
  654TMC3    C4 9732   1.521   1.059  17.023  0.7045  0.5615  0.0530
  654TMC3    C5 9733   1.408   1.019  16.959 -0.1448 -0.1038  0.7487
  654TMC3    C6 9734   1.310   1.110  16.937 -0.3734  0.5870 -0.0283
  654TMC3     C 9735   1.666   1.240  17.098 -0.3536 -0.5312 -0.5887
  654TMC3     O 9736   1.764   1.162  17.113  0.1060  0.0793  0.2878
  654TMC3     H 9737   1.423   1.377  17.110  0.5362  0.5182  0.6188
  654TMC3    H1 9738   1.597   0.988  17.053 -0.6396  0.0562  2.2335
  654TMC3    H2 9739   1.237   1.073  16.866 -0.2502  0.7517 -0.2415
  654TMC3    C7 9740   1.420   0.912  16.861  0.8057 -0.4931  0.1391
  654TMC3    C8 9741   1.248   1.337  16.921  0.0060  0.7605 -0.4773
  654TMC3    O1 9742   1.356   0.918  16.755 -0.9156  0.0600  0.2653
  654TMC3    O2 9743   1.208   1.434  16.980  0.7098 -0.3264 -0.2865
  655MPD2     C 9744   3.183   1.671  15.680  0.1493  0.3914 -0.0045
  655MPD2    C1 9745   3.105   1.753  15.609  0.4927  0.0909 -0.0771
  655MPD2    C2 9746   3.060   1.711  15.484  0.2033  0.1133 -0.3547
  655MPD2    C3 9747   3.109   1.596  15.429  0.1131 -0.2143  0.0757
  655MPD2    C4 9748   3.189   1.513  15.505  0.6196  0.6925 -0.4116
  655MPD2    C5 9749   3.221   1.548  15.633 -0.4187  0.2781  0.1322
  655MPD2     H 9750   2.988   1.777  15.439  2.0516  1.4436 -1.3693
  655MPD2    H1 9751   3.227   1.418  15.469  0.1579 -0.0782  1.1031
  655MPD2    H2 9752   3.235   1.714  15.765  1.6451  0.7968 -1.1340
  655MPD2    H3 9753   3.292   1.486  15.686  1.5762  1.0575 -1.6026
  655MPD2     N 9754   3.083   1.552  15.299  0.0330 -0.4666  0.6732
  655MPD2    H5 9755   3.106   1.456  15.277  1.6631 -0.0081  0.4104
  655MPD2    N1 9756   3.071   1.885  15.645  0.1620  0.0910  0.3358
  655MPD2    H7 9757   3.010   1.936  15.583  0.6731  0.8008  0.4192
  656TMC3    C1 9758   3.063   2.090  15.739  0.1257  1.1238 -0.0428
  656TMC3    C2 9759   2.995   2.119  15.853 -0.3106  0.4222 -0.0634
  656TMC3    C3 9760   2.880   2.197  15.842  0.2457 -0.0994  0.1645
  656TMC3    C4 9761   3.015   2.131  15.616  0.7116  0.0903  0.6859
  656TMC3    C5 9762   2.903   2.214  15.607  0.7152 -0.3960 -0.1447
  656TMC3    C6 9763   2.833   2.245  15.719  0.5218  0.7111  0.2626
  656TMC3     C 9764   3.118   1.955  15.746  0.1173 -0.3595 -0.6710
  656TMC3     O 9765   3.177   1.931  15.849 -0.1200 -0.0823 -0.0314
  656TMC3     H 9766   3.026   2.075  15.947  0.0119 -0.3888 -0.5474
  656TMC3    H1 9767   3.072   2.121  15.524 -0.8632  1.8170 -0.4826
  656TMC3    H2 9768   2.729   2.278  15.713  0.9301  1.8469 -0.5111
  656TMC3    C7 9769   2.853   2.250  15.473  0.3046 -0.1429  0.2315
  656TMC3    C8 9770   2.785   2.160  15.943 -0.1276  0.2876  0.2888
  656TMC3    O1 9771   2.911   2.211  15.372 -0.3092 -0.2802  0.1318
  656TMC3    O2 9772   2.781   2.043  15.969  0.1385  0.5095 -0.6419
  657TMC3    C1 9773   2.076   1.451  14.838 -0.6492 -0.3122  0.6484
  657TMC3    C2 9774   2.113   1.453  14.969 -0.1097  0.3366 -0.6716
  657TMC3    C3 9775   2.064   1.552  15.055 -0.2378  0.5853 -0.7455
  657TMC3    C4 9776   1.999   1.550  14.781 -0.0883 -0.1449 -0.6531
  657TMC3    C5 9777   1.968   1.655  14.866 -0.0438 -0.4192  0.8141
  657TMC3    C6 9778   1.997   1.653  15.001 -0.4506 -0.1839 -0.1890
  657TMC3     C 9779   2.097   1.341  14.741 -0.2715  0.0674  0.3779
  657TMC3     O 9780   2.017   1.327  14.652 -0.1712  0.2877  0.0141
  657TMC3     H 9781   2.157   1.366  15.016 -0.2183  0.0449 -1.1166
  657TMC3    H1 9782   1.992   1.559  14.673  1.9978 -1.2538 -0.8938
  657TMC3    H2 9783   1.966   1.734  15.065 -1.6460 -0.1338 -0.8228
  657TMC3    C7 9784   1.932   1.787  14.805 -0.1360 -0.3572  0.5006
  657TMC3    C8 9785   2.112   1.574  15.192 -0.1085  0.5941 -0.1601
  657TMC3    O1 9786   1.942   1.885  14.878 -0.5487  0.2522 -0.3072
  657TMC3    O2 9787   2.101   1.685  15.234  0.0168  0.3681 -0.3977
  658MPD2     C 9788   3.311   1.020  15.039 -0.3421  0.6453  0.8166
  658MPD2    C1 9789   3.293   1.109  14.940 -0.2616  0.0406 -0.7654
  658MPD2    C2 9790   3.360   1.090  14.820 -0.3258 -0.1234 -0.0672
  658MPD2    C3 9791   3.442   0.979  14.803 -0.7047  0.1447 -0.0086
  658MPD2    C4 9792   3.458   0.893  14.907 -0.4875  0.3563 -0.5772
  658MPD2    C5 9793   3.395   0.916  15.026 -0.0906  0.3681 -0.5666
  658MPD2     H 9794   3.364   1.167  14.743  0.7546 -0.2301 -0.1300
  658MPD2    H1 9795   3.542   0.825  14.905  0.5534  1.6089  1.0004
  658MPD2    H2 9796   3.253   1.048  15.126  0.2034  0.4825  1.2279
  658MPD2    H3 9797   3.417   0.854  15.113 -1.4938  1.3413  0.4932
  658MPD2     N 9798   3.524   0.967  14.687 -0.6176  0.0177  0.3029
  658MPD2    H5 9799   3.516   1.041  14.618 -0.4394 -1.3787 -1.2232
  658MPD2    N1 9800   3.210   1.221  14.959 -0.1226 -0.4872  0.4419
  658MPD2    H7 9801   3.176   1.248  15.051  0.6609  1.1038  0.2749
  659TMC3    C1 9802   3.083   1.416  14.900  0.6109  0.4759  0.3538
  659TMC3    C2 9803   3.082   1.456  15.029 -0.4944  0.1421  0.1834
  659TMC3    C3 9804   3.005   1.562  15.066 -0.9935  0.0693  0.4509
  659TMC3    C4 9805   2.991   1.458  14.814  0.1789 -0.2560  0.2186
  659TMC3    C5 9806   2.904   1.550  14.858  0.2724  0.8648  0.5380
  659TMC3    C6 9807   2.917   1.616  14.975  0.5549 -0.0482  0.0369
  659TMC3     C 9808   3.168   1.303  14.857  0.5623  0.2523 -0.5023
  659TMC3     O 9809   3.176   1.276  14.737 -0.4303  0.1385 -0.0758
  659TMC3     H 9810   3.169   1.437  15.091 -0.4000  1.0466  0.3328
  659TMC3    H1 9811   2.971   1.395  14.728 -1.2365  1.0380 -0.3837
  659TMC3    H2 9812   2.829   1.665  15.014 -0.1908 -1.6526  0.3740
  659TMC3    C7 9813   2.790   1.584  14.777  0.1161 -0.1837  0.6585
  659TMC3    C8 9814   3.019   1.636  15.200  0.7344 -0.0686 -0.2773
  659TMC3    O1 9815   2.763   1.703  14.772 -0.2600  0.0516 -0.6933
  659TMC3    O2 9816   2.961   1.746  15.209  0.0391 -0.2039 -0.1117
  660MPD2     C 9817   1.252   0.719  12.659 -0.3873  0.0863 -0.0937
  660MPD2    C1 9818   1.135   0.780  12.640  0.1665  0.0441  0.2103
  660MPD2    C2 9819   1.051   0.815  12.743 -0.1242  0.0658  0.5323
  660MPD2    C3 9820   1.091   0.759  12.865  0.1605  0.1698 -0.2159
  660MPD2    C4 9821   1.203   0.695  12.886  0.2929  0.8574 -0.6500
  660MPD2    C5 9822   1.294   0.685  12.783  0.3625  0.4606 -0.6000
  660MPD2     H 9823   0.967   0.881  12.725  0.7080  1.2758  1.0369
  660MPD2    H1 9824   1.227   0.667  12.989  1.5047  0.7504 -0.9621
  660MPD2    H2 9825   1.317   0.699  12.574  0.1711  0.1073  0.3291
  660MPD2    H3 9826   1.397   0.653  12.794 -0.0748 -1.2658 -1.4615
  660MPD2     N 9827   1.017   0.772  12.985 -0.7208 -0.1460 -0.1380
  660MPD2    H5 9828   1.051   0.728  13.070  1.2555  0.3811 -0.6610
  660MPD2    N1 9829   1.107   0.812  12.504  0.1956 -0.6731  0.0392
  660MPD2    H7 9830   1.194   0.805  12.453 -0.0234 -2.7918 -0.0825
  661TMC3    C1 9831   0.974   0.893  12.316  0.0632  0.6732  0.1736
  661TMC3    C2 9832   1.097   0.905  12.249  0.1996 -0.1024  0.8725
  661TMC3    C3 9833   1.085   0.926  12.114  0.3217 -0.3208  0.2429
  661TMC3    C4 9834   0.853   0.896  12.250  0.4955 -0.0247  0.4322
  661TMC3    C5 9835   0.861   0.911  12.111  0.2365  0.3662  0.5536
  661TMC3    C6 9836   0.975   0.936  12.039  0.0700 -0.3022 -0.0248
  661TMC3     C 9837   0.982   0.844  12.452  0.5388 -0.2147 -0.1747
  661TMC3     O 9838   0.875   0.827  12.516  0.1827  0.4984  0.2154
  661TMC3     H 9839   1.197   0.914  12.288 -0.0792  1.5606  1.2272
  661TMC3    H1 9840   0.762   0.893  12.307  0.7750 -1.3614  0.8095
  661TMC3    H2 9841   0.974   0.917  11.932 -0.5667  2.4307 -0.5123
  661TMC3    C7 9842   0.747   0.868  12.033 -0.3256 -0.4105 -0.3861
  661TMC3    C8 9843   1.209   0.916  12.043 -0.3254  0.8101  0.4275
  661TMC3    O1 9844   0.773   0.845  11.916 -0.0920  0.3697  0.0911
  661TMC3    O2 9845   1.278   0.825  12.073 -0.3283 -0.0316 -0.0003
  662MPD2     C 9846   1.114   0.716  16.882 -0.0475  0.3873 -0.5964
  662MPD2    C1 9847   1.169   0.636  16.974 -0.7377  0.1225 -0.2177
  662MPD2    C2 9848   1.195   0.697  17.097  0.0728 -0.2698  0.0805
  662MPD2    C3 9849   1.161   0.827  17.127 -0.3614  0.3717  0.3451
  662MPD2    C4 9850   1.089   0.899  17.033  0.1188 -0.6396 -0.2339
  662MPD2    C5 9851   1.056   0.838  16.916 -0.1301  0.3920  0.3096
  662MPD2     H 9852   1.226   0.636  17.181 -0.6913 -2.2780 -1.0796
  662MPD2    H1 9853   1.046   0.998  17.050 -0.6239 -1.2765  1.6100
  662MPD2    H2 9854   1.083   0.689  16.781 -0.8822  2.7730 -0.9668
  662MPD2    H3 9855   0.997   0.889  16.841 -0.9979 -0.3314  0.5101
  662MPD2     N 9856   1.170   0.887  17.256 -0.3123  0.1131  0.0910
  662MPD2    H5 9857   1.131   0.978  17.276 -1.1168  0.1495 -1.6125
  662MPD2    N1 9858   1.208   0.500  16.954 -0.1814 -0.0650  0.1939
  662MPD2    H7 9859   1.251   0.470  17.041 -2.2769 -0.7154  0.9964
  663TMC3    C1 9860   1.258   0.288  16.864  0.4869  0.0893 -0.6994
  663TMC3    C2 9861   1.357   0.267  16.961  0.5635 -0.0186  0.4270
  663TMC3    C3 9862   1.441   0.163  16.946  0.4762 -0.3579 -0.3360
  663TMC3    C4 9863   1.232   0.186  16.773 -0.4172  1.0288 -0.1411
  663TMC3    C5 9864   1.315   0.079  16.765  0.3691  0.3368 -0.2064
  663TMC3    C6 9865   1.408   0.063  16.860  0.1848  0.3845 -0.0117
  663TMC3     C 9866   1.188   0.412  16.849 -0.3732  0.2050 -0.6338
  663TMC3     O 9867   1.119   0.421  16.744 -0.3020  0.3868  0.1869
  663TMC3     H 9868   1.411   0.353  17.000  0.0270  0.7150 -0.4200
  663TMC3    H1 9869   1.160   0.202  16.695  1.0937  2.5888 -1.2249
  663TMC3    H2 9870   1.474   4.714  16.854  0.9099  0.8619  1.2709
  663TMC3    C7 9871   1.268   4.698  16.693 -0.0422  0.2608  0.2904
  663TMC3    C8 9872   1.469   0.108  17.073  0.3939  0.4459 -0.3653
  663TMC3    O1 9873   1.223   4.717  16.581  0.1940  0.2249 -0.1325
  663TMC3    O2 9874   1.579   0.055  17.085 -0.6008 -0.1100 -0.3859
  664MPD2     C 9875   4.234   2.948  17.490  0.0744 -0.4222  0.4205
  664MPD2    C1 9876   4.277   3.073  17.516 -0.4340  0.2873  0.0404
  664MPD2    C2 9877   4.235   3.130  17.638  0.5127 -0.1940 -0.1364
  664MPD2    C3 9878   4.166   3.056  17.728  0.2341  0.4890 -0.0724
  664MPD2    C4 9879   4.127   2.928  17.702  0.3545  0.2964  0.6397
  664MPD2    C5 9880   4.161   2.876  17.579  0.0628  1.3636  0.1232
  664MPD2     H 9881   4.266   3.230  17.668  2.5953 -0.1883 -2.3739
  664MPD2    H1 9882   4.074   2.865   0.025 -0.6811  0.1818 -0.2424
  664MPD2    H2 9883   4.246   2.893  17.397 -1.5528  2.2136 -1.3572
  664MPD2    H3 9884   4.127   2.774  17.564  0.5221  1.0110  1.4219
  664MPD2     N 9885   4.142   3.121   0.107 -0.1150 -0.1514  0.1052
  664MPD2    H5 9886   4.179   3.212   0.133 -0.0300  0.0874 -0.8267
  664MPD2    N1 9887   4.359   3.143  17.433  0.3884  0.2978 -0.2013
  664MPD2    H7 9888   4.382   3.238  17.461 -0.5377  1.6727 -4.0537
  665TMC3    C1 9889   4.031   3.147   0.309  0.4196  0.3687  0.2716
  665TMC3    C2 9890   3.984   3.082   0.424  0.3360  0.6121 -0.1389
  665TMC3    C3 9891   3.974   3.156   0.543  0.0776  0.4224 -0.0172
  665TMC3    C4 9892   4.090   3.273   0.315 -0.3824 -0.4439  0.1766
  665TMC3    C5 9893   4.099   3.333   0.443  0.2440  0.3455  0.5796
  665TMC3    C6 9894   4.024   3.281   0.553 -0.6257  0.3416 -0.2401
  665TMC3     C 9895   4.064   3.060   0.205 -0.3121  0.7551  0.0301
  665TMC3     O 9896   4.003   2.955   0.202 -0.2504 -0.6395 -0.4467
  665TMC3     H 9897   3.955   2.977   0.421 -1.4709  1.0760  1.1281
  665TMC3    H1 9898   4.111   3.330   0.226 -0.3794  0.7182  0.9237
  665TMC3    H2 9899   4.005   3.336   0.644 -1.0996 -0.4254  0.1337
  665TMC3    C7 9900   4.151   3.470   0.438  0.0959  0.2588  0.0187
  665TMC3    C8 9901   3.951   3.091   0.663  0.5630  0.0257  0.4303
  665TMC3    O1 9902   4.187   3.522   0.331 -0.6248  0.0812  0.0928
  665TMC3    O2 9903   4.003   3.141   0.761  0.1228  0.2026  0.0223
  666TMC3    C1 9904   2.915   3.179   9.326 -0.1760 -0.5485  0.8181
  666TMC3    C2 9905   2.977   3.111   9.228  0.4615 -0.0730 -0.5882
  666TMC3    C3 9906   3.113   3.136   9.221  0.4473  0.3599 -0.0799
  666TMC3    C4 9907   2.963   3.282   9.399  0.3180  0.4129  0.2342
  666TMC3    C5 9908   3.092   3.319   9.368  0.6317 -0.1560 -0.2385
  666TMC3    C6 9909   3.167   3.247   9.286 -0.6423 -0.6633 -0.6002
  666TMC3     C 9910   2.808   3.115   9.392  0.5041 -0.3105  0.3740
  666TMC3     O 9911   2.741   3.185   9.470  0.0696  0.1157  0.0584
  666TMC3     H 9912   2.936   3.027   9.174 -1.6229  0.8988 -0.4913
  666TMC3    H1 9913   2.901   3.332   9.472 -1.7212 -1.4840 -0.2031
  666TMC3    H2 9914   3.274   3.262   9.282 -0.8979  1.3994  0.8644
  666TMC3    C7 9915   3.146   3.399   9.475  0.2874  0.2395 -0.8684
  666TMC3    C8 9916   3.200   3.028   9.196 -0.4223  0.1392 -0.2225
  666TMC3    O1 9917   3.076   3.470   9.544 -0.0935  0.3782  0.1689
  666TMC3    O2 9918   3.146   2.921   9.226 -0.0090 -0.0828 -0.9683
  667MPD2     C 9919   0.943   3.307  14.846  0.4345  0.8084 -0.0353
  667MPD2    C1 9920   0.809   3.328  14.872 -0.8675  0.1130 -0.7573
  667MPD2    C2 9921   0.715   3.244  14.813  0.3674 -0.6868  0.0776
  667MPD2    C3 9922   0.756   3.137  14.729 -0.2154 -0.1790  0.0227
  667MPD2    C4 9923   0.896   3.111  14.722 -0.0955 -0.1098 -0.3767
  667MPD2    C5 9924   0.983   3.196  14.781  0.5084 -0.1306  0.1572
  667MPD2     H 9925   0.608   3.261  14.825  0.4548  0.0328 -0.1864
  667MPD2    H1 9926   0.934   3.021  14.675 -2.3024 -1.4294  0.3421
  667MPD2    H2 9927   1.019   3.367  14.894  1.0946 -1.1533  1.4091
  667MPD2    H3 9928   1.088   3.173  14.772 -0.1370 -4.1121  2.6418
  667MPD2     N 9929   0.670   3.050  14.662  0.0010 -0.5323  0.3175
  667MPD2    H5 9930   0.707   2.959  14.635 -0.1772 -1.0493  1.7740
  667MPD2    N1 9931   0.774   3.428  14.966  0.0247 -0.4895 -0.1479
  667MPD2    H7 9932   0.677   3.426  14.997  0.5296  1.5960  1.5837
  668TMC3    C1 9933   0.796   3.598  15.119  0.7465 -0.6575  0.0683
  668TMC3    C2 9934   0.826   3.734  15.129  0.3468 -0.6460  0.0885
  668TMC3    C3 9935   0.747   3.821  15.199 -0.0313 -0.0540 -0.5114
  668TMC3    C4 9936   0.679   3.553  15.186 -0.0335 -0.1017  0.2404
  668TMC3    C5 9937   0.618   3.641  15.270  0.3895 -0.3179 -0.8234
  668TMC3    C6 9938   0.643   3.779  15.272 -0.4769 -0.2022 -0.1353
  668TMC3     C 9939   0.856   3.527  15.009  0.0898  0.5264  0.5742
  668TMC3     O 9940   0.961   3.571  14.962 -0.1990 -0.8140 -0.5621
  668TMC3     H 9941   0.912   3.762  15.069 -1.8130  0.8022 -2.3038
  668TMC3    H1 9942   0.649   3.449  15.179 -0.1570 -0.2271  2.5115
  668TMC3    H2 9943   0.584   3.847  15.332  0.7156  0.6590  0.0620
  668TMC3    C7 9944   0.511   3.591  15.361 -0.4159  0.8732 -0.5737
  668TMC3    C8 9945   0.778   3.959  15.188 -0.2606 -0.5122  0.5053
  668TMC3    O1 9946   0.491   3.674  15.452  0.1614  0.0398 -0.0228
  668TMC3    O2 9947   0.734   4.034  15.277 -0.0883 -0.1114  0.0662
  669TMC3    C1 9948   3.432   3.162  14.406  0.0885 -0.6064 -0.5279
  669TMC3    C2 9949   3.327   3.191  14.321 -0.5006  0.6745 -0.1442
  669TMC3    C3 9950   3.329   3.312  14.260 -0.3041 -0.1387  0.1478
  669TMC3    C4 9951   3.514   3.264  14.450 -0.4327 -0.8234  0.4192
  669TMC3    C5 9952   3.498   3.386  14.396  0.7015 -0.1945 -0.1705
  669TMC3    C6 9953   3.415   3.407  14.292 -0.8990 -0.0538  0.1171
  669TMC3     C 9954   3.451   3.020  14.441 -0.4050 -0.1785 -0.0010
  669TMC3     O 9955   3.384   2.938  14.383 -0.2955  0.0300 -0.5282
  669TMC3     H 9956   3.253   3.122  14.282 -1.1039  1.3861 -0.2654
  669TMC3    H1 9957   3.576   3.243  14.536 -0.6297 -1.3250  0.4423
  669TMC3    H2 9958   3.410   3.506  14.250 -3.8312 -0.0834  0.4374
  669TMC3    C7 9959   3.613   3.472  14.408  0.0811 -1.3152  0.2476
  669TMC3    C8 9960   3.244   3.328  14.148  0.7400 -0.0526 -0.1349
  669TMC3    O1 9961   3.589   3.590  14.393  0.0491  0.2747 -0.0301
  669TMC3    O2 9962   3.140   3.265  14.139  0.4792  0.1123 -0.5311
  670MPD2     C 9963   1.566   1.175  14.019 -0.3295  0.8146 -0.0055
  670MPD2    C1 9964   1.451   1.113  13.993 -0.4744 -0.2819  0.5337
  670MPD2    C2 9965   1.386   1.044  14.091  0.5494  0.1583 -0.4404
  670MPD2    C3 9966   1.438   1.034  14.217 -0.7332 -0.0411 -0.5140
  670MPD2    C4 9967   1.566   1.086  14.237  0.1876 -0.7499  0.2758
  670MPD2    C5 9968   1.625   1.155  14.142 -0.5055 -0.0233  0.1236
  670MPD2     H 9969   1.292   0.995  14.069  0.3637 -0.2362  1.2248
  670MPD2    H1 9970   1.615   1.071  14.333  1.2959 -1.7113 -0.4435
  670MPD2    H2 9971   1.620   1.240  13.950 -0.5443 -2.0467 -2.8436
  670MPD2    H3 9972   1.721   1.201  14.162 -1.6605  2.8887 -0.9448
  670MPD2     N 9973   1.360   0.965  14.317 -0.8136 -0.3976 -0.3604
  670MPD2    H5 9974   1.277   0.924  14.275 -1.5834  0.3341  0.4463
  670MPD2    N1 9975   1.404   1.135  13.853  0.2837 -0.5446  0.1983
  670MPD2    H7 9976   1.454   1.204  13.797 -3.1521  3.0686  1.5509
  671TMC3    C1 9977   1.359   0.811  14.489 -0.7680 -0.0434 -0.4758
  671TMC3    C2 9978   1.438   0.735  14.568  0.1399  0.7128  0.2602
  671TMC3    C3 9979   1.388   0.611  14.599  0.2131 -0.3735 -0.9045
  671TMC3    C4 9980   1.225   0.782  14.460  0.0333  0.0823  0.4898
  671TMC3    C5 9981   1.182   0.661  14.498  0.6134  0.5138  0.2628
  671TMC3    C6 9982   1.259   0.574  14.572 -0.8004  0.5363 -0.0598
  671TMC3     C 9983   1.407   0.938  14.446  0.7424  0.1459 -0.7902
  671TMC3     O 9984   1.503   0.987  14.505 -0.1456 -0.2818  0.0776
  671TMC3     H 9985   1.543   0.763  14.568 -0.2226  2.0915  0.4157
  671TMC3    H1 9986   1.160   0.849  14.405 -2.3725 -1.6255  1.2558
  671TMC3    H2 9987   1.223   0.486  14.624 -0.8696  1.0210  0.7116
  671TMC3    C7 9988   1.084   0.604  14.408  0.3044  0.1383 -1.1478
  671TMC3    C8 9989   1.468   0.493  14.588  0.8490 -0.3607  0.3065
  671TMC3    O1 9990   1.018   0.672  14.331  0.1840 -0.7494 -0.4367
  671TMC3    O2 9991   1.417   0.384  14.563 -0.1689  0.2937 -1.1080
  672MPD2     C 9992   1.920   1.940   0.323  0.0177  0.2166  0.4130
  672MPD2    C1 9993   2.004   1.835   0.307  0.6773  0.4382 -0.0552
  672MPD2    C2 9994   2.142   1.852   0.335 -0.2348 -0.0478  0.5841
  672MPD2    C3 9995   2.188   1.962   0.400  0.5703  0.0688  0.3102
  672MPD2    C4 9996   2.102   2.068   0.413 -0.2827 -0.3238  0.0217
  672MPD2    C5 9997   1.969   2.062   0.360 -0.5337  0.0497 -0.3635
  672MPD2     H 9998   2.211   1.777   0.298 -1.3787 -0.8155 -0.0083
  672MPD2    H1 9999   2.135   2.161   0.457 -1.8312  1.0265 -1.6506
  672MPD2    H210000   1.812   1.945   0.306  0.2238 -0.5012 -1.1157
  672MPD2    H310001   1.898   2.143   0.371  2.1256  2.1472  1.3121
  672MPD2     N10002   2.324   1.982   0.435 -0.3953 -0.0725  0.0626
  672MPD2    H510003   2.341   2.074   0.476  0.1278 -0.0388 -0.2248
  672MPD2    N110004   1.965   1.706   0.257  0.0593 -0.2032  0.3249
  672MPD2    H710005   2.028   1.629   0.276 -0.6858 -0.7977  0.4214
  673TMC3    C110006   1.802   1.544   0.179 -0.0845 -0.3714  0.0601
  673TMC3    C210007   1.896   1.445   0.154 -0.2286 -0.8655 -0.5877
  673TMC3    C310008   1.848   1.330   0.107 -0.0901  0.2095 -0.3608
  673TMC3    C410009   1.669   1.528   0.144  0.9376 -0.8527 -0.1315
  673TMC3    C510010   1.637   1.402   0.094  0.2924  0.2081 -0.0919
  673TMC3    C610011   1.718   1.304   0.087 -0.8075  0.1673 -0.2499
  673TMC3     C10012   1.834   1.682   0.213 -0.1123  0.4195 -0.2655
  673TMC3     O10013   1.744   1.760   0.187  0.4585  0.5805 -0.2152
  673TMC3     H10014   2.002   1.461   0.172 -0.7470  1.9594  0.0053
  673TMC3    H110015   1.600   1.606   0.174 -0.8793 -2.6203  0.2766
  673TMC3    H210016   1.683   1.209   0.050  0.1403 -0.0637 -0.5433
  673TMC3    C710017   1.498   1.385   0.054  0.1834  0.0658  0.1421
  673TMC3    C810018   1.935   1.204   0.113 -0.4602  0.0598 -0.7707
  673TMC3    O110019   1.468   1.267   0.037  0.0596  0.2226 -0.1324
  673TMC3    O210020   1.877   1.103   0.079  1.1252 -0.4615 -0.1722
  674MPD2     C10021   1.355   1.803  17.253 -0.4101  0.2502  0.0503
  674MPD2    C110022   1.314   1.698  17.333  0.7228  0.0057 -0.1627
  674MPD2    C210023   1.195   1.716  17.396 -0.3556 -0.3550  0.4492
  674MPD2    C310024   1.125   1.835  17.384  0.0784 -0.1206 -0.4997
  674MPD2    C410025   1.172   1.938  17.306 -0.1325 -0.0153 -0.2170
  674MPD2    C510026   1.287   1.920  17.240  0.4494  0.3203  0.4902
  674MPD2     H10027   1.144   1.651  17.466 -0.5483 -1.4433 -0.7187
  674MPD2    H110028   1.125   2.033  17.282 -0.2808 -0.0437 -0.0378
  674MPD2    H210029   1.448   1.797  17.198 -1.2227  1.4186 -1.4547
  674MPD2    H310030   1.332   1.994  17.174 -1.5244  1.7099  0.7022
  674MPD2     N10031   0.998   1.849  17.435 -0.1148 -0.7560 -0.3986
  674MPD2    H510032   0.968   1.770  17.491 -2.4695  1.6064  1.6660
  674MPD2    N110033   1.390   1.574  17.330  0.0462 -0.5125 -0.5058
  674MPD2    H710034   1.469   1.555  17.269 -0.5675  2.8389 -2.3385
  675TMC3    C110035   1.477   1.392  17.424  0.8076  0.4160 -0.6548
  675TMC3    C210036   1.450   1.258  17.453  0.0189 -0.2705  0.7918
  675TMC3    C310037   1.568   1.182  17.451  0.5991  0.0506 -0.1961
  675TMC3    C410038   1.600   1.448  17.426  0.2598 -0.0105  0.7923
  675TMC3    C510039   1.706   1.365  17.422  0.7203  0.3162 -0.6291
  675TMC3    C610040   1.695   1.233  17.425  0.1886 -0.2221 -0.1192
  675TMC3     C10041   1.360   1.471  17.410  0.3527 -0.6822  0.2388
  675TMC3     O10042   1.250   1.434  17.458 -0.3444 -0.4440  0.6276
  675TMC3     H10043   1.350   1.217  17.464  0.5005 -1.8677 -0.6188
  675TMC3    H110044   1.608   1.556  17.429 -1.5401  0.1087  1.1898
  675TMC3    H210045   1.770   1.155  17.420  1.5710  1.0305  1.0437
  675TMC3    C710046   1.830   1.405  17.477  0.7720 -0.3145 -0.1084
  675TMC3    C810047   1.559   1.045  17.490  0.1326 -0.1953  0.2409
  675TMC3    O110048   1.906   1.313  17.506  0.2266 -0.7860  0.4158
  675TMC3    O210049   1.633   0.968  17.438  0.0706  0.0587 -0.0052
  676MPD2     C10050   4.326   4.138  11.136 -0.2129  0.2076 -0.4056
  676MPD2    C110051   4.199   4.087  11.106  0.3498  0.6180  0.1374
  676MPD2    C210052   4.187   3.954  11.084  0.0284  0.4156 -0.0152
  676MPD2    C310053   4.298   3.874  11.080 -0.4611 -0.1285 -0.4583
  676MPD2    C410054   4.424   3.917  11.127 -0.7991 -0.3146  0.4952
  676MPD2    C510055   4.438   4.057  11.147  0.4624 -0.7625 -0.3463
  676MPD2     H10056   4.086   3.924  11.059  0.6454 -1.5127 -0.1435
  676MPD2    H110057   4.507   3.850  11.142  2.5076  3.5182 -0.7774
  676MPD2    H210058   4.343   4.245  11.136 -3.1757  0.6765  1.2423
  676MPD2    H310059   4.531   4.097  11.183  1.4348 -2.8450 -0.5083
  676MPD2     N10060   4.295   3.741  11.038 -0.7000 -0.1486  0.0291
  676MPD2    H510061   4.382   3.689  11.035 -0.2019  0.7426 -0.8908
  676MPD2    N110062   4.080   4.163  11.106 -0.4441  0.0258  0.0961
  676MPD2    H710063   3.999   4.106  11.082  0.5410 -2.0317  1.6051
  677TMC3    C110064   3.932   4.327  11.173 -0.4215  0.4092  0.1470
  677TMC3    C210065   3.847   4.225  11.219 -0.3259  0.0372 -0.2828
  677TMC3    C310066   3.751   4.248  11.314  0.1896 -0.9888 -0.1575
  677TMC3    C410067   3.913   4.455  11.223 -0.0551  0.0075  0.1699
  677TMC3    C510068   3.802   4.482  11.298 -0.2487  0.7333  0.7142
  677TMC3    C610069   3.718   4.378  11.343  0.1520  0.2007 -0.1524
  677TMC3     C10070   4.072   4.293  11.146  0.2174  0.2052  0.6547
  677TMC3     O10071   4.156   4.381  11.131  0.2846 -0.3848  0.6791
  677TMC3     H10072   3.852   4.124  11.180  0.9530 -0.8803  2.2849
  677TMC3    H110073   3.985   4.531  11.198 -0.5494  0.5774  0.4850
  677TMC3    H210074   3.648   4.404  11.421 -1.1979  1.1340 -1.6786
  677TMC3    C710075   3.784   4.610  11.366 -0.1286 -0.0344  0.9004
  677TMC3    C810076   3.662   4.140  11.354  0.0928  0.8116  0.7380
  677TMC3    O110077   3.684   4.642  11.431  0.7233  0.4634  0.5810
  677TMC3    O210078   3.542   4.172  11.347 -0.9247  1.2671  0.5976
  678MPD2     C10079   0.661   4.156   1.255 -0.4669 -0.0881  0.0501
  678MPD2    C110080   0.640   4.132   1.120 -0.0333 -0.2082  0.0866
  678MPD2    C210081   0.514   4.131   1.066  0.1367 -0.6664 -0.1105
  678MPD2    C310082   0.400   4.132   1.149 -0.1428 -0.5269 -0.6579
  678MPD2    C410083   0.421   4.154   1.282 -0.1826  0.4858 -0.9848
  678MPD2    C510084   0.548   4.168   1.332  0.2138 -0.3109 -0.5736
  678MPD2     H10085   0.513   4.116   0.959  1.1912 -0.5147 -0.1411
  678MPD2    H110086   0.343   4.162   1.357 -1.6571  0.8500 -2.5595
  678MPD2    H210087   0.764   4.182   1.277 -0.4265  1.1569 -1.5846
  678MPD2    H310088   0.560   4.205   1.433  2.1233  0.4117 -1.0596
  678MPD2     N10089   0.280   4.102   1.085  0.1568  0.4181 -0.0152
  678MPD2    H510090   0.293   4.077   0.988 -1.1085  0.1186 -0.1090
  678MPD2    N110091   0.739   4.125   1.025  0.3397 -0.0931  0.0588
  678MPD2    H710092   0.714   4.143   0.928 -1.7700 -0.7049  0.5089
  679TMC3    C110093   1.160   4.075   0.843  0.9014 -0.5606  0.0744
  679TMC3    C210094   1.075   4.060   0.946 -0.1236  0.3080 -0.0039
  679TMC3    C310095   0.956   4.120   0.939  0.4357 -0.3899 -0.1209
  679TMC3    C410096   1.136   4.161   0.737  0.1626  0.5873  0.6511
  679TMC3    C510097   1.015   4.218   0.741  0.4637  0.3620 -0.0940
  679TMC3    C610098   0.929   4.203   0.839  0.8353  0.3692  0.2183
  679TMC3     C10099   1.280   3.994   0.855  0.0539 -0.5252  0.0340
  679TMC3     O10100   1.277   3.884   0.902 -0.2712  0.4362  0.1625
  679TMC3     H10101   1.103   3.993   1.026  0.7047  1.7130  0.8688
  679TMC3    H110102   1.206   4.186   0.659  1.0037  1.6595  1.7402
  679TMC3    H210103   0.838   4.261   0.847  1.0141  0.3399  2.6671
  679TMC3    C710104   1.004   4.336   0.654 -0.3373 -0.0685  0.2826
  679TMC3    C810105   0.872   4.096   1.051 -0.8493  0.2962 -0.5146
  679TMC3    O110106   1.054   4.333   0.542  0.2755 -0.3440 -0.1110
  679TMC3    O210107   0.922   4.051   1.154 -0.3168 -0.1632 -0.3353
  680MPD2     C10108   1.334   2.908  13.442 -0.0579  0.4920  0.1291
  680MPD2    C110109   1.426   2.860  13.539 -0.8812  0.1710 -1.0768
  680MPD2    C210110   1.452   2.924  13.659 -0.4922  0.1154 -0.1552
  680MPD2    C310111   1.390   3.045  13.681 -0.9831 -0.6897  0.0171
  680MPD2    C410112   1.298   3.093  13.590  0.1799 -0.2678 -0.6381
  680MPD2    C510113   1.260   3.024  13.474 -0.1515  0.0614 -0.4967
  680MPD2     H10114   1.531   2.890  13.725 -1.0105  1.7119  1.2857
  680MPD2    H110115   1.259   3.193  13.604  0.3756 -0.6634  2.7119
  680MPD2    H210116   1.318   2.853  13.350 -1.8330 -0.9941  1.3183
  680MPD2    H310117   1.193   3.067  13.401 -0.4551 -0.2191 -0.3839
  680MPD2     N10118   1.431   3.132  13.790  0.1287 -0.3595  1.1830
  680MPD2    H510119   1.391   3.225  13.790  2.2303  0.5571  1.2606
  680MPD2    N110120   1.497   2.743  13.511 -0.0535  0.1044 -0.0332
  680MPD2    H710121   1.546   2.704  13.591 -0.0274  3.7856  1.7338
  681TMC3    C110122   1.593   2.563  13.418 -0.3818  0.2816  0.0522
  681TMC3    C210123   1.605   2.497  13.536 -0.1118  0.4333  0.3357
  681TMC3    C310124   1.692   2.396  13.540  0.2083  0.3663  0.8421
  681TMC3    C410125   1.668   2.527  13.306  0.5419 -0.5088 -0.6814
  681TMC3    C510126   1.760   2.419  13.321  0.1709 -0.3958 -0.1296
  681TMC3    C610127   1.764   2.353  13.436  0.0218 -0.8253 -0.4477
  681TMC3     C10128   1.509   2.681  13.397  0.0222  0.2200 -0.2336
  681TMC3     O10129   1.492   2.723  13.283 -0.2842 -0.0969  0.1530
  681TMC3     H10130   1.545   2.524  13.623 -0.9716  1.2632 -0.5166
  681TMC3    H110131   1.691   2.596  13.225  1.5153  0.3311  0.3097
  681TMC3    H210132   1.833   2.270  13.442 -0.1349 -0.8836  0.4472
  681TMC3    C710133   1.893   2.454  13.275 -0.1578 -0.2772 -0.6169
  681TMC3    C810134   1.724   2.335  13.669  0.3476  1.0910 -0.3455
  681TMC3    O110135   1.993   2.451  13.353 -0.2758 -0.2905 -0.7751
  681TMC3    O210136   1.758   2.216  13.664 -0.2147 -0.9865  0.1207
  682MPD2     C10137   3.182   4.051  10.642 -1.4141  0.9252 -0.7223
  682MPD2    C110138   3.157   3.917  10.650 -0.0735 -0.1196  0.3654
  682MPD2    C210139   3.112   3.858  10.767 -0.4634 -0.2248  0.3097
  682MPD2    C310140   3.086   3.934  10.878 -0.6779  0.4123  0.6434
  682MPD2    C410141   3.120   4.068  10.867  0.2543 -0.1543  0.3341
  682MPD2    C510142   3.153   4.124  10.747 -0.8167 -0.3423 -0.3890
  682MPD2     H10143   3.087   3.752  10.765  1.7483 -0.6686 -2.5253
  682MPD2    H110144   3.113   4.132  10.954  0.6336 -2.3971  2.0296
  682MPD2    H210145   3.215   4.101  10.552 -0.7182  0.0919 -0.9217
  682MPD2    H310146   3.157   4.231  10.731 -0.3277 -0.4293 -0.8672
  682MPD2     N10147   3.039   3.874  10.997  0.3474 -0.0414  0.0150
  682MPD2    H510148   3.019   3.936  11.075  0.7355 -0.7144  0.6458
  682MPD2    N110149   3.174   3.831  10.538 -0.7025 -0.3881 -0.5692
  682MPD2    H710150   3.156   3.731  10.549  0.8708 -1.0141 -3.6266
  683TMC3    C110151   2.973   3.745  11.381 -0.3847 -0.5964 -0.4650
  683TMC3    C210152   2.928   3.614  11.407 -0.1308  0.1245 -0.0002
  683TMC3    C310153   2.901   3.542  11.300  0.0299 -0.8934  0.4201
  683TMC3    C410154   2.997   3.792  11.258 -0.0492 -0.1564 -0.1463
  683TMC3    C510155   2.957   3.713  11.151 -0.2797  0.4297 -0.0723
  683TMC3    C610156   2.912   3.586  11.174  0.0763 -0.0122  0.2757
  683TMC3     C10157   2.971   3.848  11.485  0.2970 -0.4748  0.1132
  683TMC3     O10158   2.934   3.961  11.454  0.1270  0.2811 -0.2578
  683TMC3     H10159   2.911   3.587  11.511 -0.1634 -1.2437 -0.3669
  683TMC3    H110160   3.026   3.896  11.249  0.0954 -0.1564  0.3248
  683TMC3    H210161   2.879   3.524  11.091 -2.4685 -0.5714  1.7127
  683TMC3    C710162   2.995   3.742  11.010 -0.4293  1.1304 -0.1032
  683TMC3    C810163   2.896   3.395  11.316 -0.9969 -0.9816  0.6590
  683TMC3    O110164   2.988   3.649  10.930  0.6006  0.2009  0.4362
  683TMC3    O210165   2.843   3.339  11.221 -0.6979 -0.0548 -0.1300
  684MPD2     C10166   1.618   3.431  16.404  0.1056  0.0102  0.0564
  684MPD2    C110167   1.592   3.478  16.276 -0.4909 -0.2908  0.3368
  684MPD2    C210168   1.607   3.615  16.261  0.1670 -0.9154  0.9080
  684MPD2    C310169   1.655   3.698  16.361 -0.1379 -0.2017  0.7494
  684MPD2    C410170   1.694   3.639  16.480 -0.2278  0.1405  0.1761
  684MPD2    C510171   1.670   3.505  16.506 -0.2821  0.5108 -0.7011
  684MPD2     H10172   1.582   3.648  16.160  0.8054 -2.4872  0.2386
  684MPD2    H110173   1.722   3.706  16.561  2.2897 -0.6866  0.0039
  684MPD2    H210174   1.587   3.329  16.425  0.0763  0.1668  0.7597
  684MPD2    H310175   1.679   3.465  16.606  0.8374 -1.1472 -1.4685
  684MPD2     N10176   1.667   3.840  16.342  0.4787 -0.0951  0.8328
  684MPD2    H510177   1.682   3.893  16.427 -0.3900  1.5977 -0.0599
  684MPD2    N110178   1.526   3.402  16.167  0.1852 -0.1825 -0.1351
  684MPD2    H710179   1.478   3.452  16.093  0.8569  0.0024 -0.4523
  685TMC3    C110180   1.533   3.223  16.020 -0.4133  0.6001  0.0103
  685TMC3    C210181   1.426   3.271  15.946  0.7348 -0.0243  0.4017
  685TMC3    C310182   1.445   3.278  15.811  0.2875 -0.6036  0.7193
  685TMC3    C410183   1.656   3.194  15.955 -0.4522  0.8914  0.2827
  685TMC3    C510184   1.677   3.238  15.831 -0.3218 -0.0849 -0.1719
  685TMC3    C610185   1.569   3.273  15.750  0.2801 -0.3469 -0.3604
  685TMC3     C10186   1.542   3.263  16.158  0.1338  0.1659 -0.1611
  685TMC3     O10187   1.624   3.194  16.218 -0.7776  0.7667 -0.1039
  685TMC3     H10188   1.323   3.275  15.981  0.4263  0.4053 -0.5473
  685TMC3    H110189   1.738   3.156  16.015  1.2505  0.1130 -2.5469
  685TMC3    H210190   1.582   3.305  15.647 -0.3957 -0.1645 -0.3827
  685TMC3    C710191   1.800   3.302  15.804  0.0600  0.3784  0.6220
  685TMC3    C810192   1.344   3.309  15.720 -0.0190 -0.4096 -0.2556
  685TMC3    O110193   1.833   3.347  15.693 -0.4677 -0.1064 -0.4478
  685TMC3    O210194   1.344   3.252  15.608  0.4489  0.0838 -0.5731
  686MPD2     C10195   3.097   3.310  15.220 -0.3406  0.5213  0.1451
  686MPD2    C110196   3.094   3.284  15.350 -0.0783  0.2517 -0.8769
  686MPD2    C210197   3.155   3.166  15.403  0.5656  0.2115 -0.0595
  686MPD2    C310198   3.225   3.077  15.321  0.5438  0.0048  0.2720
  686MPD2    C410199   3.238   3.114  15.190 -0.2373  0.3123 -0.6905
  686MPD2    C510200   3.174   3.223  15.149 -0.3742  0.0284 -0.4007
  686MPD2     H10201   3.155   3.155  15.510  2.5480 -1.8320 -0.2716
  686MPD2    H110202   3.291   3.044  15.127  2.3147 -0.2014  2.0171
  686MPD2    H210203   3.038   3.390  15.175 -0.9646  0.2820  0.5321
  686MPD2    H310204   3.179   3.255  15.046  1.0475 -0.0838 -0.3761
  686MPD2     N10205   3.290   2.954  15.362 -0.0598  0.1006 -0.0754
  686MPD2    H510206   3.356   2.916  15.295 -1.5257  0.5598 -1.7909
  686MPD2    N110207   3.007   3.360  15.426  0.2075  0.2635  0.4353
  686MPD2    H710208   2.955   3.439  15.389  0.5002 -0.2060 -0.9646
  687TMC3    C110209   3.154   2.903  15.562  0.2234 -0.0239  0.3244
  687TMC3    C210210   3.036   2.905  15.492  0.4639 -0.1261 -0.1835
  687TMC3    C310211   2.921   2.904  15.572  0.0147  0.2970 -0.7761
  687TMC3    C410212   3.161   2.878  15.698 -0.0391 -0.4183 -0.0016
  687TMC3    C510213   3.043   2.874  15.764 -0.5073  0.3140  0.3820
  687TMC3    C610214   2.928   2.898  15.706  0.2769 -0.0196  0.6528
  687TMC3     C10215   3.284   2.899  15.494 -0.0292 -0.3824  0.5112
  687TMC3     O10216   3.363   2.814  15.537  0.2460 -0.3055  0.2956
  687TMC3     H10217   3.033   2.900  15.384 -0.9428 -0.1583 -0.1425
  687TMC3    H110218   3.258   2.879  15.747  0.0671  0.1609 -0.2306
  687TMC3    H210219   2.837   2.911  15.763 -1.0462  0.1254 -1.5172
  687TMC3    C710220   3.031   2.893  15.909 -0.5540  0.0321  0.8587
  687TMC3    C810221   2.790   2.946  15.524  0.0164  0.0068 -0.1284
  687TMC3    O110222   2.925   2.934  15.954 -0.3748 -0.0924 -0.4421
  687TMC3    O210223   2.694   2.897  15.586  0.1673  0.1231  0.2445
  688MPD2     C10224   2.052   2.481  17.036  0.4903  0.0284 -0.1243
  688MPD2    C110225   2.085   2.348  17.053  0.1585  0.6636 -0.2113
  688MPD2    C210226   2.200   2.299  16.988  0.0384 -0.2374  0.6075
  688MPD2    C310227   2.273   2.371  16.894 -0.0249 -0.2783 -0.4319
  688MPD2    C410228   2.239   2.500  16.869 -0.1026 -1.0862 -0.0393
  688MPD2    C510229   2.132   2.550  16.943  0.0882 -0.4802  0.9103
  688MPD2     H10230   2.225   2.194  17.002 -2.4224 -0.8864  0.1723
  688MPD2    H110231   2.285   2.557  16.789 -0.3838 -2.3948 -1.1452
  688MPD2    H210232   1.961   2.531  17.070  1.0380  0.0685  1.3076
  688MPD2    H310233   2.098   2.651  16.923  0.8240 -0.2848  0.6508
  688MPD2     N10234   2.379   2.320  16.820  0.6758 -0.0783  0.3130
  688MPD2    H510235   2.429   2.380  16.755 -2.2996  3.1329  1.0124
  688MPD2    N110236   2.015   2.271  17.151 -0.1359 -0.0617 -0.2577
  688MPD2    H710237   2.040   2.173  17.148  1.0254  0.2483 -0.6408
  689TMC3    C110238   1.845   2.199  17.306 -0.6470  1.5573 -0.2006
  689TMC3    C210239   1.782   2.236  17.427  0.0577  0.6106 -0.3637
  689TMC3    C310240   1.717   2.144  17.504  0.3776 -1.0444 -0.2967
  689TMC3    C410241   1.857   2.071  17.266 -0.1700 -0.4911  0.9251
  689TMC3    C510242   1.788   1.980  17.346  0.5537  0.0113 -0.1902
  689TMC3    C610243   1.719   2.008  17.466  0.1794 -0.1427 -0.4004
  689TMC3     C10244   1.917   2.308  17.238  0.0557 -0.1055  0.2175
  689TMC3     O10245   1.859   2.419  17.255  0.0035 -0.9316 -0.0545
  689TMC3     H10246   1.781   2.339  17.461 -0.2027  0.9966 -1.5092
  689TMC3    H110247   1.897   2.053  17.167 -1.3924 -0.1713  0.3707
  689TMC3    H210248   1.669   1.930  17.522  0.3511  1.2613  1.7258
  689TMC3    C710249   1.777   1.838  17.299 -0.2766  0.5522 -0.2089
  689TMC3    C810250   1.706   2.181  17.647  0.6964 -0.1048 -0.5871
  689TMC3    O110251   1.688   1.768  17.343 -0.5358  0.0961  0.4718
  689TMC3    O210252   1.748   2.291  17.681  0.3094 -0.0804 -0.0361
  690MPD2     C10253   4.063   4.268  16.122 -0.7076 -0.0284 -0.1678
  690MPD2    C110254   4.108   4.150  16.077 -0.1640  0.7617  0.3939
  690MPD2    C210255   4.171   4.147  15.949  0.5334 -0.6270 -0.1411
  690MPD2    C310256   4.181   4.258  15.871  1.1796 -0.1129  0.0765
  690MPD2    C410257   4.127   4.376  15.918  0.2695  0.1640 -0.5166
  690MPD2    C510258   4.073   4.381  16.040  0.1600  0.3339  0.3436
  690MPD2     H10259   4.222   4.056  15.919  1.4052  0.2639 -1.3237
  690MPD2    H110260   4.128   4.474  15.871  2.3875  0.1923 -0.4008
  690MPD2    H210261   4.023   4.282  16.222  0.9613  1.4844  0.3049
  690MPD2    H310262   4.024   4.472  16.074  0.3282  1.2423 -1.8423
  690MPD2     N10263   4.258   4.254  15.753  0.4771  0.0197 -0.5065
  690MPD2    H510264   4.314   4.174  15.724  2.1678  1.7030 -1.8862
  690MPD2    N110265   4.095   4.033  16.154  0.7710  0.4721 -0.8110
  690MPD2    H710266   4.127   3.947  16.113  0.7053  0.3208 -0.5487
  691TMC3    C110267   3.997   3.887  16.312  0.7242 -0.9641  0.1978
  691TMC3    C210268   3.864   3.855  16.328 -0.4923  0.4610  0.4656
  691TMC3    C310269   3.829   3.725  16.327  0.0786  0.2386  0.0283
  691TMC3    C410270   4.090   3.781  16.297 -0.1633 -0.1070  0.8144
  691TMC3    C510271   4.049   3.654  16.310  0.6066  0.6387  0.1605
  691TMC3    C610272   3.922   3.624  16.328 -0.3560 -0.4889 -0.4022
  691TMC3     C10273   4.015   4.024  16.267  0.0807 -0.6193 -0.8893
  691TMC3     O10274   3.927   4.102  16.298 -0.4560  0.1245 -0.2404
  691TMC3     H10275   3.785   3.928  16.326 -0.0424  0.8283 -2.5996
  691TMC3    H110276   4.191   3.799  16.263  0.2980 -2.9819  0.6618
  691TMC3    H210277   3.895   3.519  16.340 -0.7774 -0.1676  1.5939
  691TMC3    C710278   4.138   3.541  16.277 -0.6738 -0.5754 -0.9409
  691TMC3    C810279   3.699   3.700  16.260  0.7466  0.3535  0.4177
  691TMC3    O110280   4.262   3.552  16.293  0.8987 -0.1227 -0.2478
  691TMC3    O210281   3.688   3.578  16.237 -0.3816  0.2150  0.3366
  692TMC3    C110282   1.197   0.401  15.615  0.2111  0.3263  0.0541
  692TMC3    C210283   1.324   0.449  15.628  0.1320  0.3834  0.1830
  692TMC3    C310284   1.435   0.374  15.647  0.5876 -0.4582  0.0421
  692TMC3    C410285   1.175   0.266  15.625 -0.2693 -0.2357  0.3976
  692TMC3    C510286   1.288   0.191  15.656  0.0066 -0.2347  0.1400
  692TMC3    C610287   1.413   0.242  15.673 -0.5973  0.2775 -0.1557
  692TMC3     C10288   1.100   0.489  15.676 -0.0034  0.7456 -0.0458
  692TMC3     O10289   1.012   0.439  15.743 -0.0770  0.3354  0.2894
  692TMC3     H10290   1.344   0.542  15.576  0.8567  0.0283 -0.1708
  692TMC3    H110291   1.078   0.220  15.611  1.5301 -3.9084 -0.2740
  692TMC3    H210292   1.500   0.177  15.673 -1.7692 -1.3052  1.2629
  692TMC3    C710293   1.274   0.045  15.657 -0.0300  0.0573 -0.6622
  692TMC3    C810294   1.531   0.432  15.732  0.2699 -0.0842  0.3934
  692TMC3    O110295   1.199   4.736  15.575 -0.3111  0.9188  0.1004
  692TMC3    O210296   1.601   0.363  15.801  0.0542 -1.4920  0.6518
  693MPD2     C10297   0.819   3.321  10.648 -0.2502  0.0904  0.2464
  693MPD2    C110298   0.781   3.188  10.655  0.1128 -0.8355  0.0610
  693MPD2    C210299   0.864   3.083  10.626  0.3465  0.6084 -0.5903
  693MPD2    C310300   0.996   3.112  10.596 -0.1753 -0.0064 -0.1748
  693MPD2    C410301   1.044   3.240  10.604 -0.5741 -0.3226 -1.1660
  693MPD2    C510302   0.952   3.341  10.621 -0.3192  0.0206 -0.2575
  693MPD2     H10303   0.828   2.983  10.643 -0.1675  0.6841 -1.2267
  693MPD2    H110304   1.145   3.262  10.568 -0.6507  0.9460 -0.6137
  693MPD2    H210305   0.752   3.399  10.682 -1.7790 -1.4850  0.8377
  693MPD2    H310306   0.985   3.444  10.629 -1.2018  0.2170  0.8509
  693MPD2     N10307   1.087   3.004  10.591  0.4064 -0.4793  0.4592
  693MPD2    H510308   1.185   3.030  10.596 -0.0106  1.3564 -1.0992
  693MPD2    N110309   0.642   3.173  10.695  0.0989 -0.4407 -0.2332
  693MPD2    H710310   0.593   3.256  10.726 -0.6959 -1.4975  1.2809
  694TMC3    C110311   0.431   3.067  10.711  0.3393 -0.1694 -0.1557
  694TMC3    C210312   0.347   2.985  10.653  0.1935 -0.2571 -0.0569
  694TMC3    C310313   0.237   2.947  10.730 -0.3348  0.2518 -0.0929
  694TMC3    C410314   0.430   3.095  10.844  0.1607  0.0042 -0.4546
  694TMC3    C510315   0.329   3.038  10.927  0.2901 -0.0373 -0.2191
  694TMC3    C610316   0.225   2.967  10.869  0.4317  0.4301  0.1563
  694TMC3     C10317   0.565   3.066  10.656 -0.1391  0.5729 -0.1271
  694TMC3     O10318   0.591   2.970  10.586 -0.1279 -0.4704 -0.6197
  694TMC3     H10319   0.365   2.956  10.551 -0.3857  1.0568 -0.5343
  694TMC3    H110320   0.507   3.153  10.893 -1.2866  2.0228 -0.5250
  694TMC3    H210321   0.132   2.937  10.915  1.1203 -1.4443  0.3156
  694TMC3    C710322   0.339   3.054  11.074  0.3774 -0.2111  0.9428
  694TMC3    C810323   0.145   2.860  10.668 -1.4430 -0.2227  0.1504
  694TMC3    O110324   0.418   3.138  11.120 -0.6698  0.4800  0.3681
  694TMC3    O210325   0.093   2.774  10.739  0.1689 -0.0299 -0.2638
  695MPD2     C10326   1.621   0.113  13.574  0.0480 -0.2420  0.3053
  695MPD2    C110327   1.554   0.113  13.690  0.4495 -0.2998 -0.0617
  695MPD2    C210328   1.428   0.168  13.703 -0.0295 -0.4024  0.0194
  695MPD2    C310329   1.367   0.226  13.588 -0.4523 -0.8737 -0.1620
  695MPD2    C410330   1.435   0.218  13.467  0.4664  0.0684 -0.7033
  695MPD2    C510331   1.556   0.161  13.463 -0.4605 -0.4750 -0.1887
  695MPD2     H10332   1.371   0.167  13.795  1.0345 -1.2272  0.6588
  695MPD2    H110333   1.395   0.271  13.381 -1.8332  1.8623  1.4849
  695MPD2    H210334   1.722   0.079  13.557 -1.1291 -2.6803 -1.7428
  695MPD2    H310335   1.615   0.151  13.373  0.3517  0.4970  0.2359
  695MPD2     N10336   1.238   0.292  13.611  0.5299 -0.3539  0.3121
  695MPD2    H510337   1.213   0.302  13.709  1.4194  0.0485  0.5034
  695MPD2    N110338   1.604   0.054  13.809  0.1855  0.4205 -0.6370
  695MPD2    H710339   1.547   0.061  13.893  2.0561 -0.2723  0.6974
  696TMC3    C110340   1.054   0.429  13.575 -0.3306  0.2718  0.1179
  696TMC3    C210341   1.008   0.396  13.695  0.5989 -0.3460 -0.8621
  696TMC3    C310342   0.918   0.481  13.762 -0.7951  0.3418 -0.6935
  696TMC3    C410343   1.017   0.551  13.518 -0.0035 -0.0479 -0.4564
  696TMC3    C510344   0.918   0.630  13.583 -0.4884  0.0040  0.4353
  696TMC3    C610345   0.876   0.599  13.708 -0.0112 -0.3834  0.1495
  696TMC3     C10346   1.166   0.362  13.513 -0.2803  0.5413 -0.3140
  696TMC3     O10347   1.180   0.359  13.392  0.8725 -0.4987  0.1423
  696TMC3     H10348   1.046   0.309  13.747 -1.5881 -1.4401 -1.0664
  696TMC3    H110349   1.080   0.595  13.441 -0.0324  0.7489 -0.0266
  696TMC3    H210350   0.804   0.657  13.764 -0.0733 -1.0184  0.7312
  696TMC3    C710351   0.931   0.771  13.560  0.9597  0.7531  0.4046
  696TMC3    C810352   0.928   0.494  13.910 -0.0448 -0.0342  0.8707
  696TMC3    O110353   0.943   0.818  13.449 -0.0468 -0.0124  0.1365
  696TMC3    O210354   0.972   0.598  13.954  0.4878 -0.0298  0.2948
  697MPD2     C10355   0.815   2.122  15.827  0.4921  0.2943 -0.8959
  697MPD2    C110356   0.917   2.079  15.746 -0.4145  0.3136  0.3797
  697MPD2    C210357   0.979   2.167  15.663  0.6912 -0.1551  0.5583
  697MPD2    C310358   0.947   2.303  15.660  0.8158  0.0778 -0.3191
  697MPD2    C410359   0.848   2.348  15.749  0.0506 -0.2065  0.3407
  697MPD2    C510360   0.778   2.256  15.819 -0.1874 -0.5829 -0.2401
  697MPD2     H10361   1.065   2.131  15.609 -0.1502 -2.3139  0.6269
  697MPD2    H110362   0.805   2.448  15.743  0.4502 -0.0000  0.9142
  697MPD2    H210363   0.762   2.055  15.893  1.9017  1.2734  1.2060
  697MPD2    H310364   0.704   2.302  15.884  0.3103  0.1683 -0.1946
  697MPD2     N10365   1.027   2.377  15.567  0.3266  0.2015  0.7863
  697MPD2    H510366   1.093   2.322  15.514 -1.2202  1.0309 -1.9930
  697MPD2    N110367   0.955   1.949  15.740 -0.5682  0.3939 -0.0570
  697MPD2    H710368   1.036   1.925  15.683 -1.0171 -0.1474 -0.4716
  698TMC3    C110369   1.116   2.542  15.448 -0.3335 -0.3394  0.5871
  698TMC3    C210370   1.246   2.549  15.488  0.1338  0.5131  0.2145
  698TMC3    C310371   1.334   2.580  15.391 -0.4121  0.1512  0.1012
  698TMC3    C410372   1.077   2.539  15.325 -0.4583  0.0889 -0.8693
  698TMC3    C510373   1.176   2.548  15.228 -0.6220 -0.1510  0.2263
  698TMC3    C610374   1.305   2.571  15.260 -0.2145  0.0792  0.0050
  698TMC3     C10375   1.025   2.510  15.553 -0.3886  0.3549  0.0269
  698TMC3     O10376   0.943   2.589  15.600  0.1739 -0.4553 -0.2665
  698TMC3     H10377   1.279   2.552  15.591 -0.5848  0.4644  0.4509
  698TMC3    H110378   0.973   2.529  15.296 -0.9505  1.9189  0.2877
  698TMC3    H210379   1.381   2.588  15.184 -0.2851 -2.0912 -0.5663
  698TMC3    C710380   1.127   2.539  15.082 -0.7955  0.4479  0.6737
  698TMC3    C810381   1.458   2.649  15.436  0.4352 -0.4369  0.3596
  698TMC3    O110382   1.007   2.541  15.058  0.4642 -0.8508 -0.6223
  698TMC3    O210383   1.465   2.674  15.555 -0.9177  0.4449 -0.3681
  699TMC3    C110384   0.849   0.845  13.126  0.0509 -0.2757 -0.4884
  699TMC3    C210385   0.815   0.713  13.168 -0.6928  0.2351 -0.2972
  699TMC3    C310386   0.713   0.704  13.259  0.0297  0.1562  0.6465
  699TMC3    C410387   0.808   0.961  13.183  0.7787  0.1919  0.3500
  699TMC3    C510388   0.708   0.938  13.279 -0.5310  0.1769 -0.2954
  699TMC3    C610389   0.664   0.817  13.325 -0.4019 -0.3899  0.6227
  699TMC3     C10390   0.920   0.862  13.004  0.1538  0.6952  0.1075
  699TMC3     O10391   0.905   0.970  12.950  0.1666  0.3942 -0.2883
  699TMC3     H10392   0.867   0.628  13.126  0.1597  0.4729  0.2590
  699TMC3    H110393   0.828   1.060  13.141 -0.5367 -0.0867 -0.9496
  699TMC3    H210394   0.581   0.802  13.394 -0.4881 -0.0014  0.6007
  699TMC3    C710395   0.650   1.056  13.340 -0.3765 -0.3143 -0.1938
  699TMC3    C810396   0.672   0.569  13.295  0.2259  0.3007  0.1166
  699TMC3    O110397   0.721   1.158  13.344 -0.2351  0.3134 -0.1363
  699TMC3    O210398   0.637   0.543  13.409 -0.3921  1.2603 -0.2390
  700TMC3    C110399   4.680   2.768  16.947  0.3339  0.2288 -0.4608
  700TMC3    C210400   0.004   2.652  16.907 -0.5595 -0.4343  0.2274
  700TMC3    C310401   0.121   2.613  16.969  0.4587  0.1624  0.1334
  700TMC3    C410402   0.010   2.853  17.037 -0.6089 -0.3074 -0.4833
  700TMC3    C510403   0.134   2.818  17.087 -0.4164 -0.1459 -0.2181
  700TMC3    C610404   0.187   2.694  17.058  0.7679 -0.9768 -0.4667
  700TMC3     C10405   4.610   2.842  16.849  0.1156 -1.5109 -0.1859
  700TMC3     O10406   4.516   2.907  16.894 -0.4214 -0.1435  0.2103
  700TMC3     H10407   4.691   2.583  16.839 -0.7487 -0.4541  0.3882
  700TMC3    H110408   4.704   2.949  17.061  0.7764 -0.0345  0.8737
  700TMC3    H210409   0.276   2.662  17.110  0.8219 -1.7336 -1.0398
  700TMC3    C710410   0.229   2.930  17.087 -0.3582  0.4501 -0.0830
  700TMC3    C810411   0.181   2.479  16.952 -0.0779  0.5431 -0.1905
  700TMC3    O110412   0.341   2.904  17.131 -0.2417  0.2421  0.3085
  700TMC3    O210413   0.302   2.473  16.958 -0.4535  0.0016 -0.5671
  701TMC3    C110414   0.094   1.244  15.544  0.3856  0.4745  0.9418
  701TMC3    C210415   0.094   1.168  15.435  0.1296 -0.0307  0.3071
  701TMC3    C310416   0.194   1.193  15.339  0.0182 -0.6358 -0.9405
  701TMC3    C410417   0.195   1.328  15.582 -0.3368 -0.0437  0.2135
  701TMC3    C510418   0.292   1.349  15.490  0.0146  0.0812  0.0116
  701TMC3    C610419   0.290   1.284  15.365  0.5934 -0.3996 -0.2550
  701TMC3     C10420   4.737   1.221  15.652  0.2013 -0.4149 -0.1887
  701TMC3     O10421   4.724   1.312  15.728 -0.6050 -0.4901  0.1058
  701TMC3     H10422   0.010   1.104  15.412 -0.2714  1.2413 -1.7569
  701TMC3    H110423   0.182   1.391  15.669  0.1403  2.1364 -1.2911
  701TMC3    H210424   0.374   1.300  15.299  0.3905 -1.9307 -0.8864
  701TMC3    C710425   0.384   1.462  15.512  0.8590  0.7140  0.3414
  701TMC3    C810426   0.154   1.175  15.201 -0.6909  0.3934 -0.1279
  701TMC3    O110427   0.433   1.503  15.411 -0.3382 -0.1089  0.6210
  701TMC3    O210428   0.202   1.252  15.122 -0.3022 -0.1859 -0.2575
  702MPD2     C10429   4.561   3.296  10.474 -0.0928 -0.1760  0.5889
  702MPD2    C110430   4.421   3.295  10.488 -0.0691  0.2899  0.4376
  702MPD2    C210431   4.350   3.252  10.375  0.3626 -0.2459  0.3593
  702MPD2    C310432   4.410   3.217  10.251  0.5595 -0.9208  0.0243
  702MPD2    C410433   4.548   3.218  10.244  0.2830  0.7541 -0.1889
  702MPD2    C510434   4.618   3.264  10.350 -0.1343  0.4046  0.3145
  702MPD2     H10435   4.242   3.245  10.376  0.4792 -2.2540 -1.9534
  702MPD2    H110436   4.592   3.206  10.145 -1.3310 -2.2205 -0.5560
  702MPD2    H210437   4.624   3.339  10.551  1.1653 -0.9023 -0.0545
  702MPD2    H310438   4.726   3.276  10.347 -0.1774  0.9469  1.0658
  702MPD2     N10439   4.339   3.198  10.130 -1.0254  0.2194 -0.2283
  702MPD2    H510440   4.386   3.148  10.055 -0.8182 -2.4009  1.6176
  702MPD2    N110441   4.348   3.341  10.599 -0.6896  0.4962 -0.4239
  702MPD2    H710442   4.247   3.327  10.600 -0.6993  0.7374  1.5595
  703TMC3    C110443   4.171   3.380  10.159 -0.7089 -0.3883  0.5257
  703TMC3    C210444   4.038   3.381  10.192 -0.7129  1.1088  0.2376
  703TMC3    C310445   3.996   3.503  10.257  0.6197  0.1989  0.4698
  703TMC3    C410446   4.259   3.478  10.184  0.4001  0.0967 -0.1076
  703TMC3    C510447   4.214   3.585  10.255  0.2751  0.2389 -0.2769
  703TMC3    C610448   4.086   3.596  10.304 -0.4338 -0.1285  0.5773
  703TMC3     C10449   4.208   3.249  10.104  0.0994  0.2150  0.0699
  703TMC3     O10450   4.126   3.215  10.021 -0.0467  0.2001 -0.5079
  703TMC3     H10451   3.973   3.295  10.177  1.1939 -0.0957 -1.1398
  703TMC3    H110452   4.364   3.469  10.160  0.5759  3.9904 -0.7745
  703TMC3    H210453   4.061   3.695  10.341 -2.2428 -0.7021  0.8638
  703TMC3    C710454   4.316   3.669  10.318 -0.4096 -0.0828 -0.8558
  703TMC3    C810455   3.849   3.505  10.293 -0.0225 -0.0428  0.5416
  703TMC3    O110456   4.428   3.677  10.268 -0.0372  0.2522  0.1787
  703TMC3    O210457   3.790   3.407  10.247  0.4345 -0.1669 -0.3298
  704TMC3    C110458   2.979   2.065  13.037 -0.5179 -0.1341 -0.4488
  704TMC3    C210459   3.102   2.050  13.109  0.1763  1.0432  0.0849
  704TMC3    C310460   3.130   1.935  13.171 -0.3402 -0.0323 -0.0219
  704TMC3    C410461   2.870   1.987  13.062 -0.2906 -0.0786  0.9018
  704TMC3    C510462   2.894   1.898  13.173  0.4207 -0.0479  0.4945
  704TMC3    C610463   3.019   1.867  13.218 -0.2939  0.5242 -0.1585
  704TMC3     C10464   3.006   2.084  12.897 -0.1107 -0.2553 -0.4240
  704TMC3     O10465   3.110   2.122  12.849  0.5786  0.3110 -0.4192
  704TMC3     H10466   3.178   2.123  13.087 -0.2628  2.6683  4.0050
  704TMC3    H110467   2.770   2.013  13.028  1.0699  3.3259 -0.4719
  704TMC3    H210468   3.036   1.777  13.276 -1.9427 -1.3981 -2.6677
  704TMC3    C710469   2.786   1.796  13.191  0.0581  0.1983 -0.2664
  704TMC3    C810470   3.205   1.841  13.087 -0.4516 -0.6774 -0.4571
  704TMC3    O110471   2.701   1.790  13.105 -0.9531  0.3139  0.4450
  704TMC3    O210472   3.153   1.730  13.081 -0.1393  0.2321 -0.3560
  705MPD2     C10473   1.654   4.731  16.355 -0.2466  0.0191 -0.8550
  705MPD2    C110474   1.657   0.130  16.349 -0.2091  0.0645  0.4267
  705MPD2    C210475   1.542   0.200  16.384 -0.6880 -0.0436 -0.0787
  705MPD2    C310476   1.415   0.138  16.379  0.2439 -0.0880 -0.3415
  705MPD2    C410477   1.416   4.736  16.382 -1.0586 -0.0465 -0.2987
  705MPD2    C510478   1.532   4.668  16.361  0.1482 -0.0173 -0.4866
  705MPD2     H10479   1.554   0.308  16.380 -2.5474  0.1917  0.3870
  705MPD2    H110480   1.317   4.692  16.374 -0.7156 -0.4506 -2.1792
  705MPD2    H210481   1.739   4.671  16.324 -0.2544 -0.4253  0.0132
  705MPD2    H310482   1.521   4.566  16.327 -0.1475  0.3033 -1.3357
  705MPD2     N10483   1.292   0.204  16.378 -0.4220  0.2325  0.0264
  705MPD2    H510484   1.213   0.142  16.364 -0.8533  1.0828 -1.2758
  705MPD2    N110485   1.775   0.206  16.327 -0.3368  0.4789  0.4063
  705MPD2    H710486   1.767   0.307  16.333 -0.5812  0.5917 -1.6785
  706TMC3    C110487   2.123   0.302  16.049  0.5275 -0.3785 -0.0655
  706TMC3    C210488   2.143   0.427  16.101 -0.5787  0.7209 -0.1643
  706TMC3    C310489   2.085   0.463  16.221  0.5765  0.7801  0.9714
  706TMC3    C410490   2.061   0.203  16.119  0.7184 -0.6693  0.2438
  706TMC3    C510491   1.994   0.246  16.234 -1.4626  0.0360  0.3628
  706TMC3    C610492   2.009   0.365  16.292 -0.0746 -0.1692 -0.0974
  706TMC3     C10493   2.195   0.252  15.933  0.2216 -0.9091  0.2973
  706TMC3     O10494   2.128   0.198  15.839  0.0780 -0.5254  0.0451
  706TMC3     H10495   2.170   0.504  16.030 -1.8131 -0.7355 -2.2110
  706TMC3    H110496   2.045   0.105  16.077  3.1283 -1.2042  0.5216
  706TMC3    H210497   1.966   0.404  16.384 -0.7832  1.3523 -1.0934
  706TMC3    C710498   1.895   0.154  16.289  0.2637 -0.4578 -0.0774
  706TMC3    C810499   2.041   0.605  16.226  0.3302 -0.0411 -0.2237
  706TMC3    O110500   1.922   0.040  16.256  0.3113  0.1992 -0.4431
  706TMC3    O210501   2.000   0.646  16.120 -0.2887 -0.6843 -0.2711
  707TMC3    C110502   4.117   4.150   1.540  0.1437  0.5460 -0.0957
  707TMC3    C210503   4.207   4.050   1.550 -0.1783  0.1749  0.5393
  707TMC3    C310504   4.160   3.922   1.579 -0.4450  0.4010  0.0961
  707TMC3    C410505   3.983   4.118   1.566  0.0099 -0.3787  0.5856
  707TMC3    C510506   3.943   3.987   1.598 -0.7307 -0.8233 -0.8215
  707TMC3    C610507   4.033   3.889   1.612 -0.0182 -0.0089 -0.0359
  707TMC3     C10508   4.159   4.272   1.476  0.4409 -0.2290 -0.4125
  707TMC3     O10509   4.236   4.334   1.546  0.0515  0.4013  0.9314
  707TMC3     H10510   4.314   4.061   1.538 -0.2711  0.7950  0.3106
  707TMC3    H110511   3.915   4.202   1.567 -2.4053 -2.3469  1.0942
  707TMC3    H210512   4.000   3.790   1.641 -1.6519  1.0511  1.7069
  707TMC3    C710513   3.810   3.952   1.549 -0.5904 -0.6387  0.4131
  707TMC3    C810514   4.261   3.813   1.579 -0.6276  0.6738 -0.5738
  707TMC3    O110515   3.769   3.843   1.578  0.1062 -0.0986  0.6153
  707TMC3    O210516   4.377   3.850   1.569  0.1101  0.2277  0.6932
  708MPD2     C10517   4.691   3.627  13.458  0.5290  0.9234  0.0490
  708MPD2    C110518   0.017   3.515  13.505 -0.2211 -0.3199  0.2392
  708MPD2    C210519   0.100   3.529  13.611 -0.4625  0.7374 -1.1707
  708MPD2    C310520   0.134   3.654  13.658  0.1751 -0.1994 -0.8399
  708MPD2    C410521   0.062   3.766  13.610  0.0260  0.0353  0.1088
  708MPD2    C510522   4.712   3.748  13.515  0.1131 -0.3321  0.8229
  708MPD2     H10523   0.151   3.451  13.666  0.6315 -0.6174 -4.0714
  708MPD2    H110524   0.087   3.865  13.644 -0.6197  0.8493 -1.7675
  708MPD2    H210525   4.603   3.625  13.396  0.7700  0.2979 -0.2658
  708MPD2    H310526   4.659   3.836  13.479 -1.0591 -0.9738  0.9897
  708MPD2     N10527   0.232   3.678  13.750  0.7385 -0.3505 -0.1213
  708MPD2    H510528   0.247   3.777  13.765 -0.0804 -0.4756  1.5197
  708MPD2    N110529   0.012   3.383  13.456 -0.0690 -0.4478 -0.4488
  708MPD2    H710530   0.057   3.311  13.513  0.0467 -0.1896 -0.2107
  709TMC3    C110531   4.719   3.193  13.325 -1.1168 -0.1168 -0.2670
  709TMC3    C210532   0.040   3.161  13.203  0.3762 -0.2744 -0.4561
  709TMC3    C310533   0.146   3.078  13.211  0.0603  0.3775 -0.4972
  709TMC3    C410534   0.012   3.134  13.444 -0.3433 -0.3696  0.4399
  709TMC3    C510535   0.116   3.054  13.450 -0.1754 -0.3799  0.4038
  709TMC3    C610536   0.186   3.030  13.333 -0.2572  1.1060 -0.3364
  709TMC3     C10537   4.692   3.333  13.337  0.0133  0.0975 -0.0970
  709TMC3     O10538   4.652   3.403  13.244 -0.3072 -0.1323 -0.1836
  709TMC3     H10539   0.004   3.203  13.109 -1.3119 -0.3750  0.1347
  709TMC3    H110540   4.698   3.162  13.535 -2.1030  0.2845 -0.7384
  709TMC3    H210541   0.274   2.966  13.329 -0.5092  0.7723 -0.5720
  709TMC3    C710542   0.204   3.085  13.566  0.4051  0.5791  0.1433
  709TMC3    C810543   0.180   2.990  13.102  0.0320 -0.4516  0.7312
  709TMC3    O110544   0.185   3.200  13.602 -0.0194  0.1699  0.3095
  709TMC3    O210545   0.240   2.888  13.120  0.6661 -0.4224 -0.3147
  710TMC3    C110546   0.738   0.157   0.013  0.0332 -0.0966 -0.2750
  710TMC3    C210547   0.801   0.142  17.644 -0.3644 -0.1073 -0.2458
  710TMC3    C310548   0.914   0.063  17.642 -0.6157 -0.1628 -0.6734
  710TMC3    C410549   0.780   0.087   0.126  0.0943  0.1208  0.2946
  710TMC3    C510550   0.899   0.017   0.119 -0.6167  0.4552  0.3526
  710TMC3    C610551   0.962   4.734   0.003  0.3640  0.4515  0.0379
  710TMC3     C10552   0.627   0.256   0.030  0.5464  0.4033  0.0512
  710TMC3     O10553   0.534   0.244  17.698 -0.2895  0.6025  0.2524
  710TMC3     H10554   0.778   0.194  17.552  0.2607 -0.1812 -0.4461
  710TMC3    H110555   0.719   0.091   0.216  0.6552 -0.1047  0.6879
  710TMC3    H210556   1.048   4.668  17.746  0.6351  0.7209  1.3395
  710TMC3    C710557   0.946   4.682   0.237 -0.0113 -0.5134  0.2471
  710TMC3    C810558   1.021   0.100  17.548 -0.3546 -0.2237  0.2945
  710TMC3    O110559   1.055   4.621   0.237 -0.2066  0.1801 -0.5837
  710TMC3    O210560   0.985   0.158  17.446 -0.3164 -0.2282  0.2130
  711TMC3    C110561   0.981   1.060  15.102  0.0877  0.4376 -0.1710
  711TMC3    C210562   1.026   1.161  15.181 -0.5840 -0.3636 -0.4751
  711TMC3    C310563   1.128   1.150  15.265 -0.1314 -0.0293 -0.2240
  711TMC3    C410564   1.045   0.935  15.110  0.2702 -0.2208  0.7807
  711TMC3    C510565   1.145   0.925  15.203 -0.5752 -0.3624  0.2925
  711TMC3    C610566   1.185   1.031  15.280 -0.1252 -0.2507  0.2417
  711TMC3     C10567   0.842   1.052  15.066 -0.2867 -0.7842 -0.0835
  711TMC3     O10568   0.805   0.962  14.995  0.1277 -0.0860 -0.0202
  711TMC3     H10569   0.988   1.261  15.167  0.8698  0.4625  1.5760
  711TMC3    H110570   1.004   0.860  15.044  1.6445  0.1195 -0.4753
  711TMC3    H210571   1.271   1.025  15.346 -0.2915  0.2771  0.5061
  711TMC3    C710572   1.172   0.790  15.256  0.4951 -0.9350  0.3610
  711TMC3    C810573   1.111   1.225  15.388 -0.3167  0.2888 -0.4711
  711TMC3    O110574   1.272   0.780  15.328 -0.1446 -0.4441  0.1616
  711TMC3    O210575   0.996   1.234  15.422 -0.0120 -0.4506 -0.3791
  712MPD2     C10576   2.371   1.860  13.625  0.0390 -0.1185  0.8441
  712MPD2    C110577   2.338   1.932  13.519  0.5710  0.7041 -0.2505
  712MPD2    C210578   2.367   2.068  13.511  0.5145  0.0496  0.0484
  712MPD2    C310579   2.409   2.134  13.626 -0.5563 -0.0492 -0.2354
  712MPD2    C410580   2.447   2.060  13.738 -0.1810  0.1259  0.3813
  712MPD2    C510581   2.418   1.925  13.734  0.3024 -0.0074 -0.5606
  712MPD2     H10582   2.356   2.118  13.416  2.0270  0.8938  0.3148
  712MPD2    H110583   2.482   2.102  13.831  0.1538 -1.9038  1.1649
  712MPD2    H210584   2.370   1.751  13.628 -1.6260 -0.1673 -0.7477
  712MPD2    H310585   2.448   1.875  13.826  0.7696  0.2104 -0.5968
  712MPD2     N10586   2.428   2.278  13.621  0.0384 -0.4599  0.0858
  712MPD2    H510587   2.478   2.318  13.700 -0.8197  0.2364  0.2872
  712MPD2    N110588   2.280   1.871  13.405 -0.1643  0.4602  0.4638
  712MPD2    H710589   2.269   1.929  13.323 -1.4862  0.4736  0.6465
  713TMC3    C110590   2.382   2.498  13.541  0.3209  0.1465 -0.8465
  713TMC3    C210591   2.495   2.547  13.604 -0.7858  0.2079  0.2545
  713TMC3    C310592   2.514   2.683  13.621  0.0013 -0.0112 -0.4942
  713TMC3    C410593   2.277   2.582  13.512 -0.2058 -0.2187  0.8462
  713TMC3    C510594   2.297   2.715  13.529  0.0589 -0.0342  0.4847
  713TMC3    C610595   2.412   2.764  13.580 -0.1658  0.2260 -0.1646
  713TMC3     C10596   2.368   2.360  13.521 -0.0635 -0.4085 -0.1157
  713TMC3     O10597   2.292   2.329  13.433  0.5922 -0.2096 -0.1211
  713TMC3     H10598   2.580   2.482  13.620 -1.2608 -0.8770 -1.6029
  713TMC3    H110599   2.187   2.534  13.474  1.0273  0.5741 -3.0156
  713TMC3    H210600   2.429   2.871  13.591  0.7139  0.0405  0.3465
  713TMC3    C710601   2.187   2.806  13.511 -0.5912  0.5071 -0.8213
  713TMC3    C810602   2.652   2.727  13.600  0.4634  0.0865  0.4585
  713TMC3    O110603   2.194   2.919  13.559  0.0619 -0.0869  1.1364
  713TMC3    O210604   2.664   2.823  13.530 -0.2043 -0.3111  0.4564
  714MPD2     C10605   4.540   1.262   1.483 -0.0350  0.0033  0.1610
  714MPD2    C110606   4.536   1.190   1.368  0.7377  0.5799  0.4698
  714MPD2    C210607   4.416   1.192   1.293  0.4025  0.6389 -0.8154
  714MPD2    C310608   4.306   1.261   1.338  0.6925  0.1579  0.2353
  714MPD2    C410609   4.313   1.337   1.455  0.3640 -0.3676 -0.3650
  714MPD2    C510610   4.433   1.334   1.521 -0.3838 -0.5695  0.1923
  714MPD2     H10611   4.411   1.137   1.199  2.7414 -0.2772 -0.4162
  714MPD2    H110612   4.252   1.421   1.484 -1.6337 -2.1358  0.6050
  714MPD2    H210613   4.628   1.257   1.546 -0.2919 -2.1286  0.3191
  714MPD2    H310614   4.448   1.398   1.607 -1.3147  0.7106 -0.5840
  714MPD2     N10615   4.196   1.284   1.256  0.2531 -0.0498 -0.6304
  714MPD2    H510616   4.190   1.226   1.173 -0.4333 -0.8111 -0.0483
  714MPD2    N110617   4.654   1.117   1.335  0.5802 -0.2635 -0.6575
  714MPD2    H710618   4.733   1.126   1.399  0.4532  4.1340 -1.0854
  715TMC3    C110619   0.069   0.988   1.214 -0.2672  0.1277  1.4223
  715TMC3    C210620   0.084   0.890   1.115  0.0755 -0.7067 -0.0622
  715TMC3    C310621   0.213   0.848   1.093  0.0132 -0.2774 -0.2655
  715TMC3    C410622   0.173   1.047   1.279  0.3956 -0.2924 -0.2527
  715TMC3    C510623   0.300   1.009   1.242 -0.3516 -0.3920 -0.6768
  715TMC3    C610624   0.325   0.910   1.151  0.1091 -0.1191  0.6760
  715TMC3     C10625   4.668   1.022   1.237 -0.9972  0.2957  0.6948
  715TMC3     O10626   4.592   0.987   1.148  0.8907 -0.4989  0.0220
  715TMC3     H10627   4.736   0.844   1.068  0.3012 -1.4657  0.2679
  715TMC3    H110628   0.153   1.129   1.347 -1.2804  0.9519 -2.2669
  715TMC3    H210629   0.424   0.868   1.154  0.8281  1.5726  0.5218
  715TMC3    C710630   0.407   1.086   1.303 -0.6949 -0.6408 -0.0375
  715TMC3    C810631   0.221   0.712   1.043 -0.0544 -0.2782  0.1866
  715TMC3    O110632   0.505   1.105   1.235  0.4489  0.1506  0.7189
  715TMC3    O210633   0.123   0.642   1.026 -0.3243  0.0158 -0.3512
  716MPD2     C10634   3.653   3.452   8.746 -0.2864  0.1592  0.4616
  716MPD2    C110635   3.718   3.360   8.823 -0.7352 -0.6217  0.3761
  716MPD2    C210636   3.666   3.231   8.813 -0.9703  0.2341  0.1584
  716MPD2    C310637   3.554   3.198   8.745  0.4856 -0.4310 -0.2938
  716MPD2    C410638   3.481   3.287   8.670  0.1102 -0.5632 -0.0248
  716MPD2    C510639   3.542   3.409   8.668  0.0196  0.0350  0.6152
  716MPD2     H10640   3.719   3.156   8.870  0.4073  0.6295 -0.6049
  716MPD2    H110641   3.390   3.267   8.615  0.7395 -2.1143 -0.5031
  716MPD2    H210642   3.687   3.555   8.755  0.9731 -0.0938 -1.1901
  716MPD2    H310643   3.487   3.482   8.610 -0.3269  0.2988  1.2783
  716MPD2     N10644   3.508   3.064   8.759  0.4609 -0.6169  0.1640
  716MPD2    H510645   3.559   3.005   8.824  1.4400  1.7241  1.5004
  716MPD2    N110646   3.815   3.403   8.912  0.0980  0.1059  0.0474
  716MPD2    H710647   3.816   3.500   8.942  1.3434  0.0027  0.3489
  717TMC3    C110648   3.352   2.896   8.794 -0.0974 -0.4289 -0.1888
  717TMC3    C210649   3.213   2.881   8.809 -0.6645 -0.5109  0.0089
  717TMC3    C310650   3.171   2.792   8.905  0.7517 -0.3007  0.2477
  717TMC3    C410651   3.436   2.817   8.864 -0.3323 -0.1993  0.2220
  717TMC3    C510652   3.392   2.719   8.949  0.0999 -0.5525 -0.8698
  717TMC3    C610653   3.257   2.709   8.976 -0.3269  0.3146 -0.3193
  717TMC3     C10654   3.386   3.015   8.717 -0.4628  0.6673  0.2617
  717TMC3     O10655   3.308   3.063   8.637  0.7307  0.1984 -0.0567
  717TMC3     H10656   3.145   2.937   8.746  0.9498  1.8858  0.3687
  717TMC3    H110657   3.543   2.831   8.858 -0.1576 -1.7500 -0.1641
  717TMC3    H210658   3.215   2.640   9.048  0.2196 -0.0991 -0.3980
  717TMC3    C710659   3.489   2.648   9.026  0.8359 -0.0586 -0.7364
  717TMC3    C810660   3.030   2.810   8.939 -0.2193  0.1089  0.6289
  717TMC3    O110661   3.603   2.667   8.984 -0.1237  0.4071  0.1327
  717TMC3    O210662   2.978   2.917   8.909 -0.1642 -0.0202  0.5927
  718MPD2     C10663   4.102   2.789  13.010 -0.1299 -0.4236  0.1050
  718MPD2    C110664   4.110   2.696  12.915  0.1160  0.0023 -0.2509
  718MPD2    C210665   4.083   2.564  12.954 -0.0757 -0.3702  0.3044
  718MPD2    C310666   4.066   2.523  13.085  0.1451 -0.5504 -0.0579
  718MPD2    C410667   4.074   2.620  13.180  0.1012 -0.2014 -0.4538
  718MPD2    C510668   4.088   2.750  13.138  0.4966 -0.1232  0.1490
  718MPD2     H10669   4.058   2.491  12.877  0.6248  0.0727 -0.3433
  718MPD2    H110670   4.063   2.593  13.284 -1.3996  0.0530 -0.5518
  718MPD2    H210671   4.100   2.896  12.992  2.5527 -0.8032 -2.2397
  718MPD2    H310672   4.073   2.830  13.209 -0.2426 -1.2636  1.2769
  718MPD2     N10673   4.047   2.390  13.121  0.5878  0.2597  0.0872
  718MPD2    H510674   4.015   2.366  13.214  1.1023  1.0196  0.4572
  718MPD2    N110675   4.106   2.731  12.783  0.9181  0.4695 -0.6932
  718MPD2    H710676   4.078   2.826  12.765 -0.7630  0.7142  3.3410
  719TMC3    C110677   4.134   2.701  12.545 -0.5557 -0.8290 -0.2703
  719TMC3    C210678   4.159   2.595  12.457 -0.5937 -0.2717  0.5972
  719TMC3    C310679   4.091   2.588  12.341 -1.0213 -0.1687 -0.0423
  719TMC3    C410680   4.042   2.795  12.509 -0.0434 -0.2576 -0.0891
  719TMC3    C510681   3.979   2.792  12.387 -0.0833  0.4062 -0.7352
  719TMC3    C610682   4.003   2.692  12.302 -0.5901 -0.2386 -0.3200
  719TMC3     C10683   4.146   2.648  12.683  0.0193  0.2706 -0.4885
  719TMC3     O10684   4.178   2.529  12.696 -0.0793  0.5681  0.1894
  719TMC3     H10685   4.240   2.528  12.482  1.1199  0.8591 -1.8904
  719TMC3    H110686   4.023   2.876  12.578  1.1082 -0.3804  0.3684
  719TMC3    H210687   3.948   2.680  12.209 -1.7451  1.3365  0.1722
  719TMC3    C710688   3.966   2.918  12.312 -0.7582  0.3528  0.0029
  719TMC3    C810689   4.038   2.453  12.316  0.1648 -0.2368  0.2548
  719TMC3    O110690   3.975   2.909  12.190 -0.4060 -0.6785 -0.1322
  719TMC3    O210691   3.972   2.430  12.217 -0.0682 -0.2606 -0.5465
  720MPD2     C10692   2.328   3.605  13.664  0.5262  0.8487  0.0959
  720MPD2    C110693   2.422   3.660  13.578  0.3439  0.2722  0.0444
  720MPD2    C210694   2.554   3.672  13.612 -0.5103  0.0560  0.1272
  720MPD2    C310695   2.599   3.639  13.743  1.0833 -0.2993 -0.2522
  720MPD2    C410696   2.508   3.572  13.819  0.2252  0.5808 -0.7325
  720MPD2    C510697   2.378   3.547  13.781  0.0824 -0.5587 -0.6405
  720MPD2     H10698   2.614   3.733  13.545 -0.0350 -0.0861  0.4210
  720MPD2    H110699   2.534   3.535  13.918  1.8589 -2.4725 -2.3267
  720MPD2    H210700   2.222   3.599  13.641  0.8419 -1.3355 -0.7752
  720MPD2    H310701   2.302   3.501  13.843  0.4130  1.6310  1.3653
  720MPD2     N10702   2.734   3.678  13.780  0.5016 -0.0771  0.4286
  720MPD2    H510703   2.783   3.735  13.712 -0.5338 -0.6119 -0.7807
  720MPD2    N110704   2.385   3.723  13.455  0.6589 -0.0711 -0.5835
  720MPD2    H710705   2.462   3.757  13.398 -0.2856  0.7067 -1.3868
  721TMC3    C110706   2.912   3.722  13.940 -0.2104 -0.2302 -0.5416
  721TMC3    C210707   2.970   3.691  14.060 -0.6643 -0.5321 -0.0005
  721TMC3    C310708   3.086   3.753  14.088  0.8269  0.2476  0.5792
  721TMC3    C410709   2.964   3.820  13.857 -0.0263 -0.2097  0.5181
  721TMC3    C510710   3.077   3.879  13.895  0.1163 -0.3619  0.6165
  721TMC3    C610711   3.142   3.848  14.016 -0.4653  0.5927  0.2055
  721TMC3     C10712   2.788   3.647  13.904  0.4112  0.3231 -0.4471
  721TMC3     O10713   2.760   3.547  13.961  0.1085  0.2699 -0.4955
  721TMC3     H10714   2.929   3.607  14.114  0.1850 -1.6104 -1.0237
  721TMC3    H110715   2.904   3.860  13.776  0.2708 -0.7647  0.0226
  721TMC3    H210716   3.235   3.897  14.044  0.2551 -0.2386 -0.7154
  721TMC3    C710717   3.163   3.933  13.795 -0.6516  0.4700  0.2765
  721TMC3    C810718   3.155   3.727  14.212  0.3497 -0.3641 -0.3584
  721TMC3    O110719   3.270   3.978  13.840 -0.0701 -0.0662 -0.7442
  721TMC3    O210720   3.271   3.707  14.208 -0.5484  0.0769  0.0619
  722MPD2     C10721   1.432   2.296  13.092 -0.2400  0.1049  0.2928
  722MPD2    C110722   1.378   2.423  13.073  1.2787 -0.8072 -0.4840
  722MPD2    C210723   1.268   2.463  13.146  0.2706 -0.7336  0.2583
  722MPD2    C310724   1.215   2.381  13.238  0.1486  0.3131  0.8591
  722MPD2    C410725   1.276   2.257  13.267 -0.1197  0.0334 -0.0725
  722MPD2    C510726   1.379   2.215  13.191 -0.1409 -0.1124 -0.7236
  722MPD2     H10727   1.232   2.565  13.135  0.5130 -0.5934  0.7727
  722MPD2    H110728   1.240   2.197  13.350 -0.9572  0.7099  0.0525
  722MPD2    H210729   1.527   2.259  13.056 -1.2216  0.9563 -3.1109
  722MPD2    H310730   1.442   2.131  13.217 -1.8047 -0.8446  0.9394
  722MPD2     N10731   1.091   2.421  13.305 -0.1508 -0.0854  0.9077
  722MPD2    H510732   1.055   2.513  13.283 -0.5396 -0.5685 -0.4774
  722MPD2    N110733   1.440   2.514  12.982 -0.3393 -0.3212  0.1745
  722MPD2    H710734   1.380   2.594  12.966  1.3951  0.9328 -0.0282
  723TMC3    C110735   0.898   2.385  13.423  0.0659  0.9250  0.4683
  723TMC3    C210736   0.796   2.290  13.432 -0.3712  0.2648  0.4740
  723TMC3    C310737   0.670   2.344  13.456 -0.0115  0.2684 -0.4994
  723TMC3    C410738   0.883   2.512  13.461  0.1688  0.0991  0.8557
  723TMC3    C510739   0.760   2.557  13.494  0.5152  0.3165  0.4328
  723TMC3    C610740   0.652   2.471  13.497  0.1458 -0.7609 -0.8240
  723TMC3     C10741   1.030   2.333  13.386  0.0315 -0.0184 -0.3767
  723TMC3     O10742   1.021   2.214  13.385  0.0080 -0.1244  0.6700
  723TMC3     H10743   0.808   2.190  13.392  0.3997  1.2256 -1.6956
  723TMC3    H110744   0.968   2.578  13.459  0.7434 -0.7702 -2.1938
  723TMC3    H210745   0.552   2.512  13.505  0.7529 -0.1760  3.9695
  723TMC3    C710746   0.738   2.700  13.464 -0.4547  0.0093  0.7479
  723TMC3    C810747   0.559   2.266  13.454 -0.1750 -0.1406 -0.3110
  723TMC3    O110748   0.805   2.791  13.514  0.3611 -0.0997 -0.1438
  723TMC3    O210749   0.474   2.274  13.544 -0.2925 -0.0900  0.3005
  724TMC3    C110750   1.251   0.593  11.234  0.0882 -0.2921 -0.7583
  724TMC3    C210751   1.225   0.471  11.179  0.3072 -0.7772  0.4549
  724TMC3    C310752   1.272   0.449  11.050 -0.5922  0.0123 -0.5622
  724TMC3    C410753   1.333   0.683  11.172 -0.6263  0.1409 -0.2982
  724TMC3    C510754   1.372   0.660  11.049 -0.0933  0.1648  0.2185
  724TMC3    C610755   1.345   0.545  10.985  0.7835 -0.1112 -0.0074
  724TMC3     C10756   1.217   0.626  11.367 -0.3957 -0.1935  0.2604
  724TMC3     O10757   1.290   0.706  11.425  0.6090 -0.2135 -0.2219
  724TMC3     H10758   1.190   0.387  11.238  0.5635 -0.3753  1.1818
  724TMC3    H110759   1.389   0.753  11.234  1.2898 -1.3363 -0.3965
  724TMC3    H210760   1.373   0.528  10.882 -0.0115 -2.1505  0.1135
  724TMC3    C710761   1.446   0.765  10.978 -0.2738 -0.5659  0.0085
  724TMC3    C810762   1.250   0.309  11.003  0.2859 -0.2359 -0.3006
  724TMC3    O110763   1.506   0.738  10.875 -0.5044 -0.0610 -0.3849
  724TMC3    O210764   1.192   0.237  11.085  0.4483  0.2845  0.2829
  725TMC3    C110765   2.827   4.537  12.643 -0.4461 -0.3924 -0.0326
  725TMC3    C210766   2.799   4.506  12.512  0.4619 -0.0264  0.1702
  725TMC3    C310767   2.685   4.436  12.481  0.1589  0.0156  0.3105
  725TMC3    C410768   2.751   4.484  12.742 -0.6880  0.0294 -0.2513
  725TMC3    C510769   2.637   4.409  12.709  0.1570 -0.3341 -0.4673
  725TMC3    C610770   2.603   4.391  12.579  0.8139  0.2881 -0.1400
  725TMC3     C10771   2.958   4.591  12.684  0.1737  0.1116  0.3469
  725TMC3     O10772   2.988   4.688  12.619  0.3500 -0.0944  0.1414
  725TMC3     H10773   2.878   4.522  12.439  1.4647 -0.8435  1.0818
  725TMC3    H110774   2.775   4.501  12.846 -2.9907  1.2290  0.0775
  725TMC3    H210775   2.507   4.348  12.551  1.4863 -1.5030  0.3466
  725TMC3    C710776   2.541   4.360  12.812  0.0607 -0.6469 -0.7385
  725TMC3    C810777   2.646   4.426  12.344 -0.3149 -0.0178 -0.0289
  725TMC3    O110778   2.426   4.388  12.786 -0.2970  0.5273  0.2189
  725TMC3    O210779   2.527   4.407  12.324 -0.0145  0.6958 -0.3384
  726MPD2     C10780   0.685   1.144  10.403 -0.7711 -0.5508 -0.3818
  726MPD2    C110781   0.565   1.201  10.409 -0.3780  0.6400 -0.1387
  726MPD2    C210782   0.452   1.123  10.428  0.7055 -0.0222 -0.1691
  726MPD2    C310783   0.469   0.983  10.443 -0.1817  0.1519  0.7526
  726MPD2    C410784   0.593   0.928  10.435  0.9020  0.2367 -0.1326
  726MPD2    C510785   0.700   1.009  10.418 -0.6428 -0.7079 -0.1114
  726MPD2     H10786   0.352   1.164  10.428  0.5090 -0.4991 -0.1855
  726MPD2    H110787   0.597   0.819  10.442 -1.8536  0.1064 -0.5149
  726MPD2    H210788   0.772   1.207  10.390 -1.9897  1.4084  0.9881
  726MPD2    H310789   0.797   0.962  10.404 -0.2147  0.2113 -0.2002
  726MPD2     N10790   0.370   0.892  10.481  0.5017 -0.3149 -0.3004
  726MPD2    H510791   0.399   0.795  10.489 -1.7544 -0.8868  0.6292
  726MPD2    N110792   0.551   1.346  10.390  0.1535  0.1697  0.3307
  726MPD2    H710793   0.460   1.385  10.369 -0.2353 -1.1589 -0.4184
  727TMC3    C110794   0.625   1.567  10.427 -0.1545 -0.2273  0.2030
  727TMC3    C210795   0.713   1.650  10.493  0.1285  0.8741 -0.2382
  727TMC3    C310796   0.679   1.777  10.520 -0.4245 -0.0561  0.7551
  727TMC3    C410797   0.503   1.617  10.391  0.0586  0.1301 -0.2121
  727TMC3    C510798   0.475   1.747  10.417 -0.1445 -0.0552 -0.6097
  727TMC3    C610799   0.558   1.831  10.485  0.0423  0.2336  0.3311
  727TMC3     C10800   0.653   1.426  10.440  0.3829  0.1585  0.4075
  727TMC3     O10801   0.745   1.402  10.511  0.0769  0.2595  0.0624
  727TMC3     H10802   0.811   1.608  10.515  0.7806  2.4994 -0.0604
  727TMC3    H110803   0.431   1.550  10.345  0.1581 -0.0425 -0.1137
  727TMC3    H210804   0.529   1.929  10.520  1.5240  1.0002 -0.6201
  727TMC3    C710805   0.334   1.794  10.405 -0.2537 -0.2326  0.1467
  727TMC3    C810806   0.782   1.858  10.590 -0.9726 -0.1255 -0.5464
  727TMC3    O110807   0.310   1.903  10.458 -0.1000  0.3226  0.1242
  727TMC3    O210808   0.877   1.796  10.632  0.4596 -0.2893  0.3153
  728TMC3    C110809   4.374   4.341  15.567  0.0142 -0.7672 -0.0335
  728TMC3    C210810   4.493   4.303  15.623  1.2250  0.8068  0.7281
  728TMC3    C310811   4.608   4.350  15.565 -0.1510  0.1296 -0.6318
  728TMC3    C410812   4.368   4.418  15.452  0.3679 -0.0795  0.4284
  728TMC3    C510813   4.487   4.453  15.394  0.1344 -0.2774  0.2755
  728TMC3    C610814   4.605   4.424  15.444  0.5306  0.9402 -0.3784
  728TMC3     C10815   4.257   4.349  15.661 -0.0391  0.8757 -0.2475
  728TMC3     O10816   4.184   4.444  15.644 -0.2126  0.5566 -0.0939
  728TMC3     H10817   4.496   4.239  15.710 -0.0556 -0.8066 -0.4096
  728TMC3    H110818   4.272   4.459  15.421  0.5605  0.4685  0.5478
  728TMC3    H210819   4.694   4.459  15.392 -0.4062  0.4835 -2.2853
  728TMC3    C710820   4.474   4.513  15.268 -0.4097  0.3268 -0.1705
  728TMC3    C810821   4.724   4.329  15.641  0.2759 -0.0170  0.0926
  728TMC3    O110822   4.362   4.507  15.212 -0.2028 -0.2234 -0.2698
  728TMC3    O210823   4.708   4.290  15.758 -0.0425 -0.1477  0.8988
  729MPD2     C10824   2.406   0.669  16.653  0.6796 -0.0598  0.3756
  729MPD2    C110825   2.532   0.723  16.660  0.2169  0.5148 -0.7341
  729MPD2    C210826   2.578   0.753  16.782 -0.4426 -0.2435  0.5168
  729MPD2    C310827   2.514   0.730  16.895  0.0274  0.5583  0.1550
  729MPD2    C410828   2.392   0.671  16.892 -0.6677 -0.3189 -0.0256
  729MPD2    C510829   2.337   0.642  16.769  0.4830 -0.5025 -0.0607
  729MPD2     H10830   2.675   0.799  16.792 -0.1131 -0.1440 -3.1580
  729MPD2    H110831   2.334   0.657  16.982 -0.0126 -1.4275  0.2154
  729MPD2    H210832   2.357   0.644  16.560 -1.2003 -0.6428  1.5146
  729MPD2    H310833   2.234   0.609  16.759  0.1288  0.0179  1.8973
  729MPD2     N10834   2.559   0.782  17.021 -0.1836  0.0986  0.1862
  729MPD2    H510835   2.495   0.803  17.096 -2.3356 -0.3737 -1.5107
  729MPD2    N110836   2.610   0.749  16.547  0.1615 -0.2275  0.0423
  729MPD2    H710837   2.704   0.780  16.568 -1.2500  0.6287  5.1326
  730TMC3    C110838   2.713   0.909  17.157 -0.4571  0.5201 -0.3967
  730TMC3    C210839   2.830   0.976  17.156 -0.0901 -0.2201  0.0978
  730TMC3    C310840   2.837   1.106  17.207  0.2983  0.4229  0.2406
  730TMC3    C410841   2.606   0.967  17.216  0.1347 -0.0116  0.0067
  730TMC3    C510842   2.617   1.087  17.277 -0.1072 -0.1321  0.3835
  730TMC3    C610843   2.729   1.162  17.276  0.3366  0.5025 -0.0574
  730TMC3     C10844   2.690   0.823  17.039 -0.3339 -0.3017  0.1964
  730TMC3     O10845   2.786   0.785  16.979  0.1368  0.2095 -0.2307
  730TMC3     H10846   2.909   0.942  17.091 -1.0894 -0.1929 -1.1167
  730TMC3    H110847   2.508   0.921  17.220  1.0788 -2.0381 -0.0079
  730TMC3    H210848   2.735   1.257  17.328 -0.5374  0.7107 -0.3374
  730TMC3    C710849   2.496   1.165  17.261 -0.0160 -0.8199  0.9522
  730TMC3    C810850   2.922   1.196  17.127 -0.0298 -0.1757 -0.4433
  730TMC3    O110851   2.428   1.151  17.160 -0.3791 -0.3021 -0.4666
  730TMC3    O210852   3.002   1.138  17.051  0.1584 -0.5894 -0.1873
  731MPD2     C10853   2.388   2.847  11.898 -0.3565 -0.4400  0.3107
  731MPD2    C110854   2.510   2.862  11.957  0.0373  0.4209 -0.7180
  731MPD2    C210855   2.536   2.824  12.087 -0.4782 -0.4966  0.2337
  731MPD2    C310856   2.431   2.783  12.173 -0.3939  0.2593 -0.7322
  731MPD2    C410857   2.303   2.782  12.117 -0.2835  0.3907 -0.3155
  731MPD2    C510858   2.289   2.804  11.980  0.2325 -0.5753  0.1102
  731MPD2     H10859   2.635   2.821  12.132  0.5296 -1.9314 -2.0502
  731MPD2    H110860   2.218   2.747  12.174 -0.6679  0.8656 -0.5991
  731MPD2    H210861   2.372   2.853  11.791 -0.0863 -1.3528  0.2167
  731MPD2    H310862   2.191   2.791  11.936 -0.5093 -1.0272  1.8971
  731MPD2     N10863   2.461   2.753  12.304 -0.4199 -0.3089 -0.6433
  731MPD2    H510864   2.554   2.780  12.333 -1.7754  2.4548  1.1640
  731MPD2    N110865   2.610   2.916  11.874  0.8179 -0.2758 -0.0604
  731MPD2    H710866   2.573   2.939  11.782 -1.6831  0.6038  1.2055
  732TMC3    C110867   2.790   3.030  11.788  0.5689 -0.5737  0.9055
  732TMC3    C210868   2.731   2.996  11.669  0.6630  0.1378 -0.5277
  732TMC3    C310869   2.686   3.096  11.593  0.6466 -0.0710  0.2699
  732TMC3    C410870   2.811   3.159  11.815 -0.1161 -0.4218  0.7483
  732TMC3    C510871   2.772   3.263  11.733 -0.1938  0.2540  0.0756
  732TMC3    C610872   2.701   3.225  11.624  0.5390  0.3173  0.2389
  732TMC3     C10873   2.738   2.957  11.901  0.4172  0.3901  0.2776
  732TMC3     O10874   2.791   2.959  12.011  0.2546 -0.3203 -0.5538
  732TMC3     H10875   2.703   2.898  11.634 -1.7933  0.5084  0.4232
  732TMC3    H110876   2.859   3.183  11.910 -0.5012 -0.0151  0.8403
  732TMC3    H210877   2.649   3.289  11.554 -2.1403 -1.0466  0.9587
  732TMC3    C710878   2.798   3.406  11.750 -0.0136  0.4938  1.1802
  732TMC3    C810879   2.553   3.061  11.547 -0.2799 -0.0579  0.1548
  732TMC3    O110880   2.759   3.475  11.655 -0.1575 -0.1487 -0.5695
  732TMC3    O210881   2.542   2.983  11.456 -0.1339  0.0820 -0.1501
  733TMC3    C110882   3.811   2.045  13.139 -0.2667 -0.4191 -0.5390
  733TMC3    C210883   3.892   2.158  13.161  0.5420 -0.2053 -0.2937
  733TMC3    C310884   4.008   2.154  13.086 -0.1283  0.2470 -0.0611
  733TMC3    C410885   3.840   1.948  13.043  0.2571  0.0808  0.3280
  733TMC3    C510886   3.954   1.959  12.972  0.0993 -0.0254  0.3340
  733TMC3    C610887   4.040   2.055  12.996 -0.0672  0.0638 -0.6405
  733TMC3     C10888   3.695   2.030  13.229 -0.2460  0.2645 -0.5897
  733TMC3     O10889   3.651   2.132  13.272  0.0891  0.7313 -0.2175
  733TMC3     H10890   3.860   2.236  13.230 -1.2171 -0.7702 -0.4739
  733TMC3    H110891   3.767   1.874  13.013  0.1023  1.9425 -3.7810
  733TMC3    H210892   4.140   2.055  12.953 -0.1891 -0.9608 -0.9220
  733TMC3    C710893   3.938   1.936  12.829  0.3526 -0.1001  0.6943
  733TMC3    C810894   4.076   2.278  13.045 -0.5044  0.0934  0.0751
  733TMC3    O110895   3.860   1.847  12.795 -0.1591  0.0113 -0.5152
  733TMC3    O210896   4.130   2.271  12.932 -0.0288 -0.3133  0.2132
  734MPD2     C10897   0.441   4.495  12.626  0.0951 -0.5141 -0.1454
  734MPD2    C110898   0.317   4.541  12.602  0.7184 -0.8823 -0.3000
  734MPD2    C210899   0.294   4.603  12.483 -0.3693 -0.2174  0.2113
  734MPD2    C310900   0.394   4.619  12.391 -0.5836  0.2822 -0.1132
  734MPD2    C410901   0.523   4.575  12.416  1.3932 -0.2816 -0.2445
  734MPD2    C510902   0.545   4.513  12.534 -0.3657 -1.0853 -0.4201
  734MPD2     H10903   0.195   4.632  12.450 -0.0255  0.4425 -0.2229
  734MPD2    H110904   0.600   4.586  12.341  1.3934 -0.6075 -0.2943
  734MPD2    H210905   0.462   4.441  12.717  2.7685 -0.8940 -0.9897
  734MPD2    H310906   0.643   4.468  12.549  0.3323  1.1792  1.8013
  734MPD2     N10907   0.360   4.673  12.266  0.0212 -0.0012  0.4188
  734MPD2    H510908   0.265   4.706  12.255 -0.8703 -2.6794  0.1284
  734MPD2    N110909   0.218   4.524  12.703 -0.7927 -0.8674  0.5768
  734MPD2    H710910   0.253   4.468  12.779  0.7171 -0.8041 -0.0719
  735TMC3    C110911   0.017   4.486  12.806  0.3096 -0.0461  0.2575
  735TMC3    C210912   4.635   4.450  12.747  0.6753  0.0773  0.5151
  735TMC3    C310913   4.616   4.316  12.738 -0.2846 -0.5241 -1.0467
  735TMC3    C410914   0.094   4.397  12.872 -0.9818 -0.4331 -0.4229
  735TMC3    C510915   0.069   4.264  12.855  0.0465 -0.3445 -0.2671
  735TMC3    C610916   4.696   4.221  12.788 -0.1551 -0.1649  0.1081
  735TMC3     C10917   0.086   4.564  12.707 -0.2516 -0.1560  0.2955
  735TMC3     O10918   0.023   4.625  12.621 -0.2648  0.6194  0.3273
  735TMC3     H10919   4.562   4.520  12.710 -0.6768  0.2236  3.4337
  735TMC3    H110920   0.183   4.428  12.924 -0.2392 -2.9357 -0.1728
  735TMC3    H210921   4.681   4.120  12.753  0.1337 -1.5151  3.9567
  735TMC3    C710922   0.187   4.189  12.846 -0.6576 -0.3669 -0.2094
  735TMC3    C810923   4.566   4.283  12.606 -0.2905  0.3526 -0.1062
  735TMC3    O110924   0.288   4.256  12.837 -0.1300 -0.3739 -0.1254
  735TMC3    O210925   4.513   4.177  12.588 -0.1619  0.5861 -0.2759
  736MPD2     C10926   0.238   3.823  12.804  0.0488  0.6189 -0.1377
  736MPD2    C110927   0.272   3.954  12.800  0.2758  0.0789  0.1716
  736MPD2    C210928   0.406   3.987  12.783 -0.1597 -0.4181  0.1306
  736MPD2    C310929   0.493   3.892  12.745 -0.1527 -0.6733 -0.2617
  736MPD2    C410930   0.460   3.760  12.745  0.0386  0.0446  0.5543
  736MPD2    C510931   0.331   3.727  12.780  0.6443 -0.4660 -0.1083
  736MPD2     H10932   0.428   4.090  12.758 -0.6225 -1.0401 -2.8660
  736MPD2    H110933   0.532   3.683  12.724 -0.7540  0.1191 -2.4930
  736MPD2    H210934   0.141   3.785  12.836 -0.5878  0.1461 -2.6122
  736MPD2    H310935   0.302   3.624  12.800 -0.3582 -0.2501 -0.4387
  736MPD2     N10936   0.620   3.914  12.686 -0.0207 -0.7119  0.2676
  736MPD2    H510937   0.663   3.831  12.647 -0.4198  0.2739 -2.2656
  736MPD2    N110938   0.174   4.054  12.825 -0.2226 -0.3259  0.0650
  736MPD2    H710939   0.084   4.014  12.851  0.0418  0.1482  1.7011
  737TMC3    C110940   0.815   4.049  12.609  1.0359  0.1991  0.2801
  737TMC3    C210941   0.810   4.156  12.525  0.5447  0.2046  0.5583
  737TMC3    C310942   0.861   4.141  12.400 -0.0991 -0.1469 -0.6313
  737TMC3    C410943   0.875   3.929  12.571  0.0094  0.0428 -0.0903
  737TMC3    C510944   0.936   3.919  12.447 -0.4622 -0.8657  0.0492
  737TMC3    C610945   0.934   4.026  12.359  0.0024 -0.2310 -0.2518
  737TMC3     C10946   0.689   4.040  12.684 -0.1765  0.7312 -0.0912
  737TMC3     O10947   0.633   4.147  12.694  0.3389 -0.4699  0.3658
  737TMC3     H10948   0.756   4.250  12.535 -2.4221 -1.5678  1.2502
  737TMC3    H110949   0.877   3.848  12.643  0.1211 -0.5558 -0.7648
  737TMC3    H210950   0.970   4.004  12.259  0.5061  3.0014 -0.8118
  737TMC3    C710951   1.017   3.798  12.412  0.6239  0.4976  0.2848
  737TMC3    C810952   0.852   4.257  12.312 -0.0355  0.0730  0.1825
  737TMC3    O110953   0.987   3.694  12.474  0.7204 -0.0231 -0.6255
  737TMC3    O210954   0.811   4.367  12.356  0.6545 -0.0128  0.3632
  738MPD2     C10955   1.682   2.849  15.487 -0.6318  0.1432  0.3430
  738MPD2    C110956   1.655   2.789  15.361  0.5083 -0.1327 -0.1435
  738MPD2    C210957   1.742   2.816  15.255  0.8588 -0.0561 -0.4164
  738MPD2    C310958   1.853   2.894  15.276  0.5726  0.6454 -0.1770
  738MPD2    C410959   1.880   2.946  15.402  0.5453 -0.3072  0.1981
  738MPD2    C510960   1.799   2.917  15.499 -0.6638  0.0404 -0.2227
  738MPD2     H10961   1.722   2.771  15.158  1.1876 -2.2259  0.5418
  738MPD2    H110962   1.963   3.016  15.415 -0.0151  0.7232 -1.8699
  738MPD2    H210963   1.620   2.831  15.574  1.5687 -0.1686  1.8400
  738MPD2    H310964   1.823   2.970  15.591 -0.9791  0.4536 -0.3750
  738MPD2     N10965   1.958   2.914  15.178  0.2743  0.3654 -0.3919
  738MPD2    H510966   2.044   2.955  15.213  1.0741 -1.6366 -0.0335
  738MPD2    N110967   1.543   2.704  15.340  0.3124 -0.6664  0.1011
  738MPD2    H710968   1.531   2.679  15.242 -1.1166  0.7733 -0.1030
  739TMC3    C110969   2.051   2.960  14.966  0.4144  0.1771 -0.4917
  739TMC3    C210970   2.034   2.992  14.837  0.4364  0.0586 -0.2873
  739TMC3    C310971   2.140   3.030  14.760 -0.3449  0.5264  0.1590
  739TMC3    C410972   2.178   2.939  15.021 -0.2150 -0.1961 -0.4976
  739TMC3    C510973   2.279   2.978  14.941  0.3633 -0.1201 -0.1552
  739TMC3    C610974   2.264   3.025  14.814 -0.1545 -0.1609  0.4173
  739TMC3     C10975   1.941   2.905  15.037  0.0569  0.5024 -0.3490
  739TMC3     O10976   1.832   2.899  14.973 -0.3117  0.1335  0.0788
  739TMC3     H10977   1.933   3.003  14.797  1.0321  1.4653 -1.4217
  739TMC3    H110978   2.196   2.904  15.122  0.1789 -2.0334 -1.2188
  739TMC3    H210979   2.341   3.083  14.765 -0.3907 -1.3459 -1.3858
  739TMC3    C710980   2.410   2.954  14.988  0.5100 -0.2212  0.4890
  739TMC3    C810981   2.110   3.088  14.624 -0.5472 -0.7559  0.8594
  739TMC3    O110982   2.429   2.943  15.106  0.1750 -0.2340 -0.0560
  739TMC3    O210983   1.999   3.138  14.610 -0.1052  0.2407 -0.1357
  740TMC3    C110984   1.871   4.124  14.022  0.4982 -0.2471 -0.1604
  740TMC3    C210985   1.905   4.068  14.146 -0.6146  0.1875  0.0568
  740TMC3    C310986   2.034   4.020  14.164  0.0772 -0.0840 -0.2802
  740TMC3    C410987   1.962   4.129  13.924 -0.4473 -0.9055  0.3064
  740TMC3    C510988   2.091   4.079  13.947  0.3496 -0.4265 -0.3083
  740TMC3    C610989   2.121   4.015  14.065  0.6247  0.1814  0.0407
  740TMC3     C10990   1.751   4.215  14.028  0.4038  0.4550  0.0838
  740TMC3     O10991   1.761   4.323  13.977  0.6196 -0.2508 -0.2122
  740TMC3     H10992   1.850   4.082  14.239 -2.7789 -0.3859 -1.1455
  740TMC3    H110993   1.939   4.174  13.828  1.7130 -2.0177 -0.7383
  740TMC3    H210994   2.217   3.964  14.072 -1.0419 -2.6361  2.2099
  740TMC3    C710995   2.187   4.071  13.835 -0.7675 -0.5670 -0.1208
  740TMC3    C810996   2.077   3.988  14.303  0.0707 -0.5715 -0.0119
  740TMC3    O110997   2.275   3.989  13.849  0.2420 -0.2807 -0.1488
  740TMC3    O210998   2.011   4.029  14.395 -0.0074 -0.5793  0.4620
  741TMC3    C110999   2.039   3.582  14.322 -0.4160 -0.1317 -0.0338
  741TMC3    C211000   1.912   3.543  14.353 -0.0391 -0.3009  0.0869
  741TMC3    C311001   1.893   3.469  14.473  0.0816  0.1387 -0.1284
  741TMC3    C411002   2.144   3.539  14.406 -0.6112 -0.1646 -0.6243
  741TMC3    C511003   2.131   3.467  14.525  0.0763 -0.0132 -0.6027
  741TMC3    C611004   2.000   3.434  14.557  0.0257 -0.0210  0.2636
  741TMC3     C11005   2.066   3.638  14.192  0.3322 -0.9194  0.6894
  741TMC3     O11006   2.184   3.646  14.161 -0.4389  0.4936  0.0613
  741TMC3     H11007   1.820   3.582  14.310  0.5958 -1.0548 -1.9641
  741TMC3    H111008   2.237   3.593  14.390 -0.3821 -0.2148  0.5674
  741TMC3    H211009   1.979   3.377  14.647  1.3700  0.2165  0.7284
  741TMC3    C711010   2.235   3.426  14.618 -0.0008  0.2172 -0.2569
  741TMC3    C811011   1.766   3.407  14.500  0.2963  0.1541 -0.0832
  741TMC3    O111012   2.199   3.383  14.731 -0.0042  0.0366  0.3121
  741TMC3    O211013   1.667   3.460  14.446  0.1627 -0.3089  0.1024
  742TMC3    C111014   1.387   1.910  15.524  0.3636  0.7933 -0.5656
  742TMC3    C211015   1.306   1.916  15.414 -0.1278 -0.2871 -0.2913
  742TMC3    C311016   1.358   1.907  15.289  0.5390 -1.3709  0.3576
  742TMC3    C411017   1.526   1.909  15.509 -0.1253 -0.4543 -0.7919
  742TMC3    C511018   1.573   1.915  15.381  0.8720 -0.2677  0.8287
  742TMC3    C611019   1.490   1.900  15.272 -0.6874  0.3644 -0.3008
  742TMC3     C11020   1.327   1.975  15.634  0.1305  0.1147  0.4367
  742TMC3     O11021   1.212   1.946  15.659 -0.3434 -0.3375  0.1170
  742TMC3     H11022   1.200   1.902  15.433 -0.1019 -0.1085 -0.0205
  742TMC3    H111023   1.600   1.911  15.588 -1.5595 -0.3521  0.5532
  742TMC3    H211024   1.531   1.909  15.172  0.5172 -0.5015  0.1126
  742TMC3    C711025   1.710   1.930  15.344 -0.0838  0.2652  0.0437
  742TMC3    C811026   1.277   1.903  15.167 -0.0045  0.2349  0.4095
  742TMC3    O111027   1.737   1.869  15.239 -0.0615 -0.1172 -0.2931
  742TMC3    O211028   1.342   1.888  15.060  0.2346 -0.1275 -0.0990
  743MPD2     C11029   4.259   2.400   1.714 -0.3833  0.1692 -0.4546
  743MPD2    C111030   4.303   2.518   1.669  0.0915  0.0248  0.0568
  743MPD2    C211031   4.442   2.542   1.665  0.0612  0.0511  0.6125
  743MPD2    C311032   4.532   2.450   1.712  0.2650  0.2475 -0.1179
  743MPD2    C411033   4.485   2.330   1.761  1.0426 -0.0155  0.0543
  743MPD2    C511034   4.349   2.304   1.760 -0.3938  0.4413 -0.1895
  743MPD2     H11035   4.484   2.630   1.616 -0.8282 -0.5379 -1.2199
  743MPD2    H111036   4.553   2.252   1.791 -0.7436 -0.5177  2.7673
  743MPD2    H211037   4.153   2.375   1.710 -0.3933 -0.0608  1.0152
  743MPD2    H311038   4.311   2.205   1.784  1.4411  0.6521  3.5315
  743MPD2     N11039   4.673   2.474   1.700 -0.0807 -0.0785 -0.1638
  743MPD2    H511040   4.706   2.561   1.659 -0.0679  1.2717  2.6972
  743MPD2    N111041   4.205   2.607   1.618  0.5855  0.1047 -0.4596
  743MPD2    H711042   4.123   2.557   1.587  1.9138 -1.1026 -2.0333
  744TMC3    C111043   4.105   2.820   1.558 -0.0202 -0.3278 -0.1697
  744TMC3    C211044   4.119   2.948   1.579  0.0574  0.1941 -0.4564
  744TMC3    C311045   4.051   3.033   1.492  0.0885  0.0944 -0.3393
  744TMC3    C411046   4.041   2.773   1.449 -0.3281 -0.2308  0.1588
  744TMC3    C511047   3.987   2.856   1.360  0.6256 -0.1071  0.6995
  744TMC3    C611048   3.989   2.989   1.381  0.2932 -0.1363 -0.4571
  744TMC3     C11049   4.214   2.746   1.629 -0.2582 -0.3306  0.2496
  744TMC3     O11050   4.307   2.807   1.681  0.2318 -0.1045  0.4074
  744TMC3     H11051   4.178   2.982   1.664 -2.1982  0.3348  1.0584
  744TMC3    H111052   4.039   2.665   1.438  0.0790 -0.2527  0.3018
  744TMC3    H211053   3.940   3.054   1.310  1.8751  1.6902  0.1222
  744TMC3    C711054   3.920   2.796   1.249  0.7496  0.1534  0.1934
  744TMC3    C811055   4.079   3.176   1.483  0.1267  0.4570 -0.4367
  744TMC3    O111056   3.880   2.684   1.277  0.1288 -0.1348 -0.3844
  744TMC3    O211057   4.009   3.252   1.422 -0.1569  0.0963 -0.0543
  745TMC3    C111058   2.228   1.714  13.252  0.2050  0.3214  0.3712
  745TMC3    C211059   2.105   1.699  13.194  0.2235  0.2049  0.3135
  745TMC3    C311060   2.105   1.717  13.056 -0.3209  0.1662  0.5024
  745TMC3    C411061   2.345   1.754  13.183 -0.5105 -0.0963 -0.2557
  745TMC3    C511062   2.340   1.785  13.050 -0.5303 -0.4109 -0.1540
  745TMC3    C611063   2.218   1.757  12.983  0.2555  0.6496 -0.5848
  745TMC3     C11064   2.236   1.743  13.392  0.6198  0.3639  0.0894
  745TMC3     O11065   2.232   1.650  13.471  1.0398  0.1638  0.0896
  745TMC3     H11066   2.014   1.697  13.252 -1.1224 -3.6059 -1.9419
  745TMC3    H111067   2.436   1.767  13.241  0.6653 -0.0478 -2.1292
  745TMC3    H211068   2.206   1.777  12.877  1.1989  0.7784 -0.6640
  745TMC3    C711069   2.396   1.920  13.026 -0.0238  0.2285 -0.3435
  745TMC3    C811070   1.975   1.749  12.995  0.0681 -0.6996  0.5766
  745TMC3    O111071   2.380   1.971  12.915 -0.0921  0.3743  0.6903
  745TMC3    O211072   1.920   1.658  12.940  0.1995 -0.1727  0.9339
  746TMC3    C111073   4.205   3.548  10.961 -0.1734 -0.6209 -0.3226
  746TMC3    C211074   4.311   3.530  10.881  0.9913  0.0743  0.1066
  746TMC3    C311075   4.304   3.416  10.810  0.3407 -0.6751  0.2285
  746TMC3    C411076   4.092   3.468  10.975  0.0331 -0.4962 -0.5653
  746TMC3    C511077   4.113   3.352  10.909 -0.3301  0.5655 -0.5686
  746TMC3    C611078   4.208   3.320  10.823 -0.0628  0.3208 -0.3349
  746TMC3     C11079   4.181   3.683  11.000 -0.3247  0.2152 -0.2715
  746TMC3     O11080   4.063   3.719  11.004  0.6718 -0.1099 -0.0911
  746TMC3     H11081   4.369   3.616  10.850  1.7371 -0.1913  0.7910
  746TMC3    H111082   3.999   3.492  11.026  0.5780  0.4355 -0.0117
  746TMC3    H211083   4.209   3.224  10.773 -1.4152 -0.2965  0.8127
  746TMC3    C711084   4.011   3.255  10.902 -0.1551  0.0755 -0.4605
  746TMC3    C811085   4.403   3.398  10.709 -0.3578 -0.4577  0.2501
  746TMC3    O111086   3.993   3.194  10.797 -0.3709  0.4671  0.0063
  746TMC3    O211087   4.505   3.450  10.735 -0.0329  0.3389  0.1251
  747TMC3    C111088   1.570   3.867  11.610  0.1769 -0.2094 -0.3915
  747TMC3    C211089   1.491   3.807  11.708  0.7069 -0.0911 -0.2687
  747TMC3    C311090   1.545   3.695  11.757 -0.4799  0.0278  0.3024
  747TMC3    C411091   1.692   3.833  11.575 -0.6235 -0.1226 -0.7644
  747TMC3    C511092   1.746   3.729  11.648  0.3435  0.4283  0.6923
  747TMC3    C611093   1.666   3.652  11.725 -0.1727  0.7146  0.5477
  747TMC3     C11094   1.501   3.960  11.525  0.8448  0.5705 -0.6444
  747TMC3     O11095   1.417   4.034  11.576 -0.0126  0.5267  0.1033
  747TMC3     H11096   1.391   3.842  11.731 -0.0178 -1.3758 -1.5353
  747TMC3    H111097   1.756   3.888  11.507 -1.4560  1.4051 -0.3098
  747TMC3    H211098   1.710   3.572  11.783 -1.7736 -0.4792  0.1295
  747TMC3    C711099   1.879   3.686  11.623  0.7836 -0.1090  0.4133
  747TMC3    C811100   1.483   3.630  11.872 -0.3495  0.1775 -0.3495
  747TMC3    O111101   1.947   3.768  11.569  0.4374  0.2936  0.1824
  747TMC3    O211102   1.527   3.526  11.916  0.4234  0.1931 -0.7592
  748MPD2     C11103   3.422   4.538   1.351 -0.2630 -0.2252  0.3190
  748MPD2    C111104   3.542   4.519   1.421  0.4558  0.1721 -0.0514
  748MPD2    C211105   3.660   4.561   1.355 -0.0871  0.6581  0.4294
  748MPD2    C311106   3.658   4.600   1.223  0.1889  0.1813  0.0267
  748MPD2    C411107   3.547   4.573   1.150  0.2109  0.5256  0.1891
  748MPD2    C511108   3.432   4.554   1.212  1.0820 -0.0523  0.1296
  748MPD2     H11109   3.754   4.571   1.409 -0.2864  2.5891  0.4111
  748MPD2    H111110   3.542   4.595   1.044 -3.4507  0.8387  0.4110
  748MPD2    H211111   3.324   4.534   1.397  0.1368 -0.6735  1.1338
  748MPD2    H311112   3.339   4.551   1.157  0.5664 -0.9608  1.0546
  748MPD2     N11113   3.781   4.645   1.170 -0.2614 -0.2892 -0.3988
  748MPD2    H511114   3.860   4.660   1.232 -0.0728 -4.5908  0.4412
  748MPD2    N111115   3.544   4.473   1.559  1.0682  0.3039 -0.4202
  748MPD2    H711116   3.457   4.439   1.600  1.1783 -1.2044 -1.4702
  749TMC3    C111117   3.938   4.721   1.010  0.4506 -0.5736  0.0962
  749TMC3    C211118   4.038   4.682   1.101  0.6109 -0.4452  0.0203
  749TMC3    C311119   4.150   0.016   1.092  0.5448  0.1366 -0.1252
  749TMC3    C411120   3.957   0.085   0.918  0.1996  1.2349  0.0075
  749TMC3    C511121   4.074   0.163   0.921  0.7651  0.0512 -0.7319
  749TMC3    C611122   4.168   0.129   1.018 -0.4153  0.4926 -0.2515
  749TMC3     C11123   3.799   4.689   1.040  0.3701 -0.5065 -0.4521
  749TMC3     O11124   3.716   4.713   0.954  0.0922 -0.0755  0.2886
  749TMC3     H11125   4.031   4.606   1.177 -4.0449 -0.9933 -0.9957
  749TMC3    H111126   3.876   0.112   0.851  0.4164  0.2617 -0.6508
  749TMC3    H211127   4.256   0.190   1.034 -2.5875  4.6230 -4.1137
  749TMC3    C711128   4.123   0.246   0.815 -0.0248 -0.3807 -0.1928
  749TMC3    C811129   4.261   4.720   1.178 -0.4285 -0.3183  0.7566
  749TMC3    O111130   4.210   0.327   0.842  0.3328  0.3909 -0.0278
  749TMC3    O211131   4.336   0.075   1.214 -0.1123  0.0915  0.0205
  750MPD2     C11132   4.468   0.811  11.196  0.3935 -0.2703  0.0507
  750MPD2    C111133   4.338   0.793  11.170  0.6132  0.4359 -0.6815
  750MPD2    C211134   4.289   0.674  11.111  0.3820  1.1965 -0.9426
  750MPD2    C311135   4.380   0.576  11.070 -0.2268 -0.2098 -0.1611
  750MPD2    C411136   4.514   0.596  11.107  0.2747  0.1308 -0.2453
  750MPD2    C511137   4.557   0.713  11.167 -0.5139 -0.5174  0.1145
  750MPD2     H11138   4.183   0.667  11.093  0.4060 -1.3901 -0.0638
  750MPD2    H111139   4.567   0.502  11.096  1.0316  0.5674 -0.2987
  750MPD2    H211140   4.503   0.904  11.239  0.2476 -0.4684  0.5865
  750MPD2    H311141   4.661   0.726  11.196 -0.6671  0.0619  0.4043
  750MPD2     N11142   4.349   0.451  11.010  0.0634  1.0046  0.4550
  750MPD2    H511143   4.420   0.384  10.983 -2.9347 -2.5427  1.2679
  750MPD2    N111144   4.250   0.886  11.228 -0.3842  0.1742  0.0316
  750MPD2    H711145   4.285   0.954  11.295 -0.0667  2.9435 -2.9082
  751TMC3    C111146   4.211   0.259  10.987  0.6955  0.1582 -0.6867
  751TMC3    C211147   4.090   0.205  11.002  0.0486 -0.5552  0.9271
  751TMC3    C311148   4.079   0.070  10.975 -0.4387  0.6880  0.2957
  751TMC3    C411149   4.321   0.181  10.951 -0.4794  0.2276  0.1150
  751TMC3    C511150   4.313   0.044  10.944  0.2519 -0.1521 -0.5766
  751TMC3    C611151   4.187   4.727  10.950  0.5945 -0.1036  0.0126
  751TMC3     C11152   4.218   0.407  11.005 -0.2863 -0.3019  0.1819
  751TMC3     O11153   4.124   0.483  11.002 -0.3511 -0.2215 -0.5419
  751TMC3     H11154   4.007   0.263  11.040  2.2168  1.7059  2.2094
  751TMC3    H111155   4.417   0.231  10.942 -0.6660  0.3216 -1.3033
  751TMC3    H211156   4.177   4.619  10.949 -0.1436 -0.0332 -0.4991
  751TMC3    C711157   4.426   4.690  10.905  0.1186 -0.2513  0.2959
  751TMC3    C811158   3.951   4.731  10.979 -0.3870 -0.3260 -0.3323
  751TMC3    O111159   4.532   0.008  10.885 -0.5440 -0.9067  0.2919
  751TMC3    O211160   3.959   4.617  10.931 -0.4305 -0.9538 -0.1813
  752TMC3    C111161   3.356   0.518  17.020 -0.2805  0.2762  0.2889
  752TMC3    C211162   3.382   0.408  17.092 -0.5062 -0.2896 -0.6136
  752TMC3    C311163   3.368   0.418  17.230 -0.1852 -0.1834  0.4447
  752TMC3    C411164   3.309   0.633  17.070 -0.2508  0.2940  0.3700
  752TMC3    C511165   3.300   0.638  17.208 -0.3452  0.4507  0.3986
  752TMC3    C611166   3.338   0.535  17.287 -0.5059 -0.4473  0.0288
  752TMC3     C11167   3.393   0.514  16.881  0.5354 -0.0357  0.3857
  752TMC3     O11168   3.468   0.429  16.838  0.5022  0.3915 -0.4608
  752TMC3     H11169   3.409   0.321  17.034 -0.2125 -1.4858  1.3275
  752TMC3    H111170   3.282   0.719  17.010  0.9769 -0.8723 -1.8772
  752TMC3    H211171   3.339   0.554  17.393  2.1314 -0.9953  0.1082
  752TMC3    C711172   3.195   0.716  17.253 -0.9865 -0.3556 -0.0166
  752TMC3    C811173   3.281   0.307  17.280 -0.6663 -0.0644 -0.1728
  752TMC3    O111174   3.194   0.829  17.222  0.1201 -0.5952 -0.4796
  752TMC3    O211175   3.242   0.224  17.197  0.3611  0.0424  0.0518
  753TMC3    C111176   0.348   1.730  13.473 -1.1169  0.2329 -0.6013
  753TMC3    C211177   0.322   1.761  13.604  0.1156  0.5102 -0.3117
  753TMC3    C311178   0.211   1.710  13.655 -0.0132  0.2204  0.1446
  753TMC3    C411179   0.269   1.659  13.392 -0.3075  0.0384  0.3489
  753TMC3    C511180   0.159   1.599  13.453  0.5861 -0.7087  0.1012
  753TMC3    C611181   0.122   1.640  13.576  0.7124 -0.0542 -0.3777
  753TMC3     C11182   0.489   1.724  13.439 -0.4022  0.2393 -0.1868
  753TMC3     O11183   0.543   1.623  13.387  0.1953 -0.0125 -0.1880
  753TMC3     H11184   0.392   1.818  13.663  0.4927 -1.4503  1.1110
  753TMC3    H111185   0.302   1.616  13.298 -1.0046 -2.8556  1.4395
  753TMC3    H211186   0.040   1.592  13.629 -0.9535  3.0574 -0.1439
  753TMC3    C711187   0.066   1.534  13.369  0.2706  0.1535 -0.5265
  753TMC3    C811188   0.192   1.711  13.799  0.1721  0.0079 -0.1045
  753TMC3    O111189   0.073   1.556  13.249 -0.1761 -0.2231  0.1082
  753TMC3    O211190   0.123   1.621  13.841 -0.6295 -0.1220 -0.0679
  754MPD2     C11191   4.279   0.518  12.972 -0.3875 -0.2528 -0.3669
  754MPD2    C111192   4.214   0.420  13.041 -0.5680  1.5895 -0.2176
  754MPD2    C211193   4.086   0.388  13.009  0.5446 -0.3676  0.1817
  754MPD2    C311194   4.020   0.450  12.906 -0.1489 -0.5980 -0.0388
  754MPD2    C411195   4.090   0.552  12.840 -0.1177  0.1286 -0.5382
  754MPD2    C511196   4.216   0.589  12.876  0.1496  0.4539  0.6306
  754MPD2     H11197   4.031   0.318  13.071 -0.1531 -1.6647 -1.8998
  754MPD2    H111198   4.042   0.620  12.769  1.5304  1.5406 -0.2881
  754MPD2    H211199   4.385   0.533  12.994 -0.1922  0.7775 -1.9826
  754MPD2    H311200   4.271   0.676  12.841 -1.3656  0.4206 -1.8347
  754MPD2     N11201   3.878   0.422  12.879  0.1015  0.1190  0.5476
  754MPD2    H511202   3.835   0.488  12.815  2.0489 -0.7845 -1.6853
  754MPD2    N111203   4.276   0.365  13.153 -0.1037  0.2071  0.7362
  754MPD2    H711204   4.231   0.289  13.203  1.9432 -1.2887  0.2666
  755MPD2     C11205   3.101   0.920  13.066  0.5689 -0.3356 -0.2073
  755MPD2    C111206   3.077   0.786  13.076  0.0378  0.4786 -0.1212
  755MPD2    C211207   3.181   0.697  13.035 -0.0345 -0.4753  0.6350
  755MPD2    C311208   3.305   0.740  12.991 -0.0431 -0.2733  0.0550
  755MPD2    C411209   3.333   0.884  12.987 -0.7777  0.6108 -0.0660
  755MPD2    C511210   3.225   0.965  13.019 -0.5445  0.0825  0.6108
  755MPD2     H11211   3.162   0.590  13.036 -1.7667 -0.1758 -4.1185
  755MPD2    H111212   3.425   0.924  12.947  0.9743 -1.5913  1.7606
  755MPD2    H211213   3.028   0.998  13.085 -1.0389 -1.2415 -2.6816
  755MPD2    H311214   3.233   1.070  12.991 -0.1042 -0.7722 -2.4566
  755MPD2     N11215   3.405   0.650  12.950 -0.6596 -0.7989 -0.0478
  755MPD2    H511216   3.497   0.692  12.947 -0.8931 -0.2895 -0.0815
  755MPD2    N111217   2.960   0.729  13.129  0.4655 -0.6078  0.1997
  755MPD2    H711218   2.950   0.628  13.116  0.3388 -0.4401 -1.0028
  756MPD2     C11219   3.150   1.310   9.661 -0.0367 -0.4960  0.6717
  756MPD2    C111220   3.205   1.239   9.763 -0.0344 -0.2530  0.1177
  756MPD2    C211221   3.155   1.108   9.791 -0.0797 -0.1058 -0.2689
  756MPD2    C311222   3.052   1.055   9.714  0.2933  0.1571 -0.4114
  756MPD2    C411223   2.983   1.134   9.623  0.1444  0.0920  0.1065
  756MPD2    C511224   3.030   1.261   9.610  0.1256 -0.0535  0.6514
  756MPD2     H11225   3.196   1.043   9.867 -1.4381 -1.5846 -0.8227
  756MPD2    H111226   2.889   1.101   9.579  0.8112 -2.3446  0.4990
  756MPD2    H211227   3.184   1.410   9.636 -2.3958 -0.3580 -2.0718
  756MPD2    H311228   2.991   1.326   9.531 -0.1451  0.0506  0.8695
  756MPD2     N11229   3.025   0.922   9.743 -0.2922 -0.0788  0.2114
  756MPD2    H511230   3.087   0.873   9.807 -2.8710 -2.0329  1.2110
  756MPD2    N111231   3.313   1.287   9.839  0.7750 -0.4076 -0.4497
  756MPD2    H711232   3.341   1.228   9.918 -1.9105 -0.8312  0.1721
  757MPD2     C11233   3.627   0.326   9.780  0.1385  1.0304 -0.1482
  757MPD2    C111234   3.527   0.247   9.820 -0.5785 -0.1093 -0.0828
  757MPD2    C211235   3.401   0.303   9.839 -0.6659  0.4229 -0.6824
  757MPD2    C311236   3.378   0.436   9.809 -0.1725 -0.6813 -0.4245
  757MPD2    C411237   3.485   0.511   9.767 -0.0235  0.0254 -0.3041
  757MPD2    C511238   3.608   0.454   9.748 -0.0616 -0.3474  0.2630
  757MPD2     H11239   3.316   0.239   9.862 -1.0638  0.5845 -1.7395
  757MPD2    H111240   3.483   0.615   9.738  1.6066  0.7284  2.0534
  757MPD2    H211241   3.729   0.294   9.759 -0.6957 -2.1668  0.6864
  757MPD2    H311242   3.695   0.516   9.727  0.0125 -1.1650 -1.9079
  757MPD2     N11243   3.251   0.492   9.805 -0.1756  0.4415 -1.2230
  757MPD2    H511244   3.244   0.587   9.770 -2.1241  1.2522  1.3568
  757MPD2    N111245   3.557   0.111   9.843 -0.1449  0.1054 -0.0839
  757MPD2    H711246   3.649   0.083   9.811 -0.0675  0.0076  0.2314
  758MPD2     C11247   3.557   0.227  15.993  0.0652  0.9573 -0.3815
  758MPD2    C111248   3.571   0.176  16.119 -0.3639  0.2546 -0.3274
  758MPD2    C211249   3.627   0.255  16.219  0.7062 -0.6385 -0.5072
  758MPD2    C311250   3.641   0.388  16.199  0.6826 -0.2499  0.4995
  758MPD2    C411251   3.612   0.445  16.077  0.1427  0.4197 -0.1331
  758MPD2    C511252   3.579   0.358  15.970 -0.5327  0.6663  1.1408
  758MPD2     H11253   3.645   0.213  16.317 -0.0124  0.9702  0.3067
  758MPD2    H111254   3.611   0.553  16.064  1.3746  0.5167  0.6217
  758MPD2    H211255   3.503   0.168  15.920  3.0399 -1.7703 -0.3832
  758MPD2    H311256   3.571   0.392  15.868 -0.6209 -0.7233  0.6891
  758MPD2     N11257   3.703   0.465  16.301 -0.4318 -0.8226 -0.4595
  758MPD2    H511258   3.696   0.565  16.286 -1.3535 -0.6155  1.3326
  758MPD2    N111259   3.534   0.044  16.141  0.0388 -0.3391 -0.1284
  758MPD2    H711260   3.518   4.719  16.063  0.7375 -0.6799  0.0013
  759MPD2     C11261   1.838   2.426  10.635  0.2510 -0.0492 -0.0588
  759MPD2    C111262   1.885   2.383  10.514 -0.2044 -0.0928 -0.0207
  759MPD2    C211263   1.865   2.467  10.402 -0.1802 -0.3310  0.3851
  759MPD2    C311264   1.805   2.597  10.417  0.0743 -0.7560  0.0729
  759MPD2    C411265   1.776   2.649  10.544  0.4643  0.4179 -0.6215
  759MPD2    C511266   1.794   2.554  10.647  0.6772 -0.1232 -0.0272
  759MPD2     H11267   1.904   2.432  10.307 -1.3751  1.7182 -0.8614
  759MPD2    H111268   1.732   2.746  10.560 -0.7633  0.1571 -2.3428
  759MPD2    H211269   1.850   2.373  10.730 -0.4010 -0.0750  0.0137
  759MPD2    H311270   1.766   2.577  10.749 -0.0305 -0.0738 -0.2345
  759MPD2     N11271   1.789   2.667  10.297  0.1164  0.3964 -0.8195
  759MPD2    H511272   1.788   2.619  10.207  0.7509  0.4081 -0.8350
  759MPD2    N111273   1.961   2.258  10.491  0.9802 -0.3854  0.1789
  759MPD2    H711274   1.989   2.240  10.396 -0.0030  0.3237 -0.2428
  760MPD2     C11275   1.930   0.314  12.117 -0.6590  0.5982  0.4198
  760MPD2    C111276   2.013   0.386  12.031 -0.6712  0.1428  0.7913
  760MPD2    C211277   2.079   0.319  11.930  0.0848  0.5900 -0.1665
  760MPD2    C311278   2.073   0.183  11.922  0.2065  0.3780  0.2228
  760MPD2    C411279   2.002   0.115  12.016  0.2611 -0.1727  0.0937
  760MPD2    C511280   1.919   0.180  12.096 -0.8263 -0.6533  0.0270
  760MPD2     H11281   2.143   0.388  11.877 -0.0106  0.4969 -0.3986
  760MPD2    H111282   2.002   0.006  12.016  0.7213 -0.1651 -1.5275
  760MPD2    H211283   1.858   0.353  12.188  0.8825  1.8413  1.2961
  760MPD2    H311284   1.860   0.123  12.166 -0.7400 -2.0474 -1.0395
  760MPD2     N11285   2.156   0.113  11.833  0.2177 -0.3578 -0.4350
  760MPD2    H511286   2.175   0.014  11.848  1.4097 -0.1571 -0.6584
  760MPD2    N111287   2.046   0.525  12.053  0.8409 -0.3360 -0.3858
  760MPD2    H711288   2.125   0.564  12.001  0.1542  0.2415 -0.9938
  761MPD2     C11289   3.455   4.654  11.111 -0.6368 -0.2708 -0.0848
  761MPD2    C111290   3.546   4.568  11.053 -0.4366  0.0128  0.2984
  761MPD2    C211291   3.672   4.619  11.024 -0.4108 -0.6014 -0.3271
  761MPD2    C311292   3.712   0.014  11.047  1.0866  0.7127  0.0615
  761MPD2    C411293   3.617   0.100  11.098  0.8178 -0.6922  0.3727
  761MPD2    C511294   3.493   0.048  11.122  0.2218  0.1849  0.2479
  761MPD2     H11295   3.742   4.552  10.975 -0.2235 -0.9017  0.3596
  761MPD2    H111296   3.643   0.200  11.130  1.7768 -0.8254  0.0263
  761MPD2    H211297   3.352   4.631  11.135 -1.7128  3.1954 -1.3510
  761MPD2    H311298   3.422   0.119  11.164  0.4407  0.3997  0.2608
  761MPD2     N11299   3.844   0.063  11.027 -0.0454  0.0942  0.1008
  761MPD2    H511300   3.859   0.156  11.065 -1.1552  0.4913 -0.4459
  761MPD2    N111301   3.506   4.435  11.022 -0.4478 -0.4513  0.8297
  761MPD2    H711302   3.407   4.410  11.031 -0.5845 -0.1981  0.0412
  762MPD2     C11303   3.446   3.604  10.619  0.5774 -0.2023 -0.0590
  762MPD2    C111304   3.548   3.702  10.632  0.5059 -0.4509 -0.0376
  762MPD2    C211305   3.671   3.690  10.566 -0.6086 -0.4032  0.2768
  762MPD2    C311306   3.697   3.586  10.476  0.1822 -0.5581 -0.0588
  762MPD2    C411307   3.595   3.493  10.458 -0.6468 -0.0051 -0.5868
  762MPD2    C511308   3.477   3.505  10.529  0.1469 -0.2807  0.4403
  762MPD2     H11309   3.755   3.755  10.583 -0.8913  0.0255  0.0398
  762MPD2    H111310   3.611   3.412  10.388 -1.1121 -1.6292  1.1871
  762MPD2    H211311   3.348   3.596  10.665  0.0820  0.1959 -1.0403
  762MPD2    H311312   3.393   3.436  10.519  0.4461 -0.4944 -0.6324
  762MPD2     N11313   3.818   3.589  10.401  0.3509 -0.5340  0.8475
  762MPD2    H511314   3.892   3.656  10.419 -0.6258  0.8044 -0.1382
  762MPD2    N111315   3.519   3.809  10.726  0.5326 -0.2837 -1.1984
  762MPD2    H711316   3.444   3.796  10.792 -0.5401  2.3666 -1.9056
  763MPD2     C11317   1.278   0.259  16.057  0.5285  0.1553 -0.5967
  763MPD2    C111318   1.153   0.299  16.017  0.5752 -0.3998  0.4776
  763MPD2    C211319   1.127   0.435  16.029  0.1427 -0.3427  0.0500
  763MPD2    C311320   1.232   0.521  16.068 -0.0811 -0.1951  0.6198
  763MPD2    C411321   1.360   0.477  16.081 -0.5440 -0.2770  0.5158
  763MPD2    C511322   1.386   0.342  16.093  0.0677  0.4329 -0.7341
  763MPD2     H11323   1.030   0.479  16.009  1.4411  2.6553  0.3894
  763MPD2    H111324   1.449   0.537  16.094  0.7628 -2.1460  0.1612
  763MPD2    H211325   1.306   0.155  16.048 -0.2996 -0.1433  0.2623
  763MPD2    H311326   1.480   0.295  16.119  1.1753  1.5904 -2.6303
  763MPD2     N11327   1.218   0.659  16.091  0.4081 -0.3733  0.2858
  763MPD2    H511328   1.301   0.714  16.108 -0.9079  1.0924  1.9603
  763MPD2    N111329   1.057   0.212  15.961  0.0662  0.2841 -0.2921
  763MPD2    H711330   0.980   0.262  15.918 -1.0202  1.1073  2.6218
  764MPD2     C11331   3.739   1.934  17.469 -1.0781 -0.0723  0.6067
  764MPD2    C111332   3.623   1.999  17.480 -0.1477 -0.3840 -0.0032
  764MPD2    C211333   3.537   1.969  17.585 -0.4049  0.3544 -0.3242
  764MPD2    C311334   3.567   1.872  17.677  0.4534 -0.2011  0.4248
  764MPD2    C411335   3.685   1.802  17.658 -0.0529 -0.1460  0.3657
  764MPD2    C511336   3.772   1.838  17.561  0.4991  0.1463 -0.0527
  764MPD2     H11337   3.443   2.021  17.595 -0.9264 -0.8774  1.2953
  764MPD2    H111338   3.714   1.728  17.732  0.5028 -1.8488 -1.5427
  764MPD2    H211339   3.806   1.962  17.389  0.6808 -1.3774  1.6113
  764MPD2    H311340   3.870   1.792  17.553  0.8438  0.8901 -0.0272
  764MPD2     N11341   3.477   1.838   0.037  0.9620  0.6257  0.2897
  764MPD2    H511342   3.416   1.914   0.067 -0.4805 -0.6924  0.7147
  764MPD2    N111343   3.577   2.088  17.380 -1.1076  0.0705  0.5197
  764MPD2    H711344   3.484   2.129  17.382 -0.7957  0.8789 -1.3545
  765MPD2     C11345   3.261   3.840  16.008  0.3064  0.1051 -0.0946
  765MPD2    C111346   3.304   3.940  16.093 -0.5807 -0.6791 -0.1703
  765MPD2    C211347   3.423   3.930  16.159 -0.0095 -0.0197 -0.7255
  765MPD2    C311348   3.493   3.814  16.155 -0.3668  0.0186 -0.4609
  765MPD2    C411349   3.447   3.709  16.077  0.6984  0.0392 -0.1125
  765MPD2    C511350   3.330   3.726  15.995  0.6233 -0.9089  0.6022
  765MPD2     H11351   3.466   4.009  16.219 -0.0870  0.1527 -0.8969
  765MPD2    H111352   3.509   3.620  16.069  2.3437  1.0256  1.9150
  765MPD2    H211353   3.175   3.848  15.942 -0.9088  1.4439  1.6370
  765MPD2    H311354   3.295   3.648  15.929  0.4320  1.0552 -1.6058
  765MPD2     N11355   3.613   3.812  16.241  0.4948 -0.2273 -0.3292
  765MPD2    H511356   3.621   3.896  16.297 -2.3656  0.3878 -0.8535
  765MPD2    N111357   3.226   4.055  16.087 -0.0052 -0.1600 -0.1608
  765MPD2    H711358   3.142   4.053  16.030  0.9847  2.4153 -1.6933
  766MPD2     C11359   2.673   4.459  15.618  0.1837  0.7343 -0.1866
  766MPD2    C111360   2.789   4.379  15.662  0.6939 -0.5676  0.2982
  766MPD2    C211361   2.876   4.333  15.560 -0.2383 -0.0892  0.0947
  766MPD2    C311362   2.840   4.343  15.427 -0.0937  0.5161 -0.2906
  766MPD2    C411363   2.736   4.416  15.388 -0.3843 -0.1823 -0.6614
  766MPD2    C511364   2.653   4.474  15.481 -0.9945  0.4401  0.3882
  766MPD2     H11365   2.971   4.282  15.577 -0.0351  0.5059  0.7424
  766MPD2    H111366   2.709   4.419  15.283 -2.1687 -1.1069 -0.2466
  766MPD2    H211367   2.605   4.512  15.684  0.9207  1.5447 -0.0700
  766MPD2    H311368   2.572   4.538  15.448 -1.3977 -0.1460  0.2393
  766MPD2     N11369   2.920   4.296  15.319 -0.5386  0.3767  0.2093
  766MPD2    H511370   2.894   4.311  15.222 -1.4039 -0.5884  0.2885
  766MPD2    N111371   2.816   4.370  15.803 -0.4775 -0.9765  0.1903
  766MPD2    H711372   2.753   4.428  15.859 -0.3731 -2.9836  2.3998
  767MPD2     C11373   2.429   0.171  14.750 -0.0603  0.3204  0.1276
  767MPD2    C111374   2.534   0.116  14.820  0.0435  0.0736 -0.1390
  767MPD2    C211375   2.562   4.721  14.813  0.4244  0.1931 -0.4754
  767MPD2    C311376   2.472   4.640  14.744 -0.5475 -0.5402 -0.6814
  767MPD2    C411377   2.358   4.694  14.693 -0.6572  0.0108 -0.0824
  767MPD2    C511378   2.336   0.092  14.693  0.2293  0.1152  0.1631
  767MPD2     H11379   2.654   4.684  14.857 -1.3254 -2.2802  1.1333
  767MPD2    H111380   2.283   4.632  14.645 -0.0467 -1.4837  0.8890
  767MPD2    H211381   2.405   0.277  14.752 -0.9333  0.1572 -1.8311
  767MPD2    H311382   2.247   0.141  14.657 -0.3450 -1.9219 -1.2099
  767MPD2     N11383   2.491   4.501  14.721 -0.2026  0.3457  0.1345
  767MPD2    H511384   2.421   4.452  14.665 -1.4388  1.0563  1.0666
  767MPD2    N111385   2.628   0.198  14.883 -0.5726 -0.1555 -0.0271
  767MPD2    H711386   2.704   0.147  14.928 -0.6531 -0.1720  0.0869
  768MPD2     C11387   4.017   2.894  10.382 -0.5282  0.0380  0.2315
  768MPD2    C111388   3.989   2.859  10.514 -0.0191  0.2456 -0.9532
  768MPD2    C211389   4.089   2.871  10.609  0.8758  0.2863 -0.4231
  768MPD2    C311390   4.212   2.923  10.574  0.0688  0.0225  0.2943
  768MPD2    C411391   4.239   2.957  10.440  0.5704  0.1058 -0.1197
  768MPD2    C511392   4.141   2.940  10.348 -0.0313 -0.2244  0.0776
  768MPD2     H11393   4.070   2.849  10.713  0.9352  0.4722 -0.3736
  768MPD2    H111394   4.327   3.016  10.418 -0.6180  1.4192 -1.2968
  768MPD2    H211395   3.939   2.890  10.306 -2.5199  1.1658  2.2094
  768MPD2    H311396   4.169   2.967  10.247  0.9152 -3.9349 -0.6652
  768MPD2     N11397   4.319   2.937  10.665  0.4279 -0.1127  0.0943
  768MPD2    H511398   4.405   2.979  10.632 -0.8347  0.2633 -2.7471
  768MPD2    N111399   3.863   2.812  10.556 -0.1174  0.0770  0.5586
  768MPD2    H711400   3.859   2.801  10.657  1.1133  3.3265  0.9794
  769MPD2     C11401   4.641   0.936  14.829  0.7308 -0.0253 -0.2908
  769MPD2    C111402   4.648   0.847  14.929  0.5371  0.2046 -0.0939
  769MPD2    C211403   4.699   0.894  15.052  0.4236  0.4188  0.0972
  769MPD2    C311404   0.022   1.020  15.058 -0.3552 -0.0055  0.1051
  769MPD2    C411405   0.027   1.099  14.945  0.2064 -0.2760 -0.4225
  769MPD2    C511406   4.704   1.053  14.825  0.0961  0.1551  0.6399
  769MPD2     H11407   4.688   0.833  15.141 -1.5546  1.6834  0.7142
  769MPD2    H111408   0.067   1.199  14.951  0.9886 -0.6495  0.6048
  769MPD2    H211409   4.595   0.913  14.733  0.8926  0.1441 -0.4081
  769MPD2    H311410   4.714   1.117  14.739  0.1941 -1.4185 -0.5269
  769MPD2     N11411   0.082   1.059  15.174  0.3055 -0.3406 -0.0619
  769MPD2    H511412   0.078   0.995  15.253 -0.6903  0.6351  0.6761
  769MPD2    N111413   4.589   0.719  14.909 -0.3916  0.3808 -0.8489
  769MPD2    H711414   4.553   0.701  14.816 -0.5129 -1.1622 -0.5054
  770MPD2     C11415   4.276   0.018  15.551  0.4324 -0.1423 -0.0179
  770MPD2    C111416   4.201   4.734  15.437  0.1799  0.0717  1.0558
  770MPD2    C211417   4.246   0.060  15.323 -0.2872 -0.0733  0.7638
  770MPD2    C311418   4.349   0.151  15.328  0.4554  0.6897  0.9302
  770MPD2    C411419   4.419   0.173  15.446  0.1588 -0.1478  0.3805
  770MPD2    C511420   4.383   0.100  15.557  0.2011 -0.3652  0.6805
  770MPD2     H11421   4.202   0.026  15.230 -1.3658  0.0369  1.2361
  770MPD2    H111422   4.497   0.247  15.459  1.3337 -1.1817 -0.8932
  770MPD2    H211423   4.245   4.706  15.642 -0.2506 -1.5808 -1.0360
  770MPD2    H311424   4.429   0.122  15.653 -1.0089 -0.3335  1.2633
  770MPD2     N11425   4.398   0.224  15.217 -0.5341  0.0633 -0.3166
  770MPD2    H511426   4.492   0.262  15.229 -1.9941  3.5242 -0.1183
  770MPD2    N111427   4.094   4.649  15.443  0.6283 -0.1750 -0.9337
  770MPD2    H711428   4.074   4.597  15.527 -0.9444 -0.9328 -1.7797
  771MPD2     C11429   0.959   4.014  13.735  0.2659  1.0612  0.2062
  771MPD2    C111430   0.835   4.053  13.714  0.5265 -0.4421 -0.0872
  771MPD2    C211431   0.740   3.961  13.673  0.0138  0.3219 -0.0998
  771MPD2    C311432   0.770   3.837  13.637  0.5539 -0.0510 -0.4601
  771MPD2    C411433   0.900   3.796  13.661  0.1853  0.1520  0.0770
  771MPD2    C511434   0.994   3.880  13.715 -0.2086 -0.0484 -0.2911
  771MPD2     H11435   0.638   3.996  13.660  0.0783  0.8455  0.7506
  771MPD2    H111436   0.935   3.699  13.626  0.5867  1.4766 -3.1868
  771MPD2    H211437   1.033   4.074  13.786 -0.7485  2.1470  0.3875
  771MPD2    H311438   1.087   3.834  13.746  0.1339  0.4186 -0.6176
  771MPD2     N11439   0.675   3.755  13.570  0.2369  0.2196 -0.1529
  771MPD2    H511440   0.592   3.807  13.543  0.7278 -0.5224 -3.1761
  771MPD2    N111441   0.785   4.179  13.737  0.5180  0.2995  0.2662
  771MPD2    H711442   0.684   4.190  13.735  0.2147 -2.5924  0.6568
  772MPD2     C11443   0.254   4.548  14.021 -0.6028  0.5530 -0.4437
  772MPD2    C111444   0.293   4.445  13.938 -0.1709  0.1225 -0.1306
  772MPD2    C211445   0.230   4.323  13.951  0.2783  0.0241  0.0988
  772MPD2    C311446   0.139   4.300  14.047 -0.2160 -0.3086 -0.4772
  772MPD2    C411447   0.094   4.404  14.127  0.3255 -0.0722  0.0434
  772MPD2    C511448   0.147   4.530  14.101  0.3940  0.2905 -0.2035
  772MPD2     H11449   0.276   4.244  13.893  0.2041 -1.3177  1.8668
  772MPD2    H111450   0.029   4.389  14.213 -0.4041 -0.6111 -0.6120
  772MPD2    H211451   0.301   4.646  14.023  1.8300 -0.5907 -0.9233
  772MPD2    H311452   0.120   4.615  14.161 -2.7614 -0.2199 -0.9038
  772MPD2     N11453   0.072   4.173  14.061 -0.2867  0.3029 -0.0649
  772MPD2    H511454   0.010   4.169  14.141  0.9852  3.1295  1.0898
  772MPD2    N111455   0.414   4.454  13.861 -0.1968  0.0554  0.3014
  772MPD2    H711456   0.434   4.366  13.815 -0.2718 -0.7089  1.7542
  773MPD2     C11457   4.620   0.592   0.304 -0.3810  0.5239 -0.6464
  773MPD2    C111458   4.571   0.511   0.203 -0.2384  0.2544  0.5988
  773MPD2    C211459   4.626   0.383   0.199  0.1128  0.4084 -0.4597
  773MPD2    C311460   4.724   0.336   0.278  0.0070 -0.5946  0.0435
  773MPD2    C411461   0.037   0.422   0.375  0.1651 -0.5338  0.8814
  773MPD2    C511462   4.723   0.549   0.380  0.0396  0.3957  0.0507
  773MPD2     H11463   4.592   0.317   0.120  0.4118 -0.3394  0.0362
  773MPD2    H111464   0.120   0.394   0.439  1.6148  0.8556 -0.3549
  773MPD2    H211465   4.583   0.690   0.329  2.8012  2.1254 -2.3048
  773MPD2    H311466   0.028   0.626   0.443  2.1403 -0.1972 -0.6369
  773MPD2     N11467   0.032   0.200   0.270  0.2065  0.5999  0.6528
  773MPD2    H511468   4.712   0.153   0.201  1.1450 -1.9771  1.6216
  773MPD2    N111469   4.469   0.549   0.110 -0.6371 -0.0505 -0.4688
  773MPD2    H711470   4.424   0.487   0.044  0.5161 -0.9554 -0.4041
  774MPD2     C11471   4.436   4.266  13.432 -0.1631 -0.6400  0.5064
  774MPD2    C111472   4.324   4.338  13.434  0.0321  1.2484  0.9695
  774MPD2    C211473   4.336   4.478  13.451 -0.3244  0.2541  0.3261
  774MPD2    C311474   4.454   4.537  13.463 -0.3272 -0.2820 -0.6712
  774MPD2    C411475   4.568   4.471  13.449  0.1683  0.2484  0.1408
  774MPD2    C511476   4.560   4.334  13.440  0.6596 -0.5522  0.4809
  774MPD2     H11477   4.247   4.539  13.462 -0.3413 -0.0481  1.7561
  774MPD2    H111478   4.667   4.514  13.463 -0.0541  0.6363  0.4821
  774MPD2    H211479   4.437   4.158  13.427 -0.1956 -0.6250  0.1312
  774MPD2    H311480   4.652   4.278  13.453 -0.1875 -2.1441 -0.3734
  774MPD2     N11481   4.451   4.678  13.474  0.0172  0.3565  0.3032
  774MPD2    H511482   4.368   4.724  13.510  0.2649  1.9041 -1.1376
  774MPD2    N111483   4.199   4.271  13.441  0.2814  0.7193  0.2224
  774MPD2    H711484   4.212   4.171  13.429  1.0084  0.7247  0.9471
  775MPD2     C11485   0.487   0.980  15.716  0.4817 -0.0702 -0.5531
  775MPD2    C111486   0.463   1.097  15.779 -0.2878 -0.5705  0.6016
  775MPD2    C211487   0.559   1.199  15.763 -0.5139  0.3263  0.1848
  775MPD2    C311488   0.670   1.185  15.680  0.5068  0.7215 -0.0458
  775MPD2    C411489   0.688   1.065  15.615  0.1510  0.4126 -0.1676
  775MPD2    C511490   0.602   0.961  15.644 -0.4735 -0.4532  0.9611
  775MPD2     H11491   0.546   1.283  15.830 -1.9041 -0.5808  1.0503
  775MPD2    H111492   0.771   1.042  15.550 -0.2093  0.1235 -0.5225
  775MPD2    H211493   0.427   0.891  15.729  0.1178  0.4024  1.0393
  775MPD2    H311494   0.626   0.867  15.595  3.4700  1.6385 -1.1135
  775MPD2     N11495   0.764   1.285  15.649 -0.4383 -0.5688 -0.1344
  775MPD2    H511496   0.814   1.293  15.561  0.5488  2.4558  0.6938
  775MPD2    N111497   0.357   1.106  15.875  0.4046 -0.0932  0.8079
  775MPD2    H711498   0.290   1.030  15.886  1.1479 -0.7685  0.6405
  776MPD2     C11499   4.444   1.326  11.612  0.4221  0.1507 -0.4369
  776MPD2    C111500   4.337   1.371  11.549 -0.9868  0.2981 -0.0920
  776MPD2    C211501   4.315   1.508  11.542  0.5854 -0.1693 -0.2253
  776MPD2    C311502   4.402   1.598  11.599  0.2782 -0.0229  0.2022
  776MPD2    C411503   4.511   1.554  11.666 -0.2736  1.0474  0.2111
  776MPD2    C511504   4.528   1.417  11.674  0.0462  0.4508 -0.1585
  776MPD2     H11505   4.230   1.527  11.477  1.3931  0.8960 -0.9741
  776MPD2    H111506   4.583   1.626  11.702  0.8229 -0.1492  0.4047
  776MPD2    H211507   4.463   1.220  11.619 -1.4245 -0.1995 -0.7996
  776MPD2    H311508   4.616   1.384  11.728 -0.6622 -2.0157 -0.5460
  776MPD2     N11509   4.364   1.732  11.614  0.6940 -0.3822 -0.3985
  776MPD2    H511510   4.434   1.787  11.662 -0.7889 -0.4674  1.8307
  776MPD2    N111511   4.260   1.272  11.490  0.5894  0.2697  0.8082
  776MPD2    H711512   4.300   1.180  11.479  0.6575  0.6602 -2.2040
  777MPD2     C11513   4.234   3.885   0.708 -0.1350  0.3624  0.5271
  777MPD2    C111514   4.277   3.782   0.789  0.0231 -0.4368  0.8166
  777MPD2    C211515   4.265   3.654   0.732  0.4548  0.0849  0.5298
  777MPD2    C311516   4.206   3.639   0.607  0.7281 -0.0053  0.1629
  777MPD2    C411517   4.165   3.748   0.534  0.5077  0.4410  0.9667
  777MPD2    C511518   4.174   3.873   0.585 -0.0004  0.0276  0.2111
  777MPD2     H11519   4.291   3.563   0.786 -1.3450 -1.0681 -0.5417
  777MPD2    H111520   4.112   3.737   0.440 -1.0831  1.6931  1.7150
  777MPD2    H211521   4.262   3.984   0.744  1.4299  0.9044 -2.0792
  777MPD2    H311522   4.151   3.961   0.527  1.3107 -1.4620 -2.6020
  777MPD2     N11523   4.177   3.508   0.570  0.6065 -0.4019 -0.3288
  777MPD2    H511524   4.192   3.439   0.644 -0.6560 -0.0945  0.2179
  777MPD2    N111525   4.346   3.814   0.908 -0.5165 -0.3489  0.7932
  777MPD2    H711526   4.329   3.903   0.953  1.3909  0.4429 -0.0561
  778MPD2     C11527   0.875   4.234  15.101  0.2571  0.6436  0.4867
  778MPD2    C111528   0.863   4.123  15.024 -0.6744  0.3878 -0.2067
  778MPD2    C211529   0.898   4.135  14.892 -0.0239  0.3259  0.6516
  778MPD2    C311530   0.946   4.252  14.840 -0.4991  0.2301  0.3563
  778MPD2    C411531   0.962   4.359  14.919 -0.3461  0.2456 -0.0278
  778MPD2    C511532   0.916   4.356  15.052 -0.4686  0.1130  0.8586
  778MPD2     H11533   0.891   4.051  14.823  0.9260  0.4958  0.3495
  778MPD2    H111534   0.984   4.459  14.882  0.4615  0.3955  0.8647
  778MPD2    H211535   0.848   4.242  15.206 -0.4096 -0.8548  0.4376
  778MPD2    H311536   0.921   4.445  15.114  3.1869  1.2779 -1.1072
  778MPD2     N11537   0.970   4.256  14.700 -0.1029 -0.0741  0.4290
  778MPD2    H511538   0.962   4.175  14.640  1.5225 -0.7584  1.1396
  778MPD2    N111539   0.817   3.995  15.061 -0.0872 -0.7014 -0.3388
  778MPD2    H711540   0.828   3.916  14.998  2.1440 -1.8887  1.4847
  779MPD2     C11541   0.443   2.808  14.308  0.1242 -0.8319  0.6783
  779MPD2    C111542   0.572   2.758  14.321 -0.2016  0.2051 -0.2028
  779MPD2    C211543   0.673   2.848  14.304 -0.1157  0.2388  0.5096
  779MPD2    C311544   0.650   2.986  14.280 -0.0280  0.4557 -0.2646
  779MPD2    C411545   0.518   3.029  14.271  0.7572 -0.1798  0.3439
  779MPD2    C511546   0.418   2.939  14.290  0.0358  0.0495  0.1515
  779MPD2     H11547   0.774   2.811  14.319 -0.2245 -0.9197 -1.6993
  779MPD2    H111548   0.490   3.130  14.242 -2.1786 -1.4413 -1.2544
  779MPD2    H211549   0.358   2.741  14.301  0.8209 -1.9767  3.1149
  779MPD2    H311550   0.315   2.974  14.294  0.2992  0.5333  2.4737
  779MPD2     N11551   0.752   3.093  14.277 -0.3071  0.2310  0.6071
  779MPD2    H511552   0.726   3.186  14.246 -1.0389 -0.4573 -0.8436
  779MPD2    N111553   0.612   2.622  14.350 -0.4624 -0.4257 -0.7817
  779MPD2    H711554   0.712   2.606  14.344 -0.5303 -1.3883  0.6515
  780MPD2     C11555   4.366   3.103   0.544 -0.9466  0.1615  0.2408
  780MPD2    C111556   4.326   2.983   0.481 -0.4004 -0.4400  0.2948
  780MPD2    C211557   4.349   2.971   0.345 -0.7435  0.4752  0.1512
  780MPD2    C311558   4.423   3.063   0.275 -0.2078 -0.1492  0.5550
  780MPD2    C411559   4.451   3.187   0.337 -0.3511 -0.0134  0.1546
  780MPD2    C511560   4.415   3.210   0.471 -0.1890 -0.3799 -0.5843
  780MPD2     H11561   4.315   2.882   0.292  1.6750  0.3256 -1.1491
  780MPD2    H111562   4.505   3.268   0.290 -0.7056  0.5072  0.6420
  780MPD2    H211563   4.346   3.122   0.649 -3.2651 -0.6497 -0.0524
  780MPD2    H311564   4.437   3.310   0.506  2.5806 -1.1539 -0.1848
  780MPD2     N11565   4.459   3.028   0.148 -0.5395  0.4928 -0.5308
  780MPD2    H511566   4.436   2.938   0.107 -2.4525  0.5087  0.5175
  780MPD2    N111567   4.256   2.882   0.555  0.5634  0.0519  0.2012
  780MPD2    H711568   4.266   2.887   0.656  0.9607  0.6359  0.1333
  781MPD2     C11569   2.180   4.404  11.617 -0.0506  0.5720 -0.5844
  781MPD2    C111570   2.212   4.316  11.721 -0.6022  0.3738 -0.0792
  781MPD2    C211571   2.295   4.214  11.692  0.2169  0.3345  0.6598
  781MPD2    C311572   2.347   4.188  11.568  0.4567  0.7103  0.5919
  781MPD2    C411573   2.307   4.277  11.462  0.2713  0.0370  0.0095
  781MPD2    C511574   2.222   4.378  11.488 -0.1121  0.2065  0.1288
  781MPD2     H11575   2.330   4.147  11.770 -0.1226 -0.2398  0.3237
  781MPD2    H111576   2.340   4.268  11.360  1.1300 -2.5920  0.5084
  781MPD2    H211577   2.131   4.499  11.631 -1.5717 -0.4735  1.1421
  781MPD2    H311578   2.204   4.447  11.406 -1.7775 -0.7360 -0.3071
  781MPD2     N11579   2.428   4.076  11.533 -0.3551 -0.0649  0.0994
  781MPD2    H511580   2.427   4.057  11.434  1.6730 -0.6081  0.1884
  781MPD2    N111581   2.175   4.340  11.856  0.9738  0.0755 -0.1647
  781MPD2    H711582   2.167   4.259  11.916 -1.5286  0.1860 -0.3505
  782MPD2     C11583   4.638   0.107  10.123  1.0253 -0.1404  0.3676
  782MPD2    C111584   4.728   0.094  10.227  0.0425  0.5702 -0.3124
  782MPD2    C211585   0.010   0.208  10.319 -0.0049 -0.1247  0.9057
  782MPD2    C311586   4.687   0.327  10.300  0.1981  0.2200 -0.1975
  782MPD2    C411587   4.594   0.333  10.201 -0.3300  0.3870  0.1979
  782MPD2    C511588   4.566   0.225  10.119  0.0692  0.7468 -0.4271
  782MPD2     H11589   0.077   0.194  10.404  1.1917  1.4019  0.2214
  782MPD2    H111590   4.535   0.424  10.202 -0.8299  0.0403  1.7816
  782MPD2    H211591   4.610   0.022  10.062  3.1834 -0.1361 -0.6296
  782MPD2    H311592   4.496   0.239  10.038 -0.8285  1.0485  0.3976
  782MPD2     N11593   4.722   0.425  10.402  0.3775  0.6521  0.0516
  782MPD2    H511594   0.017   0.387  10.490 -3.2577 -3.3501 -0.3587
  782MPD2    N111595   0.079   4.723  10.252 -0.0680 -1.0291  0.7573
  782MPD2    H711596   0.137   4.728  10.335 -0.6708 -0.3293  1.1337
  783MPD2     C11597   4.377   4.335  10.841 -0.5958  0.1915 -0.2432
  783MPD2    C111598   4.449   4.455  10.850  0.5085  0.0071  0.0284
  783MPD2    C211599   4.578   4.464  10.798  0.1692  0.1680  0.5280
  783MPD2    C311600   4.623   4.356  10.717  0.7254 -0.8980 -0.0816
  783MPD2    C411601   4.553   4.236  10.713 -0.1822 -0.4862  0.3775
  783MPD2    C511602   4.430   4.226  10.778  0.7818  0.3735 -0.0969
  783MPD2     H11603   4.636   4.556  10.795  1.6997 -0.8234 -0.3830
  783MPD2    H111604   4.577   4.154  10.646 -0.5777 -0.0732 -0.2697
  783MPD2    H211605   4.278   4.323  10.882 -1.2029  1.3113 -1.3905
  783MPD2    H311606   4.371   4.136  10.763  0.9853  0.0498  1.0827
  783MPD2     N11607   4.732   4.376  10.635 -0.2129 -0.2368  0.1367
  783MPD2    H511608   0.034   4.469  10.629 -0.3160 -0.3844 -2.6111
  783MPD2    N111609   4.386   4.560  10.909 -0.0122 -0.0182  0.0733
  783MPD2    H711610   4.293   4.544  10.948  0.4737 -2.2284  0.3250
  784MPD2     C11611   2.281   0.858   0.268 -0.5406  1.1690 -0.8129
  784MPD2    C111612   2.298   0.971   0.346  0.0345 -0.1615 -0.7268
  784MPD2    C211613   2.218   1.083   0.315 -0.0004 -0.0630  0.5512
  784MPD2    C311614   2.128   1.090   0.210 -0.3632 -0.2354  0.6505
  784MPD2    C411615   2.130   0.978   0.124 -0.1713 -0.0551 -0.5099
  784MPD2    C511616   2.202   0.864   0.157 -0.1142  0.8180  0.0759
  784MPD2     H11617   2.235   1.170   0.377  5.1122 -0.2783 -0.5335
  784MPD2    H111618   2.085   0.991   0.026  0.0404 -0.6519 -0.6852
  784MPD2    H211619   2.347   0.773   0.278 -0.7812  1.1942  0.9761
  784MPD2    H311620   2.207   0.786   0.082 -2.3819  2.4538 -1.7457
  784MPD2     N11621   2.052   1.208   0.183  0.9632  0.1602  0.4819
  784MPD2    H511622   2.074   1.290   0.240  0.6508 -0.2951  1.2583
  784MPD2    N111623   2.391   0.977   0.448 -0.1960 -0.1515  0.3089
  784MPD2    H711624   2.391   1.067   0.495 -3.7453  0.9723 -1.8617
  785MPD2     C11625   2.602   3.004  10.726  0.4344  0.2018 -0.1746
  785MPD2    C111626   2.573   3.139  10.699  0.9278 -0.8540  1.1247
  785MPD2    C211627   2.460   3.173  10.628  0.3510 -1.1097  0.2932
  785MPD2    C311628   2.383   3.070  10.571 -0.0164 -0.2256 -0.2302
  785MPD2    C411629   2.424   2.938  10.585 -0.1861  0.5727 -0.2739
  785MPD2    C511630   2.530   2.906  10.665 -0.5343 -0.6754  0.5192
  785MPD2     H11631   2.424   3.273  10.611 -0.8410 -1.5945 -0.0286
  785MPD2    H111632   2.380   2.852  10.537  0.7519 -0.2254  0.2967
  785MPD2    H211633   2.684   2.974  10.789  0.4452  0.1036 -0.2359
  785MPD2    H311634   2.560   2.806  10.692  1.2554 -0.2557  0.0981
  785MPD2     N11635   2.260   3.104  10.510  0.3205  0.1602  0.3506
  785MPD2    H511636   2.227   3.200  10.523 -0.6942  0.0517 -1.4097
  785MPD2    N111637   2.640   3.245  10.771  0.0088 -0.2746  0.2451
  785MPD2    H711638   2.683   3.217  10.859  1.2317  1.5728  0.2462
  786MPD2     C11639   0.840   1.832  14.880 -0.2514 -0.1591 -0.3335
  786MPD2    C111640   0.970   1.827  14.848  0.2943  0.4273  0.1361
  786MPD2    C211641   1.069   1.832  14.945 -0.0367  1.0388 -0.0823
  786MPD2    C311642   1.042   1.871  15.074 -0.2759 -0.0532 -0.3199
  786MPD2    C411643   0.907   1.870  15.109  0.7275 -0.2639  0.1903
  786MPD2    C511644   0.813   1.848  15.010  0.3756  0.0113 -0.2901
  786MPD2     H11645   1.173   1.830  14.916 -0.4734  0.2457 -1.5875
  786MPD2    H111646   0.885   1.867  15.215  0.5255  1.8350  0.2086
  786MPD2    H211647   0.752   1.817  14.818 -0.2914  0.9356 -0.5391
  786MPD2    H311648   0.711   1.833  15.043  0.0984  2.2810 -0.1484
  786MPD2     N11649   1.138   1.895  15.181 -0.1987 -0.3170 -0.4721
  786MPD2    H511650   1.110   1.938  15.269  1.7184 -0.8230  0.3786
  786MPD2    N111651   1.016   1.823  14.718 -0.0204  0.2407 -0.0340
  786MPD2    H711652   1.116   1.810  14.705 -0.2781 -1.9702  0.1922
  787MPD2     C11653   1.514   1.763  14.805 -0.1364  0.2063  0.5845
  787MPD2    C111654   1.491   1.703  14.681 -0.6809 -0.3460 -0.3955
  787MPD2    C211655   1.542   1.574  14.659  0.1627 -0.1312 -0.2784
  787MPD2    C311656   1.608   1.508  14.756 -0.0041  0.2292 -0.5351
  787MPD2    C411657   1.636   1.568  14.879 -0.7214 -0.3890  0.1694
  787MPD2    C511658   1.587   1.698  14.898  0.4705  0.4764 -0.3474
  787MPD2     H11659   1.522   1.523  14.566 -1.2244 -2.0830  1.0826
  787MPD2    H111660   1.690   1.512  14.954 -0.4044 -0.2948  0.0103
  787MPD2    H211661   1.469   1.858  14.832  0.1164  0.8677 -1.3901
  787MPD2    H311662   1.611   1.752  14.989 -3.3872 -0.5326  1.2965
  787MPD2     N11663   1.632   1.371  14.723 -0.0186  0.3315  0.0379
  787MPD2    H511664   1.603   1.349  14.629  0.4220 -0.3556  0.0642
  787MPD2    N111665   1.410   1.771  14.582  0.5396  0.1914  1.0213
  787MPD2    H711666   1.383   1.867  14.602 -2.5198 -0.0785 -1.8590
  788MPD2     C11667   3.177   1.173   0.755 -0.2388 -0.2991  0.2099
  788MPD2    C111668   3.115   1.083   0.665  0.5793 -0.7706 -0.3814
  788MPD2    C211669   3.018   1.124   0.575  0.2919  0.3821  0.3434
  788MPD2    C311670   2.982   1.258   0.579  0.3323  1.1452 -0.3457
  788MPD2    C411671   3.048   1.349   0.657  0.3707 -0.9669  0.8195
  788MPD2    C511672   3.146   1.308   0.750  0.0577 -0.1531 -0.0851
  788MPD2     H11673   2.976   1.048   0.510 -1.6287  0.2374  1.7452
  788MPD2    H111674   3.004   1.448   0.666  1.7771 -0.0246 -2.5903
  788MPD2    H211675   3.258   1.142   0.820 -1.0468 -0.6981  1.0287
  788MPD2    H311676   3.182   1.377   0.824  0.2449  1.8168 -2.0128
  788MPD2     N11677   2.886   1.314   0.491  0.5897  0.3582  0.0021
  788MPD2    H511678   2.883   1.415   0.483 -0.9397  0.4738  1.8943
  788MPD2    N111679   3.167   0.943   0.649 -0.2963 -0.4509 -0.5625
  788MPD2    H711680   3.121   0.889   0.576  0.9073 -1.3176 -0.6677
  789MPD2     C11681   3.281   4.382  17.169 -0.4355 -0.0178  0.2698
  789MPD2    C111682   3.212   4.393  17.050  0.1222 -0.1228 -1.0089
  789MPD2    C211683   3.189   4.516  16.989  0.0151  0.0531  0.2017
  789MPD2    C311684   3.230   4.634  17.050  0.0770  0.1315 -0.2366
  789MPD2    C411685   3.286   4.626  17.170 -0.1389  0.1740  0.3262
  789MPD2    C511686   3.314   4.506  17.231 -0.1034  0.5144  0.0931
  789MPD2     H11687   3.146   4.527  16.890  0.3942  0.2080  0.0583
  789MPD2    H111688   3.330   4.712  17.219  0.6392 -1.0009  1.6778
  789MPD2    H211689   3.303   4.288  17.219 -0.8564 -0.6248 -0.6919
  789MPD2    H311690   3.380   4.509  17.317  1.3453  0.3433 -1.0118
  789MPD2     N11691   3.199   0.021  17.000  0.0663 -0.4126 -0.5236
  789MPD2    H511692   3.201   0.098  17.066 -0.4390 -1.8907  1.2209
  789MPD2    N111693   3.172   4.277  16.979 -0.8044 -0.2850 -0.2199
  789MPD2    H711694   3.100   4.283  16.908 -0.5784  2.2581 -0.2275
  790MPD2     C11695   4.383   1.753  13.600  1.2182  0.5805 -1.1726
  790MPD2    C111696   4.367   1.614  13.587  0.1429  0.4447  0.3505
  790MPD2    C211697   4.324   1.554  13.467  0.1981 -0.9427 -0.3410
  790MPD2    C311698   4.282   1.634  13.362 -0.5441  0.3348  0.1863
  790MPD2    C411699   4.290   1.774  13.382  0.1956  0.5972 -0.1848
  790MPD2    C511700   4.340   1.828  13.494  0.2839 -0.1251  0.6414
  790MPD2     H11701   4.320   1.447  13.454  1.8859 -1.2064  1.3566
  790MPD2    H111702   4.266   1.854  13.312 -2.1714  1.2599  1.3897
  790MPD2    H211703   4.403   1.804  13.693 -0.7989  0.5211 -0.6980
  790MPD2    H311704   4.338   1.935  13.504  0.2428 -0.0728  0.0149
  790MPD2     N11705   4.237   1.575  13.243 -0.0286  0.1945 -0.5273
  790MPD2    H511706   4.258   1.477  13.229  0.4799 -0.0304  1.7965
  790MPD2    N111707   4.395   1.530  13.702  0.1743 -0.6072 -0.5311
  790MPD2    H711708   4.354   1.438  13.699  1.5994 -1.2536 -0.1411
  791MPD2     C11709   3.719   1.614  12.521  0.4608 -0.4587  0.5638
  791MPD2    C111710   3.749   1.526  12.619 -0.0823  0.4058  0.8789
  791MPD2    C211711   3.676   1.420  12.630  0.7496 -0.0452  0.4133
  791MPD2    C311712   3.554   1.407  12.571  0.4845  0.5701 -0.0844
  791MPD2    C411713   3.512   1.502  12.483 -0.0988 -0.3309  0.3902
  791MPD2    C511714   3.602   1.597  12.447  0.1212 -0.0421 -0.3153
  791MPD2     H11715   3.714   1.338  12.690 -0.3478  0.1807  1.4286
  791MPD2    H111716   3.424   1.496  12.421  0.2342  0.4074 -0.1517
  791MPD2    H211717   3.789   1.695  12.504  0.1123 -0.4353 -0.7800
  791MPD2    H311718   3.576   1.665  12.366 -3.2950 -0.6816  0.2537
  791MPD2     N11719   3.473   1.298  12.619 -0.0765  0.0375  0.4094
  791MPD2    H511720   3.509   1.233  12.689  1.4990  1.2347  0.7182
  791MPD2    N111721   3.874   1.565  12.688 -0.0944 -0.3983  0.5425
  791MPD2    H711722   3.908   1.660  12.679  0.3512 -1.1722 -5.7076
  792MPD2     C11723   3.984   1.451  11.205 -0.1935 -0.0567 -0.1341
  792MPD2    C111724   4.110   1.429  11.161  0.2963 -0.3574 -0.1695
  792MPD2    C211725   4.138   1.319  11.081 -0.1914  0.0567  0.7127
  792MPD2    C311726   4.029   1.238  11.039 -0.0770 -0.2855  0.3366
  792MPD2    C411727   3.902   1.263  11.089  0.0684 -0.0464 -0.0216
  792MPD2    C511728   3.874   1.369  11.173  0.0382 -0.3361  0.5015
  792MPD2     H11729   4.237   1.291  11.045 -0.6436  0.2711 -0.6650
  792MPD2    H111730   3.821   1.194  11.070  1.3056 -1.2443 -0.9693
  792MPD2    H211731   3.958   1.540  11.263 -1.3272  0.8115 -1.9867
  792MPD2    H311732   3.774   1.393  11.206  1.2666  3.2899  1.5983
  792MPD2     N11733   4.044   1.134  10.950 -0.2248 -0.3751  0.1373
  792MPD2    H511734   3.958   1.084  10.927 -0.9129  1.1311 -0.5849
  792MPD2    N111735   4.202   1.530  11.204 -0.4866 -1.2733  0.3295
  792MPD2    H711736   4.157   1.613  11.242 -0.8399 -0.1602 -2.5347
  793MPD2     C11737   3.512   0.971  10.280 -0.3311 -0.1424  0.0621
  793MPD2    C111738   3.606   1.072  10.304 -0.0261  0.1317 -0.4110
  793MPD2    C211739   3.713   1.044  10.381 -0.7473  0.2716  0.3699
  793MPD2    C311740   3.735   0.922  10.442 -0.0012  0.2213  0.1239
  793MPD2    C411741   3.642   0.819  10.425 -0.4590  0.2982 -0.4142
  793MPD2    C511742   3.538   0.855  10.342  0.2340 -0.4422  0.0361
  793MPD2     H11743   3.789   1.119  10.399 -0.6598  0.0075  1.0690
  793MPD2    H111744   3.641   0.716  10.458  0.1434  1.0729  2.0435
  793MPD2    H211745   3.429   0.973  10.211 -1.9624  1.8878  2.1019
  793MPD2    H311746   3.463   0.779  10.327  0.2981 -0.3790 -0.6127
  793MPD2     N11747   3.853   0.917  10.519 -1.0169 -0.7792  0.1791
  793MPD2    H511748   3.904   1.004  10.516  0.3293 -1.4699  3.5990
  793MPD2    N111749   3.588   1.203  10.254  0.5010 -0.5822 -0.4187
  793MPD2    H711750   3.648   1.280  10.283 -0.3655  0.5668 -1.6601
  794MPD2     C11751   4.191   1.223  17.392  0.0438 -0.1482  0.4879
  794MPD2    C111752   4.147   1.103  17.340  0.6080  0.2961 -0.7765
  794MPD2    C211753   4.065   1.105  17.235  0.1653 -0.2602  0.9004
  794MPD2    C311754   4.035   1.220  17.164  0.1201  0.6612 -0.0337
  794MPD2    C411755   4.083   1.335  17.217  0.1494 -0.6594 -0.6567
  794MPD2    C511756   4.157   1.342  17.332 -1.0290  0.7103  0.6081
  794MPD2     H11757   4.031   1.009  17.198 -3.2459  1.3032  0.0357
  794MPD2    H111758   4.053   1.428  17.169 -2.3728 -1.9054 -1.5212
  794MPD2    H211759   4.258   1.223  17.478 -1.3739  0.2823  1.5884
  794MPD2    H311760   4.189   1.440  17.366  0.5125  0.6912 -0.7880
  794MPD2     N11761   3.950   1.219  17.047  0.2545 -0.4663 -0.0829
  794MPD2    H511762   3.942   1.310  17.003  2.7238 -0.1828  0.0291
  794MPD2    N111763   4.185   0.979  17.404 -0.3715 -0.4740  0.6777
  794MPD2    H711764   4.135   0.900  17.366 -0.1530 -1.0556  1.6005
  795MPD2     C11765   1.771   2.972  13.287  0.5444  0.0097 -0.2780
  795MPD2    C111766   1.841   2.892  13.198  0.3371  0.8729 -0.6763
  795MPD2    C211767   1.950   2.824  13.240  0.0009  0.3742  0.2532
  795MPD2    C311768   1.991   2.834  13.367 -0.1587  0.3369 -0.3237
  795MPD2    C411769   1.928   2.917  13.452 -0.4626  0.9137  0.6024
  795MPD2    C511770   1.816   2.985  13.414 -0.3716 -0.8764 -0.2806
  795MPD2     H11771   1.995   2.749  13.175 -1.2439  0.9805 -1.3020
  795MPD2    H111772   1.943   2.926  13.559  2.0697 -1.2378  0.4086
  795MPD2    H211773   1.682   3.031  13.269 -0.9077 -1.6679  1.3986
  795MPD2    H311774   1.769   3.047  13.489 -0.2942  3.2036 -3.6032
  795MPD2     N11775   2.103   2.762  13.414  0.1484  0.2347 -0.0253
  795MPD2    H511776   2.122   2.673  13.369 -0.4863  0.8528 -1.5350
  795MPD2    N111777   1.796   2.873  13.068 -0.6455 -0.1359 -0.7906
  795MPD2    H711778   1.845   2.803  13.014 -0.1554 -1.4877  1.4112
  796MPD2     C11779   1.391   4.309  15.766 -0.1649  0.0214 -0.1448
  796MPD2    C111780   1.448   4.380  15.864 -0.0768  0.8499 -0.1952
  796MPD2    C211781   1.428   4.516  15.862 -0.3195 -0.9786 -0.0956
  796MPD2    C311782   1.372   4.579  15.751  0.4042 -0.2053  0.1579
  796MPD2    C411783   1.330   4.502  15.644  0.2732 -0.4604  0.0168
  796MPD2    C511784   1.336   4.361  15.657 -0.2856  0.4814 -0.8518
  796MPD2     H11785   1.470   4.580  15.938 -0.6141 -0.2865 -0.5086
  796MPD2    H111786   1.280   4.538  15.555 -0.4598  1.0756  1.0368
  796MPD2    H211787   1.393   4.201  15.775 -0.6580  0.1588  1.5635
  796MPD2    H311788   1.301   4.295  15.578  1.2845  0.8805 -1.8911
  796MPD2     N11789   1.355   4.717  15.750 -0.5712  0.4882  0.4068
  796MPD2    H511790   1.402   0.033  15.822  0.7665 -3.1828  2.2288
  796MPD2    N111791   1.502   4.307  15.969  0.3010  1.4600  0.7398
  796MPD2    H711792   1.504   4.206  15.963 -0.1954  1.3766  1.8956
  797MPD2     C11793   2.568   3.928  17.746  0.2259  0.2554  0.0439
  797MPD2    C111794   2.513   4.049  17.704 -0.4626 -0.6036 -0.3365
  797MPD2    C211795   2.442   4.051  17.586  0.6819  0.3870 -0.2412
  797MPD2    C311796   2.426   3.936  17.509  0.2367  0.3348  0.3892
  797MPD2    C411797   2.485   3.824  17.548 -1.0013  0.4003  0.1634
  797MPD2    C511798   2.551   3.818  17.664 -0.8888  0.4554 -0.2687
  797MPD2     H11799   2.390   4.141  17.555  0.8394  0.3165 -0.7078
  797MPD2    H111800   2.474   3.734  17.490 -0.6144 -0.4141  1.3523
  797MPD2    H211801   2.616   3.904   0.094  1.2527  1.4579 -0.1700
  797MPD2    H311802   2.588   3.722  17.699  0.3216  0.1219 -2.4832
  797MPD2     N11803   2.342   3.929  17.396 -0.0111 -0.0675  0.1268
  797MPD2    H511804   2.363   3.858  17.327  1.7527  2.4152 -1.8923
  797MPD2    N111805   2.543   4.174   0.012 -0.5034  0.9479 -0.3570
  797MPD2    H711806   2.500   4.247  17.704 -1.2264  0.3192 -0.6298
  798MPD2     C11807   2.534   4.664  17.184  0.0585  0.1985  0.2854
  798MPD2    C111808   2.514   4.539  17.226  0.4717  0.7069 -0.0446
  798MPD2    C211809   2.536   4.501  17.355  0.4699  0.6507  0.0145
  798MPD2    C311810   2.595   4.593  17.438 -0.1686 -0.3714  0.0744
  798MPD2    C411811   2.621   4.719  17.396 -0.4024 -0.1867  0.2096
  798MPD2    C511812   2.589   0.023  17.267 -0.2444 -0.0616  0.0217
  798MPD2     H11813   2.503   4.406  17.394 -1.1391  0.9197 -0.7037
  798MPD2    H111814   2.668   0.058  17.457  0.1753 -0.1608 -0.2713
  798MPD2    H211815   2.514   4.698  17.083  0.2073 -1.1361 -0.1841
  798MPD2    H311816   2.607   0.119  17.221 -2.0915  0.0499 -0.4578
  798MPD2     N11817   2.623   4.553  17.572 -0.1461  0.4385  0.9204
  798MPD2    H511818   2.604   4.454  17.588  0.9693  0.1284  0.3614
  798MPD2    N111819   2.465   4.439  17.138 -0.6019 -0.6488  0.3376
  798MPD2    H711820   2.409   4.462  17.056 -0.3989  1.1102  0.6887
  799MPD2     C11821   1.382   1.000  14.970 -0.2225 -0.0987 -0.5741
  799MPD2    C111822   1.294   0.931  14.888  0.2963 -0.3511  0.0284
  799MPD2    C211823   1.247   0.990  14.773 -0.4047 -0.1645  0.1323
  799MPD2    C311824   1.278   1.124  14.747 -0.5897 -0.3511 -0.5460
  799MPD2    C411825   1.368   1.185  14.825 -0.4725 -0.1579 -0.0062
  799MPD2    C511826   1.402   1.130  14.941  0.2282 -0.5096 -0.5876
  799MPD2     H11827   1.185   0.933  14.705  3.1091 -1.2525 -2.1655
  799MPD2    H111828   1.408   1.281  14.795 -1.2320  0.5968  1.3568
  799MPD2    H211829   1.416   0.960  15.065 -1.7068  0.5101  0.2239
  799MPD2    H311830   1.461   1.182  15.016 -1.4784  2.0366 -0.9972
  799MPD2     N11831   1.232   1.200  14.636 -0.2675  0.0927  0.2185
  799MPD2    H511832   1.272   1.291  14.618  0.1613 -0.0025  0.6831
  799MPD2    N111833   1.276   0.794  14.900  0.1027 -0.3625 -0.0118
  799MPD2    H711834   1.201   0.760  14.841  0.3129 -1.2752  0.2589
  800MPD2     C11835   2.119   2.177  13.211 -0.0584 -0.3398 -0.1471
  800MPD2    C111836   2.048   2.099  13.300 -0.2444  0.1212  0.7551
  800MPD2    C211837   1.972   1.992  13.255  0.4933  0.1074 -0.1668
  800MPD2    C311838   1.987   1.951  13.121  0.8261  0.4086  0.2949
  800MPD2    C411839   2.061   2.032  13.035  0.5914 -0.1926 -0.4330
  800MPD2    C511840   2.126   2.139  13.080 -0.1443 -0.3509  0.2669
  800MPD2     H11841   1.908   1.931  13.319  1.5308  1.4197  2.1339
  800MPD2    H111842   2.088   2.005  12.933  1.3821 -0.2154 -0.2229
  800MPD2    H211843   2.181   2.260  13.242 -1.4420  0.1378  1.3427
  800MPD2    H311844   2.162   2.216  13.012  0.8366 -1.3197 -0.3189
  800MPD2     N11845   1.913   1.839  13.077 -0.2252 -0.3156  0.0322
  800MPD2    H511846   1.839   1.803  13.136  0.0778 -0.4237  0.3505
  800MPD2    N111847   2.054   2.144  13.429  0.3904  0.5951 -0.0791
  800MPD2    H711848   2.101   2.233  13.438 -0.5312  1.1073 -0.3841
  801MPD2     C11849   2.022   2.775  13.824  0.1149 -0.1313 -0.3835
  801MPD2    C111850   2.035   2.682  13.921  0.4833 -0.4146  0.1126
  801MPD2    C211851   2.006   2.720  14.047 -0.7407 -0.3186 -0.0852
  801MPD2    C311852   1.951   2.845  14.074 -0.5077  0.1047  0.0317
  801MPD2    C411853   1.939   2.933  13.968  0.6783 -0.1920  0.1372
  801MPD2    C511854   1.983   2.902  13.842 -0.3684  0.6704  0.4292
  801MPD2     H11855   2.006   2.636  14.116  1.6321 -0.1496  0.1156
  801MPD2    H111856   1.890   3.030  13.977  0.5164 -0.0364 -2.2818
  801MPD2    H211857   2.070   2.760  13.728 -0.1776 -1.4729 -0.3239
  801MPD2    H311858   1.985   2.978  13.764  1.2623 -1.7877 -1.9512
  801MPD2     N11859   1.892   2.881  14.199  0.7547 -0.3890 -0.5674
  801MPD2    H511860   1.845   2.970  14.196  1.9027  0.3112  2.4876
  801MPD2    N111861   2.073   2.545  13.894 -0.0879 -0.2364  0.0756
  801MPD2    H711862   2.091   2.483  13.972 -2.7680 -0.4714  0.5018
  802MPD2     C11863   0.916   3.537   0.498 -0.2029  0.4725  0.0887
  802MPD2    C111864   0.893   3.546   0.356 -0.2041 -0.1089  0.3493
  802MPD2    C211865   1.002   3.522   0.275 -0.1728  0.0915 -0.2471
  802MPD2    C311866   1.120   3.467   0.319  0.0565  0.0304  0.2266
  802MPD2    C411867   1.132   3.446   0.457  0.1867  0.0005 -0.0190
  802MPD2    C511868   1.028   3.475   0.542  0.0059 -0.2047  0.0660
  802MPD2     H11869   0.986   3.543   0.169  1.8725 -1.1201 -0.8016
  802MPD2    H111870   1.222   3.397   0.494  0.4195  0.3333 -0.1496
  802MPD2    H211871   0.835   3.545   0.570 -0.5500  0.2544 -0.2743
  802MPD2    H311872   1.040   3.459   0.648  0.7098  0.5425  0.0927
  802MPD2     N11873   1.217   3.423   0.239 -0.0446 -0.2157  0.6578
  802MPD2    H511874   1.299   3.382   0.283  0.5307 -0.5007 -0.6690
  802MPD2    N111875   0.776   3.596   0.297  0.4918 -0.7367  0.1384
  802MPD2    H711876   0.777   3.611   0.197  0.1609 -0.2489  0.2069
  803MPD2     C11877   2.475   1.714  12.501 -0.2676  0.5277 -0.1686
  803MPD2    C111878   2.576   1.629  12.537  0.5349 -1.4181  0.5983
  803MPD2    C211879   2.558   1.540  12.640 -0.0023 -0.3139  0.3997
  803MPD2    C311880   2.437   1.518  12.701 -0.3306 -0.2215 -0.3059
  803MPD2    C411881   2.337   1.605  12.668  0.4198 -0.4873  0.2215
  803MPD2    C511882   2.354   1.698  12.570  0.3693 -0.2448  0.8481
  803MPD2     H11883   2.650   1.491  12.670 -0.4032 -1.1560  0.2282
  803MPD2    H111884   2.240   1.594  12.714 -0.5221 -0.2530 -1.7020
  803MPD2    H211885   2.484   1.796  12.431  0.1086  1.7256  1.2703
  803MPD2    H311886   2.272   1.765  12.545  1.3769 -0.3828 -2.8160
  803MPD2     N11887   2.428   1.414  12.793  0.2420 -0.0668  1.4925
  803MPD2    H511888   2.510   1.359  12.814 -0.0597 -0.5456  1.4081
  803MPD2    N111889   2.703   1.637  12.478 -0.0405  0.0635 -0.0750
  803MPD2    H711890   2.778   1.587  12.524  0.2897 -0.1614 -0.8693
  804MPD2     C11891   1.903   2.739  16.687  0.3232  0.1990  0.9974
  804MPD2    C111892   1.842   2.749  16.815  0.2371 -0.1685  0.1273
  804MPD2    C211893   1.881   2.849  16.910 -0.7652  0.1222  0.5061
  804MPD2    C311894   1.981   2.942  16.872 -0.0649 -0.4978 -0.0959
  804MPD2    C411895   2.024   2.937  16.740 -0.3713  0.2232  0.3059
  804MPD2    C511896   1.986   2.841  16.647  0.1868  0.4588 -0.4004
  804MPD2     H11897   1.837   2.856  17.009 -2.4290 -2.0990 -0.0724
  804MPD2    H111898   2.095   3.014  16.712 -0.2745 -0.0169 -0.1172
  804MPD2    H211899   1.882   2.660  16.616 -0.6365  0.7017  0.7184
  804MPD2    H311900   2.039   2.834  16.553 -0.3458  1.5054 -0.7703
  804MPD2     N11901   2.022   3.042  16.968 -0.1381  0.8317  0.3924
  804MPD2    H511902   1.976   3.045  17.058  2.8782  2.5356  1.8600
  804MPD2    N111903   1.758   2.654  16.869  0.3377  0.4516 -0.2591
  804MPD2    H711904   1.728   2.651  16.966  0.7747  2.1667 -0.0839
  805MPD2     C11905   1.146   1.303  15.688  0.3564 -0.3679 -0.4514
  805MPD2    C111906   1.239   1.278  15.594 -0.6982  0.7366  0.6837
  805MPD2    C211907   1.368   1.289  15.640 -0.7071 -0.0332  0.2296
  805MPD2    C311908   1.406   1.332  15.768 -0.6301 -0.1420 -0.8171
  805MPD2    C411909   1.303   1.348  15.869  0.2799 -0.7434  0.0025
  805MPD2    C511910   1.177   1.328  15.818 -0.1325  0.0950  0.0155
  805MPD2     H11911   1.451   1.272  15.572 -2.5478 -0.0011 -2.0176
  805MPD2    H111912   1.309   1.375  15.973 -1.4335 -1.5593  0.3245
  805MPD2    H211913   1.044   1.283  15.660 -1.0595  3.9594  1.6960
  805MPD2    H311914   1.093   1.344  15.885  0.2802  0.4175  0.4605
  805MPD2     N11915   1.541   1.352  15.802 -0.5704  0.1446 -0.0623
  805MPD2    H511916   1.600   1.370  15.721 -2.4196  1.8369 -1.0592
  805MPD2    N111917   1.225   1.244  15.455 -0.1108  0.2360  0.1193
  805MPD2    H711918   1.312   1.224  15.407  0.8877  2.5084  0.9478
  806MPD2     C11919   1.344   0.697   0.056  0.2777  0.2015 -0.3484
  806MPD2    C111920   1.346   0.827   0.108 -0.5062 -0.0044  0.3729
  806MPD2    C211921   1.373   0.938   0.032 -0.0215 -0.2307  0.3671
  806MPD2    C311922   1.441   0.921  17.664 -0.4096  0.4042 -0.5441
  806MPD2    C411923   1.448   0.789  17.617  0.3045  0.2251  0.3151
  806MPD2    C511924   1.392   0.680  17.680 -0.6112  0.3532 -0.4127
  806MPD2     H11925   1.361   1.034   0.081  3.7540  0.0870  0.6457
  806MPD2    H111926   1.492   0.771  17.520 -2.3411  0.5123 -0.9599
  806MPD2    H211927   1.310   0.614   0.117 -1.2494  1.1405  0.0762
  806MPD2    H311928   1.391   0.586  17.628  0.9587  0.2843 -0.3412
  806MPD2     N11929   1.483   1.042  17.605 -0.6473  0.2927 -0.2676
  806MPD2    H511930   1.460   1.126  17.658  1.0222  0.6309 -0.0536
  806MPD2    N111931   1.293   0.858   0.240 -0.8182 -0.3710 -0.1827
  806MPD2    H711932   1.301   0.954   0.272 -0.7376 -0.8647  1.2793
  807MPD2     C11933   0.945   0.598   0.978  0.2638  0.1418  0.3240
  807MPD2    C111934   0.990   0.572   0.856 -0.3846  0.6485 -0.8309
  807MPD2    C211935   1.016   0.442   0.827 -0.7147  0.0937  0.0654
  807MPD2    C311936   1.004   0.339   0.919 -0.5091  0.0543 -0.1185
  807MPD2    C411937   0.955   0.375   1.041 -0.0382  0.3058  0.0504
  807MPD2    C511938   0.928   0.500   1.068 -0.0887  0.0694 -0.4140
  807MPD2     H11939   1.051   0.416   0.728  1.3426  4.8558 -0.4370
  807MPD2    H111940   0.946   0.294   1.112 -0.4440  0.8880  0.6550
  807MPD2    H211941   0.922   0.700   1.006  2.4462 -0.0568  2.8015
  807MPD2    H311942   0.892   0.513   1.170 -1.2807 -0.3445 -0.7814
  807MPD2     N11943   1.047   0.211   0.877  0.3729  0.5913  0.1429
  807MPD2    H511944   1.071   0.208   0.778  0.1677 -0.3251  0.1245
  807MPD2    N111945   1.015   0.663   0.750  0.3836  0.0579  0.5480
  807MPD2    H711946   1.038   0.634   0.656  0.9768 -0.4247  0.8485
  808MPD2     C11947   1.302   0.596   9.756 -0.3993  0.0100 -0.1665
  808MPD2    C111948   1.358   0.580   9.880 -0.1412  0.2261 -0.0126
  808MPD2    C211949   1.440   0.685   9.934 -0.2350 -0.1372  0.2898
  808MPD2    C311950   1.463   0.793   9.851  0.5697 -0.1138  0.3066
  808MPD2    C411951   1.405   0.801   9.728 -0.0980  0.2087 -0.3071
  808MPD2    C511952   1.323   0.708   9.677 -0.9954  0.3358 -0.0287
  808MPD2     H11953   1.487   0.684  10.031  1.1097  1.0144 -0.3528
  808MPD2    H111954   1.423   0.895   9.678 -2.9445  1.2484  0.5922
  808MPD2    H211955   1.231   0.530   9.707  0.5535 -0.3720 -1.0436
  808MPD2    H311956   1.277   0.728   9.581 -2.1104 -3.0872 -0.2245
  808MPD2     N11957   1.546   0.902   9.879 -0.0132  0.6174  0.2848
  808MPD2    H511958   1.545   0.978   9.812 -1.7496  0.4385  0.1258
  808MPD2    N111959   1.336   0.465   9.961  0.5033  0.3200 -0.1745
  808MPD2    H711960   1.366   0.466  10.058 -0.1903  1.2308  0.0251
  809MPD2     C11961   1.979   1.182   9.250 -0.2130 -0.2814 -0.8026
  809MPD2    C111962   2.081   1.204   9.340 -0.7976 -0.4585  0.1795
  809MPD2    C211963   2.055   1.200   9.477 -0.2471  0.1418  0.1171
  809MPD2    C311964   1.930   1.167   9.522  0.0711 -0.2573 -0.4687
  809MPD2    C411965   1.833   1.138   9.427  0.4400 -0.2363  1.3143
  809MPD2    C511966   1.853   1.155   9.294  0.1051  0.2911  0.0019
  809MPD2     H11967   2.141   1.223   9.540 -2.2882  2.7795  1.9316
  809MPD2    H111968   1.731   1.109   9.448 -1.0375  1.3867 -3.7013
  809MPD2    H211969   2.000   1.206   9.146 -0.3177 -2.9684 -1.4312
  809MPD2    H311970   1.777   1.136   9.219  0.0801  0.8596 -0.1181
  809MPD2     N11971   1.894   1.143   9.656  0.2666 -0.8288 -0.3650
  809MPD2    H511972   1.795   1.122   9.667  0.2994 -0.8330 -0.0709
  809MPD2    N111973   2.209   1.244   9.292 -0.1265  0.4584 -0.7425
  809MPD2    H711974   2.266   1.293   9.361  0.4738  0.5959 -1.3350
  810MPD2     C11975   1.235   1.419  10.986  0.3069 -0.8496  0.3321
  810MPD2    C111976   1.299   1.432  10.864  0.3119  0.4934  0.0592
  810MPD2    C211977   1.352   1.553  10.823 -0.0466 -0.0711 -0.0420
  810MPD2    C311978   1.353   1.660  10.910  0.2479 -0.4379  1.5558
  810MPD2    C411979   1.295   1.646  11.036 -1.0856  0.4855 -0.4953
  810MPD2    C511980   1.237   1.526  11.071  0.0992 -0.1105 -0.0045
  810MPD2     H11981   1.407   1.556  10.730 -0.3225 -1.9397 -0.2567
  810MPD2    H111982   1.286   1.733  11.100 -0.1571  0.4551 -0.3296
  810MPD2    H211983   1.181   1.325  10.996 -2.7484  0.8631 -0.0790
  810MPD2    H311984   1.187   1.519  11.167 -1.6892  0.4696 -0.8947
  810MPD2     N11985   1.423   1.783  10.886 -0.4305 -0.1503  0.3114
  810MPD2    H511986   1.419   1.857  10.955 -0.5856  2.5231 -2.5397
  810MPD2    N111987   1.296   1.318  10.782  0.1513  0.0506  0.0573
  810MPD2    H711988   1.251   1.231  10.810  1.7451 -0.9826 -0.5852
  811MPD2     C11989   0.864   1.269  10.152 -0.7942  0.1731  0.3838
  811MPD2    C111990   0.960   1.337  10.225  0.5792  0.2130  0.3539
  811MPD2    C211991   0.964   1.473  10.228  0.0444 -0.6071  0.6098
  811MPD2    C311992   0.864   1.546  10.175 -0.1424 -0.2944  0.6721
  811MPD2    C411993   0.758   1.483  10.111  0.1468 -0.0731 -0.1417
  811MPD2    C511994   0.772   1.344  10.084 -0.6528 -0.4128 -0.0190
  811MPD2     H11995   1.050   1.522  10.273 -1.4776  1.8513  0.8606
  811MPD2    H111996   0.675   1.542  10.075  0.0557 -0.1698 -0.0891
  811MPD2    H211997   0.855   1.162  10.144 -0.3793  0.3318 -2.1135
  811MPD2    H311998   0.698   1.299  10.020  0.3920 -2.2138  0.0474
  811MPD2     N11999   0.867   1.684  10.190 -0.8393 -0.0856 -0.0905
  811MPD2    H512000   0.954   1.725  10.223 -0.6997 -0.6641  0.2549
  811MPD2    N112001   1.047   1.267  10.308  0.2409  0.1551  0.4203
  811MPD2    H712002   1.085   1.334  10.374  0.1100 -2.0787  2.7591
  812MPD2     C12003   0.547   1.430  12.078 -0.4418  0.1736  0.1641
  812MPD2    C112004   0.485   1.478  12.191  0.3630 -0.0593 -0.4960
  812MPD2    C212005   0.490   1.409  12.310 -0.0062 -0.0437 -0.1325
  812MPD2    C312006   0.531   1.274  12.306  0.4060  0.3851  0.1858
  812MPD2    C412007   0.602   1.227  12.196 -0.4984 -0.0461 -0.3035
  812MPD2    C512008   0.612   1.309  12.087  0.1797  0.2275 -0.4419
  812MPD2     H12009   0.440   1.457  12.394  1.3084  0.8096  0.1616
  812MPD2    H112010   0.647   1.130  12.182 -3.3522 -1.4819  0.5851
  812MPD2    H212011   0.554   1.483  11.984  2.0074  1.0987  0.8507
  812MPD2    H312012   0.691   1.287  12.016  0.9904  0.7330  0.3056
  812MPD2     N12013   0.491   1.193  12.411  0.0080 -0.2989 -0.0597
  812MPD2    H512014   0.432   1.240  12.479 -0.7361  0.6192 -1.3555
  812MPD2    N112015   0.436   1.613  12.185  0.0553 -0.0820  0.2634
  812MPD2    H712016   0.452   1.664  12.099 -2.1748 -0.8709 -0.6085
  813MPD2     C12017   4.453   2.832  12.834 -0.3846  0.0227  0.9169
  813MPD2    C112018   4.441   2.966  12.802  0.3455 -0.2124 -0.3189
  813MPD2    C212019   4.427   3.055  12.911  0.4726  0.8629  0.1286
  813MPD2    C312020   4.418   3.016  13.045 -0.6860 -0.5311 -0.5223
  813MPD2    C412021   4.426   2.880  13.070 -0.7166  0.7807 -0.0957
  813MPD2    C512022   4.446   2.793  12.966  0.0262  0.3743 -0.2156
  813MPD2     H12023   4.426   3.160  12.885  2.6115  0.3452 -2.0470
  813MPD2    H112024   4.409   2.835  13.167 -3.9948  2.5248  0.1522
  813MPD2    H212025   4.474   2.758  12.758  4.2826  1.7662  0.4632
  813MPD2    H312026   4.430   2.688  12.988 -0.0723  0.7152  1.2789
  813MPD2     N12027   4.394   3.120  13.140  0.0307  0.1719 -0.3155
  813MPD2    H512028   4.398   3.217  13.108 -1.1823  0.2778 -0.1404
  813MPD2    N112029   4.443   3.018  12.673 -0.1363 -0.0427 -0.0822
  813MPD2    H712030   4.433   3.118  12.663 -1.7039 -0.2064 -0.0852
  814MPD2     C12031   4.301   4.720  12.106 -0.7477  0.1435 -0.6039
  814MPD2    C112032   4.394   4.710  12.002  0.1154 -0.3773 -0.1622
  814MPD2    C212033   4.504   0.060  11.999  0.6539 -0.8419  0.2034
  814MPD2    C312034   4.516   0.160  12.096 -0.4906 -0.9166  0.0166
  814MPD2    C412035   4.418   0.171  12.193  0.1801 -0.0371 -0.3890
  814MPD2    C512036   4.316   0.088  12.196  0.7486 -0.7286 -0.2954
  814MPD2     H12037   4.582   0.044  11.926 -0.4433 -1.5003 -0.8227
  814MPD2    H112038   4.418   0.256  12.260  1.8291 -0.1067 -0.2976
  814MPD2    H212039   4.220   4.649  12.122  0.5979 -1.1822  0.3813
  814MPD2    H312040   4.249   0.104  12.279 -0.5862 -0.7173 -1.3697
  814MPD2     N12041   4.614   0.260  12.096 -0.1261  0.1932  0.2404
  814MPD2    H512042   4.613   0.327  12.172 -0.1764  2.4173 -1.7049
  814MPD2    N112043   4.394   4.611  11.899  1.1810 -0.4309  0.5444
  814MPD2    H712044   4.463   4.634  11.827  0.5884  0.1955  0.1819
  815MPD2     C12045   0.532   3.276  11.830 -0.1097  0.5246  0.2332
  815MPD2    C112046   0.478   3.149  11.828  0.0945  0.3417  0.7729
  815MPD2    C212047   0.350   3.133  11.879  0.5555 -0.8883 -1.0229
  815MPD2    C312048   0.270   3.241  11.910 -1.2440  0.0664  0.2470
  815MPD2    C412049   0.334   3.368  11.915  0.3400 -0.6042  0.3929
  815MPD2    C512050   0.467   3.387  11.883  0.2048  0.3370 -0.2908
  815MPD2     H12051   0.306   3.035  11.865  1.0228 -1.2102 -0.2486
  815MPD2    H112052   0.277   3.454  11.949 -0.7469 -1.9466  1.9365
  815MPD2    H212053   0.634   3.300  11.802  0.4706 -2.4114 -0.2207
  815MPD2    H312054   0.515   3.483  11.869  1.3889 -0.2198 -0.1137
  815MPD2     N12055   0.130   3.231  11.943 -1.0858  0.1212 -0.4339
  815MPD2    H512056   0.093   3.136  11.942 -1.5801  0.3123 -0.0593
  815MPD2    N112057   0.557   3.044  11.779 -0.9507 -0.2410  0.1127
  815MPD2    H712058   0.649   3.064  11.741 -0.5709  0.4486  1.3846
  816MPD2     C12059   0.007   2.153  16.909 -0.3676  0.3967 -0.9372
  816MPD2    C112060   0.111   2.241  16.905  0.2226 -0.0003 -0.1683
  816MPD2    C212061   0.243   2.191  16.878  0.3819 -0.6729 -0.1174
  816MPD2    C312062   0.264   2.058  16.872 -0.4935 -0.0686 -0.2059
  816MPD2    C412063   0.157   1.969  16.871 -0.7572 -0.1467  0.2484
  816MPD2    C512064   0.032   2.021  16.887  0.2544 -0.1601  0.3493
  816MPD2     H12065   0.323   2.263  16.864 -1.6107  1.7895  1.1076
  816MPD2    H112066   0.171   1.862  16.873  0.1571 -0.0193  1.1599
  816MPD2    H212067   4.644   2.192  16.922 -0.8474 -0.1728 -2.8808
  816MPD2    H312068   4.683   1.956  16.876  1.1900 -1.6572  1.8746
  816MPD2     N12069   0.393   2.012  16.841 -0.4397  0.3468 -0.2543
  816MPD2    H512070   0.456   2.091  16.830  1.9874 -1.8007 -2.0437
  816MPD2    N112071   0.088   2.382  16.928  0.5608 -0.0571 -0.0236
  816MPD2    H712072   4.728   2.410  16.931  0.7854  0.5254  1.5708
  817MPD2     C12073   4.350   3.594   9.851 -0.5073  0.3078  0.1151
  817MPD2    C112074   4.268   3.539   9.753 -0.3022  0.6071 -0.5168
  817MPD2    C212075   4.192   3.625   9.678 -0.1165 -0.4002  0.1311
  817MPD2    C312076   4.177   3.761   9.705 -0.3249  0.0258 -0.2530
  817MPD2    C412077   4.256   3.810   9.802  0.4654  0.1486 -0.6928
  817MPD2    C512078   4.338   3.725   9.874 -0.0253 -0.2118  0.6871
  817MPD2     H12079   4.137   3.595   9.589  1.3052 -0.4491 -0.7238
  817MPD2    H112080   4.252   3.915   9.831  1.1431  0.2080 -0.8157
  817MPD2    H212081   4.425   3.537   9.905 -0.9893 -0.7761 -0.3486
  817MPD2    H312082   4.400   3.769   9.952  2.9607 -0.3551 -1.6333
  817MPD2     N12083   4.090   3.839   9.618 -0.6007 -0.0038  0.5169
  817MPD2    H512084   4.046   3.786   9.543  0.9198 -0.1280 -0.2861
  817MPD2    N112085   4.257   3.399   9.725  0.7499  0.5407 -0.5116
  817MPD2    H712086   4.193   3.371   9.651 -0.9919 -1.0171  1.5739
  818MPD2     C12087   3.527   3.543   9.791 -0.1484 -0.4994 -0.2693
  818MPD2    C112088   3.398   3.506   9.821  0.3670 -0.4472 -0.9345
  818MPD2    C212089   3.317   3.457   9.728 -0.1800  0.4720 -0.1763
  818MPD2    C312090   3.361   3.441   9.597  1.1731  0.3399  0.0264
  818MPD2    C412091   3.496   3.461   9.567  0.9746 -0.1043 -1.3024
  818MPD2    C512092   3.580   3.512   9.665  0.3198  0.0461  0.0785
  818MPD2     H12093   3.215   3.439   9.759  0.7234 -1.5774  1.6388
  818MPD2    H112094   3.539   3.434   9.471  0.1652 -0.6871 -1.5093
  818MPD2    H212095   3.600   3.583   9.860  0.5702  0.0391 -1.3399
  818MPD2    H312096   3.683   3.531   9.636  0.5212 -3.2268 -1.3576
  818MPD2     N12097   3.280   3.394   9.488 -0.5203 -0.3960  0.0283
  818MPD2    H512098   3.333   3.367   9.405  0.8182 -0.4740  0.9084
  818MPD2    N112099   3.342   3.535   9.947  0.2010  0.4244 -0.5032
  818MPD2    H712100   3.246   3.509   9.963  0.7206 -1.3116 -0.2509
  819MPD2     C12101   1.919   0.603  15.701 -0.2846 -1.0721  0.0533
  819MPD2    C112102   1.973   0.501  15.625 -0.1358  0.5157  0.3253
  819MPD2    C212103   2.109   0.483  15.642 -0.1470  0.1991  0.3326
  819MPD2    C312104   2.178   0.561  15.733  0.5364  0.0663 -0.5864
  819MPD2    C412105   2.118   0.660  15.809  0.2105 -0.1841  0.3216
  819MPD2    C512106   1.986   0.671  15.793 -0.0755  0.8082 -0.3627
  819MPD2     H12107   2.157   0.404  15.585 -2.8543 -0.8270 -0.5484
  819MPD2    H112108   2.156   0.709  15.898  0.1134  0.2424  0.1258
  819MPD2    H212109   1.811   0.617  15.702 -0.4552 -2.3420 -0.6405
  819MPD2    H312110   1.926   0.714  15.872  0.5023 -2.2218  1.7420
  819MPD2     N12111   2.316   0.532  15.742  0.2211  0.6843 -0.2545
  819MPD2    H512112   2.337   0.450  15.686  1.7221  0.2217  0.9565
  819MPD2    N112113   1.891   0.431  15.541 -0.3240 -0.1825  0.0881
  819MPD2    H712114   1.796   0.465  15.532 -0.8337 -1.1067  2.0582
  820MPD2     C12115   1.005   0.468  15.234 -0.3029 -0.1412 -0.1710
  820MPD2    C112116   1.111   0.551  15.230  0.3638  0.1526 -0.0738
  820MPD2    C212117   1.235   0.500  15.243  0.5696 -0.3412  0.3058
  820MPD2    C312118   1.258   0.365  15.269  0.1361 -0.4095 -0.2884
  820MPD2    C412119   1.149   0.286  15.280  0.1654  0.2096  0.6695
  820MPD2    C512120   1.021   0.341  15.267  0.4040  0.1611 -0.6975
  820MPD2     H12121   1.316   0.572  15.234  2.0003 -2.1024 -0.7687
  820MPD2    H112122   1.160   0.180  15.301 -0.4420 -0.3660 -1.8999
  820MPD2    H212123   0.904   0.504  15.218 -0.9499 -1.7826  0.1687
  820MPD2    H312124   0.930   0.285  15.286 -0.8240  2.6152  0.6491
  820MPD2     N12125   1.385   0.299  15.274  0.0244  0.2137  0.5775
  820MPD2    H512126   1.391   0.198  15.281 -2.0796  0.1733  1.8009
  820MPD2    N112127   1.097   0.691  15.207  0.4675 -0.4288 -0.6850
  820MPD2    H712128   1.007   0.715  15.167 -1.0163 -2.0595  1.6860
  821MPD2     C12129   2.521   2.206  13.055 -0.0541 -0.1878 -0.1277
  821MPD2    C112130   2.531   2.099  13.147 -0.9486 -0.4218  0.1747
  821MPD2    C212131   2.615   2.114  13.253  0.2231  0.3240  0.4655
  821MPD2    C312132   2.687   2.233  13.270 -0.0762  0.5787 -0.1297
  821MPD2    C412133   2.674   2.333  13.177 -0.0697  0.1123  0.2315
  821MPD2    C512134   2.595   2.319  13.066  0.0992 -0.6811 -0.1543
  821MPD2     H12135   2.634   2.025  13.311 -0.7625  0.1444  0.5055
  821MPD2    H112136   2.741   2.418  13.187 -3.2397  2.7689 -0.8057
  821MPD2    H212137   2.470   2.193  12.960 -0.8307  1.5187  0.0548
  821MPD2    H312138   2.590   2.398  12.992 -0.3337 -3.3916 -2.9781
  821MPD2     N12139   2.782   2.242  13.372  0.0440  0.1318  0.0284
  821MPD2    H512140   2.847   2.319  13.382 -0.7296  1.0232 -1.8157
  821MPD2    N112141   2.463   1.972  13.130 -0.0155 -0.0050  0.3762
  821MPD2    H712142   2.485   1.911  13.209 -1.9645 -2.3966 -0.9429
  822MPD2     C12143   2.552   1.947  15.536 -0.5764 -0.0001  0.4730
  822MPD2    C112144   2.590   1.954  15.666 -0.2323  0.2688  0.1011
  822MPD2    C212145   2.538   2.047  15.748 -0.1457 -0.7820 -0.4697
  822MPD2    C312146   2.449   2.139  15.692  0.0332  0.3956 -0.2945
  822MPD2    C412147   2.414   2.141  15.558  0.4464 -0.2181  0.5413
  822MPD2    C512148   2.463   2.034  15.485 -0.3218  0.4637  0.5663
  822MPD2     H12149   2.548   2.047  15.856 -0.2282 -1.2125 -0.4644
  822MPD2    H112150   2.360   2.227  15.519 -0.1182 -1.1833 -0.8253
  822MPD2    H212151   2.584   1.866  15.471 -1.7573 -0.1919  0.1309
  822MPD2    H312152   2.440   2.028  15.380  0.5098  2.0554  0.2905
  822MPD2     N12153   2.389   2.235  15.781  0.1907 -0.0603 -0.9947
  822MPD2    H512154   2.410   2.218  15.879  2.0845 -3.2398 -1.9725
  822MPD2    N112155   2.690   1.867  15.725  0.2519  0.3204 -0.0109
  822MPD2    H712156   2.718   1.887  15.820 -1.2095 -0.8261  0.6596
  823MPD2     C12157   2.014   2.433  16.503 -0.2773 -0.1323  0.5232
  823MPD2    C112158   2.052   2.343  16.419 -0.3905  0.0867  0.0831
  823MPD2    C212159   2.099   2.218  16.463 -0.3371 -0.0108 -0.3235
  823MPD2    C312160   2.107   2.189  16.600 -0.1045  0.4639  0.1215
  823MPD2    C412161   2.048   2.278  16.680  0.4679 -0.1419  0.2199
  823MPD2    C512162   2.001   2.397  16.632 -0.3533  0.3818 -0.3207
  823MPD2     H12163   2.122   2.143  16.388 -0.3170 -1.2288  0.9157
  823MPD2    H112164   2.044   2.267  16.787  0.5640  0.8085  0.3180
  823MPD2    H212165   1.986   2.535  16.478 -0.7031 -0.3761  0.0094
  823MPD2    H312166   1.964   2.467  16.706  0.9588  1.1400 -0.3909
  823MPD2     N12167   2.171   2.079  16.654 -0.2208  0.9688 -0.3920
  823MPD2    H512168   2.161   2.071  16.755 -0.8228  3.6288 -0.2465
  823MPD2    N112169   2.077   2.392  16.287  0.0782  0.9336  0.0295
  823MPD2    H712170   2.062   2.491  16.273  0.8203  1.2455  1.3482
  824MPD2     C12171   2.794   1.032  15.776 -0.7783  0.5740  0.0158
  824MPD2    C112172   2.919   1.084  15.788  0.1234 -0.5799  0.6456
  824MPD2    C212173   3.027   1.000  15.771 -0.4915  0.1527 -0.2519
  824MPD2    C312174   3.018   0.863  15.749 -0.0588 -0.3894  0.3854
  824MPD2    C412175   2.885   0.814  15.731  0.2470 -0.0638 -0.3550
  824MPD2    C512176   2.776   0.901  15.749 -0.0091  0.5955 -0.3017
  824MPD2     H12177   3.124   1.049  15.771 -0.4005 -0.0659  4.2740
  824MPD2    H112178   2.870   0.707  15.719  1.7815 -0.0061 -2.8779
  824MPD2    H212179   2.709   1.095  15.799  0.2132  1.7431  0.4816
  824MPD2    H312180   2.679   0.854  15.739 -0.1612  0.8516 -0.0369
  824MPD2     N12181   3.133   0.788  15.726  0.0660 -0.1750 -0.3282
  824MPD2    H512182   3.214   0.849  15.725  0.0359 -0.1627 -1.9521
  824MPD2    N112183   2.943   1.220  15.805  0.3974 -0.2126  0.0844
  824MPD2    H712184   3.035   1.250  15.834  0.8420  0.2808 -1.7834
  825MPD2     C12185   3.794   0.660  15.176  0.4188  0.4048 -0.3084
  825MPD2    C112186   3.698   0.741  15.240  0.4783 -0.0467 -0.5709
  825MPD2    C212187   3.675   0.870  15.201 -0.2238 -0.1845  0.4227
  825MPD2    C312188   3.745   0.907  15.088 -0.1902 -0.1019  0.2674
  825MPD2    C412189   3.823   0.821  15.014 -0.7297 -0.0219  0.1205
  825MPD2    C512190   3.859   0.701  15.066  0.4890  0.0377 -0.9465
  825MPD2     H12191   3.594   0.929  15.243 -2.0950 -2.7241  0.3936
  825MPD2    H112192   3.858   0.855  14.918 -1.6672 -0.6951 -0.4519
  825MPD2    H212193   3.816   0.560  15.213 -2.8065 -0.3306 -0.3625
  825MPD2    H312194   3.919   0.634  15.005  0.5463 -0.5900 -0.1960
  825MPD2     N12195   3.736   1.038  15.030 -0.2191  0.0279  0.9272
  825MPD2    H512196   3.771   1.047  14.935  1.2227  3.0122  1.7277
  825MPD2    N112197   3.634   0.680  15.349  0.2049  0.2876  0.0938
  825MPD2    H712198   3.655   0.586  15.380 -1.0929 -0.3864 -1.0912
  826MPD2     C12199   3.093   0.572  13.421  0.1726  1.1829  0.0974
  826MPD2    C112200   3.136   0.705  13.448 -0.5983 -0.1572 -0.5538
  826MPD2    C212201   3.052   0.785  13.521  0.0114  0.3235  0.3528
  826MPD2    C312202   2.934   0.734  13.562 -0.1613 -0.8616 -0.2920
  826MPD2    C412203   2.886   0.607  13.536 -0.7284 -0.1877 -0.2721
  826MPD2    C512204   2.969   0.530  13.453  0.2493  0.0392  0.0362
  826MPD2     H12205   3.072   0.890  13.539 -1.2080  0.9032 -1.6688
  826MPD2    H112206   2.794   0.572  13.580 -0.5784 -0.3814 -0.1082
  826MPD2    H212207   3.158   0.506  13.366  0.0107 -0.1391  1.5013
  826MPD2    H312208   2.937   0.427  13.437 -0.5049  0.0833  1.2604
  826MPD2     N12209   2.845   0.811  13.631 -0.0346 -0.2586 -0.1295
  826MPD2    H512210   2.763   0.766  13.670  0.6532  0.2440  1.9070
  826MPD2    N112211   3.266   0.740  13.403 -0.4693 -0.3772 -0.6661
  826MPD2    H712212   3.328   0.660  13.390  0.4008  0.3521 -0.9936
  827MPD2     C12213   4.099   2.351  10.067  0.0553  0.4007 -0.0543
  827MPD2    C112214   4.042   2.307  10.185 -0.0563 -0.3983 -0.9628
  827MPD2    C212215   3.950   2.203  10.185 -0.0669 -0.1347  0.0275
  827MPD2    C312216   3.903   2.159  10.059 -0.7757 -0.0976  0.5034
  827MPD2    C412217   3.949   2.221   9.940 -0.7768 -0.1307  0.5521
  827MPD2    C512218   4.044   2.320   9.945 -0.0103  0.5134 -0.5532
  827MPD2     H12219   3.893   2.160  10.266 -0.5396  2.0867  0.8736
  827MPD2    H112220   3.920   2.183   9.842 -0.0348  0.7283  0.0015
  827MPD2    H212221   4.180   2.422  10.064  0.4092  0.0902  2.1146
  827MPD2    H312222   4.073   2.361   9.849 -1.0558 -3.0434 -2.3803
  827MPD2     N12223   3.805   2.059  10.057 -0.6554  0.4166 -0.0377
  827MPD2    H512224   3.774   2.010  10.140  0.3255 -0.0626  0.0466
  827MPD2    N112225   4.085   2.380  10.302 -0.2191  0.3190  0.3799
  827MPD2    H712226   4.161   2.446  10.286  1.7890 -1.8333  0.9475
  828MPD2     C12227   2.591   1.418  11.453 -0.2050 -0.4741 -0.2063
  828MPD2    C112228   2.550   1.549  11.441  0.1068  0.1826 -0.0384
  828MPD2    C212229   2.610   1.636  11.352  0.1410  0.4054 -0.2453
  828MPD2    C312230   2.726   1.595  11.284  0.3930 -0.1061  0.4882
  828MPD2    C412231   2.774   1.465  11.307  0.1263  0.3466  0.7547
  828MPD2    C512232   2.702   1.379  11.385 -0.2245  0.2145 -0.2888
  828MPD2     H12233   2.584   1.741  11.346 -1.5741 -0.2135 -3.7523
  828MPD2    H112234   2.852   1.413  11.252  0.3242  0.0547  1.3181
  828MPD2    H212235   2.546   1.340  11.514 -0.5467 -0.0810  0.0480
  828MPD2    H312236   2.727   1.273  11.394  0.6331  0.4216 -0.2503
  828MPD2     N12237   2.797   1.673  11.196  0.1532  0.2224 -0.3894
  828MPD2    H512238   2.884   1.637  11.158  0.0791  1.0004 -1.2944
  828MPD2    N112239   2.454   1.604  11.523  0.0184  0.2382 -0.5986
  828MPD2    H712240   2.444   1.704  11.509  0.4552  0.5318  1.0688
  829MPD2     C12241   1.990   2.333  11.408  0.1504  0.1202 -0.0169
  829MPD2    C112242   1.924   2.285  11.515 -0.6867  0.3808 -0.4783
  829MPD2    C212243   1.967   2.163  11.568 -0.1202  0.0440 -0.4475
  829MPD2    C312244   2.083   2.098  11.516 -0.5615 -0.5392 -0.6390
  829MPD2    C412245   2.153   2.151  11.410 -0.2939 -0.1720 -0.6531
  829MPD2    C512246   2.105   2.271  11.356  0.4074 -0.2844  0.8498
  829MPD2     H12247   1.925   2.119  11.658  0.9818 -1.7115 -0.7940
  829MPD2    H112248   2.239   2.098  11.371 -0.3988 -1.4971  0.9118
  829MPD2    H212249   1.951   2.426  11.368 -0.6405  0.0760  0.6577
  829MPD2    H312250   2.158   2.313  11.272 -1.6352  0.1680 -0.2065
  829MPD2     N12251   2.136   1.981  11.571 -0.1920 -0.5548  0.2293
  829MPD2    H512252   2.230   1.950  11.547 -0.1905 -0.0526 -0.4064
  829MPD2    N112253   1.826   2.368  11.574  0.2529  0.1878 -0.0258
  829MPD2    H712254   1.795   2.450  11.521 -0.5782 -0.0237  0.1313
  830MPD2     C12255   3.094   0.341  15.419  0.0936 -0.3127 -0.6228
  830MPD2    C112256   2.974   0.403  15.422 -0.2472  0.1487  0.6770
  830MPD2    C212257   2.936   0.492  15.328 -0.1229 -0.7691 -0.8571
  830MPD2    C312258   3.015   0.522  15.219  1.0663  0.9136  0.2443
  830MPD2    C412259   3.133   0.450  15.205 -0.1044  0.5194 -0.0795
  830MPD2    C512260   3.177   0.370  15.309  0.4713  0.1819 -0.0978
  830MPD2     H12261   2.840   0.541  15.336  0.2576 -0.7257  3.4263
  830MPD2    H112262   3.188   0.455  15.112 -1.7743  0.2684 -1.0822
  830MPD2    H212263   3.121   0.270  15.496  2.0092 -0.0650 -1.0715
  830MPD2    H312264   3.265   0.306  15.307 -0.0193 -0.5066  0.7567
  830MPD2     N12265   2.978   0.615  15.122  0.0276 -0.9663 -0.2916
  830MPD2    H512266   3.041   0.634  15.044 -3.7823  0.2227 -3.0555
  830MPD2    N112267   2.898   0.385  15.544  0.0797 -0.0980  1.0431
  830MPD2    H712268   2.945   0.350  15.627  0.9425 -1.1617  0.1071
  831MPD2     C12269   2.556   2.370  16.142  0.9182  0.2395  0.6659
  831MPD2    C112270   2.597   2.258  16.077 -0.0318  0.6557  0.0525
  831MPD2    C212271   2.530   2.139  16.096 -0.4029 -0.4040 -0.0098
  831MPD2    C312272   2.410   2.142  16.163 -0.7907  0.2962 -0.2965
  831MPD2    C412273   2.373   2.252  16.236 -0.0756 -0.4648 -0.5991
  831MPD2    C512274   2.448   2.365  16.222  0.3228 -0.5098 -0.7434
  831MPD2     H12275   2.575   2.048  16.059  0.4105  1.0962 -2.7657
  831MPD2    H112276   2.286   2.257  16.302  0.0907 -1.2552 -0.3156
  831MPD2    H212277   2.617   2.460  16.145  0.2076  0.7391  0.0412
  831MPD2    H312278   2.418   2.457  16.272 -1.3275 -1.7867  0.6008
  831MPD2     N12279   2.333   2.028  16.167  0.4159 -0.0340  1.0113
  831MPD2    H512280   2.246   2.032  16.219 -1.8089 -1.5717 -2.5855
  831MPD2    N112281   2.715   2.265  16.001 -0.2834  0.3684 -0.0386
  831MPD2    H712282   2.761   2.350  15.971  1.4436 -0.5045  0.1611
  832MPD2     C12283   0.967   3.339  16.954  0.6026  0.1768 -0.2032
  832MPD2    C112284   0.969   3.458  16.889 -0.0997 -0.5755 -0.3588
  832MPD2    C212285   0.867   3.477  16.792 -0.2096 -0.0104 -0.0601
  832MPD2    C312286   0.775   3.376  16.758 -0.1685  0.5419  0.5483
  832MPD2    C412287   0.787   3.260  16.830 -0.5238  0.1881 -0.0836
  832MPD2    C512288   0.883   3.239  16.923 -0.9081  0.1817  0.4519
  832MPD2     H12289   0.878   3.562  16.726 -0.5828 -1.6298 -2.1822
  832MPD2    H112290   0.733   3.173  16.794 -1.0222  1.5604 -2.6382
  832MPD2    H212291   1.041   3.324  17.031 -0.7279  0.3513  1.1178
  832MPD2    H312292   0.908   3.144  16.970  2.9409  0.7104 -0.4801
  832MPD2     N12293   0.674   3.375  16.655 -0.1671 -0.0358 -0.3076
  832MPD2    H512294   0.619   3.291  16.637  1.4531 -0.9724 -0.8778
  832MPD2    N112295   1.050   3.563  16.938 -0.1869  0.3835 -0.0939
  832MPD2    H712296   1.091   3.543  17.029 -1.0235  2.5276  0.7556
  833MPD2     C12297   3.263   0.442  12.188  0.3500 -0.2912  0.3386
  833MPD2    C112298   3.184   0.406  12.080 -0.2340  0.6073  0.5667
  833MPD2    C212299   3.208   0.289  12.011  0.2244  0.3769  0.5505
  833MPD2    C312300   3.295   0.194  12.054  0.7989 -0.5457 -0.1904
  833MPD2    C412301   3.366   0.225  12.173 -0.1330 -0.2802 -0.6378
  833MPD2    C512302   3.363   0.352  12.225  0.0567  0.6691 -0.0889
  833MPD2     H12303   3.143   0.263  11.928  1.6352 -0.5535 -0.2572
  833MPD2    H112304   3.451   0.165  12.204 -0.1777 -0.3764 -0.6998
  833MPD2    H212305   3.263   0.538  12.240  0.5265  0.3904 -0.9205
  833MPD2    H312306   3.436   0.392  12.295 -1.7142  1.8933  1.0615
  833MPD2     N12307   3.314   0.079  11.973  0.1824  0.1727 -0.1081
  833MPD2    H512308   3.266   0.082  11.884 -1.4586  0.1540  0.7791
  833MPD2    N112309   3.072   0.483  12.033  0.1987  0.5341 -0.4102
  833MPD2    H712310   3.027   0.442  11.952 -2.1262  2.5281 -0.1119
  834MPD2     C12311   3.107   3.793  11.819 -0.3915 -0.4196  0.0620
  834MPD2    C112312   3.058   3.869  11.712 -0.0698 -0.2421  0.6754
  834MPD2    C212313   3.078   4.008  11.713 -0.2136  0.6165  0.5838
  834MPD2    C312314   3.132   4.072  11.822 -0.2604  0.2917 -0.1494
  834MPD2    C412315   3.146   4.001  11.940  0.1217  0.2537  0.5651
  834MPD2    C512316   3.137   3.864  11.933  0.3694 -0.0239  0.3045
  834MPD2     H12317   3.064   4.065  11.622  0.3575  0.7048  0.5533
  834MPD2    H112318   3.170   4.045  12.036  0.5410  2.5784 -0.5978
  834MPD2    H212319   3.095   3.686  11.817 -0.4833 -0.4612  2.8977
  834MPD2    H312320   3.164   3.799  12.016 -1.3128  0.9455  1.6111
  834MPD2     N12321   3.164   4.208  11.809  0.0678  0.2645  0.1320
  834MPD2    H512322   3.136   4.254  11.723  2.2469 -1.1727 -1.3327
  834MPD2    N112323   3.018   3.788  11.602  0.9037  0.0285 -0.1544
  834MPD2    H712324   3.027   3.687  11.610 -2.4711 -0.2190  0.7431
  835MPD2     C12325   3.599   2.437  11.183  0.7410 -0.1912 -0.3075
  835MPD2    C112326   3.538   2.543  11.254  0.1650  0.0457 -0.4794
  835MPD2    C212327   3.578   2.570  11.385  0.3643 -0.7152 -0.1568
  835MPD2    C312328   3.681   2.497  11.449 -0.2157 -0.0163  0.3345
  835MPD2    C412329   3.744   2.401  11.371 -0.4240 -0.2021 -0.1848
  835MPD2    C512330   3.698   2.366  11.242  0.1373  0.4621  0.2100
  835MPD2     H12331   3.525   2.644  11.443  3.6527  0.6810  1.0590
  835MPD2    H112332   3.827   2.343  11.410 -0.8017  0.8581  2.1700
  835MPD2    H212333   3.578   2.406  11.082  0.7292 -0.4820 -0.2147
  835MPD2    H312334   3.742   2.276  11.201  0.8009 -0.4783  2.9986
  835MPD2     N12335   3.716   2.510  11.592 -0.8546  0.1438 -0.2072
  835MPD2    H512336   3.785   2.441  11.620 -1.7480 -0.8243 -0.4357
  835MPD2    N112337   3.421   2.607  11.207 -0.1408 -0.1243  0.2594
  835MPD2    H712338   3.381   2.681  11.263 -1.1378 -0.8947  0.5630
  836MPD2     C12339   3.117   2.338  11.898  0.1021  0.1605 -0.1476
  836MPD2    C112340   3.209   2.344  11.999  0.2460 -0.1088  0.4388
  836MPD2    C212341   3.167   2.354  12.130  0.5040 -0.3432 -0.3871
  836MPD2    C312342   3.026   2.354  12.153 -0.0014 -0.3045  0.9794
  836MPD2    C412343   2.942   2.352  12.046  0.2817 -1.1543 -0.9716
  836MPD2    C512344   2.985   2.334  11.923  0.1492 -0.0258 -0.8400
  836MPD2     H12345   3.240   2.353  12.210  0.7953  0.2192 -0.6446
  836MPD2    H112346   2.834   2.360  12.056  0.7801  2.5410  1.6083
  836MPD2    H212347   3.151   2.315  11.798  0.0563  0.8309 -0.3189
  836MPD2    H312348   2.920   2.315  11.838 -2.3063  1.9320  0.5922
  836MPD2     N12349   2.967   2.371  12.281  0.5705  0.4111  0.2536
  836MPD2    H512350   2.869   2.397  12.281  0.2422 -0.7503 -3.0109
  836MPD2    N112351   3.345   2.347  11.968 -0.6446  0.1900 -0.8073
  836MPD2    H712352   3.371   2.361  11.871  0.5013 -1.1105 -0.6790
  837MPD2     C12353   1.317   2.320  10.332 -0.5037  0.0629 -0.0186
  837MPD2    C112354   1.178   2.357  10.335  0.7989 -0.2328  0.4492
  837MPD2    C212355   1.150   2.493  10.328  0.8981  0.5434 -0.0542
  837MPD2    C312356   1.247   2.587  10.315  0.0120  0.5380 -0.0796
  837MPD2    C412357   1.382   2.549  10.320  0.2615  0.0545  0.1958
  837MPD2    C512358   1.410   2.420  10.337 -0.5180 -0.2217  0.1398
  837MPD2     H12359   1.048   2.523  10.307 -0.7270 -3.4481  2.1126
  837MPD2    H112360   1.458   2.620  10.348  0.4215 -0.5841  1.3497
  837MPD2    H212361   1.349   2.217  10.319  2.5676  1.2791 -1.9958
  837MPD2    H312362   1.515   2.394  10.335 -0.3180  0.6009 -0.0401
  837MPD2     N12363   1.198   2.718  10.287  0.2989 -0.4632  0.1820
  837MPD2    H512364   1.101   2.728  10.261  1.1993 -0.3888 -3.1672
  837MPD2    N112365   1.070   2.270  10.312 -0.4630  0.5072 -0.1332
  837MPD2    H712366   0.980   2.314  10.330 -1.0257 -1.0624  0.8592
  838MPD2     C12367   4.463   0.571  11.982  0.5295  0.6427 -0.1802
  838MPD2    C112368   4.414   0.465  11.911 -0.0481  0.8371 -0.1893
  838MPD2    C212369   4.301   0.402  11.961 -0.0663 -0.2447 -0.4896
  838MPD2    C312370   4.227   0.454  12.063  0.7781  0.1516 -0.1542
  838MPD2    C412371   4.277   0.574  12.121  0.2193 -0.2908  0.4729
  838MPD2    C512372   4.396   0.624  12.085  0.4787 -0.0013  0.0357
  838MPD2     H12373   4.262   0.320  11.902  0.0274 -0.0939 -0.7579
  838MPD2    H112374   4.217   0.620  12.199  1.1533 -3.8779  3.3263
  838MPD2    H212375   4.548   0.626  11.941 -0.0139  1.9421  0.4529
  838MPD2    H312376   4.424   0.725  12.114  0.0751  0.1083  0.0431
  838MPD2     N12377   4.102   0.390  12.096  0.0608 -0.4466  0.0195
  838MPD2    H512378   4.085   0.295  12.064 -2.7804  0.1003 -0.0889
  838MPD2    N112379   4.458   0.424  11.786 -0.1649  0.1227 -0.2372
  838MPD2    H712380   4.413   0.342  11.746 -1.0094  0.4983 -0.0559
  839MPD2     C12381   3.809   0.169  11.388 -0.3053  0.3801 -0.8152
  839MPD2    C112382   3.912   0.085  11.369  0.1444  0.3258  0.6998
  839MPD2    C212383   4.041   0.137  11.355 -0.2894  0.4554  0.4854
  839MPD2    C312384   4.062   0.270  11.368 -0.0212  0.2795  0.9320
  839MPD2    C412385   3.953   0.353  11.391  0.5499 -0.1993  0.2889
  839MPD2    C512386   3.829   0.305  11.392  0.0551  0.7527 -0.1298
  839MPD2     H12387   4.125   0.076  11.325 -0.6981  0.6670 -1.0660
  839MPD2    H112388   3.964   0.460  11.400 -0.4507 -0.0741  0.0742
  839MPD2    H212389   3.708   0.131  11.394 -0.3809  0.9137  1.1711
  839MPD2    H312390   3.741   0.366  11.414 -3.4014 -3.3869 -2.4134
  839MPD2     N12391   4.196   0.321  11.378  0.0897  0.3948 -0.1946
  839MPD2    H512392   4.195   0.414  11.418 -2.1520 -0.3887  1.6567
  839MPD2    N112393   3.898   4.680  11.347  0.3188 -0.1427  0.0422
  839MPD2    H712394   3.976   4.628  11.308  1.3107 -1.3401  3.5968
  840MPD2     C12395   4.500   2.794  10.311 -0.6620  0.3791  0.0593
  840MPD2    C112396   4.518   2.741  10.437  0.8654  0.4012  0.8921
  840MPD2    C212397   4.633   2.763  10.513 -0.2307 -0.5345 -0.7611
  840MPD2    C312398   4.736   2.848  10.471  0.2387  0.0232 -0.5773
  840MPD2    C412399   4.714   2.898  10.344 -0.3550 -0.9810 -0.0263
  840MPD2    C512400   4.596   2.882  10.270  0.4020 -0.1327  1.0712
  840MPD2     H12401   4.650   2.726  10.614 -2.0632 -0.8004 -0.5404
  840MPD2    H112402   0.059   2.960  10.309 -0.1358 -0.8542  0.7109
  840MPD2    H212403   4.408   2.787  10.255  0.1630  0.2498 -1.2908
  840MPD2    H312404   4.586   2.934  10.175  0.1924 -0.8656  0.6906
  840MPD2     N12405   0.112   2.897  10.538 -0.1176 -0.2147  0.4989
  840MPD2    H512406   0.162   2.962  10.479 -1.1155  1.6585  1.7194
  840MPD2    N112407   4.412   2.659  10.482 -0.5032  0.5464  0.0365
  840MPD2    H712408   4.327   2.652  10.428  0.1571 -0.0194 -0.9351
  841MPD2     C12409   4.338   2.869  14.461  0.1574  0.2898 -0.2248
  841MPD2    C112410   4.409   2.787  14.379  0.4863 -0.5540 -0.1638
  841MPD2    C212411   4.550   2.799  14.387  0.4029  0.0030 -0.3775
  841MPD2    C312412   4.612   2.891  14.476  0.1257 -0.1309  0.2123
  841MPD2    C412413   4.541   2.974  14.555  0.5845  0.2317  0.1309
  841MPD2    C512414   4.400   2.964  14.537 -0.6098  1.0290 -0.4827
  841MPD2     H12415   4.603   2.730  14.323 -1.0326 -2.1557  0.7429
  841MPD2    H112416   4.577   3.050  14.623 -2.7159 -0.0454  2.1654
  841MPD2    H212417   4.230   2.874  14.446 -0.4181 -0.8214  3.5533
  841MPD2    H312418   4.335   3.039  14.579  1.0871 -0.3332  4.5296
  841MPD2     N12419   0.014   2.876  14.490 -0.1853 -0.4848 -0.1142
  841MPD2    H512420   0.060   2.798  14.446  0.3122 -0.4055  0.2739
  841MPD2    N112421   4.340   2.693  14.297  0.2160 -0.0911 -0.1608
  841MPD2    H712422   4.239   2.684  14.306  0.2375  0.1693  0.3700
  842MPD2     C12423   4.056   3.313  16.646  0.3631  0.3778  0.5977
  842MPD2    C112424   4.133   3.414  16.703 -0.0845 -0.6690  0.1190
  842MPD2    C212425   4.245   3.390  16.779  0.3983 -0.5295 -0.7845
  842MPD2    C312426   4.284   3.260  16.797  0.1699  1.1518  0.1206
  842MPD2    C412427   4.210   3.161  16.742 -1.1018 -0.2185 -0.6535
  842MPD2    C512428   4.103   3.183  16.664 -0.6481  0.5055 -0.3701
  842MPD2     H12429   4.295   3.465  16.840  1.2558 -2.8915  1.4283
  842MPD2    H112430   4.232   3.058  16.767  3.5882  0.6987 -1.1042
  842MPD2    H212431   3.966   3.338  16.591  0.7232 -0.7501 -0.5117
  842MPD2    H312432   4.066   3.092  16.619  1.2297  0.1145 -1.1249
  842MPD2     N12433   4.404   3.230  16.881  0.2480 -0.3665 -0.2690
  842MPD2    H512434   4.430   3.134  16.901 -0.0283  0.4351  3.9938
  842MPD2    N112435   4.073   3.548  16.696  0.1323 -1.0829 -0.3537
  842MPD2    H712436   3.994   3.555  16.632  0.1045  2.7708  0.1388
  843MPD2     C12437   2.086   4.606  17.264 -0.3528 -0.1464  0.4304
  843MPD2    C112438   2.078   4.570  17.402  0.2164  0.0971 -0.4189
  843MPD2    C212439   2.151   4.626  17.501  0.4626  0.1931  0.4370
  843MPD2    C312440   2.245   4.722  17.461 -0.1244 -0.1250 -0.5393
  843MPD2    C412441   2.259   0.017  17.329  0.2594 -0.0172 -0.0186
  843MPD2    C512442   2.185   4.696  17.232 -0.1910  0.4774  0.0065
  843MPD2     H12443   2.144   4.603  17.606 -1.1481  1.0956  0.5272
  843MPD2    H112444   2.322   0.100  17.299 -0.5686  0.6640  0.1016
  843MPD2    H212445   2.027   4.561  17.185  0.7154  0.8685 -0.9513
  843MPD2    H312446   2.210   4.727  17.131  1.5198  1.4865  0.7400
  843MPD2     N12447   2.321   0.061  17.553 -0.0684  0.2476  0.0962
  843MPD2    H512448   2.377   0.140  17.521 -1.5976  1.3564  0.1529
  843MPD2    N112449   1.973   4.478  17.432  0.0563 -0.2211  0.0662
  843MPD2    H712450   1.915   4.458  17.351  1.0610  1.1275 -0.9922
  844MPD2     C12451   0.941   2.853  16.610  0.2219 -0.7242 -0.5089
  844MPD2    C112452   0.945   2.944  16.497  0.2232 -0.1464 -0.4100
  844MPD2    C212453   1.010   3.067  16.513 -0.3714 -0.2220  0.4892
  844MPD2    C312454   1.083   3.084  16.627  0.4710  0.0095 -0.4290
  844MPD2    C412455   1.092   2.989  16.724  0.2172 -0.5426  0.0248
  844MPD2    C512456   1.020   2.877  16.717  0.0664  0.3738 -0.1637
  844MPD2     H12457   1.004   3.153  16.448 -1.2141 -2.3425 -2.2346
  844MPD2    H112458   1.157   3.013  16.809  2.1757 -2.2749 -0.9872
  844MPD2    H212459   0.889   2.758  16.605 -1.9177  0.4083  0.2582
  844MPD2    H312460   1.027   2.794  16.787  0.1355  1.5520  1.2250
  844MPD2     N12461   1.161   3.199  16.653 -0.2941 -0.2401  0.4640
  844MPD2    H512462   1.227   3.190  16.730  2.1212 -0.2618 -1.6309
  844MPD2    N112463   0.875   2.919  16.379 -0.5905  0.1895 -0.1018
  844MPD2    H712464   0.877   2.996  16.313 -0.0550 -0.2267 -0.5758
  845MPD2     C12465   1.121   4.127  16.279  0.3561 -0.0360 -0.1703
  845MPD2    C112466   1.102   4.083  16.410  0.6716 -0.3091 -0.5652
  845MPD2    C212467   1.160   3.971  16.454  0.3727 -0.6133 -0.7807
  845MPD2    C312468   1.240   3.897  16.366 -0.3977  0.7362  0.4969
  845MPD2    C412469   1.256   3.937  16.238  0.4968 -0.3719 -0.1011
  845MPD2    C512470   1.194   4.050  16.191  0.1112 -0.2498 -0.1721
  845MPD2     H12471   1.154   3.948  16.560 -1.0060 -1.2108 -0.9861
  845MPD2    H112472   1.321   3.875  16.178  0.2855 -1.0772  0.4095
  845MPD2    H212473   1.085   4.217  16.231  1.3822  0.0430 -0.7933
  845MPD2    H312474   1.205   4.079  16.087  0.7864 -0.9723 -0.2937
  845MPD2     N12475   1.294   3.776  16.415 -0.0215  0.0684 -0.0516
  845MPD2    H512476   1.289   3.696  16.352  0.3471 -1.4606  1.8305
  845MPD2    N112477   1.031   4.171  16.496  0.1274  1.0205  0.0472
  845MPD2    H712478   1.019   4.268  16.470  1.0985  0.7373 -1.4301
  846MPD2     C12479   2.418   4.197  13.395 -0.3000 -0.3593  0.1447
  846MPD2    C112480   2.338   4.301  13.435  0.8823 -0.6783  0.5760
  846MPD2    C212481   2.259   4.287  13.550  0.7269 -0.1098  0.2282
  846MPD2    C312482   2.257   4.176  13.631  0.0200 -0.2604  0.6633
  846MPD2    C412483   2.338   4.074  13.591 -0.0441  0.4059 -0.1105
  846MPD2    C512484   2.417   4.080  13.476  0.4055 -0.0433 -0.4675
  846MPD2     H12485   2.184   4.362  13.572  2.9650  2.1062  0.3066
  846MPD2    H112486   2.349   3.984  13.651 -0.8201  0.9528  0.8548
  846MPD2    H212487   2.481   4.193  13.307 -1.5345 -1.2737 -0.7120
  846MPD2    H312488   2.488   4.000  13.457  3.9951  2.3058  2.9557
  846MPD2     N12489   2.174   4.169  13.744 -0.2250  0.1859 -0.0226
  846MPD2    H512490   2.112   4.248  13.759  0.9440  0.7394  1.8545
  846MPD2    N112491   2.330   4.420  13.361 -0.1864  0.4203  0.2573
  846MPD2    H712492   2.281   4.498  13.402 -1.6968 -0.1460 -0.4962
  847MPD2     C12493   2.864   0.503  13.892 -0.4284  0.1755 -0.4518
  847MPD2    C112494   2.758   0.492  13.977 -0.2296  0.0736 -0.1641
  847MPD2    C212495   2.774   0.421  14.096 -0.0528  0.0202 -0.3055
  847MPD2    C312496   2.895   0.362  14.122  0.7153 -0.6112 -0.8225
  847MPD2    C412497   3.002   0.383  14.040 -0.1814 -0.3820  0.8465
  847MPD2    C512498   2.984   0.442  13.918 -0.1442  0.1251 -0.1059
  847MPD2     H12499   2.689   0.417  14.164 -0.6607 -2.6194 -1.2311
  847MPD2    H112500   3.103   0.346  14.057  0.1028  0.2426  0.5226
  847MPD2    H212501   2.852   0.551  13.796  0.8030 -0.2294 -0.8083
  847MPD2    H312502   3.063   0.447  13.844 -0.2120 -1.7775 -0.3149
  847MPD2     N12503   2.901   0.270  14.232  0.5827 -0.2314  0.1600
  847MPD2    H512504   2.820   0.264  14.294  0.1236  1.7689 -0.2222
  847MPD2    N112505   2.622   0.535  13.949 -0.8930 -0.0222 -0.4699
  847MPD2    H712506   2.555   0.520  14.024  0.5516  2.8065  1.3836
  848MPD2     C12507   0.167   3.807  16.056  0.4103  0.3243  0.1467
  848MPD2    C112508   0.220   3.842  16.177 -0.3754 -0.3177 -0.1349
  848MPD2    C212509   0.195   3.969  16.225 -0.6915  0.1109 -0.2307
  848MPD2    C312510   0.125   4.061  16.153  0.2361 -0.2710 -0.2873
  848MPD2    C412511   0.067   4.022  16.034 -0.2097 -0.1834 -0.3796
  848MPD2    C512512   0.094   3.897  15.984  0.3956 -0.3462 -1.0954
  848MPD2     H12513   0.238   3.982  16.324  0.8545  0.8315 -0.9846
  848MPD2    H112514   0.005   4.086  15.972 -0.2887 -0.7997 -0.9398
  848MPD2    H212515   0.174   3.705  16.020 -0.5408  0.5188 -0.5831
  848MPD2    H312516   0.042   3.864  15.894 -1.0547 -0.5705 -0.1713
  848MPD2     N12517   0.091   4.192  16.194  0.8077 -0.2692 -0.6534
  848MPD2    H512518   0.017   4.240  16.144 -0.7147 -0.8665  1.0440
  848MPD2    N112519   0.291   3.758  16.268  0.2743  0.4255  0.5446
  848MPD2    H712520   0.318   3.788  16.361 -0.9153 -1.1266  1.3810
  849MPD2     C12521   0.477   2.920  13.749 -0.2933  0.1015 -0.7919
  849MPD2    C112522   0.397   3.024  13.702 -0.1042  0.2326 -0.1549
  849MPD2    C212523   0.422   3.152  13.758 -0.3265  0.7814 -0.5541
  849MPD2    C312524   0.492   3.165  13.870 -0.5713 -0.2750  0.2100
  849MPD2    C412525   0.555   3.056  13.928  0.2775 -0.4197  0.5631
  849MPD2    C512526   0.552   2.937  13.861  0.0502 -0.5062 -0.3172
  849MPD2     H12527   0.368   3.235  13.714 -1.8133  1.0186  1.7547
  849MPD2    H112528   0.618   3.062  14.016  1.2559 -2.3420  0.0058
  849MPD2    H212529   0.477   2.831  13.688  2.0682  1.7461 -3.2249
  849MPD2    H312530   0.607   2.855  13.905  2.2625  0.2371 -1.7419
  849MPD2     N12531   0.513   3.304  13.899  0.3897  0.1902 -0.7465
  849MPD2    H512532   0.469   3.370  13.836  0.6526 -0.3144 -1.4555
  849MPD2    N112533   0.303   2.995  13.600  0.4590 -0.5587 -0.3471
  849MPD2    H712534   0.302   2.903  13.555 -1.0015 -0.0094 -1.4460
  850MPD2     C12535   2.351   1.517  14.507  0.3570 -0.3504  0.0279
  850MPD2    C112536   2.403   1.631  14.563 -0.4362  0.2164 -0.2670
  850MPD2    C212537   2.540   1.633  14.614  0.0486  0.0953  0.6650
  850MPD2    C312538   2.604   1.504  14.632 -0.0488  0.4754  0.3590
  850MPD2    C412539   2.541   1.393  14.581 -0.2567  0.6493  0.1757
  850MPD2    C512540   2.419   1.398  14.514 -0.0002 -0.1493 -0.3326
  850MPD2     H12541   2.580   1.727  14.650 -2.9634  1.6055  0.0811
  850MPD2    H112542   2.584   1.294  14.593  0.1295  0.8260  0.2299
  850MPD2    H212543   2.254   1.517  14.457  0.1194  0.2947  0.4864
  850MPD2    H312544   2.367   1.310  14.478  0.2560 -1.3228  2.1404
  850MPD2     N12545   2.729   1.486  14.696  0.7774 -0.0778 -0.8737
  850MPD2    H512546   2.763   1.390  14.707  2.2433  0.7749  2.0985
  850MPD2    N112547   2.328   1.748  14.563 -0.0927  0.1635  0.0498
  850MPD2    H712548   2.254   1.757  14.494 -0.3406 -0.4611  0.2374
  851MPD2     C12549   2.697   1.498  15.275  0.3288  0.1135  0.7000
  851MPD2    C112550   2.637   1.471  15.156  0.1304  0.4552  0.6204
  851MPD2    C212551   2.673   1.370  15.070 -0.5675 -0.9769 -0.4594
  851MPD2    C312552   2.785   1.291  15.108  1.0595 -0.2208  0.6303
  851MPD2    C412553   2.834   1.310  15.233  0.6200  0.0967 -0.2032
  851MPD2    C512554   2.788   1.405  15.317  0.2614  0.6262  0.2255
  851MPD2     H12555   2.636   1.358  14.969 -1.2737 -1.9202 -0.0885
  851MPD2    H112556   2.917   1.250  15.267  0.6050  0.0951 -0.1695
  851MPD2    H212557   2.656   1.580  15.333 -1.4745  0.7916 -1.5404
  851MPD2    H312558   2.838   1.415  15.412  1.5253 -2.1060 -0.1594
  851MPD2     N12559   2.829   1.185  15.033 -0.0948 -0.0597 -0.2384
  851MPD2    H512560   2.778   1.173  14.946 -0.2280 -2.8333  0.2013
  851MPD2    N112561   2.536   1.562  15.123 -0.1804  0.3750  0.7824
  851MPD2    H712562   2.525   1.646  15.180 -0.0302  1.0533 -0.1906
  852MPD2     C12563   1.872   3.563  10.084  0.3971 -0.5316  0.1219
  852MPD2    C112564   1.983   3.521  10.159 -0.0172  0.0158  0.2844
  852MPD2    C212565   2.103   3.577  10.129  0.2500 -0.4003  0.7257
  852MPD2    C312566   2.130   3.667  10.026 -0.2097  0.9030  0.2756
  852MPD2    C412567   2.024   3.703   9.941  0.1432  0.9174 -0.3959
  852MPD2    C512568   1.900   3.648   9.976 -0.4683  0.0436 -0.4706
  852MPD2     H12569   2.195   3.542  10.174  0.4349 -0.6657  0.1513
  852MPD2    H112570   2.030   3.783   9.869 -1.6036  2.4213  1.1528
  852MPD2    H212571   1.771   3.533  10.111  1.0567 -3.4493 -0.6533
  852MPD2    H312572   1.810   3.671   9.920  0.5884  0.0238 -2.1691
  852MPD2     N12573   2.252   3.742  10.013 -0.2058 -0.1718 -0.1400
  852MPD2    H512574   2.322   3.741  10.087 -2.1366  3.7366  1.7326
  852MPD2    N112575   1.977   3.422  10.264  0.3392 -0.2778 -0.7752
  852MPD2    H712576   2.066   3.395  10.304 -0.1549 -0.4821  0.1806
  853MPD2     C12577   3.735   3.313  12.208  0.1398 -0.0760 -1.0168
  853MPD2    C112578   3.795   3.431  12.178  0.1307  0.1721  1.1006
  853MPD2    C212579   3.848   3.439  12.051 -0.1473  0.4931  0.7323
  853MPD2    C312580   3.844   3.338  11.956  0.1782 -0.4494 -0.5609
  853MPD2    C412581   3.788   3.213  11.994 -0.1157  0.1000  0.1833
  853MPD2    C512582   3.735   3.201  12.120  0.4320 -0.6291 -0.4305
  853MPD2     H12583   3.895   3.529  12.013  1.4307 -0.2669  0.8586
  853MPD2    H112584   3.782   3.127  11.928 -0.0065  0.0976  0.1770
  853MPD2    H212585   3.694   3.298  12.307 -1.0115  0.5266 -1.4076
  853MPD2    H312586   3.694   3.104  12.146  1.4650 -1.4027 -1.7110
  853MPD2     N12587   3.894   3.342  11.824 -0.2109 -1.0946 -0.1106
  853MPD2    H512588   3.872   3.258  11.772 -1.0085 -0.5832 -0.6123
  853MPD2    N112589   3.798   3.537  12.266 -0.1357 -0.1844  0.1886
  853MPD2    H712590   3.759   3.517  12.358 -1.4807  0.2969 -0.2782
  854MPD2     C12591   0.597   3.663  13.098 -0.2447 -0.0283 -0.6773
  854MPD2    C112592   0.714   3.689  13.171 -0.4141  0.3567 -0.8707
  854MPD2    C212593   0.807   3.591  13.183  0.7290 -0.4727  0.3071
  854MPD2    C312594   0.796   3.470  13.115 -0.2499  0.4582  0.0008
  854MPD2    C412595   0.679   3.440  13.047  0.6992  0.5846 -0.2045
  854MPD2    C512596   0.580   3.540  13.042  0.1882 -0.9552  0.1691
  854MPD2     H12597   0.886   3.606  13.255 -0.3100 -0.9158  1.5297
  854MPD2    H112598   0.645   3.354  12.989  1.1297  0.7550 -0.7099
  854MPD2    H212599   0.517   3.735  13.092 -1.4308 -1.1915  1.3977
  854MPD2    H312600   0.483   3.519  12.996 -0.3066 -0.2344  0.8985
  854MPD2     N12601   0.908   3.380  13.094  0.7760 -0.4097  0.0964
  854MPD2    H512602   0.905   3.306  13.024  0.0623 -0.4072  0.1256
  854MPD2    N112603   0.741   3.817  13.227  0.3381  0.3126  0.3591
  854MPD2    H712604   0.673   3.888  13.202  1.6386  1.4174 -0.0355
  855MPD2     C12605   1.890   3.348  13.459 -0.0797 -0.0516  0.0863
  855MPD2    C112606   1.754   3.373  13.494 -0.5899 -0.3349 -0.3549
  855MPD2    C212607   1.655   3.380  13.393 -0.8865  0.4825  1.0682
  855MPD2    C312608   1.689   3.335  13.267  0.0039 -0.0800 -0.2897
  855MPD2    C412609   1.819   3.304  13.244 -0.3527 -0.5330  0.1124
  855MPD2    C512610   1.924   3.325  13.329 -0.1682 -0.0574 -0.4577
  855MPD2     H12611   1.551   3.402  13.413  0.4795  5.1729  2.8429
  855MPD2    H112612   1.845   3.283  13.140  1.1578  1.3331  0.1021
  855MPD2    H212613   1.971   3.334  13.530  1.2600  2.2766 -1.0071
  855MPD2    H312614   2.024   3.300  13.295  0.0365 -1.4456  1.1616
  855MPD2     N12615   1.586   3.300  13.181 -0.0305 -0.0925 -0.5291
  855MPD2    H512616   1.609   3.231  13.109  2.7366  0.1583  0.1416
  855MPD2    N112617   1.714   3.379  13.635 -0.2074 -0.7209  0.4620
  855MPD2    H712618   1.614   3.375  13.654 -0.4868  0.0676 -0.8131
  856MPD2     C12619   4.069   4.186  13.841  0.1226 -0.6454 -0.4583
  856MPD2    C112620   4.061   4.320  13.808 -0.4215 -0.4908  0.1437
  856MPD2    C212621   3.935   4.375  13.798 -0.4793  0.5870 -0.2578
  856MPD2    C312622   3.822   4.299  13.815 -0.5332 -0.4672 -0.0184
  856MPD2    C412623   3.831   4.171  13.854  1.2019  0.0471 -0.4556
  856MPD2    C512624   3.956   4.109  13.871  1.1001 -0.4960 -0.0631
  856MPD2     H12625   3.932   4.481  13.773  0.1279  0.3799 -1.2221
  856MPD2    H112626   3.735   4.123  13.871 -0.3100  2.9404 -0.6942
  856MPD2    H212627   4.162   4.134  13.861 -0.0036 -0.8822 -0.4917
  856MPD2    H312628   3.966   4.010  13.914 -2.4736 -0.2434  1.3312
  856MPD2     N12629   3.697   4.360  13.793  0.4874  0.7040 -0.3610
  856MPD2    H512630   3.699   4.460  13.772  0.2733  0.3848 -1.8898
  856MPD2    N112631   4.166   4.410  13.789  0.3085 -0.0601 -0.0088
  856MPD2    H712632   4.141   4.507  13.776 -0.2207 -0.1031  0.6838
  857MPD2     C12633   0.275   1.921  13.194  0.7792  0.0373  0.5680
  857MPD2    C112634   0.404   1.911  13.151 -0.6967  0.0672 -0.3111
  857MPD2    C212635   0.500   1.989  13.213  0.9812 -0.1331 -0.2012
  857MPD2    C312636   0.469   2.079  13.320 -0.2589  0.4784 -0.8870
  857MPD2    C412637   0.337   2.079  13.361 -0.6455  0.3835  0.3973
  857MPD2    C512638   0.243   2.005  13.307  0.7441  0.3642  0.2882
  857MPD2     H12639   0.603   1.984  13.180  0.4174 -0.6215 -1.8853
  857MPD2    H112640   0.301   2.147  13.438  0.2106  0.4384  0.7567
  857MPD2    H212641   0.194   1.858  13.161 -0.7395  1.3163  1.8424
  857MPD2    H312642   0.143   2.001  13.346  0.4184 -1.9767 -0.7707
  857MPD2     N12643   0.572   2.171  13.359  0.2914 -0.4695  0.0603
  857MPD2    H512644   0.661   2.172  13.310 -1.2071  1.4730 -2.6052
  857MPD2    N112645   0.445   1.799  13.071 -0.1413 -0.6165  0.0356
  857MPD2    H712646   0.365   1.741  13.045  0.9632 -2.1883  0.1633
  858MPD2     C12647   0.858   1.334  16.371  0.5501 -0.0216  0.4069
  858MPD2    C112648   0.940   1.250  16.436  0.7282 -0.0495 -0.2018
  858MPD2    C212649   0.934   1.249  16.573  0.2738  0.3949  0.2238
  858MPD2    C312650   0.846   1.331  16.648  0.6706  0.0163  0.1006
  858MPD2    C412651   0.769   1.417  16.577  0.1517 -0.8295 -0.0840
  858MPD2    C512652   0.773   1.418  16.440 -0.5026  0.0727 -0.4222
  858MPD2     H12653   0.991   1.171  16.621  2.8889  1.1342 -1.6915
  858MPD2    H112654   0.706   1.489  16.630 -0.8990  0.2887 -2.8468
  858MPD2    H212655   0.867   1.354  16.265 -4.0697  0.4608  0.1166
  858MPD2    H312656   0.707   1.487  16.388  1.1220  0.2518 -2.2318
  858MPD2     N12657   0.831   1.327  16.784  0.2753 -0.1499  0.0211
  858MPD2    H512658   0.776   1.398  16.830  1.9723  2.1023 -1.4057
  858MPD2    N112659   1.036   1.165  16.365  0.3514 -0.6502 -0.3261
  858MPD2    H712660   1.078   1.090  16.419  0.2362 -0.6578 -0.2469
  859MPD2     C12661   4.419   3.145  15.708  0.4323 -0.4208  0.0159
  859MPD2    C112662   4.504   3.143  15.603  0.4743  0.5858 -0.2033
  859MPD2    C212663   4.593   3.044  15.591  0.1422 -0.2512  0.2245
  859MPD2    C312664   4.606   2.949  15.694 -1.1413 -0.3279 -0.3835
  859MPD2    C412665   4.528   2.959  15.809  0.3429  0.1855  0.3880
  859MPD2    C512666   4.429   3.054  15.809  0.2704  0.0721 -0.1251
  859MPD2     H12667   4.662   3.048  15.508  1.7438  0.3909  1.5728
  859MPD2    H112668   4.540   2.891  15.893  0.1046 -0.4098 -0.0648
  859MPD2    H212669   4.347   3.224  15.721  1.0846  0.2904 -0.7038
  859MPD2    H312670   4.348   3.056  15.880 -0.7807 -2.5736 -1.2586
  859MPD2     N12671   4.700   2.843  15.685  0.4821  0.4389 -0.0148
  859MPD2    H512672   4.697   2.785  15.768  4.0786 -0.4843 -0.5207
  859MPD2    N112673   4.514   3.253  15.505 -0.5148 -0.0230 -0.0284
  859MPD2    H712674   4.592   3.252  15.440 -1.5351 -4.5975 -1.1912
  860MPD2     C12675   2.263   2.985  11.541  0.2207 -0.2007 -0.7856
  860MPD2    C112676   2.317   3.078  11.630  0.0735 -0.4362  0.4293
  860MPD2    C212677   2.238   3.133  11.727 -0.2996  0.5111  0.7784
  860MPD2    C312678   2.098   3.124  11.721 -0.4671  0.8037 -0.1072
  860MPD2    C412679   2.043   3.032  11.631 -0.1542 -0.0310 -0.1221
  860MPD2    C512680   2.128   2.970  11.538 -0.2535 -0.6899  0.1710
  860MPD2     H12681   2.290   3.190  11.803 -0.0095  0.8938  0.2917
  860MPD2    H112682   1.935   3.018  11.627 -0.4522  2.0339  0.4544
  860MPD2    H212683   2.312   2.934  11.459  0.1538 -0.1245 -0.8734
  860MPD2    H312684   2.095   2.907  11.457 -0.6079  0.3214 -0.4734
  860MPD2     N12685   2.019   3.204  11.806 -0.2170 -0.1023 -0.8173
  860MPD2    H512686   1.919   3.184  11.806 -0.2357 -0.0305 -1.2375
  860MPD2    N112687   2.456   3.106  11.638  0.4265  0.3264  0.0678
  860MPD2    H712688   2.485   3.172  11.708  0.8896  0.4717 -0.2593
  861MPD2     C12689   0.723   1.875  11.085  0.0286 -0.0309 -0.2933
  861MPD2    C112690   0.610   1.847  11.162 -0.1612 -0.3462  0.7523
  861MPD2    C212691   0.490   1.888  11.105 -0.2306  0.0638 -0.3793
  861MPD2    C312692   0.485   1.964  10.992 -0.3040  0.4715  0.1063
  861MPD2    C412693   0.599   1.981  10.925  1.1259  0.0542 -0.1975
  861MPD2    C512694   0.721   1.938  10.965 -0.7914 -0.5015  0.0982
  861MPD2     H12695   0.400   1.870  11.163 -1.1948  2.6748 -1.0572
  861MPD2    H112696   0.600   2.052  10.843 -1.6353 -1.1361 -1.2252
  861MPD2    H212697   0.824   1.844  11.109  0.3708  0.5947 -0.9296
  861MPD2    H312698   0.805   1.951  10.899 -1.5620 -1.0487 -1.0026
  861MPD2     N12699   0.374   2.033  10.942  0.4968 -0.2459 -0.2250
  861MPD2    H512700   0.384   2.090  10.860 -1.2824  0.0066 -0.2634
  861MPD2    N112701   0.615   1.784  11.288  0.1549  0.1703  0.6470
  861MPD2    H712702   0.523   1.785  11.329  0.2550 -1.7839  0.8984
  862MPD2     C12703   4.328   2.152  10.720 -0.1000  0.5619 -0.2454
  862MPD2    C112704   4.431   2.064  10.753 -0.4775 -0.2467  0.5891
  862MPD2    C212705   4.436   1.940  10.690  0.9801 -0.0441  0.0507
  862MPD2    C312706   4.347   1.910  10.587 -0.5541 -0.9319  0.4985
  862MPD2    C412707   4.249   1.996  10.561  0.3467  0.5229  0.4255
  862MPD2    C512708   4.239   2.113  10.623 -0.5227  0.7266  0.4061
  862MPD2     H12709   4.506   1.873  10.737 -0.2075 -0.5053  1.1698
  862MPD2    H112710   4.183   1.979  10.476 -0.7352  0.2384  1.3244
  862MPD2    H212711   4.308   2.245  10.773 -1.2483  0.0747  0.1818
  862MPD2    H312712   4.156   2.179  10.605 -1.2412 -0.1332  0.5891
  862MPD2     N12713   4.359   1.791  10.515 -0.4468  0.1146 -0.4536
  862MPD2    H512714   4.301   1.766  10.435  0.5149  1.1785 -1.4908
  862MPD2    N112715   4.523   2.078  10.852 -0.2807  0.2789 -0.2664
  862MPD2    H712716   4.586   2.002  10.877  1.1437  1.8169  0.8004
  863MPD2     C12717   4.414   0.576  16.614  0.1605 -0.3204 -0.3490
  863MPD2    C112718   4.320   0.513  16.688  0.1242  0.8467 -0.9456
  863MPD2    C212719   4.353   0.422  16.787  0.6502  0.2818 -0.2754
  863MPD2    C312720   4.484   0.376  16.793  0.6770 -0.3805  0.4341
  863MPD2    C412721   4.575   0.436  16.708 -0.0398  0.1715  0.1055
  863MPD2    C512722   4.542   0.533  16.620  0.3119 -0.8223 -0.2414
  863MPD2     H12723   4.282   0.367  16.848 -0.0883  0.8441 -0.6285
  863MPD2    H112724   4.678   0.401  16.710 -1.4712 -3.9992  1.6878
  863MPD2    H212725   4.375   0.652  16.546  0.1886 -1.0356 -1.1636
  863MPD2    H312726   4.615   0.572  16.549 -0.6891  2.0870  0.3384
  863MPD2     N12727   4.533   0.281  16.877 -0.0678 -0.6179 -0.2234
  863MPD2    H512728   4.635   0.277  16.871 -0.0343  0.4723 -0.3337
  863MPD2    N112729   4.189   0.549  16.663  0.3046 -0.1955 -0.2294
  863MPD2    H712730   4.168   0.594  16.574 -2.3731  0.6640  0.8389
  864MPD2     C12731   0.056   1.057  16.945  0.8502  0.4169 -0.5620
  864MPD2    C112732   4.691   1.152  16.947 -0.6532 -0.1698 -0.2709
  864MPD2    C212733   4.722   1.279  16.907  0.1956  0.6803  0.6827
  864MPD2    C312734   0.108   1.321  16.871 -0.0288  0.3500 -1.2492
  864MPD2    C412735   0.211   1.222  16.866  0.8987  0.0010  0.2214
  864MPD2    C512736   0.186   1.092  16.911  0.2502  0.9785 -0.2416
  864MPD2     H12737   4.644   1.354  16.901 -0.7788 -0.3049  1.0373
  864MPD2    H112738   0.310   1.247  16.830  1.1834  0.8138  1.5909
  864MPD2    H212739   0.036   0.952  16.964 -0.1452  0.3892 -1.8004
  864MPD2    H312740   0.262   1.016  16.901  1.6405  2.1427  1.4387
  864MPD2     N12741   0.129   1.447  16.810  0.1535 -0.7488  0.1647
  864MPD2    H512742   0.223   1.458  16.772  1.0710 -0.0405  2.6087
  864MPD2    N112743   4.564   1.108  16.987  0.3737 -0.5244  0.2514
  864MPD2    H712744   4.560   1.011  17.017 -1.6855  0.2267  2.4315
  865MPD2     C12745   0.098   1.807  16.040 -0.2150  0.1427  0.1239
  865MPD2    C112746   0.074   1.722  16.151 -0.5347 -0.0431  0.4786
  865MPD2    C212747   0.029   1.781  16.272  0.8161  0.3361  0.5137
  865MPD2    C312748   0.014   1.915  16.284 -0.9112  0.1968 -0.0148
  865MPD2    C412749   0.045   1.989  16.171 -0.2306 -0.3728  0.8600
  865MPD2    C512750   0.093   1.942  16.056  0.1731  0.4692 -0.3549
  865MPD2     H12751   0.001   1.716  16.354 -0.0876  1.7147  1.2906
  865MPD2    H112752   0.026   2.096  16.179 -0.4944 -0.3690  0.1732
  865MPD2    H212753   0.114   1.763  15.943  0.0479 -1.2245  0.7842
  865MPD2    H312754   0.105   2.012  15.975 -1.0753 -0.1162 -1.0557
  865MPD2     N12755   4.715   1.988  16.396 -0.6329  0.4068  0.3499
  865MPD2    H512756   4.686   2.082  16.372 -0.2578  0.6761  0.9352
  865MPD2    N112757   0.092   1.580  16.135  0.6383  0.1346 -0.1803
  865MPD2    H712758   0.128   1.551  16.045 -1.4429 -0.9080 -0.6927
  866MPD2     C12759   1.447   2.086  11.483  0.1262 -0.0102 -0.3445
  866MPD2    C112760   1.429   2.035  11.358 -0.0585 -0.2410  0.5530
  866MPD2    C212761   1.313   2.056  11.295 -0.3533 -0.7779  0.5321
  866MPD2    C312762   1.220   2.134  11.363  0.4046  0.9246 -0.5672
  866MPD2    C412763   1.247   2.193  11.481 -0.4553  0.0187  0.1215
  866MPD2    C512764   1.365   2.172  11.544 -0.5188  0.0030 -0.0286
  866MPD2     H12765   1.274   2.015  11.203  0.4223  0.0132 -0.1413
  866MPD2    H112766   1.169   2.245  11.537  0.6594  1.2963  0.4882
  866MPD2    H212767   1.528   2.039  11.539  0.1115 -0.0816 -0.3838
  866MPD2    H312768   1.374   2.212  11.644  0.4117 -0.5321  0.0928
  866MPD2     N12769   1.088   2.168  11.319 -0.1955 -0.1430  0.3454
  866MPD2    H512770   1.032   2.232  11.375  0.4286  1.1707 -0.5232
  866MPD2    N112771   1.533   1.952  11.314 -0.7180 -0.0242 -0.1109
  866MPD2    H712772   1.605   1.931  11.382 -1.5919 -0.9217  0.5411
  867MPD2     C12773   3.286   1.550  16.604 -0.5049 -0.8740  0.6852
  867MPD2    C112774   3.388   1.556  16.695 -0.1245 -0.4921  0.2168
  867MPD2    C212775   3.403   1.672  16.763 -0.1187  0.6648 -0.0040
  867MPD2    C312776   3.335   1.788  16.731  0.7285  0.9258 -0.7032
  867MPD2    C412777   3.236   1.781  16.639 -0.6544 -0.4977  0.3935
  867MPD2    C512778   3.207   1.661  16.584 -0.1184  0.1743  0.1975
  867MPD2     H12779   3.483   1.665  16.836  0.6844  1.8146 -0.7913
  867MPD2    H112780   3.173   1.867  16.619  0.1745  0.0171 -0.0518
  867MPD2    H212781   3.266   1.470  16.534  1.4163  1.1312 -2.1036
  867MPD2    H312782   3.119   1.660  16.520  0.4947  1.2240 -0.6547
  867MPD2     N12783   3.358   1.909  16.803 -0.0480  0.1033  0.1272
  867MPD2    H512784   3.286   1.981  16.798 -0.0216  0.2650  2.1519
  867MPD2    N112785   3.465   1.437  16.698  0.4565  0.6956 -0.7853
  867MPD2    H712786   3.434   1.358  16.643  1.2553 -0.4810  0.4840
  868MPD2     C12787   0.474   1.265  13.483  0.3387 -0.0402  0.2978
  868MPD2    C112788   0.432   1.145  13.442 -0.2836 -0.2908  0.2420
  868MPD2    C212789   0.303   1.109  13.472  0.0557 -0.4888  1.2230
  868MPD2    C312790   0.221   1.192  13.545 -0.1870 -0.4690 -0.0617
  868MPD2    C412791   0.264   1.313  13.590 -0.3512 -0.2603  0.5513
  868MPD2    C512792   0.397   1.345  13.564 -0.0325  0.4210 -0.2951
  868MPD2     H12793   0.268   1.014  13.433 -1.4769  0.7169 -0.3430
  868MPD2    H112794   0.211   1.384  13.652  0.3109 -1.8576  2.9314
  868MPD2    H212795   0.572   1.296  13.448  0.7674 -1.4370  0.2556
  868MPD2    H312796   0.443   1.440  13.588  0.5187 -0.2142  1.1939
  868MPD2     N12797   0.097   1.137  13.580 -0.3515 -0.4068  0.6353
  868MPD2    H512798   0.089   1.037  13.562  0.8129 -0.5681  1.0418
  868MPD2    N112799   0.516   1.043  13.378 -0.1687  0.1515  0.3080
  868MPD2    H712800   0.474   0.959  13.341  1.9560 -1.2277  1.0292
  869MPD2     C12801   1.078   2.988   0.594 -1.0192 -0.0513  0.1988
  869MPD2    C112802   1.101   3.054   0.473  0.3181  0.3572 -0.4873
  869MPD2    C212803   1.226   3.113   0.465 -0.5304 -0.0102  0.2012
  869MPD2    C312804   1.317   3.121   0.569  0.8304 -0.6329  0.3850
  869MPD2    C412805   1.287   3.052   0.686 -0.3503  0.1870 -0.6478
  869MPD2    C512806   1.167   2.988   0.697 -0.2752  0.0843  0.4700
  869MPD2     H12807   1.239   3.182   0.381 -1.5146 -1.4817 -1.1508
  869MPD2    H112808   1.348   3.061   0.775 -0.1280 -1.2345 -0.6549
  869MPD2    H212809   0.978   2.946   0.604 -1.2054  0.2678 -0.3073
  869MPD2    H312810   1.138   2.936   0.787 -1.1632 -1.1282 -0.5025
  869MPD2     N12811   1.431   3.201   0.573  0.1508 -0.6076  0.3470
  869MPD2    H512812   1.468   3.207   0.667  1.7052  1.0161 -0.3789
  869MPD2    N112813   0.997   3.049   0.380  0.3632  0.0240  0.1809
  869MPD2    H712814   0.905   3.018   0.410 -0.6441  1.0680 -1.8467
  870MPD2     C12815   1.933   2.192   1.108  0.8109 -0.5421  0.3497
  870MPD2    C112816   1.854   2.168   1.001 -0.6589  0.5519  0.1587
  870MPD2    C212817   1.716   2.187   1.000  0.0600 -0.3889 -0.1689
  870MPD2    C312818   1.662   2.248   1.112 -0.5842  0.3331 -0.2443
  870MPD2    C412819   1.746   2.299   1.209 -0.1316 -0.1103  0.1296
  870MPD2    C512820   1.882   2.261   1.216 -0.1903  0.0641  0.3458
  870MPD2     H12821   1.657   2.163   0.912 -0.7692 -0.4734  0.4101
  870MPD2    H112822   1.715   2.367   1.287  3.2153  0.0236  1.3319
  870MPD2    H212823   2.039   2.177   1.089  1.1461  0.3732  1.4894
  870MPD2    H312824   1.941   2.278   1.305  2.3152  1.1536 -1.5019
  870MPD2     N12825   1.524   2.256   1.115  0.1237  0.3776  0.3476
  870MPD2    H512826   1.479   2.237   1.026 -0.5292 -3.3456  1.4759
  870MPD2    N112827   1.913   2.087   0.893 -0.0491  0.1451 -0.5532
  870MPD2    H712828   1.992   2.029   0.919 -1.9322 -2.1881 -0.0672
  871MPD2     C12829   2.565   1.585  16.196  0.5211  0.1487 -0.3613
  871MPD2    C112830   2.544   1.525  16.318  0.5475 -0.2658 -0.5373
  871MPD2    C212831   2.573   1.388  16.329  0.8123  0.3560  0.6778
  871MPD2    C312832   2.623   1.317  16.223 -0.4197  0.3436  0.1160
  871MPD2    C412833   2.641   1.374  16.099  0.7036  0.4333 -0.0352
  871MPD2    C512834   2.609   1.509  16.090  0.2472 -0.4757 -0.8257
  871MPD2     H12835   2.549   1.337  16.422 -0.3708 -3.1944 -1.5264
  871MPD2    H112836   2.671   1.322  16.008  1.5758  1.6892 -0.4589
  871MPD2    H212837   2.545   1.691  16.181  0.2014  0.2435  0.7065
  871MPD2    H312838   2.605   1.551  15.990 -1.1321 -0.7074 -0.8719
  871MPD2     N12839   2.652   1.180  16.238  0.5181  0.3124  0.2578
  871MPD2    H512840   2.619   1.140  16.325 -0.0419  0.3425  0.0563
  871MPD2    N112841   2.498   1.607  16.425  0.7057  0.3044 -0.0240
  871MPD2    H712842   2.504   1.705  16.397 -1.5438  0.0812 -1.2931
  872MPD2     C12843   3.323   4.097  13.344  0.4890  0.2048 -0.4946
  872MPD2    C112844   3.395   4.058  13.453 -0.9827  0.1942  0.8108
  872MPD2    C212845   3.324   4.005  13.558  0.4245  0.2592 -0.5740
  872MPD2    C312846   3.184   3.991  13.563  0.0315  0.3953  0.1373
  872MPD2    C412847   3.120   4.030  13.448  0.5629 -0.1474  0.3723
  872MPD2    C512848   3.189   4.088  13.348  0.1173  1.0438 -0.0643
  872MPD2     H12849   3.384   3.948  13.628  2.5629  0.9774 -1.8204
  872MPD2    H112850   3.013   4.033  13.432  0.4429  0.7188  1.3338
  872MPD2    H212851   3.370   4.142  13.257 -0.3593 -0.3462 -1.2257
  872MPD2    H312852   3.129   4.121  13.264  0.6169 -0.5536 -1.0423
  872MPD2     N12853   3.109   3.941  13.668  0.1088  0.8251  0.1264
  872MPD2    H512854   3.013   3.918  13.643 -0.0605  0.6416  0.9446
  872MPD2    N112855   3.532   4.067  13.466 -0.5298 -0.0356  0.2635
  872MPD2    H712856   3.576   4.016  13.542  0.5646 -1.6325 -1.4210
  873MPD2     C12857   4.612   3.736   0.441  0.0124  0.2788  0.0972
  873MPD2    C112858   4.673   3.721   0.566 -0.0563  0.3466 -0.2049
  873MPD2    C212859   4.721   3.598   0.605  0.4614  0.0395 -0.1762
  873MPD2    C312860   4.719   3.490   0.524  0.1842  0.1479  0.2756
  873MPD2    C412861   4.676   3.509   0.394 -0.3841  0.3652 -0.0309
  873MPD2    C512862   4.621   3.629   0.355  0.0513 -0.3020 -0.6527
  873MPD2     H12863   0.027   3.590   0.704  0.8072 -0.5388 -0.3706
  873MPD2    H112864   4.655   3.423   0.331 -0.0876  0.7288 -0.6244
  873MPD2    H212865   4.581   3.833   0.404  0.4786  0.9731  1.5368
  873MPD2    H312866   4.576   3.631   0.257  0.5538 -0.8868 -0.9027
  873MPD2     N12867   0.042   3.364   0.551 -0.8545 -0.6036  0.0174
  873MPD2    H512868   0.030   3.303   0.471 -1.1009  0.6190 -0.8786
  873MPD2    N112869   4.674   3.835   0.647  0.4779 -0.1074 -0.8735
  873MPD2    H712870   4.625   3.919   0.618 -2.3343 -1.5595 -0.3089
  874MPD2     C12871   4.072   4.440  16.441  0.0164 -0.3414 -0.8596
  874MPD2    C112872   4.159   4.346  16.490 -0.0923 -0.1490 -0.0520
  874MPD2    C212873   4.295   4.364  16.483 -0.1628  0.0906 -0.1806
  874MPD2    C312874   4.346   4.482  16.428 -0.0242 -0.0319 -0.5658
  874MPD2    C412875   4.260   4.581  16.377 -0.1008 -0.0839  0.1271
  874MPD2    C512876   4.124   4.556  16.386 -0.3360 -0.8396  0.0084
  874MPD2     H12877   4.361   4.280  16.504 -1.6464 -0.5732  1.7188
  874MPD2    H112878   4.298   4.677  16.345 -2.7803  0.6867 -0.7605
  874MPD2    H212879   3.965   4.430  16.455 -0.1848 -0.1117 -2.2524
  874MPD2    H312880   4.058   4.636  16.355 -0.6941 -1.2730 -0.3617
  874MPD2     N12881   4.484   4.488  16.397 -0.1512  0.6579  0.8536
  874MPD2    H512882   4.538   4.404  16.417 -1.5386 -0.5648 -0.6087
  874MPD2    N112883   4.104   4.233  16.549 -0.2580 -0.5127  0.0226
  874MPD2    H712884   4.010   4.218  16.516 -0.1853  0.4082 -0.5668
  875MPD2     C12885   1.197   2.371  14.606 -0.1214 -0.3384  0.1181
  875MPD2    C112886   1.084   2.398  14.676  0.5879  0.1276 -0.5899
  875MPD2    C212887   1.098   2.465  14.797 -0.3516  0.1987  0.4627
  875MPD2    C312888   1.219   2.475  14.856  0.1529 -0.2621  0.3723
  875MPD2    C412889   1.332   2.428  14.790  0.5916 -1.0933  0.3368
  875MPD2    C512890   1.320   2.383  14.662  0.3696  0.5455  0.0243
  875MPD2     H12891   1.011   2.512  14.841 -1.4502  0.6310 -2.1751
  875MPD2    H112892   1.430   2.409  14.833  0.1962 -0.2302  1.6351
  875MPD2    H212893   1.200   2.322  14.509 -0.6794 -0.2853  0.0690
  875MPD2    H312894   1.395   2.335  14.600  1.6276 -1.1916  2.8990
  875MPD2     N12895   1.233   2.514  14.994 -0.3034  0.9337 -0.3992
  875MPD2    H512896   1.327   2.494  15.027 -0.2182  0.8011 -0.7155
  875MPD2    N112897   0.955   2.376  14.619  0.0048  0.5229  0.2744
  875MPD2    H712898   0.875   2.417  14.666  0.7091  0.2891  1.6811
  876MPD2     C12899   4.535   3.534  15.889 -0.4038  0.3592 -0.0576
  876MPD2    C112900   4.669   3.526  15.856 -0.3109  0.8899 -0.0083
  876MPD2    C212901   0.008   3.417  15.893  0.0109  0.2404  0.5259
  876MPD2    C312902   4.690   3.310  15.963 -0.3407  0.2703 -0.2569
  876MPD2    C412903   4.557   3.323  16.004 -0.6221  0.1495 -0.2884
  876MPD2    C512904   4.478   3.434  15.963  0.6848  0.3574  0.3428
  876MPD2     H12905   0.109   3.390  15.864  0.1024 -1.6835  2.6632
  876MPD2    H112906   4.516   3.258  16.081 -4.1065  1.1105 -1.3152
  876MPD2    H212907   4.488   3.630  15.873  2.5354  1.9385  0.8338
  876MPD2    H312908   4.378   3.442  16.005  0.9409  1.6530  0.6865
  876MPD2     N12909   0.042   3.206  15.999 -0.2781  0.3392  0.6476
  876MPD2    H512910   0.130   3.219  15.951 -1.2930  1.3520 -0.9355
  876MPD2    N112911   4.713   3.629  15.773  0.2045  0.0676  0.2809
  876MPD2    H712912   4.640   3.688  15.734  0.3998 -0.8804 -1.5175
  877MPD2     C12913   4.492   4.138  15.255 -0.5714  0.7649 -0.0330
  877MPD2    C112914   4.630   4.144  15.270 -0.5034  0.7160  0.8280
  877MPD2    C212915   4.704   4.199  15.171  0.1354 -0.3136  0.5469
  877MPD2    C312916   4.651   4.252  15.062  0.5689 -0.5009 -0.0133
  877MPD2    C412917   4.521   4.241  15.036  0.2932  0.0953  0.4654
  877MPD2    C512918   4.437   4.178  15.129 -0.0961  0.3448  0.1303
  877MPD2     H12919   0.075   4.208  15.181  0.1460  1.8621 -1.3059
  877MPD2    H112920   4.475   4.261  14.940  0.4478  2.0213  0.7998
  877MPD2    H212921   4.423   4.102  15.331  1.2047 -0.8635  0.8187
  877MPD2    H312922   4.331   4.183  15.107 -0.4739 -1.1260  1.6109
  877MPD2     N12923   0.012   4.300  14.972 -0.4612 -0.5767 -0.4714
  877MPD2    H512924   0.108   4.316  15.000 -0.1527 -2.0302 -0.6622
  877MPD2    N112925   4.701   4.074  15.373 -0.5198  0.2125 -0.4709
  877MPD2    H712926   0.063   4.093  15.376  0.1110 -2.7862 -2.0120
  878MPD2     C12927   0.239   2.892  12.604  0.4285 -0.6465 -0.0584
  878MPD2    C112928   0.164   3.010  12.618 -0.2929 -0.0878 -0.1011
  878MPD2    C212929   0.140   3.057  12.742  0.1821 -0.1464  0.7042
  878MPD2    C312930   0.193   2.992  12.858  0.3659  0.1740  0.3266
  878MPD2    C412931   0.262   2.877  12.838 -0.2762  0.0821 -0.1212
  878MPD2    C512932   0.290   2.825  12.712  0.7936  0.3078 -0.8453
  878MPD2     H12933   0.093   3.154  12.755 -0.0765 -0.0193 -1.2741
  878MPD2    H112934   0.318   2.825  12.915 -3.1839 -3.7137 -0.5949
  878MPD2    H212935   0.261   2.852  12.506 -2.0247 -2.7176  0.2429
  878MPD2    H312936   0.348   2.734  12.704  2.0189  0.8879  1.2998
  878MPD2     N12937   0.158   3.046  12.978 -0.7383  0.6299  0.2328
  878MPD2    H512938   0.122   3.141  12.980  0.4953  1.0730  0.9807
  878MPD2    N112939   0.107   3.059  12.501  0.2303 -0.6194  0.0862
  878MPD2    H712940   0.119   3.007  12.415 -1.7833 -0.0814 -0.5460
  879MPD2     C12941   0.141   0.023  16.732 -0.4129  0.0441  0.3870
  879MPD2    C112942   0.165   4.665  16.826 -0.5274  0.1760 -0.9345
  879MPD2    C212943   0.067   4.573  16.853 -0.5471  0.3069  0.5059
  879MPD2    C312944   4.678   4.572  16.792 -0.4685  0.0752 -0.0741
  879MPD2    C412945   4.665   4.657  16.689 -0.3519 -0.1336  0.7647
  879MPD2    C512946   0.022   0.010  16.659 -0.4178 -0.8743  0.2077
  879MPD2     H12947   0.086   4.503  16.934  3.0799  0.9573  0.2516
  879MPD2    H112948   4.575   4.650  16.629  0.4876 -1.4955 -0.3384
  879MPD2    H212949   0.218   0.091  16.698 -0.2889 -0.4945 -0.4004
  879MPD2    H312950   0.013   0.069  16.569  1.8943 -1.8388 -0.6501
  879MPD2     N12951   4.565   4.497  16.834  0.4153 -0.9910  0.1799
  879MPD2    H512952   4.476   4.517  16.789 -0.3095  2.5132  3.1558
  879MPD2    N112953   0.286   4.679  16.897 -0.5137  0.6552  0.1631
  879MPD2    H712954   0.339   0.020  16.860 -0.5085  0.1103 -0.9830
  880MPD2     C12955   1.039   1.617   0.015 -1.0406 -0.3882  0.2503
  880MPD2    C112956   1.136   1.710  17.745  0.8310  0.9461  0.7197
  880MPD2    C212957   1.267   1.666  17.724 -0.7698 -0.0234 -0.7646
  880MPD2    C312958   1.299   1.533   0.005  0.7086 -1.1267  0.3157
  880MPD2    C412959   1.201   1.437   0.013  0.1402  0.3375  0.0793
  880MPD2    C512960   1.072   1.486   0.017 -0.0232 -0.5127 -0.0523
  880MPD2     H12961   1.343   1.744  17.720 -1.1062  0.3379 -0.0848
  880MPD2    H112962   1.219   1.330   0.021  0.0563  0.3983  1.0141
  880MPD2    H212963   0.934   1.643   0.015 -0.8936  0.1711 -1.1548
  880MPD2    H312964   0.993   1.412   0.006 -0.3219 -0.1797 -0.1772
  880MPD2     N12965   1.439   1.506   0.017 -0.3673 -0.2189 -0.8171
  880MPD2    H512966   1.493   1.589  17.742  0.1365 -0.3496 -0.0568
  880MPD2    N112967   1.118   1.849   0.010 -0.1654 -0.4365 -0.3293
  880MPD2    H712968   1.193   1.913  17.732 -1.4849  0.2418 -2.4958
  881MPD2     C12969   1.496   2.662  17.429 -0.4000 -0.0449  0.5024
  881MPD2    C112970   1.490   2.528  17.393 -0.2248  0.6439  0.1661
  881MPD2    C212971   1.419   2.442  17.476 -0.1063 -0.0139  0.0314
  881MPD2    C312972   1.365   2.478  17.593 -0.0393  0.1469  0.0343
  881MPD2    C412973   1.371   2.610  17.625  0.6392 -0.6312  0.3901
  881MPD2    C512974   1.425   2.694  17.539  0.1855  0.5168 -0.1793
  881MPD2     H12975   1.411   2.340  17.440  0.9398  0.1000 -0.5503
  881MPD2    H112976   1.305   2.652  17.700  2.0721 -0.5947  1.6369
  881MPD2    H212977   1.531   2.735  17.357 -1.8426 -1.8472 -1.9987
  881MPD2    H312978   1.418   2.801  17.556 -3.0084  0.4659 -1.0853
  881MPD2     N12979   1.296   2.395  17.683 -0.1965  0.2410  0.0654
  881MPD2    H512980   1.261   2.450   0.014  0.0501 -0.1239  0.4342
  881MPD2    N112981   1.516   2.492  17.261 -0.8793  0.0829 -0.2406
  881MPD2    H712982   1.569   2.560  17.207 -1.0022 -0.3567 -0.9129
  882MPD2     C12983   4.617   4.620  14.296 -0.0647 -0.5215  0.1597
  882MPD2    C112984   4.605   4.542  14.415 -0.4688 -0.5461  0.0149
  882MPD2    C212985   4.491   4.467  14.431 -0.5544 -0.3886 -0.3177
  882MPD2    C312986   4.388   4.467  14.337 -0.8081  0.2576 -0.9330
  882MPD2    C412987   4.400   4.549  14.225 -0.3336  0.5535  0.6809
  882MPD2    C512988   4.511   4.623  14.216  0.1163 -0.7238  0.7334
  882MPD2     H12989   4.486   4.415  14.526  1.3508  1.4323  0.8121
  882MPD2    H112990   4.327   4.553  14.146  0.3630  0.7769  0.0531
  882MPD2    H212991   4.698   4.688  14.274 -0.2694 -0.6629 -1.0259
  882MPD2    H312992   4.512   4.699  14.138  3.0669  0.8124  2.2745
  882MPD2     N12993   4.274   4.384  14.361  0.1073  0.5415  0.3905
  882MPD2    H512994   4.260   4.350  14.456  0.7777  0.3922  0.4366
  882MPD2    N112995   4.711   4.514  14.507  0.4692  0.3165  0.0513
  882MPD2    H712996   4.686   4.456  14.585  0.6123 -1.5330 -1.2899
  883MPD2     C12997   1.794   3.750  15.723  0.0948  0.1635 -0.1671
  883MPD2    C112998   1.858   3.876  15.728  0.2923  0.2884  0.2937
  883MPD2    C212999   1.906   3.915  15.854  0.4018  0.2307  0.3594
  883MPD2    C313000   1.901   3.835  15.969  1.0246  0.6989  0.1485
  883MPD2    C413001   1.827   3.719  15.959  0.1567 -0.3379  0.2985
  883MPD2    C513002   1.774   3.680  15.837 -0.5822 -0.5809  0.4532
  883MPD2     H13003   1.967   4.004  15.866 -0.8463  0.9726  1.1935
  883MPD2    H113004   1.807   3.661  16.049 -0.7644 -1.6684 -0.7473
  883MPD2    H213005   1.762   3.702  15.631  0.0757 -1.3433  0.6249
  883MPD2    H313006   1.714   3.590  15.840  0.5418 -1.3207  1.0248
  883MPD2     N13007   1.972   3.884  16.085 -0.5274  0.5289  0.4676
  883MPD2    H513008   2.008   3.979  16.078  1.8724 -0.4766 -1.1135
  883MPD2    N113009   1.859   3.961  15.617 -0.2599  0.3820 -0.1780
  883MPD2    H713010   1.899   4.054  15.628  1.8476 -0.3953 -1.2627
  884MPD2     C13011   3.278   4.525  15.340 -0.1570  0.4712  0.3647
  884MPD2    C113012   3.359   4.583  15.241  0.0865 -0.3791 -0.6675
  884MPD2    C213013   3.302   4.681  15.156  0.2457 -0.4965 -0.1762
  884MPD2    C313014   3.170   4.709  15.164  0.4379  0.2822  0.0109
  884MPD2    C413015   3.098   4.656  15.277  0.7320  0.9989 -0.6403
  884MPD2    C513016   3.155   4.577  15.369 -0.0963 -0.3680  0.0059
  884MPD2     H13017   3.364   4.706  15.071 -0.6924  1.7100 -0.1935
  884MPD2    H113018   2.996   4.688  15.294 -0.6935 -2.6349 -2.2991
  884MPD2    H213019   3.316   4.444  15.403 -0.3291 -1.2311 -1.7200
  884MPD2    H313020   3.100   4.534  15.452  0.7807  0.5582  1.0677
  884MPD2     N13021   3.116   0.077  15.081 -0.4081 -0.3176 -0.4025
  884MPD2    H513022   3.182   0.126  15.020 -0.8675 -1.0215 -1.4760
  884MPD2    N113023   3.493   4.538  15.222  0.5141 -0.1704 -0.1730
  884MPD2    H713024   3.554   4.595  15.165  0.3379 -0.9669 -1.1511
  885MPD2     C13025   1.978   0.123   0.097 -0.2270 -0.3962  0.8176
  885MPD2    C113026   1.991   0.256   0.088  1.2769 -0.0499  0.1705
  885MPD2    C213027   1.996   0.305  17.703 -0.0882 -0.1136 -0.1906
  885MPD2    C313028   1.953   0.213  17.606 -1.0305  0.4738 -0.3308
  885MPD2    C413029   1.917   0.080  17.631  0.2277 -0.4223 -0.2483
  885MPD2    C513030   1.938   0.030   0.007 -0.2510 -0.5501  0.6927
  885MPD2     H13031   2.023   0.408  17.687  1.2387 -0.6798 -1.6423
  885MPD2    H113032   1.895   0.012  17.551  1.8090  0.9439 -1.8523
  885MPD2    H213033   1.978   0.082   0.198 -0.4536  0.4568  1.1665
  885MPD2    H313034   1.922   4.667   0.046 -2.5433 -1.1791 -1.9128
  885MPD2     N13035   1.954   0.252  17.467  0.0514 -0.0306 -0.0387
  885MPD2    H513036   1.991   0.344  17.446  2.4174 -1.1614 -0.8785
  885MPD2    N113037   2.027   0.334   0.199 -0.6876 -0.0767 -0.2682
  885MPD2    H713038   2.049   0.288   0.287  0.8346  2.7985  0.8496
  886MPD2     C13039   3.321   3.182  15.863 -1.1558 -0.3445 -0.3029
  886MPD2    C113040   3.415   3.136  15.776  0.0241  0.5823 -0.2194
  886MPD2    C213041   3.426   3.210  15.659  0.2978  0.2219  0.6860
  886MPD2    C313042   3.353   3.328  15.633 -0.1148 -0.2888  0.0166
  886MPD2    C413043   3.273   3.371  15.736 -0.0143 -0.1116  0.5424
  886MPD2    C513044   3.248   3.297  15.848  0.8098  0.5150  0.4454
  886MPD2     H13045   3.498   3.168  15.590  0.9732  2.1181  0.2340
  886MPD2    H113046   3.215   3.462  15.730  0.4183  0.1770  0.6941
  886MPD2    H213047   3.312   3.135  15.960 -0.7928  1.1523  0.4676
  886MPD2    H313048   3.184   3.347  15.919 -1.2113 -0.1496 -0.8947
  886MPD2     N13049   3.375   3.390  15.507  0.5901  0.5920 -0.0667
  886MPD2    H513050   3.447   3.347  15.449 -1.7524 -0.0468 -2.5061
  886MPD2    N113051   3.493   3.026  15.816  0.0405 -0.0044 -0.1380
  886MPD2    H713052   3.473   2.987  15.907 -0.3271 -2.7048 -1.3756
  887MPD2     C13053   4.216   3.059  16.117  0.2680 -0.4525  0.3046
  887MPD2    C113054   4.094   3.104  16.068  0.6679  0.0221  0.1263
  887MPD2    C213055   4.052   3.233  16.105 -0.0865 -0.6972  1.0363
  887MPD2    C313056   4.130   3.325  16.177  0.4885 -0.1991  0.0337
  887MPD2    C413057   4.254   3.275  16.221 -0.6394 -0.0224  0.6234
  887MPD2    C513058   4.295   3.139  16.196  0.2248  0.2754 -0.4618
  887MPD2     H13059   3.953   3.269  16.076  0.5644  1.3384  1.3181
  887MPD2    H113060   4.324   3.334  16.279 -3.5148  1.5453  2.4847
  887MPD2    H213061   4.251   2.958  16.097  0.9211  0.3331 -2.5583
  887MPD2    H313062   4.386   3.097  16.235 -2.5536 -3.0772  2.3952
  887MPD2     N13063   4.068   3.449  16.212  0.5457  0.0723  0.3400
  887MPD2    H513064   3.972   3.467  16.184  1.2680  0.7243 -1.6836
  887MPD2    N113065   4.003   3.026  15.989  0.1411  0.1057 -0.4986
  887MPD2    H713066   3.917   3.063  15.950 -1.0860 -2.4600 -0.2341
  888MPD2     C13067   1.429   3.343  14.950 -0.3412  0.3411  0.1678
  888MPD2    C113068   1.335   3.412  15.019  0.3502  0.6225  0.4167
  888MPD2    C213069   1.314   3.546  14.995  0.1145  0.9488  0.3561
  888MPD2    C313070   1.399   3.614  14.908  0.2649  0.2019 -0.3887
  888MPD2    C413071   1.497   3.549  14.839 -0.2172 -0.2029  0.0644
  888MPD2    C513072   1.508   3.411  14.857 -0.3226  0.2500 -0.6101
  888MPD2     H13073   1.238   3.602  15.048 -1.2016  0.1386 -0.6647
  888MPD2    H113074   1.560   3.596  14.764 -0.3943 -2.1450 -1.3052
  888MPD2    H213075   1.437   3.236  14.959 -2.3121  0.1006 -0.8243
  888MPD2    H313076   1.588   3.353  14.814  0.8243  0.8244  0.7477
  888MPD2     N13077   1.390   3.760  14.902 -0.5434 -0.2301 -0.0744
  888MPD2    H513078   1.299   3.795  14.932 -0.8247 -0.9486 -0.0692
  888MPD2    N113079   1.246   3.338  15.103 -0.8429 -0.5301 -0.5480
  888MPD2    H713080   1.163   3.390  15.131  1.5711  2.4957  0.9591
  889MPD2     C13081   0.580   2.816  13.150 -0.2192 -0.2186  0.2287
  889MPD2    C113082   0.637   2.833  13.276  0.7559 -0.2347 -0.2906
  889MPD2    C213083   0.624   2.953  13.336  0.2511 -0.0296  0.8304
  889MPD2    C313084   0.562   3.053  13.267 -1.2867 -0.4532  0.4489
  889MPD2    C413085   0.537   3.049  13.136 -0.4673  0.2987 -0.5319
  889MPD2    C513086   0.547   2.924  13.076 -0.3526  0.8851  0.7053
  889MPD2     H13087   0.636   2.963  13.444  1.8584 -0.9451  0.7447
  889MPD2    H113088   0.510   3.133  13.073 -3.2699 -0.0185  0.2461
  889MPD2    H213089   0.593   2.720  13.102 -0.7847  0.5061 -1.3766
  889MPD2    H313090   0.521   2.914  12.971 -0.9271  0.9583  0.8358
  889MPD2     N13091   0.536   3.175  13.340 -0.3878  0.6421 -0.0053
  889MPD2    H513092   0.577   3.193  13.431  1.4677 -2.1993 -0.2899
  889MPD2    N113093   0.662   2.712  13.346  0.4894 -0.2627 -0.7603
  889MPD2    H713094   0.633   2.632  13.290 -1.0980 -1.4496  1.7312
  890MPD2     C13095   4.636   0.060  14.869  0.5410 -0.4266  0.4419
  890MPD2    C113096   4.687   0.113  14.989  0.2016  0.1067  0.5814
  890MPD2    C213097   4.653   0.049  15.106 -0.0391 -1.0197  0.4584
  890MPD2    C313098   4.575   4.673  15.115 -0.4013 -0.1195 -0.2089
  890MPD2    C413099   4.517   4.635  14.998  0.1221  0.0511  0.4234
  890MPD2    C513100   4.546   4.696  14.877 -0.1851  0.1916 -0.0386
  890MPD2     H13101   4.694   0.085  15.200  0.7396 -0.5010 -0.0803
  890MPD2    H113102   4.448   4.552  14.994  0.0346  0.1669 -0.3213
  890MPD2    H213103   4.662   0.104  14.774 -0.1839  1.5279  1.1349
  890MPD2    H313104   4.499   4.655  14.788  1.0158  3.0723 -1.9779
  890MPD2     N13105   4.570   4.600  15.229  0.0447  0.0927  0.4856
  890MPD2    H513106   4.629   4.627  15.308  1.8268  0.9254 -1.1297
  890MPD2    N113107   0.028   0.235  14.986  0.0321 -0.3061 -0.0477
  890MPD2    H713108   0.034   0.277  14.894  0.8061 -0.2618  0.0266
  891MPD2     C13109   2.836   3.099  16.487 -0.0959  0.1462 -0.2719
  891MPD2    C113110   2.793   3.188  16.580  0.3060 -0.4334  0.0388
  891MPD2    C213111   2.882   3.219  16.686 -0.1238 -0.0730 -0.6558
  891MPD2    C313112   2.989   3.138  16.714 -0.7850  0.5353  0.1753
  891MPD2    C413113   3.033   3.044  16.617 -0.5660 -0.1140  0.2857
  891MPD2    C513114   2.957   3.035  16.501  0.3800 -0.4815 -0.0386
  891MPD2     H13115   2.861   3.309  16.743 -0.7075 -1.2972  1.0456
  891MPD2    H113116   3.124   2.984  16.620  0.6352  1.6102 -1.3776
  891MPD2    H213117   2.782   3.082  16.395  0.2889  0.6920 -0.5959
  891MPD2    H313118   3.006   2.985  16.418 -1.3645  0.1659 -1.4480
  891MPD2     N13119   3.059   3.159  16.832 -0.0478 -0.1814 -0.2546
  891MPD2    H513120   3.015   3.218  16.902 -2.4033 -1.7009 -0.4707
  891MPD2    N113121   2.668   3.250  16.557  0.0990  0.0241  0.3269
  891MPD2    H713122   2.620   3.216  16.473  1.3619 -2.1437  0.4795
  892MPD2     C13123   3.711   3.975  15.066  0.3100  0.2282 -0.1255
  892MPD2    C113124   3.656   4.067  14.979 -0.5913  0.3237 -1.0254
  892MPD2    C213125   3.729   4.111  14.867  0.2857 -0.2373  0.0132
  892MPD2    C313126   3.851   4.054  14.839  0.0495 -0.3406 -0.6631
  892MPD2    C413127   3.904   3.967  14.930 -0.0180 -0.0212 -0.3625
  892MPD2    C513128   3.838   3.932  15.044 -0.0395  0.6327  0.7342
  892MPD2     H13129   3.667   4.168  14.800 -3.2492 -1.7760  1.9970
  892MPD2    H113130   3.994   3.911  14.908 -0.3830 -0.6326 -0.3118
  892MPD2    H213131   3.662   3.948  15.158  1.5768  0.7280  0.6999
  892MPD2    H313132   3.890   3.862  15.109 -2.2066 -1.2689  0.4568
  892MPD2     N13133   3.906   4.056  14.709  0.4930 -0.6443  0.0122
  892MPD2    H513134   3.967   3.978  14.686 -0.9362 -1.1909 -1.9372
  892MPD2    N113135   3.525   4.131  15.004 -0.3124  0.0246  0.1457
  892MPD2    H713136   3.507   4.200  14.933 -1.1067 -0.6304 -0.2849
  893MPD2     C13137   0.415   2.138   1.331  0.6705 -0.4983  0.1572
  893MPD2    C113138   0.358   2.257   1.286  0.2430 -0.3751  0.0156
  893MPD2    C213139   0.226   2.290   1.316 -0.3587 -0.0068 -0.1129
  893MPD2    C313140   0.143   2.197   1.379 -0.3648  0.1789  0.1237
  893MPD2    C413141   0.195   2.075   1.418  0.2777  0.4812 -0.4593
  893MPD2    C513142   0.322   2.051   1.389 -0.6177  0.1557  0.4228
  893MPD2     H13143   0.187   2.386   1.284 -2.9229 -0.1959  2.4309
  893MPD2    H113144   0.147   1.993   1.470  2.4175 -0.4194  0.1103
  893MPD2    H213145   0.505   2.090   1.294  0.1372 -0.7820 -0.7719
  893MPD2    H313146   0.368   1.953   1.396 -0.3667  0.2103 -0.4516
  893MPD2     N13147   0.005   2.221   1.404 -0.5373  0.2484  0.3289
  893MPD2    H513148   4.699   2.131   1.422  1.4227 -0.3896  1.8863
  893MPD2    N113149   0.447   2.344   1.220 -0.2262 -0.4348  0.5110
  893MPD2    H713150   0.547   2.336   1.233 -0.3972 -1.7229  1.0942
  894MPD2     C13151   3.811   0.592   0.750  0.4203 -0.0516  0.0492
  894MPD2    C113152   3.703   0.616   0.827  0.1014  0.2680 -0.2058
  894MPD2    C213153   3.697   0.751   0.877 -0.0255 -0.1956 -0.1426
  894MPD2    C313154   3.797   0.841   0.857 -0.5205 -0.2802 -0.5204
  894MPD2    C413155   3.902   0.809   0.778  0.4613 -0.1906 -0.1515
  894MPD2    C513156   3.903   0.687   0.720  0.5107 -0.6994  1.3808
  894MPD2     H13157   3.616   0.780   0.943 -2.0793 -0.3943 -2.5850
  894MPD2    H113158   3.986   0.876   0.765 -0.4105  0.6102 -1.7123
  894MPD2    H213159   3.823   0.497   0.700 -2.1824 -0.8587  0.9704
  894MPD2    H313160   3.987   0.662   0.655 -1.8951  2.4701 -2.8881
  894MPD2     N13161   3.795   0.960   0.929  0.7679  0.1070  0.5096
  894MPD2    H513162   3.710   0.988   0.977  0.5876 -1.8446  1.3320
  894MPD2    N113163   3.605   0.519   0.875  0.6554 -0.2998 -0.4465
  894MPD2    H713164   3.537   0.562   0.937 -0.0872 -3.1534  0.6981
  895MPD2     C13165   3.114   3.519  13.107 -0.2308 -0.2858  0.0171
  895MPD2    C113166   3.027   3.438  13.045 -0.0026 -0.5075 -0.4131
  895MPD2    C213167   3.071   3.314  12.996 -0.1461 -0.2167  0.4276
  895MPD2    C313168   3.190   3.263  13.042  1.0053 -0.2917  0.0872
  895MPD2    C413169   3.270   3.338  13.120 -0.1634 -0.1974 -0.8569
  895MPD2    C513170   3.229   3.463  13.150  0.1071 -0.5253 -0.5278
  895MPD2     H13171   3.003   3.249  12.942  0.5749 -0.9698  0.4302
  895MPD2    H113172   3.361   3.294  13.159  1.1898  0.7375 -2.9917
  895MPD2    H213173   3.086   3.617  13.144 -1.9579 -0.3195 -1.1749
  895MPD2    H313174   3.291   3.523  13.215 -1.2071 -1.4577  1.5758
  895MPD2     N13175   3.211   3.127  13.016  0.2000  0.5946  0.2124
  895MPD2    H513176   3.130   3.074  12.986  1.5443 -0.4494 -1.4978
  895MPD2    N113177   2.894   3.481  13.019 -0.2723 -0.7499 -0.2904
  895MPD2    H713178   2.844   3.424  12.951 -1.3227  0.5493 -0.6094
  896MPD2     C13179   0.701   1.833   1.325  0.8584 -0.3104 -0.4818
  896MPD2    C113180   0.682   1.762   1.207 -0.6153  0.4704  0.2129
  896MPD2    C213181   0.583   1.662   1.204  0.2575  0.9457 -0.1642
  896MPD2    C313182   0.501   1.640   1.314  0.2160 -0.5137 -0.1484
  896MPD2    C413183   0.528   1.717   1.430 -0.3662 -0.3877 -0.2552
  896MPD2    C513184   0.629   1.807   1.434  0.9925  0.7988  0.3359
  896MPD2     H13185   0.570   1.593   1.122  0.4152  0.7196  0.0009
  896MPD2    H113186   0.469   1.718   1.522 -0.5145  0.6959 -0.3661
  896MPD2    H213187   0.772   1.914   1.336  0.5085  0.1498 -1.5849
  896MPD2    H313188   0.650   1.854   1.530  0.0336  0.9761  0.4528
  896MPD2     N13189   0.394   1.545   1.301 -0.2395 -0.3491 -0.3877
  896MPD2    H513190   0.389   1.500   1.210 -1.1643  0.6988 -0.8544
  896MPD2    N113191   0.764   1.797   1.100 -0.1682  0.0608  0.0198
  896MPD2    H713192   0.824   1.878   1.111 -0.8809  0.4371  1.1577
  897MPD2     C13193   1.601   3.312  11.010 -0.2313 -0.0619  0.1049
  897MPD2    C113194   1.577   3.311  10.876 -0.1032 -0.5052  0.1214
  897MPD2    C213195   1.533   3.193  10.818 -0.6466 -0.0465 -0.6822
  897MPD2    C313196   1.522   3.080  10.898 -0.3138 -0.1871 -0.2560
  897MPD2    C413197   1.543   3.081  11.034 -0.2217 -0.2040  0.0010
  897MPD2    C513198   1.571   3.205  11.092 -0.0812 -0.1449 -0.1725
  897MPD2     H13199   1.515   3.189  10.711  1.8689  0.3764 -1.1154
  897MPD2    H113200   1.502   3.000  11.092  1.1529 -0.8113  0.0990
  897MPD2    H213201   1.636   3.405  11.054  0.6266  0.0954 -0.8960
  897MPD2    H313202   1.580   3.216  11.199  1.2204 -0.5671 -0.2299
  897MPD2     N13203   1.467   2.971  10.820  0.6021  0.2525  0.0845
  897MPD2    H513204   1.455   2.998  10.723  0.3297 -2.2254 -0.5536
  897MPD2    N113205   1.580   3.434  10.808 -0.1976 -0.2277  0.0499
  897MPD2    H713206   1.613   3.506  10.871 -0.7574  1.4818 -1.6402
  898MPD2     C13207   3.035   3.848   0.042 -0.0353  0.0424 -0.4833
  898MPD2    C113208   3.149   3.930   0.041 -0.1760 -0.1116 -0.1772
  898MPD2    C213209   3.144   4.063  17.744 -0.4515  0.4781 -1.0056
  898MPD2    C313210   3.024   4.113  17.698 -0.4076 -0.0657 -0.1445
  898MPD2    C413211   2.902   4.043  17.711  0.3318 -0.0483  0.1094
  898MPD2    C513212   2.919   3.911   0.009 -0.2974 -0.1772  0.1339
  898MPD2     H13213   3.234   4.122  17.734  1.5031 -2.1249  1.3994
  898MPD2    H113214   2.807   4.068  17.666 -0.3711 -2.3728  0.2938
  898MPD2    H213215   3.036   3.740   0.054  2.4606  0.3335  1.8590
  898MPD2    H313216   2.836   3.843  17.742 -0.3875 -0.1367  0.4623
  898MPD2     N13217   3.038   4.240  17.640 -0.4934 -0.1734 -0.4975
  898MPD2    H513218   3.133   4.272  17.626 -0.4579 -0.3296 -0.6132
  898MPD2    N113219   3.278   3.877   0.066  0.4147 -0.5205 -0.3406
  898MPD2    H713220   3.361   3.934   0.057  0.7703 -0.7617  1.3905
  899MPD2     C13221   4.580   4.230  17.390 -0.0809 -0.0405 -0.7076
  899MPD2    C113222   4.506   4.339  17.368 -1.1784 -0.2280  0.8173
  899MPD2    C213223   4.408   4.366  17.463 -0.7447 -0.3838 -0.0687
  899MPD2    C313224   4.402   4.294  17.589 -0.3191 -0.0195 -0.2194
  899MPD2    C413225   4.496   4.193  17.603 -0.4303 -0.2405 -0.8173
  899MPD2    C513226   4.577   4.159  17.503 -0.2576 -0.0253 -0.6466
  899MPD2     H13227   4.344   4.451  17.442  2.1117  1.7036 -0.3479
  899MPD2    H113228   4.496   4.122  17.685  1.9668 -0.8568 -1.3252
  899MPD2    H213229   4.659   4.204  17.320 -1.6795  0.1991 -2.5986
  899MPD2    H313230   4.636   4.069  17.516  0.2835  0.5283  0.7127
  899MPD2     N13231   4.302   4.319  17.682 -0.3541 -0.2058  0.1212
  899MPD2    H513232   4.313   4.295   0.033 -1.1178 -0.9676  0.0167
  899MPD2    N113233   4.540   4.432  17.261 -0.9096  0.0639 -0.0441
  899MPD2    H713234   4.631   4.417  17.219  0.9073  2.4347  3.0424
  900MPD2     C13235   3.843   1.115  12.399 -0.7618 -0.2170 -0.0120
  900MPD2    C113236   3.760   1.010  12.389 -0.8908 -0.1381  0.0057
  900MPD2    C213237   3.633   1.030  12.338  0.5573  0.1899  0.2274
  900MPD2    C313238   3.594   1.153  12.287  0.0996 -0.3155 -0.5726
  900MPD2    C413239   3.679   1.256  12.288  0.5195 -0.2382 -0.8669
  900MPD2    C513240   3.806   1.236  12.342  0.2005  0.3253  0.2390
  900MPD2     H13241   3.559   0.951  12.340  0.1921  0.5687  1.7623
  900MPD2    H113242   3.654   1.356  12.257 -0.4805 -0.9171 -2.2327
  900MPD2    H213243   3.945   1.097  12.431 -0.8721  0.8591  0.9262
  900MPD2    H313244   3.871   1.323  12.343  0.1752  0.3418  2.7869
  900MPD2     N13245   3.462   1.172  12.240 -0.0371 -0.4950  0.6478
  900MPD2    H513246   3.409   1.086  12.230 -1.6142  0.6451 -0.9223
  900MPD2    N113247   3.813   0.885  12.431 -0.8652  0.2103 -0.4926
  900MPD2    H713248   3.903   0.900  12.475 -1.6019  0.1001  1.0971
  901MPD2     C13249   3.783   4.548  12.382  0.0384 -0.3269 -0.3048
  901MPD2    C113250   3.904   4.582  12.433 -0.0929  0.2231  0.3098
  901MPD2    C213251   3.927   4.705  12.496 -0.3559 -0.4856 -0.1307
  901MPD2    C313252   3.821   0.056  12.507 -0.1808 -0.4015 -0.4444
  901MPD2    C413253   3.693   0.020  12.464 -0.3360 -0.2134  0.4179
  901MPD2    C513254   3.679   4.639  12.395 -0.0088 -1.2078  0.7346
  901MPD2     H13255   4.024   4.734  12.534 -1.3873  1.6036  0.9177
  901MPD2    H113256   3.607   0.086  12.474 -1.0669 -1.2069  0.7494
  901MPD2    H213257   3.762   4.458  12.326  0.8666 -1.9383  1.9954
  901MPD2    H313258   3.581   4.618  12.354  0.6235 -3.0427  0.1801
  901MPD2     N13259   3.850   0.186  12.553  0.2374 -0.0866 -0.3533
  901MPD2    H513260   3.943   0.205  12.588  0.9392 -0.3501 -2.0914
  901MPD2    N113261   4.005   4.487  12.410 -0.5450 -0.7632 -0.0546
  901MPD2    H713262   3.988   4.411  12.345 -1.1468  0.1516 -0.9823
  902MPD2     C13263   2.744   4.254  13.102  0.0755 -0.4703  0.1604
  902MPD2    C113264   2.712   4.264  12.969  0.6824  0.2521 -0.0113
  902MPD2    C213265   2.802   4.209  12.875  0.0959 -0.0124 -0.7837
  902MPD2    C313266   2.921   4.148  12.919 -0.7027  0.5816  0.0715
  902MPD2    C413267   2.950   4.143  13.050 -0.8040 -0.4765 -0.4778
  902MPD2    C513268   2.864   4.202  13.139 -0.0277  0.1560 -0.3761
  902MPD2     H13269   2.777   4.201  12.770 -1.7258 -0.0752 -0.3515
  902MPD2    H113270   3.039   4.089  13.081 -0.6386 -0.0994 -0.2999
  902MPD2    H213271   2.681   4.297  13.179 -1.3486 -1.1614 -0.6250
  902MPD2    H313272   2.877   4.207  13.247 -0.9375 -2.7439 -0.1336
  902MPD2     N13273   3.002   4.078  12.830  0.8449 -0.5981 -0.0405
  902MPD2    H513274   3.054   3.999  12.866  2.0587 -0.9969 -2.6102
  902MPD2    N113275   2.589   4.325  12.936 -0.4495 -0.0034 -0.6458
  902MPD2    H713276   2.529   4.331  13.017 -2.4170 -1.1335 -2.0225
  903MPD2     C13277   2.818   3.846  12.022 -0.3712 -0.1118 -0.6051
  903MPD2    C113278   2.888   3.748  12.093  0.7445  0.8910 -0.1563
  903MPD2    C213279   2.901   3.624  12.043  1.2739  0.7451  0.2906
  903MPD2    C313280   2.844   3.585  11.919 -0.5342  0.8147  0.3865
  903MPD2    C413281   2.761   3.673  11.858 -0.5864 -1.1519 -0.1293
  903MPD2    C513282   2.755   3.805  11.905  0.1076  0.3124  0.1682
  903MPD2     H13283   2.953   3.548  12.100 -0.0171  0.7918  1.5288
  903MPD2    H113284   2.689   3.665  11.778 -1.2640  0.1756  0.3522
  903MPD2    H213285   2.796   3.942  12.066 -1.0244 -0.7452  0.4643
  903MPD2    H313286   2.686   3.870  11.852 -0.0581 -0.8793 -1.0652
  903MPD2     N13287   2.852   3.452  11.872  0.0754  0.2809 -0.2904
  903MPD2    H513288   2.884   3.381  11.938 -1.0578 -0.7590 -0.8608
  903MPD2    N113289   2.954   3.783  12.212  0.3317  0.2008 -0.2207
  903MPD2    H713290   3.027   3.720  12.242 -0.5815 -0.5033  0.5504
  904MPD2     C13291   2.899   3.050  13.648  0.7380 -0.0555 -0.3243
  904MPD2    C113292   2.850   3.038  13.777 -0.7151  0.1671  0.1541
  904MPD2    C213293   2.946   3.027  13.874  0.1157 -0.7141 -0.0517
  904MPD2    C313294   3.082   3.039  13.848  0.3808  0.2667 -0.2549
  904MPD2    C413295   3.126   3.068  13.718 -0.9344  0.2589 -0.2931
  904MPD2    C513296   3.034   3.084  13.621  0.4632  0.3522 -0.7912
  904MPD2     H13297   2.917   3.008  13.976  0.0331  0.5200  0.1485
  904MPD2    H113298   3.229   3.093  13.697 -1.0095 -0.6022 -1.6650
  904MPD2    H213299   2.834   3.046  13.561 -0.8203  1.7667  0.7366
  904MPD2    H313300   3.066   3.110  13.520  2.4721 -1.4455 -0.6228
  904MPD2     N13301   3.181   3.013  13.953  0.2135 -0.4270  0.5737
  904MPD2    H513302   3.141   2.963  14.032  1.0779  0.2759  1.4616
  904MPD2    N113303   2.714   3.029  13.816 -0.6132  0.1475  0.7604
  904MPD2    H713304   2.707   3.000  13.913 -1.1446  1.0925  1.0041
  905MPD2     C13305   2.517   2.822  13.242  0.1889  0.0138  0.7274
  905MPD2    C113306   2.612   2.926  13.223 -0.4859 -0.3181 -0.0158
  905MPD2    C213307   2.725   2.898  13.155 -0.4821 -0.1597  0.4947
  905MPD2    C313308   2.756   2.776  13.112 -0.5575  0.4462  0.3903
  905MPD2    C413309   2.670   2.672  13.138 -0.4233  0.8452 -0.8884
  905MPD2    C513310   2.547   2.694  13.201 -0.4567  0.1638  0.0954
  905MPD2     H13311   2.803   2.974  13.159 -1.2386  0.7139 -1.1984
  905MPD2    H113312   2.701   2.573  13.109 -0.3955  1.2714 -2.3156
  905MPD2    H213313   2.424   2.834  13.296 -1.3521  0.0196 -1.9217
  905MPD2    H313314   2.476   2.616  13.227 -0.8536  0.9326  1.3465
  905MPD2     N13315   2.879   2.733  13.053 -0.3335  0.5472 -0.2608
  905MPD2    H513316   2.904   2.634  13.051 -2.3642  0.0248  0.2938
  905MPD2    N113317   2.574   3.040  13.290  0.0755  0.3227 -0.0672
  905MPD2    H713318   2.484   3.037  13.338 -0.2371 -0.6135 -0.7209
  906MPD2     C13319   0.346   3.028  11.373  0.3458 -0.4035  0.1675
  906MPD2    C113320   0.246   2.977  11.289  0.1533 -0.2039  0.1452
  906MPD2    C213321   0.143   2.906  11.345 -0.0145 -0.3025  0.3202
  906MPD2    C313322   0.129   2.891  11.478  0.5015  0.6177 -0.0271
  906MPD2    C413323   0.209   2.958  11.562 -0.0335  0.7611 -0.0414
  906MPD2    C513324   0.318   3.022  11.505 -0.4384  0.0191  0.1806
  906MPD2     H13325   0.062   2.866  11.284 -1.2174  0.2027  1.5826
  906MPD2    H113326   0.186   2.949  11.668 -1.2068 -1.4271 -0.4766
  906MPD2    H213327   0.439   3.070  11.337  0.6782 -1.4389 -0.1819
  906MPD2    H313328   0.389   3.062  11.577 -1.5460  0.3425  1.0919
  906MPD2     N13329   0.025   2.804  11.517 -0.1910 -0.1054  0.1368
  906MPD2    H513330   4.705   2.772  11.438  0.5578  2.7983 -1.5668
  906MPD2    N113331   0.250   2.979  11.144 -0.2032  0.3267 -0.0190
  906MPD2    H713332   0.193   2.912  11.094 -1.1222 -2.0281  4.2250
  907MPD2     C13333   3.741   1.890  15.197  0.1444 -0.8779  0.3273
  907MPD2    C113334   3.777   1.761  15.241 -0.1093 -0.3822 -0.3694
  907MPD2    C213335   3.833   1.738  15.363 -0.3851  0.0874 -0.0872
  907MPD2    C313336   3.851   1.846  15.453  0.0683 -0.0969  0.3514
  907MPD2    C413337   3.795   1.969  15.415 -0.2012 -0.0451 -0.5223
  907MPD2    C513338   3.734   1.982  15.294 -0.8944  0.3307 -0.1146
  907MPD2     H13339   3.843   1.635  15.396 -1.2568  0.0584  0.1026
  907MPD2    H113340   3.792   2.054  15.482  1.7065 -1.0413  0.8278
  907MPD2    H213341   3.703   1.917  15.099 -0.0964 -1.5639  0.2332
  907MPD2    H313342   3.703   2.085  15.276  1.6836  1.0819 -0.1653
  907MPD2     N13343   3.901   1.818  15.580  0.1639 -0.5092 -0.0249
  907MPD2    H513344   3.920   1.719  15.585 -0.0999 -0.4144  2.8903
  907MPD2    N113345   3.761   1.647  15.153  0.1019  0.2077 -0.1200
  907MPD2    H713346   3.803   1.563  15.192  0.9040  0.3988 -0.5710
  908MPD2     C13347   1.493   3.619   9.876  0.5205  0.5017 -0.5734
  908MPD2    C113348   1.488   3.506   9.956 -0.3957 -0.2008 -0.0209
  908MPD2    C213349   1.522   3.528  10.091 -0.2952 -0.6311  0.2402
  908MPD2    C313350   1.547   3.656  10.139  0.2644 -0.1900 -0.3774
  908MPD2    C413351   1.546   3.765  10.059  0.0647 -0.3506 -0.1146
  908MPD2    C513352   1.521   3.738   9.929 -0.7344  0.7008  0.4571
  908MPD2     H13353   1.531   3.445  10.160 -2.2275 -0.8811  0.2008
  908MPD2    H113354   1.552   3.868  10.092  0.7582 -0.7553  1.0054
  908MPD2    H213355   1.472   3.619   9.769  2.2223 -1.3850 -0.9083
  908MPD2    H313356   1.519   3.822   9.860 -0.3044 -0.1474 -0.5896
  908MPD2     N13357   1.576   3.675  10.274  0.2377  0.1722 -0.2446
  908MPD2    H513358   1.607   3.588  10.318 -0.0864  0.9079  1.4278
  908MPD2    N113359   1.451   3.390   9.889 -0.0961  0.2966  0.3374
  908MPD2    H713360   1.425   3.395   9.791  3.4233  0.2860 -0.6131
  909MPD2     C13361   1.924   0.815  11.799 -0.2877  0.1409 -0.4471
  909MPD2    C113362   1.915   0.953  11.782  0.4659  0.1322  0.1233
  909MPD2    C213363   1.831   1.024  11.861  0.5205 -0.1049 -0.2127
  909MPD2    C313364   1.754   0.965  11.956  0.3274 -0.2057  1.1322
  909MPD2    C413365   1.748   0.827  11.967 -0.2974 -0.5048  0.1519
  909MPD2    C513366   1.839   0.755  11.887  0.3627 -0.3518  0.1768
  909MPD2     H13367   1.847   1.131  11.864 -0.1338 -0.0196  0.3305
  909MPD2    H113368   1.706   0.772  12.050  0.0389 -1.4210 -0.2817
  909MPD2    H213369   1.961   0.752  11.718 -2.0393 -0.3073 -0.9011
  909MPD2    H313370   1.829   0.648  11.899  0.6837 -0.6172 -1.9584
  909MPD2     N13371   1.678   1.055  12.029  0.2982 -0.1276  0.4054
  909MPD2    H513372   1.684   1.152  11.998  0.7304 -0.2535  0.1041
  909MPD2    N113373   1.991   1.018  11.683 -0.0933  0.2576 -0.0105
  909MPD2    H713374   1.984   1.119  11.676  1.0550  0.2968 -0.6437
  910MPD2     C13375   3.128   2.503  15.636  0.5737  0.7437 -0.3879
  910MPD2    C113376   3.217   2.418  15.570 -0.8266  0.7228 -0.2854
  910MPD2    C213377   3.190   2.402  15.434 -0.1799  0.2760  0.1914
  910MPD2    C313378   3.090   2.472  15.365  0.8083 -0.1854  0.0674
  910MPD2    C413379   3.009   2.559  15.437  0.9501 -0.1919  0.0248
  910MPD2    C513380   3.022   2.571  15.571 -0.5252  0.6540  0.5544
  910MPD2     H13381   3.265   2.341  15.386  0.1390  1.5231 -0.9003
  910MPD2    H113382   2.937   2.621  15.385  0.7784  1.1250  1.8498
  910MPD2    H213383   3.128   2.518  15.744  1.9230 -1.4025 -0.0948
  910MPD2    H313384   2.946   2.628  15.622  0.4335  0.0012  2.6915
  910MPD2     N13385   3.078   2.466  15.222  0.6951 -0.1512  0.3165
  910MPD2    H513386   2.997   2.512  15.183  0.8036  1.4257  1.9851
  910MPD2    N113387   3.317   2.337  15.627 -1.0130  0.3788 -0.2660
  910MPD2    H713388   3.372   2.277  15.566 -0.3490 -0.5851  1.2853
  911MPD2     C13389   1.108   3.075  16.030 -0.0107 -0.9415  0.1808
  911MPD2    C113390   1.152   3.128  16.149  0.0808 -0.3250  0.2391
  911MPD2    C213391   1.118   3.265  16.172  0.9484  0.2196 -0.6280
  911MPD2    C313392   1.049   3.340  16.084 -0.4872 -0.2794  0.1278
  911MPD2    C413393   1.000   3.274  15.966  0.5877  0.3161 -0.4403
  911MPD2    C513394   1.034   3.145  15.937 -0.2962 -0.6062  0.2875
  911MPD2     H13395   1.159   3.308  16.263  0.4239  0.0062 -0.2883
  911MPD2    H113396   0.931   3.324  15.900 -1.4310 -0.6791  0.8981
  911MPD2    H213397   1.119   2.970  16.007 -0.4800 -0.2326 -3.2501
  911MPD2    H313398   0.995   3.109  15.842 -0.9371  2.8196 -0.7508
  911MPD2     N13399   0.991   3.465  16.107 -1.0397 -0.0255 -0.7611
  911MPD2    H513400   0.913   3.494  16.048 -1.4399 -0.5438 -0.4804
  911MPD2    N113401   1.224   3.048  16.234  0.1363 -0.5288 -0.4622
  911MPD2    H713402   1.223   2.948  16.217 -0.7432 -1.0319  2.6038
  912MPD2     C13403   0.636   3.379  15.692 -0.1881 -0.3130 -0.2924
  912MPD2    C113404   0.638   3.386  15.835 -0.2952 -0.4424  0.0339
  912MPD2    C213405   0.666   3.274  15.907  0.0855  0.2450  0.6679
  912MPD2    C313406   0.689   3.155  15.844 -0.0810 -0.3581 -0.7541
  912MPD2    C413407   0.669   3.146  15.710  0.2841  0.6360 -0.1319
  912MPD2    C513408   0.655   3.253  15.632  0.2866 -0.5552  0.2087
  912MPD2     H13409   0.697   3.277  16.011  0.7961 -1.4288  0.5121
  912MPD2    H113410   0.676   3.052  15.658 -1.7850  0.0280  0.7185
  912MPD2    H213411   0.620   3.463  15.625 -0.9455 -0.1009  0.1613
  912MPD2    H313412   0.637   3.249  15.525  0.1317  1.9097  0.1593
  912MPD2     N13413   0.725   3.039  15.917 -0.2578 -0.6260  0.2499
  912MPD2    H513414   0.722   3.042  16.018 -0.7869 -1.6396  0.2654
  912MPD2    N113415   0.643   3.515  15.895 -0.1203 -0.5174 -0.1601
  912MPD2    H713416   0.665   3.597  15.839 -1.2617  0.6621  1.1211
  913MPD2     C13417   2.020   3.785  10.636  0.1095  0.2378  0.2153
  913MPD2    C113418   1.971   3.906  10.682 -0.0760  0.3636  0.4083
  913MPD2    C213419   1.895   3.987  10.599  0.0472 -0.2031  0.7632
  913MPD2    C313420   1.878   3.955  10.466 -0.3230 -0.8732  0.4172
  913MPD2    C413421   1.943   3.835  10.425 -0.6072  0.1511  0.4063
  913MPD2    C513422   2.010   3.751  10.505  0.9668 -0.2302 -0.9148
  913MPD2     H13423   1.834   4.066  10.641  0.4563  0.7386 -0.3925
  913MPD2    H113424   1.937   3.809  10.320  1.8179  1.8504 -0.1537
  913MPD2    H213425   2.073   3.720  10.705  0.8905  2.1503  1.4140
  913MPD2    H313426   2.045   3.652  10.477  2.9474 -0.0204  0.8334
  913MPD2     N13427   1.819   4.043  10.373 -0.3720 -0.3151 -0.9858
  913MPD2    H513428   1.815   4.004  10.279 -0.3897 -0.1518 -1.0536
  913MPD2    N113429   1.994   3.933  10.823  0.0049  0.2431  0.5171
  913MPD2    H713430   2.038   3.860  10.878 -1.1233  0.3001  1.5063
  914MPD2     C13431   3.681   4.456  12.024 -0.1550 -0.1786 -0.7375
  914MPD2    C113432   3.789   4.538  12.037  0.3767  0.2800  0.0030
  914MPD2    C213433   3.915   4.485  12.049  0.6815  0.8099 -0.5192
  914MPD2    C313434   3.932   4.353  12.062  0.4752 -0.1186  0.2490
  914MPD2    C413435   3.817   4.271  12.063 -0.1526 -0.6185  0.0722
  914MPD2    C513436   3.690   4.322  12.033 -0.6187  0.0468 -0.0123
  914MPD2     H13437   4.003   4.548  12.062 -0.2285  1.4245  2.7956
  914MPD2    H113438   3.821   4.163  12.061  0.8176 -0.5669 -0.7511
  914MPD2    H213439   3.578   4.487  12.011 -0.4794 -0.7468  0.4180
  914MPD2    H313440   3.611   4.248  12.021 -1.7498  0.7906  2.9902
  914MPD2     N13441   4.063   4.310  12.093 -0.1319 -0.6823 -0.3863
  914MPD2    H513442   4.133   4.382  12.075  1.2896 -2.4308 -1.8956
  914MPD2    N113443   3.760   4.674  12.063  0.0238 -0.0301 -0.2120
  914MPD2    H713444   3.662   4.698  12.070  0.2061  0.6963 -0.1272
  915MPD2     C13445   2.621   0.101  15.699 -0.5448  0.1192  0.0966
  915MPD2    C113446   2.503   0.151  15.646 -0.3649  0.1108 -0.1323
  915MPD2    C213447   2.405   0.189  15.729 -0.1530  0.4417  0.5272
  915MPD2    C313448   2.432   0.199  15.865 -1.9555 -0.1207 -0.1089
  915MPD2    C413449   2.557   0.170  15.913  0.2716  0.2073 -0.1589
  915MPD2    C513450   2.648   0.115  15.830  0.3488  1.0481  0.2201
  915MPD2     H13451   2.304   0.209  15.695  0.0706  1.7422  0.6179
  915MPD2    H113452   2.585   0.193  16.015  0.5355 -0.4242 -0.0913
  915MPD2    H213453   2.698   0.058  15.637  0.9834  2.6844  0.2088
  915MPD2    H313454   2.742   0.090  15.879  0.9991 -1.9437 -2.5392
  915MPD2     N13455   2.328   0.234  15.959 -0.0471  0.4952 -0.4744
  915MPD2    H513456   2.358   0.245  16.055 -0.5685 -1.4717 -0.0965
  915MPD2    N113457   2.484   0.136  15.511 -0.4129  0.0678 -0.1420
  915MPD2    H713458   2.557   0.092  15.456 -1.6033  0.7835 -2.2841
  916MPD2     C13459   0.447   2.948  15.561  0.5774 -0.2937 -0.2510
  916MPD2    C113460   0.429   2.853  15.662  0.8773 -0.4483  0.2896
  916MPD2    C213461   0.468   2.725  15.629 -0.1449  0.0377 -0.1442
  916MPD2    C313462   0.515   2.687  15.503  0.3114 -0.0857 -0.2929
  916MPD2    C413463   0.537   2.785  15.405  0.5946  0.6820  0.1144
  916MPD2    C513464   0.508   2.914  15.442 -0.0084 -0.1015  0.4043
  916MPD2     H13465   0.460   2.640  15.696 -2.0144 -1.2175 -1.9276
  916MPD2    H113466   0.575   2.770  15.305 -1.2347  0.5335 -0.5453
  916MPD2    H213467   0.421   3.052  15.574 -1.6806 -0.9757  0.8958
  916MPD2    H313468   0.542   2.990  15.373  1.3604 -0.3448  0.8081
  916MPD2     N13469   0.549   2.552  15.482 -0.6680  0.2847  0.4395
  916MPD2    H513470   0.509   2.484  15.545 -0.2536  0.0287  0.4256
  916MPD2    N113471   0.374   2.884  15.793  0.4964  0.0671  0.5282
  916MPD2    H713472   0.338   2.977  15.806  0.5556  0.4402 -2.0142
  917MPD2     C13473   0.526   0.385  10.921 -0.8809 -0.3708 -0.4333
  917MPD2    C113474   0.544   0.457  11.036 -0.3662 -0.2968 -0.6296
  917MPD2    C213475   0.579   0.588  11.027  0.5033  0.4548  0.1371
  917MPD2    C313476   0.592   0.646  10.894  0.2347 -0.1264  0.5561
  917MPD2    C413477   0.564   0.570  10.778 -0.2241  0.2473  0.1095
  917MPD2    C513478   0.524   0.439  10.797  0.1072 -0.2315 -0.8297
  917MPD2     H13479   0.602   0.657  11.107  0.7218  0.4716  0.0599
  917MPD2    H113480   0.558   0.609  10.677  2.1413  0.4221  0.0372
  917MPD2    H213481   0.487   0.285  10.936  2.3546 -1.9850 -2.5979
  917MPD2    H313482   0.495   0.374  10.716  0.4020 -1.2922 -0.0873
  917MPD2     N13483   0.648   0.776  10.879  0.3240 -0.2461  0.0031
  917MPD2    H513484   0.647   0.840  10.957 -0.5139  1.1091 -1.1042
  917MPD2    N113485   0.518   0.397  11.163 -0.1701  0.2192  0.4602
  917MPD2    H713486   0.460   0.314  11.159 -0.4032  0.2670  2.9435
  918MPD2     C13487   0.391   0.867  12.068  0.1871  0.0503 -0.0490
  918MPD2    C113488   0.510   0.821  12.035 -0.1956  0.2244 -0.0832
  918MPD2    C213489   0.519   0.734  11.932  0.3385 -0.0652 -0.8632
  918MPD2    C313490   0.409   0.699  11.858 -0.1524 -0.2707  0.4337
  918MPD2    C413491   0.283   0.744  11.894 -0.2567  0.5403  0.0309
  918MPD2    C513492   0.278   0.830  12.002 -0.6735 -0.2093  0.4576
  918MPD2     H13493   0.610   0.679  11.909  0.7453  0.0785  0.4171
  918MPD2    H113494   0.190   0.713  11.847  0.0731 -1.0782  0.4285
  918MPD2    H213495   0.385   0.933  12.153 -0.1337 -0.9396  0.6968
  918MPD2    H313496   0.180   0.868  12.031 -0.9621 -0.9291  0.4382
  918MPD2     N13497   0.427   0.597  11.762 -0.4201 -0.0511 -0.1684
  918MPD2    H513498   0.524   0.568  11.748 -0.5437 -1.4085  1.6792
  918MPD2    N113499   0.625   0.857  12.098 -0.3208  0.2988  0.2234
  918MPD2    H713500   0.620   0.904  12.188  0.0994  2.2158 -0.7519
  919MPD2     C13501   0.812   4.424  12.078  0.6798  0.3317  1.0174
  919MPD2    C113502   0.904   4.317  12.079 -0.1635  0.3478 -0.7552
  919MPD2    C213503   0.981   4.288  11.967 -0.3357 -0.7714 -0.5029
  919MPD2    C313504   0.961   4.362  11.855 -0.3430 -0.1790  0.0299
  919MPD2    C413505   0.881   4.471  11.858  0.0960 -0.4110  0.5305
  919MPD2    C513506   0.810   4.508  11.970 -0.0690  0.0792 -0.1615
  919MPD2     H13507   1.050   4.207  11.986  0.4680 -0.4162 -1.9114
  919MPD2    H113508   0.870   4.537  11.773  0.9939  1.0344  1.5443
  919MPD2    H213509   0.737   4.441  12.154  1.5498 -0.2051  2.0020
  919MPD2    H313510   0.740   4.591  11.967  1.0976  1.0093 -1.2962
  919MPD2     N13511   1.018   4.339  11.726 -0.7229 -0.1765  0.2742
  919MPD2    H513512   0.988   4.398  11.649 -1.6393 -0.4609  0.4172
  919MPD2    N113513   0.921   4.237  12.193  0.1341  0.2908  0.1032
  919MPD2    H713514   0.981   4.156  12.182  0.1919  0.2886  0.4657
  920MPD2     C13515   0.571   4.313  10.876  0.8938  0.2443 -0.4841
  920MPD2    C113516   0.568   4.185  10.929 -0.6642  1.4996 -0.3439
  920MPD2    C213517   0.659   4.149  11.023 -0.4821 -0.7946 -0.6634
  920MPD2    C313518   0.759   4.235  11.075  0.3843 -0.1898  0.0813
  920MPD2    C413519   0.748   4.366  11.025  0.5650  0.1180 -0.0872
  920MPD2    C513520   0.661   4.405  10.924  0.6757  0.4837  0.3637
  920MPD2     H13521   0.637   4.056  11.074 -1.4033  0.6271  1.5233
  920MPD2    H113522   0.816   4.440  11.065 -0.5782  1.4933 -0.6859
  920MPD2    H213523   0.517   4.335  10.785 -1.6669 -1.9924  0.5096
  920MPD2    H313524   0.662   4.504  10.880 -1.1324  0.2376 -0.2527
  920MPD2     N13525   0.833   4.196  11.194  0.1998  0.2876 -0.0953
  920MPD2    H513526   0.805   4.116  11.250  0.4609  0.4524  0.2738
  920MPD2    N113527   0.480   4.088  10.879  0.2609 -0.2817  0.0632
  920MPD2    H713528   0.512   3.995  10.903 -0.8115 -0.6980 -0.1175
  921MPD2     C13529   1.886   3.443  16.841 -0.1155 -0.5650 -0.2238
  921MPD2    C113530   1.935   3.374  16.739  0.7011 -0.6129 -0.5608
  921MPD2    C213531   1.862   3.275  16.686  0.1051 -0.1038 -0.7450
  921MPD2    C313532   1.738   3.231  16.732  0.1258  0.2614  0.1956
  921MPD2    C413533   1.705   3.280  16.859  0.0784  0.1119 -0.3524
  921MPD2    C513534   1.775   3.392  16.909  0.1365 -0.4620  0.2483
  921MPD2     H13535   1.908   3.225  16.601  2.5221 -1.5264  1.3759
  921MPD2    H113536   1.619   3.246  16.916 -2.1454  1.9558 -2.5856
  921MPD2    H213537   1.924   3.538  16.878 -1.5076  0.2357 -0.8527
  921MPD2    H313538   1.740   3.439  17.001 -0.1450 -2.0733  0.9594
  921MPD2     N13539   1.658   3.142  16.662  0.3681  0.2637 -0.2395
  921MPD2    H513540   1.569   3.111  16.699  1.5778 -3.4706 -0.4386
  921MPD2    N113541   2.050   3.406  16.673 -0.2130 -0.2289 -0.5536
  921MPD2    H713542   2.057   3.370  16.579 -1.1173 -1.8207 -0.0151
  922MPD2     C13543   3.016   1.652  16.908  0.1520 -0.3487  0.4446
  922MPD2    C113544   2.946   1.670  17.025  0.4703  0.6730  0.1383
  922MPD2    C213545   2.921   1.560  17.103  0.1919  0.4433 -0.2724
  922MPD2    C313546   2.951   1.432  17.059  0.3813 -0.3312  0.7043
  922MPD2    C413547   3.012   1.414  16.938  1.2226  0.1793  0.1645
  922MPD2    C513548   3.049   1.522  16.865 -0.5483  0.4533  0.7022
  922MPD2     H13549   2.870   1.566  17.199  1.6601 -2.9892  0.7081
  922MPD2    H113550   3.036   1.317  16.896  0.3201  0.4745 -1.0106
  922MPD2    H213551   3.056   1.737  16.853 -0.2909  0.5046  1.4355
  922MPD2    H313552   3.112   1.512  16.777 -1.0710  0.8020  0.2875
  922MPD2     N13553   2.910   1.328  17.148  0.3228 -0.6715  0.4189
  922MPD2    H513554   2.853   1.359  17.226 -0.1989 -0.8327  0.1015
  922MPD2    N113555   2.902   1.798  17.067 -0.3765 -0.3835  0.0109
  922MPD2    H713556   2.841   1.793  17.147  0.5317  0.0026  0.7232
  923MPD2     C13557   2.586   2.684   9.179 -0.6863 -0.3278 -0.0897
  923MPD2    C113558   2.629   2.804   9.127 -0.1100  0.2627 -0.8284
  923MPD2    C213559   2.753   2.816   9.071  0.4566  0.4616 -0.3022
  923MPD2    C313560   2.844   2.714   9.078 -0.9859  0.9545 -0.2951
  923MPD2    C413561   2.804   2.595   9.131  0.7210  0.0997  0.3848
  923MPD2    C513562   2.680   2.582   9.185 -0.1074 -0.3766 -0.1183
  923MPD2     H13563   2.789   2.910   9.032  1.3353  0.1402 -0.2596
  923MPD2    H113564   2.880   2.519   9.144  1.1434  0.8031  1.9376
  923MPD2    H213565   2.486   2.663   9.216 -0.2586  2.1910  2.4922
  923MPD2    H313566   2.657   2.489   9.235 -1.2359  1.3366  2.5989
  923MPD2     N13567   2.977   2.707   9.013  0.4162  0.7867 -0.7045
  923MPD2    H513568   3.025   2.618   9.013 -2.3689 -0.7143  2.2571
  923MPD2    N113569   2.539   2.917   9.131  0.3710 -0.6776 -0.3334
  923MPD2    H713570   2.451   2.899   9.178  0.1871  0.0082 -0.4138
  924MPD2     C13571   4.217   1.177  15.705 -0.3173  0.1823  0.4286
  924MPD2    C113572   4.160   1.199  15.829 -0.0546  0.3321 -0.7348
  924MPD2    C213573   4.170   1.327  15.884  0.1098 -0.0844 -0.3610
  924MPD2    C313574   4.233   1.427  15.809  0.2067 -0.4044  0.0388
  924MPD2    C413575   4.304   1.394  15.702 -0.1123  0.4158  0.3691
  924MPD2    C513576   4.300   1.270  15.649  0.5546  0.0550  0.2582
  924MPD2     H13577   4.120   1.351  15.978  1.8359  1.6735  0.0862
  924MPD2    H113578   4.359   1.472  15.650  1.5193 -0.4076  0.8609
  924MPD2    H213579   4.215   1.074  15.671  0.4603  1.4579 -3.4607
  924MPD2    H313580   4.356   1.255  15.557  1.3324 -1.1187  0.9267
  924MPD2     N13581   4.233   1.563  15.852  0.3441 -0.4369  0.1441
  924MPD2    H513582   4.264   1.628  15.781 -0.8402 -0.8131 -0.7244
  924MPD2    N113583   4.093   1.091  15.893 -0.2078 -0.1261 -0.1472
  924MPD2    H713584   4.057   1.018  15.832  0.7007 -1.3546  0.7835
  925MPD2     C13585   3.224   3.661  14.488 -0.3157  1.0576  0.4634
  925MPD2    C113586   3.100   3.694  14.447 -0.4355  0.7105 -0.8830
  925MPD2    C213587   3.011   3.703  14.551 -0.0818 -0.0864  0.2349
  925MPD2    C313588   3.032   3.675  14.683  0.8145 -0.3435  0.0958
  925MPD2    C413589   3.162   3.633  14.722 -0.6929 -0.2576 -0.4738
  925MPD2    C513590   3.250   3.621  14.615  0.1680 -0.2546  0.1759
  925MPD2     H13591   2.908   3.725  14.523  0.7433  1.0440 -1.9080
  925MPD2    H113592   3.179   3.598  14.824 -0.2975  1.4533  0.0529
  925MPD2    H213593   3.306   3.648  14.418  1.5928 -0.1252  2.8758
  925MPD2    H313594   3.348   3.581  14.634  0.1458  1.4259  3.8762
  925MPD2     N13595   2.935   3.681  14.781  0.0652  0.2113 -0.0472
  925MPD2    H513596   2.965   3.645  14.870  1.3491 -1.7387 -1.2744
  925MPD2    N113597   3.067   3.729  14.317  0.2491  0.8034 -0.6075
  925MPD2    H713598   2.975   3.769  14.306 -0.9690 -2.1040 -1.0964
  926MPD2     C13599   2.133   2.487  13.109 -0.1704 -0.4077  0.3628
  926MPD2    C113600   2.004   2.473  13.062  0.1598  0.8099  0.6893
  926MPD2    C213601   1.978   2.465  12.929 -0.2087  0.6495 -0.0551
  926MPD2    C313602   2.085   2.448  12.840  0.2657  0.1122 -0.1036
  926MPD2    C413603   2.215   2.446  12.890  0.1040  0.5748  0.4152
  926MPD2    C513604   2.241   2.465  13.023  0.6302  0.1762 -0.0267
  926MPD2     H13605   1.876   2.454  12.896 -1.7747  2.6058  4.1439
  926MPD2    H113606   2.302   2.434  12.826  1.0298  1.9236  1.4247
  926MPD2    H213607   2.153   2.510  13.213 -0.9890  1.7167  0.0667
  926MPD2    H313608   2.342   2.471  13.062  0.5771 -0.9020  0.2841
  926MPD2     N13609   2.060   2.429  12.701  0.0516 -0.7497  0.4616
  926MPD2    H513610   2.123   2.376  12.641 -1.8201 -2.2953 -0.1074
  926MPD2    N113611   1.889   2.464  13.140 -0.1024 -0.9488  0.2962
  926MPD2    H713612   1.801   2.444  13.094 -0.0321 -1.5383  0.4099
  927MPD2     C13613   1.391   0.060  17.568  0.3147  0.8295 -0.0878
  927MPD2    C113614   1.267   0.089  17.513  0.0435  0.5633 -0.3541
  927MPD2    C213615   1.273   0.127  17.383  0.4360 -0.1677  0.2061
  927MPD2    C313616   1.390   0.124  17.310 -0.6885  0.9146 -0.5486
  927MPD2    C413617   1.510   0.093  17.367 -0.2327 -0.7289 -0.2039
  927MPD2    C513618   1.511   0.057  17.498  0.6224  0.5388  0.3177
  927MPD2     H13619   1.178   0.140  17.333  0.8073 -1.0226 -0.7442
  927MPD2    H113620   1.606   0.085  17.317 -0.1196  0.3606 -0.1735
  927MPD2    H213621   1.404   0.031  17.672  1.7222  1.0878 -0.1873
  927MPD2    H313622   1.604   0.026  17.544  0.1909  3.1879  3.0265
  927MPD2     N13623   1.373   0.152  17.172 -0.1708  0.3936  0.0837
  927MPD2    H513624   1.291   0.198  17.135 -2.1630 -0.1210  3.8784
  927MPD2    N113625   1.151   0.076  17.592 -0.5012 -0.2296  0.2077
  927MPD2    H713626   1.168   0.053  17.689  0.2290  0.7791  0.3210
  928MPD2     C13627   3.785   2.734   0.989 -0.0753  0.4001  0.2395
  928MPD2    C113628   3.871   2.835   1.004 -0.5128  0.0306 -0.8192
  928MPD2    C213629   3.903   2.910   0.893  0.0545  0.4758 -0.6711
  928MPD2    C313630   3.850   2.890   0.771 -0.2300 -0.3072  0.7056
  928MPD2    C413631   3.752   2.787   0.766 -0.6093 -0.9274  0.9485
  928MPD2    C513632   3.725   2.707   0.873  0.0663  0.0332 -0.0978
  928MPD2     H13633   3.968   2.994   0.915  0.6979  0.3121 -1.9881
  928MPD2    H113634   3.701   2.758   0.674  1.9007 -1.1504 -0.3796
  928MPD2    H213635   3.755   2.674   1.074 -0.6436  1.2458  0.6264
  928MPD2    H313636   3.659   2.622   0.859  0.5052 -0.8786  3.3127
  928MPD2     N13637   3.876   2.972   0.657  0.3358 -0.5261 -0.1216
  928MPD2    H513638   3.827   2.965   0.568 -0.5412  0.4245  0.2861
  928MPD2    N113639   3.929   2.869   1.131 -0.5638  0.5443  0.4249
  928MPD2    H713640   3.972   2.960   1.135  0.1086  0.2819 -0.6780
  929MPD2     C13641   3.682   2.891   9.259  0.3166  0.6004 -0.2300
  929MPD2    C113642   3.567   2.845   9.319 -0.2567  0.1610  0.1649
  929MPD2    C213643   3.446   2.893   9.271 -0.0517  0.8889  0.1532
  929MPD2    C313644   3.444   2.995   9.183  0.5747 -0.2843  0.0939
  929MPD2    C413645   3.563   3.042   9.130  0.0911 -1.5021 -0.2365
  929MPD2    C513646   3.688   2.988   9.165 -0.5712  0.3945 -0.0024
  929MPD2     H13647   3.354   2.875   9.326  0.7984  1.3938  1.7278
  929MPD2    H113648   3.554   3.116   9.051  0.9038 -1.0118  0.1341
  929MPD2    H213649   3.777   2.858   9.301 -0.6286 -0.2938  1.2048
  929MPD2    H313650   3.779   3.040   9.140 -0.4981 -0.0001 -0.5533
  929MPD2     N13651   3.322   3.053   9.145  0.7109 -0.5623 -0.2517
  929MPD2    H513652   3.329   3.143   9.098 -2.5227 -0.5145 -0.6122
  929MPD2    N113653   3.573   2.758   9.426 -0.3550  0.5574  0.3213
  929MPD2    H713654   3.667   2.736   9.458  0.4561  0.8865 -1.8114
  930MPD2     C13655   0.971   0.252  14.366  1.3655 -0.2491 -0.2001
  930MPD2    C113656   1.001   0.381  14.329  0.0996  0.7080 -0.2702
  930MPD2    C213657   0.967   0.422  14.200 -0.2035 -0.2023  0.4358
  930MPD2    C313658   0.915   0.338  14.106  0.8116 -0.0750 -0.0514
  930MPD2    C413659   0.882   0.211  14.146  0.6113  0.0082 -0.0998
  930MPD2    C513660   0.909   0.170  14.278 -0.5596 -0.4866 -0.4053
  930MPD2     H13661   0.980   0.526  14.171  2.8054 -1.2174 -1.8544
  930MPD2    H113662   0.834   0.139  14.081  1.6857  0.2490 -1.1641
  930MPD2    H213663   0.994   0.214  14.465  1.8359  0.2375 -0.1269
  930MPD2    H313664   0.890   0.067  14.303  0.3312 -1.2899 -3.0634
  930MPD2     N13665   0.885   0.382  13.969 -0.0509 -0.5403  0.1323
  930MPD2    H513666   0.854   0.315  13.898  0.6223  1.3452 -1.9468
  930MPD2    N113667   1.064   0.469  14.424  0.2703  0.5140  0.3222
  930MPD2    H713668   1.105   0.428  14.507 -1.0274 -1.9175 -0.2668
  931MPD2     C13669   0.853   0.084   0.560 -0.3016 -0.7446 -0.0610
  931MPD2    C113670   0.898   4.728   0.474 -0.4401  0.2064 -0.4008
  931MPD2    C213671   0.928   4.602   0.521 -0.3625 -1.1718  0.2304
  931MPD2    C313672   0.896   4.565   0.653  0.6404  0.4680 -0.0371
  931MPD2    C413673   0.836   4.656   0.734 -0.0351 -0.1718  0.2102
  931MPD2    C513674   0.820   0.048   0.685  0.5594 -0.3828  0.2341
  931MPD2     H13675   0.959   4.527   0.449  0.9570  0.4931 -0.9393
  931MPD2    H113676   0.811   4.636   0.838  2.1154 -0.0132  0.7422
  931MPD2    H213677   0.849   0.188   0.531  0.3565 -1.2782 -2.0335
  931MPD2    H313678   0.777   0.120   0.755  0.2823 -0.1769 -0.1515
  931MPD2     N13679   0.930   4.437   0.710  0.0546 -0.2369 -0.0772
  931MPD2    H513680   0.900   4.423   0.806  0.7128  2.7165  0.5776
  931MPD2    N113681   0.913   0.032   0.341 -0.4872  0.2789 -0.1283
  931MPD2    H713682   0.860   0.115   0.318 -0.9983  0.0562  0.2317
  932MPD2     C13683   2.962   3.113  11.364 -0.3699  0.3295  0.0921
  932MPD2    C113684   3.000   3.215  11.455 -0.1104 -0.1126  0.3627
  932MPD2    C213685   3.054   3.180  11.571 -0.2707  0.4758  0.0028
  932MPD2    C313686   3.089   3.050  11.596 -0.2248  0.0203 -0.2241
  932MPD2    C413687   3.060   2.951  11.505  0.4482  0.6897 -0.3977
  932MPD2    C513688   3.000   2.986  11.385 -0.2064  0.4797 -0.8446
  932MPD2     H13689   3.087   3.257  11.640  0.8686  0.2675 -0.3119
  932MPD2    H113690   3.102   2.851  11.514 -1.9233 -0.2337  0.3752
  932MPD2    H213691   2.915   3.134  11.269 -0.3761  1.6014  0.3722
  932MPD2    H313692   2.974   2.910  11.313  0.8807 -1.6106  0.9743
  932MPD2     N13693   3.158   3.011  11.710 -0.3838  0.4214 -0.2152
  932MPD2    H513694   3.187   2.915  11.725  0.8429  0.7418 -0.4694
  932MPD2    N113695   2.978   3.353  11.425  0.1767 -0.1740  0.1940
  932MPD2    H713696   2.993   3.420  11.499 -2.0829  1.0592 -0.4628
  933MPD2     C13697   4.389   3.314   1.638  0.1336  0.4841  0.1991
  933MPD2    C113698   4.261   3.323   1.582  0.1628 -0.7552  0.0995
  933MPD2    C213699   4.203   3.451   1.561 -0.1064 -0.1804  0.0923
  933MPD2    C313700   4.275   3.563   1.590 -0.3349 -0.3874  0.1235
  933MPD2    C413701   4.407   3.553   1.635 -0.0722 -0.4379  0.0152
  933MPD2    C513702   4.456   3.429   1.665  0.2594  0.1168  0.3494
  933MPD2     H13703   4.105   3.466   1.519  1.1088 -0.8035 -2.9472
  933MPD2    H113704   4.455   3.645   1.666 -2.7472  1.1667 -0.6021
  933MPD2    H213705   4.452   3.227   1.652  0.3008  0.5631 -0.0512
  933MPD2    H313706   4.558   3.416   1.699  1.3918  1.9537 -2.3713
  933MPD2     N13707   4.206   3.685   1.572  0.1057 -0.3116 -0.2768
  933MPD2    H513708   4.111   3.679   1.535 -0.4780  0.4290  1.1146
  933MPD2    N113709   4.195   3.199   1.551  0.7644  0.3430 -0.4031
  933MPD2    H713710   4.255   3.120   1.571 -0.1172 -0.4360 -0.8395
  934MPD2     C13711   0.562   1.433   1.641  0.2519  0.4330  0.3533
  934MPD2    C113712   0.623   1.389   1.522 -0.2655  0.1205 -0.5481
  934MPD2    C213713   0.552   1.298   1.447 -0.4422 -0.2677 -0.6080
  934MPD2    C313714   0.438   1.234   1.493 -0.0406  0.3841 -0.6636
  934MPD2    C413715   0.381   1.277   1.611 -0.4533  0.6356 -0.0421
  934MPD2    C513716   0.446   1.370   1.685  0.8702 -0.0767 -0.1770
  934MPD2     H13717   0.592   1.272   1.349  1.7059 -2.0774  0.7500
  934MPD2    H113718   0.296   1.233   1.661  0.6405 -0.1878  1.1066
  934MPD2    H213719   0.598   1.515   1.702  1.6561  0.1495 -0.0856
  934MPD2    H313720   0.393   1.392   1.776 -1.9298 -1.1406 -1.5389
  934MPD2     N13721   0.373   1.132   1.425  0.5529 -0.7535  0.5760
  934MPD2    H513722   0.292   1.081   1.459  0.3433 -0.1589  0.9730
  934MPD2    N113723   0.746   1.451   1.479  0.1166 -0.1617  0.4860
  934MPD2    H713724   0.788   1.415   1.393  1.5683  0.4527  0.9442
  935MPD2     C13725   0.551   0.342   0.882 -0.0242 -0.0560 -0.5205
  935MPD2    C113726   0.411   0.337   0.898 -0.4502 -0.0237 -0.4573
  935MPD2    C213727   0.347   0.452   0.953  0.0119 -0.5271 -0.0200
  935MPD2    C313728   0.412   0.565   0.980  0.5329  0.3537 -0.4018
  935MPD2    C413729   0.543   0.572   0.946 -0.2607 -0.2109 -0.3643
  935MPD2    C513730   0.607   0.463   0.897  0.1961 -0.4956  0.3224
  935MPD2     H13731   0.243   0.439   0.980  0.4026 -0.6077  1.4796
  935MPD2    H113732   0.592   0.669   0.947 -2.1173  0.6998  1.7117
  935MPD2    H213733   0.604   0.258   0.839 -1.0135 -0.2388 -1.3823
  935MPD2    H313734   0.712   0.476   0.874  0.3601 -0.6904  0.9495
  935MPD2     N13735   0.354   0.686   1.032 -0.3945 -0.5757  0.0336
  935MPD2    H513736   0.422   0.759   1.056 -2.1010  0.9626  0.2027
  935MPD2    N113737   0.333   0.221   0.881  0.3808 -0.3399 -0.2162
  935MPD2    H713738   0.234   0.233   0.899  0.4547  2.2104 -1.5545
  936MPD2     C13739   3.905   2.004  12.536 -0.0097 -0.2374 -0.2154
  936MPD2    C113740   3.969   2.080  12.631  0.5614 -0.6856  0.4080
  936MPD2    C213741   4.015   2.209  12.593  0.2773 -0.8790  0.6037
  936MPD2    C313742   3.997   2.257  12.464  1.2482  0.2283  0.4608
  936MPD2    C413743   3.922   2.180  12.375 -0.1704  0.1155  0.0773
  936MPD2    C513744   3.879   2.052  12.409 -0.4901 -0.1525 -0.4941
  936MPD2     H13745   4.072   2.274  12.658  0.4286  0.1272 -0.5223
  936MPD2    H113746   3.900   2.214  12.275  0.0250  2.0389  0.7053
  936MPD2    H213747   3.869   1.903  12.554 -1.0101  0.5662  2.2220
  936MPD2    H313748   3.817   1.993  12.342 -0.7722 -1.4445  0.9030
  936MPD2     N13749   4.052   2.384  12.432 -0.1659  0.5371 -0.2248
  936MPD2    H513750   4.105   2.436  12.501 -1.0988  2.4254 -0.9272
  936MPD2    N113751   3.987   2.043  12.762 -0.1079 -0.5404 -0.2138
  936MPD2    H713752   4.027   2.109  12.828  2.0182 -0.9882 -1.0441
  937MPD2     C13753   1.155   3.585  12.262 -0.6295 -0.3766 -0.3498
  937MPD2    C113754   1.192   3.717  12.253  0.3325  0.7714  0.6324
  937MPD2    C213755   1.267   3.753  12.144 -0.5002  0.1798  0.1223
  937MPD2    C313756   1.326   3.661  12.059 -0.1939 -0.3041 -0.0399
  937MPD2    C413757   1.300   3.533  12.076 -0.3617 -0.8599 -0.0206
  937MPD2    C513758   1.220   3.492  12.180 -0.0507 -0.0265  0.0914
  937MPD2     H13759   1.286   3.858  12.128  0.4913 -0.1701 -0.9227
  937MPD2    H113760   1.338   3.456  12.010 -0.2868 -2.6068  2.0455
  937MPD2    H213761   1.093   3.556  12.347 -0.1363  0.2628  0.2269
  937MPD2    H313762   1.205   3.385  12.183  2.1881 -0.2758  2.9428
  937MPD2     N13763   1.410   3.715  11.951  0.3177 -0.5064 -0.0587
  937MPD2    H513764   1.405   3.816  11.943 -4.0891 -0.6784  0.4768
  937MPD2    N113765   1.112   3.819  12.318 -0.1303 -0.1662  0.1198
  937MPD2    H713766   1.125   3.913  12.281 -0.3425 -0.8603 -1.7164
  938MPD2     C13767   4.058   0.420   0.340 -0.3323  0.0067  0.1263
  938MPD2    C113768   4.115   0.482   0.449 -0.3175 -0.3624 -0.3877
  938MPD2    C213769   4.129   0.412   0.564  0.7884  0.4531  0.5153
  938MPD2    C313770   4.085   0.282   0.574  0.5272 -0.3841 -0.2565
  938MPD2    C413771   4.037   0.221   0.457 -0.1971  0.1045 -0.2070
  938MPD2    C513772   4.020   0.291   0.344 -0.1940  0.5293 -0.1511
  938MPD2     H13773   4.172   0.459   0.652  0.3342  0.0273  0.9658
  938MPD2    H113774   4.005   0.118   0.451  0.4088 -0.0109 -1.4745
  938MPD2    H213775   4.050   0.469   0.244 -0.1203  0.1166  0.1648
  938MPD2    H313776   3.982   0.239   0.257  0.8162 -0.2471 -0.1319
  938MPD2     N13777   4.083   0.205   0.692  0.2787  0.5097  0.0592
  938MPD2    H513778   4.029   0.119   0.695  0.5368  0.3193 -0.7140
  938MPD2    N113779   4.158   0.617   0.446 -0.5903  0.1670 -0.5072
  938MPD2    H713780   4.197   0.660   0.529  0.6059  1.2722 -1.6506
  939MPD2     C13781   4.553   1.617   0.878 -0.4165  0.6135  0.0144
  939MPD2    C113782   4.690   1.628   0.897  0.6319 -0.8599  0.0036
  939MPD2    C213783   0.046   1.568   0.804 -0.2264  0.3405  0.2077
  939MPD2    C313784   4.730   1.484   0.709  0.6270 -0.7992  0.0493
  939MPD2    C413785   4.594   1.454   0.711  0.6562 -0.3301  1.4776
  939MPD2    C513786   4.504   1.528   0.786 -0.0749  0.3228  1.4732
  939MPD2     H13787   0.152   1.592   0.796  0.0936 -0.9960  0.3833
  939MPD2    H113788   4.544   1.389   0.641  1.3593 -0.9351  1.5436
  939MPD2    H213789   4.489   1.669   0.949 -0.6959 -0.2788  0.4210
  939MPD2    H313790   4.397   1.518   0.773  0.1857 -0.5955 -0.0020
  939MPD2     N13791   0.084   1.446   0.610 -0.2590 -0.0827  0.0147
  939MPD2    H513792   0.175   1.490   0.611 -0.4123  0.2256  1.3492
  939MPD2    N113793   4.733   1.727   0.989  0.0698 -0.1808 -0.6166
  939MPD2    H713794   4.661   1.787   1.029 -0.6367 -1.6598  0.3645
  940MPD2     C13795   0.272   1.983  12.827  0.2530  0.0923 -0.7187
  940MPD2    C113796   0.139   1.960  12.840 -0.3569  0.5031  0.5863
  940MPD2    C213797   0.082   1.859  12.767  0.5688  0.0532 -0.8318
  940MPD2    C313798   0.153   1.784  12.675 -0.2337 -0.2569 -0.4971
  940MPD2    C413799   0.293   1.816  12.660 -0.2721 -0.3946  0.7302
  940MPD2    C513800   0.348   1.910  12.741  0.0262 -0.0448 -0.1809
  940MPD2     H13801   4.712   1.847  12.776  0.7843 -1.0938  0.0846
  940MPD2    H113802   0.349   1.776  12.576 -1.8207 -1.1099  0.0297
  940MPD2    H213803   0.320   2.058  12.889 -2.7387  2.4367 -1.2464
  940MPD2    H313804   0.451   1.940  12.725  0.0226  0.1353  0.1111
  940MPD2     N13805   0.101   1.689  12.586  0.5718  0.7681  0.4709
  940MPD2    H513806   0.173   1.635  12.540  0.6862  1.6603 -0.3910
  940MPD2    N113807   0.055   2.031  12.927 -0.2911  0.2746  0.9620
  940MPD2    H713808   4.696   1.999  12.933 -0.7550  1.0216 -2.3544
  941MPD2     C13809   2.811   0.762  10.351  0.4408 -0.9857  0.0866
  941MPD2    C113810   2.908   0.849  10.312  0.0853 -0.2652 -0.6822
  941MPD2    C213811   3.019   0.863  10.394  0.3655  0.1528  0.2763
  941MPD2    C313812   3.039   0.789  10.504 -0.1820 -0.5666  1.0118
  941MPD2    C413813   2.947   0.690  10.536 -0.5322  0.9451 -0.0714
  941MPD2    C513814   2.836   0.680  10.459 -0.1740  0.4357  0.1171
  941MPD2     H13815   3.084   0.947  10.370 -0.2189  0.5911  0.2226
  941MPD2    H113816   2.956   0.633  10.627 -0.7391  1.2683  0.1537
  941MPD2    H213817   2.715   0.740  10.305 -0.4655  0.2354  1.4037
  941MPD2    H313818   2.761   0.606  10.485  0.5894 -1.4689 -3.1513
  941MPD2     N13819   3.150   0.795  10.594 -0.0477  0.4715  0.1379
  941MPD2    H513820   3.154   0.734  10.675 -1.1655 -1.2324 -1.0912
  941MPD2    N113821   2.899   0.932  10.190  0.1238 -0.0835 -0.2194
  941MPD2    H713822   2.974   0.999  10.174 -0.4333  1.0029  1.7007
  942MPD2     C13823   2.360   3.383   9.749 -0.4095  0.1533 -0.2686
  942MPD2    C113824   2.478   3.367   9.674 -0.7278 -0.8645  0.2161
  942MPD2    C213825   2.526   3.457   9.581  0.1004  0.6036 -0.0822
  942MPD2    C313826   2.452   3.572   9.561 -0.6619 -0.4798 -0.6278
  942MPD2    C413827   2.330   3.593   9.630 -0.0266 -0.3646 -0.3762
  942MPD2    C513828   2.286   3.497   9.717  0.1397  0.5108  0.3036
  942MPD2     H13829   2.618   3.441   9.525 -0.8335  2.3960 -2.1067
  942MPD2    H113830   2.259   3.672   9.609  0.7627  0.1346 -1.1749
  942MPD2    H213831   2.329   3.323   9.834 -1.3451  0.9129 -0.0756
  942MPD2    H313832   2.198   3.522   9.775  1.0751  0.6702  1.6813
  942MPD2     N13833   2.477   3.658   9.451  0.1390 -0.0645 -0.3210
  942MPD2    H513834   2.417   3.740   9.446 -3.1693 -2.4089  0.9766
  942MPD2    N113835   2.557   3.247   9.695  0.6361  0.3424 -0.0764
  942MPD2    H713836   2.642   3.241   9.640 -0.8466  1.0719 -2.4435
  943MPD2     C13837   2.218   0.993   9.996 -0.2436  0.3331  0.4244
  943MPD2    C113838   2.130   0.918  10.080  0.4938  0.3262 -0.1162
  943MPD2    C213839   2.129   0.959  10.212  0.0793 -0.5254 -0.1798
  943MPD2    C313840   2.187   1.079  10.255 -0.4319 -0.0326 -0.3074
  943MPD2    C413841   2.270   1.144  10.168 -0.6213 -0.3377  0.0843
  943MPD2    C513842   2.294   1.098  10.040  0.0778 -0.1261 -0.0792
  943MPD2     H13843   2.079   0.897  10.285 -0.5612 -2.4966 -2.2658
  943MPD2    H113844   2.315   1.234  10.207  1.8270 -1.3642 -0.4075
  943MPD2    H213845   2.217   0.965   9.891 -0.0060 -1.9519  1.0138
  943MPD2    H313846   2.355   1.152   9.969 -0.3350 -0.6168 -0.8146
  943MPD2     N13847   2.172   1.140  10.380  0.1802  0.4129  0.3260
  943MPD2    H513848   2.217   1.231  10.385  2.4544 -0.6065 -1.7825
  943MPD2    N113849   2.053   0.816  10.019 -0.4008  0.4650  0.5940
  943MPD2    H713850   2.062   0.804   9.919 -0.3788  3.8278  0.1802
  944MPD2     C13851   1.888   4.502  11.531  0.5943  0.2643 -0.2077
  944MPD2    C113852   1.902   4.596  11.434 -0.0519  0.4172 -0.1569
  944MPD2    C213853   1.882   4.732  11.469  0.0702 -0.5210 -0.1796
  944MPD2    C313854   1.851   0.032  11.598  0.2136  0.1508 -0.3880
  944MPD2    C413855   1.830   4.674  11.693  0.2336 -0.6427  0.4748
  944MPD2    C513856   1.859   4.539  11.659  0.3235  0.4825 -0.4287
  944MPD2     H13857   1.877   0.072  11.392  1.3180 -1.5155 -1.2662
  944MPD2    H113858   1.816   4.691  11.800 -0.3597  1.4568  0.0475
  944MPD2    H213859   1.901   4.398  11.503 -0.3152 -0.5162  2.2818
  944MPD2    H313860   1.846   4.458  11.729 -1.0984  1.3811  0.3438
  944MPD2     N13861   1.819   0.170  11.612  0.0647  0.0191  0.7949
  944MPD2    H513862   1.837   0.236  11.537 -1.8364  0.3904  0.6656
  944MPD2    N113863   1.934   4.561  11.301  0.2639 -0.0226  0.1915
  944MPD2    H713864   1.929   4.463  11.277  0.9398  0.2652 -1.1217
    1TMC1    C113865   0.597   0.933  14.155 -0.9742 -0.3020  0.4633
    1TMC1    C213866   0.491   0.991  14.090 -0.3042 -0.1607 -0.3777
    1TMC1    C313867   0.418   0.919  14.001  0.6259  0.2558 -0.5175
    1TMC1    C413868   0.631   0.802  14.126 -0.2110 -0.2034 -0.2712
    1TMC1    C513869   0.556   0.734  14.033 -0.1559  0.2839 -0.4653
    1TMC1    C613870   0.445   0.794  13.973  0.1045  0.8324 -0.3391
    1TMC1     C13871   0.640   0.975  14.291 -0.0885  0.3781 -0.3949
    1TMC1     O13872   0.732   0.906  14.333  0.2547  0.4332  0.2633
    1TMC1     H13873   0.449   1.089  14.106 -2.4161 -1.2652  0.8009
    1TMC1    H113874   0.719   0.750  14.161 -0.3498 -0.1833  0.1056
    1TMC1    H213875   0.393   0.730  13.903  1.6831 -0.2386 -0.5444
    1TMC1    C713876   0.594   0.603  13.982 -0.0951  0.3444  0.7008
    1TMC1    C813877   0.298   0.982  13.952  1.0637  0.5851  0.4523
    1TMC1    O113878   0.576   0.562  13.870 -0.2542 -0.3095 -0.4831
    1TMC1    O213879   0.218   1.039  14.024  0.5120 -0.4238 -0.3515
    1TMC1    O313880   0.613   0.522  14.091  0.0025 -0.3207  0.1519
    1TMC1    H313881   0.647   0.568  14.171 -1.1842  0.0600  0.4367
    1TMC1    O513882   0.270   0.929  13.832  0.1576  0.5798  0.5381
    1TMC1    H513883   0.353   0.918  13.781 -0.4554 -0.2558 -0.2792
    2MPD2     C13884   0.561   1.223  14.736  0.5637 -0.1633  0.3916
    2MPD2    C113885   0.472   1.275  14.645  0.0004  0.3751  0.8108
    2MPD2    C213886   0.489   1.229  14.516  0.2582 -0.0621  0.0547
    2MPD2    C313887   0.584   1.138  14.476 -0.6773  0.0441 -0.7132
    2MPD2    C413888   0.678   1.093  14.569  0.3844 -0.9670 -0.7422
    2MPD2    C513889   0.663   1.134  14.701  0.1181  0.7924 -0.6894
    2MPD2     H13890   0.423   1.267  14.439 -0.3947  1.9895  1.6126
    2MPD2    H113891   0.764   1.037  14.533  2.1225 -0.0138  1.9693
    2MPD2    H213892   0.553   1.247  14.841  1.3507  1.6857  0.0092
    2MPD2    H313893   0.729   1.093  14.777 -0.8949 -0.3733 -0.4324
    2MPD2     N13894   0.581   1.088  14.341  0.5846  0.1403 -0.7808
    2MPD2    H513895   0.530   1.152  14.281 -0.3601 -0.5566 -0.7160
    2MPD2    N113896   0.378   1.364  14.694 -0.0281 -0.6549 -0.1422
    2MPD2    H713897   0.363   1.383  14.793  1.0146  0.6916 -0.2477
    3TMC2    C113898   0.215   1.533  14.686 -0.3552 -0.1200 -0.1940
    3TMC2    C213899   0.128   1.472  14.772 -0.3351 -0.3434 -0.5125
    3TMC2    C313900   0.025   1.545  14.817  0.0827  0.2584  0.1059
    3TMC2    C413901   0.190   1.655  14.624 -0.8018  0.3287 -0.2152
    3TMC2    C513902   0.080   1.723  14.672 -0.1091 -0.9267  0.0844
    3TMC2    C613903   4.733   1.668  14.769  0.1812  0.2898  0.0816
    3TMC2     C13904   0.298   1.448  14.611  0.4827  0.0385  0.2050
    3TMC2     O13905   0.332   1.480  14.496 -0.0172 -0.1216  0.4004
    3TMC2     H13906   0.140   1.366  14.791 -0.5991 -0.0973  1.0479
    3TMC2    H113907   0.253   1.701  14.549  0.5159  1.4610  1.5873
    3TMC2    H213908   4.639   1.718  14.792 -0.1469 -0.0543 -0.5255
    3TMC2    C713909   0.075   1.865  14.638 -0.6373 -0.1272 -0.3761
    3TMC2    C813910   4.654   1.480  14.881  0.4874  0.5277  0.1484
    3TMC2    O113911   0.057   1.943  14.731 -0.1445 -0.1116  0.0169
    3TMC2    O213912   4.640   1.356  14.890 -0.4487  0.4432 -0.0536
    3TMC2    O513913   4.581   1.566  14.949 -0.5492 -0.2274 -0.3599
    3TMC2    H513914   4.628   1.650  14.964 -0.7895  0.1271 -1.6186
    4TMC2    C113915   4.670   2.405  13.817 -0.6290  0.6281  0.0794
    4TMC2    C213916   4.650   2.335  13.701  0.1557  0.3393  0.2576
    4TMC2    C313917   4.701   2.211  13.688 -0.2966 -0.0483  0.4511
    4TMC2    C413918   4.733   2.350  13.922  0.1743  0.1783 -0.1790
    4TMC2    C513919   0.055   2.223  13.907  0.0605  0.7648 -0.2685
    4TMC2    C613920   0.047   2.158  13.789  0.3426  0.1565  0.6763
    4TMC2     C13921   4.615   2.539  13.842  0.6976 -0.0753 -0.3491
    4TMC2     O13922   4.691   2.615  13.904 -0.7774  0.4687  0.0069
    4TMC2     H13923   4.623   2.382  13.608  3.8528  0.1536 -0.9165
    4TMC2    H113924   0.013   2.404  14.014 -0.5774 -0.2057  0.1817
    4TMC2    H213925   0.097   2.065  13.765  0.4434  0.8987 -2.0255
    4TMC2    C713926   0.088   2.142  14.025  0.0811 -0.7525 -0.6349
    4TMC2    C813927   4.692   2.156  13.553  0.2020 -0.2811  1.0648
    4TMC2    O113928   0.045   2.025  14.017  1.0390  0.6786 -0.2753
    4TMC2    O213929   4.690   2.222  13.452  0.0805 -0.0823  0.3106
    4TMC2    O513930   4.672   2.024  13.560  0.3663  0.1987  0.2573
    4TMC2    H513931   4.665   1.986  13.650  1.5958  1.1925  0.7834
    5MPD2     C13932   4.223   2.863  13.866 -0.4939  0.0640  0.7558
    5MPD2    C113933   4.188   2.766  13.774 -0.1216 -0.3463 -0.6821
    5MPD2    C213934   4.288   2.668  13.753  0.1697 -0.2572  0.2775
    5MPD2    C313935   4.412   2.671  13.820  0.3473  0.7527  0.6169
    5MPD2    C413936   4.447   2.775  13.907 -0.0207  0.7313  0.3051
    5MPD2    C513937   4.346   2.869  13.936 -0.0088  0.1366  0.3474
    5MPD2     H13938   4.272   2.589  13.681  0.1054 -1.0297  1.1452
    5MPD2    H113939   4.532   2.775  13.974  0.1296  2.3526  0.0936
    5MPD2    H213940   4.154   2.937  13.904 -1.0109 -0.0330  0.0020
    5MPD2    H313941   4.364   2.956  13.999  0.6734 -1.5201  2.4294
    5MPD2     N13942   4.503   2.573  13.776  0.3644  0.5794  0.1230
    5MPD2    H513943   4.463   2.502  13.715 -0.2425 -0.9695  2.2887
    5MPD2    N113944   4.054   2.767  13.733  0.2403  0.5028 -0.0496
    5MPD2    H713945   3.990   2.835  13.772  0.4940 -0.1621  1.5142
    6MPD1     C13946   3.391   3.897  12.340 -1.2160 -0.3553  0.2233
    6MPD1    C113947   3.447   3.781  12.285  0.0875  0.7348  0.7922
    6MPD1    C213948   3.486   3.686  12.381 -0.6700 -0.5580 -0.5909
    6MPD1    C313949   3.495   3.708  12.516  0.6568  0.8825 -0.1101
    6MPD1    C413950   3.449   3.830  12.557  0.2057 -0.0078  0.3156
    6MPD1    C513951   3.391   3.925  12.473 -0.1598  0.2431 -0.0814
    6MPD1     H13952   3.503   3.584  12.349 -0.2671 -0.0148 -2.1058
    6MPD1    H113953   3.463   3.858  12.660 -0.2130 -0.7549  0.5779
    6MPD1    H213954   3.356   3.970  12.268  4.5054  0.4958 -1.7184
    6MPD1    H313955   3.362   4.024  12.508  2.4023  1.6997 -2.0751
    6MPD1     N13956   3.545   3.619  12.613  0.7921 -0.0341 -0.3202
    6MPD1    H513957   3.527   3.636  12.711  1.2762 -0.9426 -0.0675
    6MPD1    N113958   3.429   3.755  12.150  0.2184  0.6284  0.2236
    6MPD1    H613959   3.504   3.703  12.107  1.7611  2.0611  1.1830
    6MPD1    H713960   3.431   3.843  12.098  1.8569  0.6272  0.2930
    7MPD2     C13961   3.714   3.416  13.365 -0.3230 -0.1310 -0.3164
    7MPD2    C113962   3.654   3.322  13.287  0.2993  0.2935 -0.3645
    7MPD2    C213963   3.616   3.204  13.349 -0.4871 -0.0015 -0.6875
    7MPD2    C313964   3.642   3.171  13.479 -0.0848 -0.2381  0.9266
    7MPD2    C413965   3.709   3.263  13.547  0.0774 -0.3425  0.4446
    7MPD2    C513966   3.741   3.384  13.497  0.2070 -0.0538  0.4119
    7MPD2     H13967   3.565   3.131  13.287 -2.3334 -0.0693  0.9059
    7MPD2    H113968   3.744   3.243  13.648  0.5580 -0.9108  0.1667
    7MPD2    H213969   3.746   3.508  13.318  0.5717 -1.3152 -2.0400
    7MPD2    H313970   3.795   3.456  13.557  3.1361 -1.2417 -0.7924
    7MPD2     N13971   3.616   3.041  13.528  0.4666 -0.7883  0.0386
    7MPD2    H513972   3.599   2.963  13.465 -1.7167  0.1592 -0.5258
    7MPD2    N113973   3.622   3.329  13.157  0.3042  0.3650 -0.3820
    7MPD2    H713974   3.577   3.250  13.111  1.5158 -0.5373 -0.0016
    8TMC3    C113975   3.662   2.852  13.656  0.3863  0.6078  0.8886
    8TMC3    C213976   3.788   2.817  13.695 -0.9991  0.6379  0.0752
    8TMC3    C313977   3.863   2.733  13.608 -0.0565  0.2740  0.2887
    8TMC3    C413978   3.614   2.800  13.537 -0.2702  0.5014  0.3266
    8TMC3    C513979   3.685   2.718  13.459  0.6194  0.5995 -0.2421
    8TMC3    C613980   3.812   2.684  13.489  0.0073 -0.0459  1.2032
    8TMC3     C13981   3.644   2.997  13.652 -0.2069  0.3653 -0.2862
    8TMC3     O13982   3.672   3.054  13.756  0.0658  0.1625  0.3312
    8TMC3     H13983   3.826   2.867  13.783 -0.5893  0.5239 -0.0337
    8TMC3    H113984   3.508   2.818  13.523 -0.5734 -1.5183  0.0347
    8TMC3    H213985   3.867   2.634  13.410 -0.4981  0.0878  0.7637
    8TMC3    C713986   3.670   2.761  13.326 -1.2649 -0.5102 -0.8466
    8TMC3    C813987   4.006   2.689  13.636  0.0033 -0.0211 -0.1912
    8TMC3    O113988   3.632   2.877  13.311  0.0201 -0.0160 -0.4452
    8TMC3    O213989   4.064   2.609  13.566  0.1467 -0.0975 -0.4941
    9TMC3    C113990   3.646   3.417  12.708  0.2005  0.4608 -0.3385
    9TMC3    C213991   3.689   3.288  12.673  0.1915 -0.1806  0.1195
    9TMC3    C313992   3.712   3.207  12.784 -0.3756 -0.2066  0.1743
    9TMC3    C413993   3.639   3.463  12.836  0.1215  0.6075 -0.7540
    9TMC3    C513994   3.656   3.375  12.936 -0.4191  0.2476  0.2301
    9TMC3    C613995   3.695   3.246  12.913 -0.0486  0.4203 -0.2660
    9TMC3     C13996   3.611   3.498  12.588  0.1268 -0.0213  0.1654
    9TMC3     O13997   3.641   3.451  12.476 -0.4740  0.9231 -0.3760
    9TMC3     H13998   3.702   3.246  12.574 -0.2937  0.1379 -0.0725
    9TMC3    H113999   3.622   3.567  12.860  0.5910  0.8527 -1.5198
    9TMC3    H214000   3.735   3.188  12.995  0.3522  0.2082 -0.6149
    9TMC3    C714001   3.664   3.425  13.071 -0.7936 -0.0883  0.7428
    9TMC3    C814002   3.721   3.066  12.758  0.5808 -0.0308  0.1880
    9TMC3    O114003   3.691   3.541  13.095 -0.2332  0.2945  0.1827
    9TMC3    O214004   3.784   3.020  12.663 -0.2964  0.9461 -0.4947
   10MPD2     C14005   3.742   2.607  13.000  0.0075  0.1965  0.4234
   10MPD2    C114006   3.712   2.705  13.089 -0.1566 -0.4829 -0.5890
   10MPD2    C214007   3.684   2.829  13.034  0.1420  1.0179  0.5071
   10MPD2    C314008   3.694   2.859  12.899 -0.2111 -0.1800  0.1356
   10MPD2    C414009   3.741   2.764  12.813 -0.5104  0.1584 -0.0349
   10MPD2    C514010   3.757   2.637  12.864 -0.9058 -0.1976 -0.1162
   10MPD2     H14011   3.630   2.905  13.089  1.8104  2.4129  0.2113
   10MPD2    H114012   3.777   2.780  12.712  1.2738 -1.5835  0.3213
   10MPD2    H214013   3.754   2.505  13.034 -2.1172 -1.0819 -2.5962
   10MPD2    H314014   3.791   2.551  12.807  1.4618 -0.2756  1.4381
   10MPD2     N14015   3.674   2.999  12.867 -0.2728  0.1938 -0.2630
   10MPD2    H514016   3.635   3.049  12.946  2.2900  1.6165  0.1043
   10MPD2    N114017   3.705   2.673  13.225 -0.1975 -0.1248 -0.2901
   10MPD2    H714018   3.730   2.580  13.256  0.8837 -0.0118 -0.8205
   11MPD2     C14019   0.199   2.101  14.534 -0.3107 -0.3188 -0.7859
   11MPD2    C114020   0.138   2.011  14.452 -0.0276  0.6078  0.1376
   11MPD2    C214021   0.116   2.044  14.315  0.4978 -0.1967 -0.1040
   11MPD2    C314022   0.156   2.163  14.263 -0.8629 -0.3578 -0.2990
   11MPD2    C414023   0.215   2.252  14.350  0.7567 -0.7921  0.2444
   11MPD2    C514024   0.240   2.220  14.484  0.0425  0.8970  0.3303
   11MPD2     H14025   0.080   1.967  14.247  1.7929 -0.2117 -0.7702
   11MPD2    H114026   0.261   2.343  14.314 -1.7009  0.3671  0.0524
   11MPD2    H214027   0.216   2.078  14.639  0.3294 -0.2295 -0.8723
   11MPD2    H314028   0.292   2.293  14.546 -0.5292  2.3285 -0.8795
   11MPD2     N14029   0.139   2.215  14.130  0.3719  0.0470 -0.0048
   11MPD2    H514030   0.176   2.306  14.104 -0.9382 -0.2742 -3.0042
   11MPD2    N114031   0.092   1.885  14.504 -0.0142 -0.3388  0.5390
   11MPD2    H714032   0.075   1.808  14.440 -0.6470  0.2821 -0.0513
    1MPD1     C14033   1.945   3.544  17.361  0.7017 -0.8227  0.3964
    1MPD1    C114034   2.044   3.647  17.396 -0.7500 -0.6828  0.0223
    1MPD1    C214035   2.142   3.665  17.300  0.0763  0.2684  0.5796
    1MPD1    C314036   2.139   3.611  17.178 -0.1807 -0.4605 -0.4598
    1MPD1    C414037   2.038   3.521  17.142 -0.4788 -0.0712  0.6062
    1MPD1    C514038   1.941   3.488  17.235  0.1172  0.1967 -0.2082
    1MPD1     H14039   2.239   3.697  17.335  0.6888  0.3209 -1.2061
    1MPD1    H114040   2.031   3.466  17.049 -3.1823 -1.7433  1.8207
    1MPD1    H214041   1.881   3.502  17.437  0.7359  0.3643  1.0841
    1MPD1    H314042   1.860   3.419  17.214 -0.0372 -0.4218  2.5305
    1MPD1     N14043   2.246   3.618  17.083  0.0799  0.5438 -0.4846
    1MPD1    H514044   2.242   3.565  16.997 -1.1421  1.2261 -0.8512
    1MPD1    N114045   2.075   3.683  17.531  0.4288  0.1730 -0.2760
    1MPD1    H614046   1.988   3.678  17.583  0.3717  0.6630 -0.3163
    1MPD1    H714047   2.116   3.776  17.539  1.1260 -0.0893 -0.7924
    2MPD1     C14048   3.222   3.642  17.261  0.3224  0.6791  0.0445
    2MPD1    C114049   3.119   3.685  17.343 -1.0519 -0.3605 -0.4331
    2MPD1    C214050   2.992   3.692  17.280 -0.3336 -0.5005  0.3047
    2MPD1    C314051   2.977   3.656  17.149 -0.5740 -0.8473 -0.1243
    2MPD1    C414052   3.082   3.594  17.079  0.0668 -0.2745  0.0907
    2MPD1    C514053   3.203   3.598  17.132 -0.0268 -0.2703 -0.3486
    2MPD1     H14054   2.902   3.727  17.331 -0.9574  1.9318 -2.5085
    2MPD1    H114055   3.067   3.538  16.987 -0.4400  2.1344 -1.2987
    2MPD1    H214056   3.324   3.639  17.298  0.6247 -2.1137 -1.0307
    2MPD1    H314057   3.291   3.561  17.080 -0.6491 -2.9829  0.4888
    2MPD1     N14058   2.852   3.684  17.093 -0.1022  0.0423  0.3875
    2MPD1    H514059   2.777   3.717  17.153  0.2211  0.6776  0.4474
    2MPD1    N114060   3.149   3.726  17.472  0.2991  0.6088 -0.4496
    2MPD1    H614061   3.223   3.675  17.520 -1.1191  0.6886  1.8453
    2MPD1    H714062   3.069   3.737  17.534  0.5325 -0.1068 -0.0207
    3TMC3    C114063   2.679   3.663  16.928  0.1036  0.5382 -0.0138
    3TMC3    C214064   2.647   3.676  16.795 -0.0596 -0.9737  0.6483
    3TMC3    C314065   2.514   3.693  16.762 -0.1010  0.4558  0.9666
    3TMC3    C414066   2.574   3.674  17.019 -0.0959  0.2311  0.0635
    3TMC3    C514067   2.446   3.686  16.982  0.5804  0.0439 -0.3255
    3TMC3    C614068   2.410   3.694  16.852 -0.1198 -0.5754  0.4269
    3TMC3     C14069   2.818   3.652  16.963  0.4023 -0.1944  0.7458
    3TMC3     O14070   2.876   3.589  16.876  0.2424 -0.2066 -0.5363
    3TMC3     H14071   2.727   3.672  16.721 -2.5923 -1.5998 -2.0429
    3TMC3    H114072   2.584   3.682  17.127  0.6609  2.2580 -0.1542
    3TMC3    H214073   2.304   3.712  16.837  0.1021 -0.4677 -1.0527
    3TMC3    C714074   2.359   3.690  17.096  0.0759 -0.4526 -0.3765
    3TMC3    C814075   2.479   3.729  16.629 -0.0600 -0.2092  0.4149
    3TMC3    O114076   2.401   3.748  17.194  0.6459 -0.4663 -0.2560
    3TMC3    O214077   2.361   3.758  16.612 -0.2352 -0.1557  0.8754
    4MPD1     C14078   2.556   3.913  16.171  0.0280 -0.9760 -0.5803
    4MPD1    C114079   2.676   3.925  16.235 -0.0536 -0.3236  0.3664
    4MPD1    C214080   2.689   3.859  16.358  0.4416 -0.3137  0.0865
    4MPD1    C314081   2.572   3.815  16.423 -0.1718  0.3918 -0.1556
    4MPD1    C414082   2.454   3.803  16.347 -0.1124 -0.2789  0.1902
    4MPD1    C514083   2.449   3.846  16.220  0.3270 -0.3051 -0.7249
    4MPD1     H14084   2.785   3.862  16.410  0.3717 -1.4304  0.2967
    4MPD1    H114085   2.359   3.763  16.381  0.7042 -0.6188  2.0864
    4MPD1    H214086   2.552   3.936  16.065 -1.5306 -0.9609 -0.5185
    4MPD1    H314087   2.365   3.820  16.156  0.3633 -0.4638 -0.7095
    4MPD1     N14088   2.584   3.765  16.552 -0.2537  0.0208 -0.2349
    4MPD1    H514089   2.678   3.759  16.591 -0.1100  1.1482 -0.3855
    4MPD1    N114090   2.783   3.986  16.172 -0.0136 -0.1379 -0.6299
    4MPD1    H614091   2.761   4.067  16.115  0.0492  1.4787  1.6607
    4MPD1    H714092   2.852   4.017  16.240  0.3407 -2.8942  0.2734
    1TCq1    O114093   3.308   3.511  11.756 -0.5866 -0.3551  0.1139
    1TCq1    C114094   3.245   3.497  11.633 -0.6901 -0.0593  0.1920
    1TCq1    O214095   3.127   3.512  11.619  0.0876  0.2478 -0.2146
    1TCq1    C214096   3.320   3.416  11.540 -0.0110 -0.4183 -0.5227
    1TCq1    C314097   3.371   3.289  11.576  0.6497  0.2770 -0.2625
    1TCq1    C414098   3.434   3.219  11.473 -0.8261  0.4840  0.0290
    1TCq1    C514099   3.397   3.228  11.344  0.3091  0.1992  0.6062
    1TCq1    C614100   3.331   3.347  11.303  0.8951 -0.3653 -0.4845
    1TCq1    C714101   3.302   3.436  11.405  0.0373  0.2494 -0.1558
    1TCq1    C814102   3.280   3.377  11.165  0.0582 -0.0726  0.7368
    1TCq1    O414103   3.251   3.497  11.152  0.0060 -0.0678  0.1052
    1TCq1    C914104   3.486   3.095  11.529 -0.4113 -0.7514  0.1943
    1TCq1    O514105   3.535   3.094  11.643  0.3922  0.0799  0.6418
    1TCq1    O614106   3.494   2.996  11.455  0.0801  0.0370  0.3631
    1TCq1    H114107   3.405   3.498  11.751 -0.5607  0.0362 -0.5475
    1TCq1    H214108   3.386   3.284  11.683  0.5837  0.3279 -0.2511
    1TCq1    H314109   3.433   3.148  11.281 -2.2833 -2.3638  2.3815
    1TCq1    H414110   3.248   3.529  11.392 -2.9349 -1.2227  1.5889
    2MPD1     C14111   3.183   3.276  10.683  0.1747 -0.4454 -0.5224
    2MPD1    C114112   3.163   3.380  10.759 -0.8932  0.3574 -0.4897
    2MPD1    C214113   3.193   3.378  10.889 -0.2456 -0.1809 -0.9829
    2MPD1    C314114   3.255   3.267  10.944 -0.1722  0.8508 -0.6164
    2MPD1    C414115   3.289   3.165  10.855  0.5521 -0.3705  0.4661
    2MPD1    C514116   3.254   3.167  10.725 -0.6077  0.4180  0.2655
    2MPD1     H14117   3.190   3.475  10.938 -1.0682 -1.7860  2.1271
    2MPD1    H114118   3.331   3.077  10.901 -0.4092 -1.0742  0.0005
    2MPD1    H214119   3.176   3.281  10.575 -0.7350 -2.2823 -0.5463
    2MPD1    H314120   3.286   3.081  10.667 -3.0596  0.7838 -1.6221
    2MPD1     N14121   3.282   3.262  11.084 -0.2877 -0.1063 -0.1250
    2MPD1    H514122   3.303   3.173  11.128 -2.2570  0.4211  1.8679
    2MPD1    N114123   3.111   3.497  10.699 -0.1644 -0.4911 -0.0766
    2MPD1    H614124   3.053   3.477  10.618 -1.0641 -2.5985  1.0987
    2MPD1    H714125   3.056   3.539  10.774  3.1792 -2.7651  3.6262
    1TMC1    C114126   0.794   3.945   0.418  0.0305 -0.7125 -0.0845
    1TMC1    C214127   0.764   3.919   0.549 -0.5772  0.0219 -0.2801
    1TMC1    C314128   0.864   3.878   0.630  0.3587  0.1746  0.0958
    1TMC1    C414129   0.922   3.936   0.370 -0.2723 -0.0309 -0.4498
    1TMC1    C514130   1.019   3.899   0.466 -0.5828 -0.4776  0.9343
    1TMC1    C614131   0.992   3.865   0.594  0.4083 -0.1156  0.1320
    1TMC1     C14132   0.679   3.980   0.334 -0.5024  0.7028 -0.1769
    1TMC1     O14133   0.564   3.976   0.379  0.0322 -0.4006 -0.4543
    1TMC1     H14134   0.659   3.922   0.575 -0.4156 -0.0730  0.4069
    1TMC1    H114135   0.953   3.979   0.276 -1.8261  0.0827 -0.9125
    1TMC1    H214136   1.065   3.830   0.665 -0.2921 -3.1164 -0.6080
    1TMC1    C714137   1.157   3.928   0.426 -0.3275 -0.7250 -0.0988
    1TMC1    C814138   0.822   3.816   0.759 -0.6485 -0.3676 -0.6765
    1TMC1    O114139   1.185   4.002   0.331  0.0659 -0.3708  0.4933
    1TMC1    O214140   0.890   3.809   0.857  0.5934  0.3405 -0.3077
    1TMC1    O314141   1.232   3.919   0.536  1.1167  0.5244  0.6538
    1TMC1    H314142   1.244   3.827   0.570 -3.1898 -0.6658 -1.0658
    1TMC1    O514143   0.710   3.741   0.735  0.1931  0.1875  0.1108
    1TMC1    H514144   0.688   3.733   0.639  0.4894 -0.1695  0.0709
    2MPD1     C14145   0.474   4.140  17.643 -0.3119 -0.1733  0.2008
    2MPD1    C114146   0.584   4.073  17.610  0.1531 -0.7307 -0.2183
    2MPD1    C214147   0.659   4.026  17.717  0.1649 -0.0834  0.1583
    2MPD1    C314148   0.617   4.044   0.097  0.5876  0.4526 -0.4717
    2MPD1    C414149   0.505   4.115   0.135 -0.1677  0.5871  0.4390
    2MPD1    C514150   0.437   4.163   0.027  0.3487 -0.1307 -0.2981
    2MPD1     H14151   0.745   3.961  17.700  1.3975  1.0835  1.8672
    2MPD1    H114152   0.486   4.152   0.235 -1.5306  2.2954 -0.4559
    2MPD1    H214153   0.410   4.178  17.564  0.4091 -0.1868 -0.3922
    2MPD1    H314154   0.353   4.226   0.053 -1.1221 -1.9085 -0.6939
    2MPD1     N14155   0.709   3.994   0.201 -0.2212 -0.0035  0.0199
    2MPD1    H514156   0.803   3.968   0.174 -0.0496 -1.4770  2.0055
    2MPD1    N114157   0.623   4.040  17.481 -0.0117 -1.2850 -0.2698
    2MPD1    H614158   0.721   4.021  17.463 -0.0896 -0.9074 -1.0635
    2MPD1    H714159   0.598   4.116  17.418  0.1282 -0.0607  1.1429
    1MPD1     C14160   4.505   3.792  12.063 -0.6593 -0.6128  0.2689
    1MPD1    C114161   4.574   3.874  11.983  0.4778 -0.0007  0.2757
    1MPD1    C214162   4.663   3.965  12.042 -0.0299 -0.0649 -0.2314
    1MPD1    C314163   4.673   3.969  12.182  0.1262  0.5412  0.4324
    1MPD1    C414164   4.594   3.891  12.267  0.6980  0.4766  0.6405
    1MPD1    C514165   4.518   3.798  12.201  0.7342  0.1459  0.7123
    1MPD1     H14166   4.730   4.031  11.987 -0.2664  0.8350  0.5712
    1MPD1    H114167   4.610   3.884  12.375 -2.4050 -2.0499  0.9259
    1MPD1    H214168   4.437   3.713  12.031 -4.1678  1.7913  1.7144
    1MPD1    H314169   4.457   3.726  12.254  2.4585 -0.5070  1.8118
    1MPD1     N14170   0.038   4.057  12.224  0.4453 -0.0034 -0.1913
    1MPD1    H514171   0.098   4.111  12.161 -0.7791  0.3340 -1.0772
    1MPD1    N114172   4.549   3.869  11.844 -0.5430 -0.5041  0.4145
    1MPD1    H614173   4.511   3.777  11.821  0.4810 -0.7566 -0.2991
    1MPD1    H714174   4.639   3.876  11.796  0.1372  0.1507  1.7879
    2MPD1     C14175   0.052   4.230  11.236  0.4037  0.0991  0.3750
    2MPD1    C114176   0.024   4.181  11.111  0.8576 -0.6578  0.1797
    2MPD1    C214177   0.085   4.057  11.074  0.0595 -0.3766 -0.3189
    2MPD1    C314178   0.157   3.978  11.163 -0.6640  0.3389 -0.5570
    2MPD1    C414179   0.170   4.027  11.291  0.4071  0.0251  0.1065
    2MPD1    C514180   0.122   4.149  11.323 -0.1512 -0.4709 -0.0803
    2MPD1     H14181   0.072   4.030  10.970 -0.2529  2.8200 -1.1012
    2MPD1    H114182   0.230   3.972  11.362  3.9355  2.0213 -1.3126
    2MPD1    H214183   0.005   4.322  11.269  1.8628  0.0835  2.4502
    2MPD1    H314184   0.145   4.186  11.422  3.3027 -2.4915 -0.1607
    2MPD1     N14185   0.194   3.846  11.140  0.5066 -0.2910  0.3795
    2MPD1    H514186   0.258   3.802  11.205  0.8652 -0.5533 -0.1539
    2MPD1    N114187   4.700   4.269  11.015 -0.2114  0.4044  0.6011
    2MPD1    H614188   4.653   4.227  10.935  1.1416 -2.1408  1.1331
    2MPD1    H714189   4.622   4.321  11.053 -2.2385 -0.7839 -1.9616
    3MPD1     C14190   0.424   3.342  10.281 -0.0358  0.3556 -0.1325
    3MPD1    C114191   0.301   3.395  10.310 -0.3237  0.3009 -0.1288
    3MPD1    C214192   0.267   3.441  10.436  0.7563 -0.3172 -0.6110
    3MPD1    C314193   0.359   3.438  10.536  0.2677  0.1850 -0.8200
    3MPD1    C414194   0.485   3.401  10.500 -0.0807  0.1336 -0.0665
    3MPD1    C514195   0.518   3.355  10.374  0.5474 -0.0294 -0.0683
    3MPD1     H14196   0.170   3.476  10.470  0.9353 -0.7845  0.3994
    3MPD1    H114197   0.565   3.387  10.572  0.2013 -0.9815 -0.6057
    3MPD1    H214198   0.457   3.302  10.186 -1.7246 -0.7075 -0.2712
    3MPD1    H314199   0.610   3.300  10.361  0.1196 -0.6246 -0.5140
    3MPD1     N14200   0.324   3.467  10.674 -0.0870 -0.1448  0.3616
    3MPD1    H514201   0.225   3.480  10.691  0.7163  3.1912  2.4945
    3MPD1    N114202   0.196   3.382  10.219 -0.4500  0.6530  0.2668
    3MPD1    H614203   0.122   3.452  10.225 -0.3741  1.0390 -3.2775
    3MPD1    H714204   0.233   3.365  10.125  1.3247  2.2592  0.6699
    4MPD2     C14205   0.495   4.298  11.828 -0.1164 -0.0812 -0.4817
    4MPD2    C114206   0.555   4.242  11.945 -0.3911  0.4505 -0.1972
    4MPD2    C214207   0.652   4.150  11.930 -0.3239 -0.1456  0.6333
    4MPD2    C314208   0.709   4.118  11.805  0.2973  0.2222  0.0766
    4MPD2    C414209   0.656   4.178  11.687 -0.4336  0.0085 -0.8279
    4MPD2    C514210   0.543   4.261  11.706  0.0987 -0.7369  0.1031
    4MPD2     H14211   0.704   4.109  12.016  0.2020 -1.3387 -0.2536
    4MPD2    H114212   0.698   4.165  11.588  0.8223 -0.7328 -0.1952
    4MPD2    H214213   0.428   4.382  11.843  3.5473  2.7301  0.3992
    4MPD2    H314214   0.504   4.309  11.618  1.4294 -2.4875 -1.4391
    4MPD2     N14215   0.811   4.019  11.801 -0.2782  0.2728 -0.6203
    4MPD2    H514216   0.821   3.986  11.896 -1.0187 -2.4689 -1.4856
    4MPD2    N114217   0.500   4.252  12.074 -0.4137 -0.4953 -0.1253
    4MPD2    H714218   0.545   4.199  12.147 -1.1588 -1.2083 -0.1894
    5TMC3    C114219   0.349   4.292  12.243  0.1665 -0.2366  0.0489
    5TMC3    C214220   0.221   4.244  12.254 -0.1912  0.7038 -0.4470
    5TMC3    C314221   0.196   4.150  12.351  0.7603 -1.0838  0.8267
    5TMC3    C414222   0.455   4.237  12.320  0.9970  0.7618 -1.3678
    5TMC3    C514223   0.432   4.129  12.406  0.3754  0.5181 -0.2943
    5TMC3    C614224   0.302   4.090  12.426  0.5426 -1.0500  0.0312
    5TMC3     C14225   0.386   4.312  12.105 -0.1994  0.0352  0.3379
    5TMC3     O14226   0.297   4.354  12.032  0.3306  0.1212  0.4780
    5TMC3     H14227   0.134   4.285  12.205 -0.2329  1.5418  0.3440
    5TMC3    H114228   0.553   4.282  12.318  0.1918  2.5385 -1.1151
    5TMC3    H214229   0.277   4.000  12.480  0.7438 -1.2083 -0.1404
    5TMC3    C714230   0.513   4.022  12.351 -0.5136  0.3139 -0.1715
    5TMC3    C814231   0.076   4.078  12.353 -0.3156  0.2038 -0.3571
    5TMC3    O114232   0.588   4.055  12.260 -0.0168  0.5850 -0.0592
    5TMC3    O214233   0.038   4.022  12.455  0.5335  0.0882 -0.0306
    6TMC3    C114234   0.208   3.641  11.020  0.0505  0.7063 -0.5871
    6TMC3    C214235   0.240   3.587  10.903  0.0201  0.1316  0.1186
    6TMC3    C314236   0.333   3.491  10.903 -0.0480 -0.1597  0.1547
    6TMC3    C414237   0.246   3.582  11.137 -0.1072  0.0757 -0.4615
    6TMC3    C514238   0.328   3.477  11.134 -0.8036 -0.1312 -0.2844
    6TMC3    C614239   0.382   3.434  11.017 -0.5676  0.0863 -0.2232
    6TMC3     C14240   0.146   3.767  11.032 -0.5273 -0.2010 -0.4443
    6TMC3     O14241   0.069   3.797  10.942 -0.2470  0.0061  0.3827
    6TMC3     H14242   0.205   3.644  10.817 -0.6590 -0.9526 -0.3318
    6TMC3    H114243   0.227   3.626  11.234  2.3946 -0.0551  0.0918
    6TMC3    H214244   0.471   3.372  11.011 -0.0426  0.8783 -0.5121
    6TMC3    C714245   0.411   3.469  11.252  0.2104 -0.1093  0.1159
    6TMC3    C814246   0.407   3.458  10.784  0.1389  0.6337 -0.3932
    6TMC3    O114247   0.388   3.539  11.351  0.2138 -0.0883 -0.1696
    6TMC3    O214248   0.522   3.418  10.793 -0.6900 -0.0733 -0.4725
    7MPD2     C14249   0.671   3.524  12.302  0.0012  0.4034 -0.3652
    7MPD2    C114250   0.702   3.638  12.232  0.2713 -0.2427 -0.2103
    7MPD2    C214251   0.634   3.760  12.255  0.6595  0.6544 -0.2341
    7MPD2    C314252   0.551   3.772  12.366 -1.0346  0.1610 -0.1328
    7MPD2    C414253   0.521   3.655  12.430  0.9801 -0.2770  0.2063
    7MPD2    C514254   0.564   3.532  12.389  0.0307  0.8362  0.2899
    7MPD2     H14255   0.649   3.851  12.199 -1.2455  1.2400  0.2140
    7MPD2    H114256   0.442   3.656  12.505  0.8538 -1.7898  0.1000
    7MPD2    H214257   0.717   3.429  12.280  0.3854  0.3730  0.5505
    7MPD2    H314258   0.529   3.441  12.434  0.3306  0.6298  0.1072
    7MPD2     N14259   0.492   3.894  12.406 -0.4450 -0.3798  0.4650
    7MPD2    H514260   0.437   3.894  12.491  0.5615 -1.3673  1.1137
    7MPD2    N114261   0.807   3.633  12.129 -0.5880 -0.4564  0.4806
    7MPD2    H714262   0.841   3.543  12.099  2.1017  0.6074  0.3548
    8TMC3    C114263   0.954   3.716  11.963 -0.2213  0.3822  0.5348
    8TMC3    C214264   0.930   3.601  11.891 -0.0901  0.3017 -0.1814
    8TMC3    C314265   0.931   3.605  11.759 -0.3212  0.0043  0.3634
    8TMC3    C414266   0.974   3.837  11.891 -0.0692  0.0218  0.4198
    8TMC3    C514267   0.944   3.838  11.752  0.2398  0.0706  0.1129
    8TMC3    C614268   0.934   3.718  11.680  0.0163  0.2645 -0.4900
    8TMC3     C14269   0.859   3.743  12.069  0.1009 -0.2417  0.2023
    8TMC3     O14270   0.841   3.862  12.084  0.3212 -0.6127  0.2801
    8TMC3     H14271   0.907   3.507  11.941  1.3006 -0.0704 -0.2439
    8TMC3    H114272   0.995   3.931  11.940 -2.8405  0.2529  1.1663
    8TMC3    H214273   0.935   3.720  11.572 -1.6823 -1.2400 -0.5312
    8TMC3    C714274   0.863   3.950  11.701  0.1053 -0.3860  0.4721
    8TMC3    C814275   0.896   3.483  11.698 -0.5375 -0.0820  0.3396
    8TMC3    O114276   0.827   3.948  11.582  0.3750  0.3117 -0.1370
    8TMC3    O214277   0.941   3.382  11.750 -0.5090  0.7697 -0.2970
    9MPD2     C14278   0.808   3.278  11.498  0.5210 -0.1046  0.9530
    9MPD2    C114279   0.760   3.411  11.501 -0.5344 -0.3810 -0.0958
    9MPD2    C214280   0.655   3.435  11.412 -0.3866 -0.1158 -0.0715
    9MPD2    C314281   0.601   3.341  11.329  0.0145  0.1350  0.3454
    9MPD2    C414282   0.665   3.215  11.325 -0.0825 -0.5671 -0.3261
    9MPD2    C514283   0.761   3.180  11.417  0.5311 -0.3874 -0.1249
    9MPD2     H14284   0.619   3.537  11.399 -0.5437 -0.5012 -2.6972
    9MPD2    H114285   0.626   3.138  11.260 -1.1185  0.9671 -1.5219
    9MPD2    H214286   0.887   3.258  11.569  0.7275 -1.2861  0.3871
    9MPD2    H314287   0.804   3.081  11.420 -2.0723 -1.3899  3.7447
    9MPD2     N14288   0.495   3.366  11.243  0.0505 -0.1041  0.4129
    9MPD2    H514289   0.475   3.302  11.167 -1.6644 -0.5251  1.2145
    9MPD2    N114290   0.800   3.503  11.600 -0.1226 -0.3217 -1.0620
    9MPD2    H714291   0.767   3.596  11.575  2.7215  1.5112  2.0031
    1MPD1     C14292   1.518   1.898  16.114  0.4766 -0.1055 -0.7141
    1MPD1    C114293   1.476   1.896  16.244 -0.2646 -0.5323  0.5113
    1MPD1    C214294   1.451   2.013  16.302  0.2333  0.2553  0.3636
    1MPD1    C314295   1.444   2.125  16.225 -0.2254  0.0617  0.8551
    1MPD1    C414296   1.470   2.122  16.092 -0.5288  0.3715 -0.4633
    1MPD1    C514297   1.511   2.001  16.032 -0.4989  0.5461  0.8200
    1MPD1     H14298   1.426   2.005  16.407  1.6823  1.6681  0.8237
    1MPD1    H114299   1.465   2.212  16.032  3.0416  1.6239  1.0947
    1MPD1    H214300   1.568   1.810  16.075  1.6862  0.1115  0.3780
    1MPD1    H314301   1.546   1.999  15.929 -0.7865  1.3782  0.7012
    1MPD1     N14302   1.402   2.240  16.287  0.7828  0.3071 -0.0929
    1MPD1    H514303   1.382   2.310  16.218  0.7129 -1.2796 -1.6782
    1MPD1    N114304   1.495   1.782  16.326 -0.3857 -0.5433  0.5745
    1MPD1    H614305   1.512   1.692  16.282  2.4845 -0.1345  0.8867
    1MPD1    H714306   1.426   1.770  16.399 -0.1019 -0.2590  0.8879
    2TMC2    C114307   1.329   2.608  16.558 -0.3101 -0.6049 -0.3246
    2TMC2    C214308   1.248   2.658  16.458 -0.6368 -0.0495  0.0138
    2TMC2    C314309   1.197   2.577  16.360  0.5663  0.1399  0.9931
    2TMC2    C414310   1.368   2.476  16.547  0.3143  0.8108  0.2236
    2TMC2    C514311   1.327   2.401  16.442 -0.6217  0.3413 -0.5941
    2TMC2    C614312   1.251   2.451  16.341  0.1262  0.5409 -0.1888
    2TMC2     C14313   1.351   2.681  16.678  0.1973 -0.7631 -0.1414
    2TMC2     O14314   1.384   2.798  16.685  0.1498 -0.7824  0.2609
    2TMC2     H14315   1.207   2.758  16.466  0.0260  0.2215  0.0514
    2TMC2    H114316   1.445   2.435  16.611 -2.1396 -0.6817  2.2209
    2TMC2    H214317   1.198   2.386  16.272 -0.6353  2.8086 -1.7279
    2TMC2    C714318   1.397   2.274  16.418 -0.5685  0.5306 -0.4413
    2TMC2    C814319   1.156   2.646  16.241  0.1039  0.6270  0.2744
    2TMC2    O114320   1.442   2.219  16.516 -0.2688  0.2849  0.3840
    2TMC2    O214321   1.193   2.758  16.220  0.2667 -0.2573  0.0190
    2TMC2    O514322   1.063   2.572  16.173  0.2412  0.5408 -0.2637
    2TMC2    H514323   1.046   2.482  16.208 -0.9872  0.7159 -0.3825
    3MPD1     C14324   1.277   2.716  17.182 -0.2383 -0.1187  0.2203
    3MPD1    C114325   1.225   2.597  17.138 -0.4764 -0.0849  0.0815
    3MPD1    C214326   1.237   2.563  17.008  0.0323 -0.1435  0.2273
    3MPD1    C314327   1.307   2.639  16.920 -0.7259 -0.0865  0.1774
    3MPD1    C414328   1.373   2.746  16.969  0.0231 -0.0230  0.3674
    3MPD1    C514329   1.350   2.787  17.091  0.0642  0.1345 -0.2967
    3MPD1     H14330   1.183   2.473  16.978 -0.9976  0.5091  0.1205
    3MPD1    H114331   1.432   2.811  16.906  2.3469 -2.2544  0.2506
    3MPD1    H214332   1.261   2.757  17.281 -1.6358 -0.6422  0.2100
    3MPD1    H314333   1.389   2.884  17.121 -2.3073  1.0108 -0.0951
    3MPD1     N14334   1.310   2.596  16.781  0.1062 -0.9415 -0.5773
    3MPD1    H514335   1.265   2.508  16.759 -0.3367 -1.4238  2.2794
    3MPD1    N114336   1.143   2.531  17.225  0.4602 -0.0060  0.0781
    3MPD1    H614337   1.165   2.432  17.217 -0.8642 -0.3349  0.4448
    3MPD1    H714338   1.173   2.560  17.317 -1.5690  0.1622  0.6832
    1TMC1    C114339   3.043   1.349  13.061 -0.1715  0.4006  0.4426
    1TMC1    C214340   3.047   1.392  13.194  0.2703  0.4608  0.5200
    1TMC1    C314341   2.948   1.378  13.279  0.5622 -0.0861 -0.3461
    1TMC1    C414342   2.931   1.281  13.025  0.4138  0.2323 -0.5479
    1TMC1    C514343   2.838   1.258  13.113  0.1674  0.2515 -0.8709
    1TMC1    C614344   2.842   1.302  13.246  0.4338 -0.1772  0.6003
    1TMC1     C14345   3.159   1.369  12.970 -0.8910  0.2616  0.2658
    1TMC1     O14346   3.138   1.373  12.850 -0.2180  0.4950 -0.2941
    1TMC1     H14347   3.115   1.471  13.225  3.4582 -2.3566  0.7186
    1TMC1    H114348   2.917   1.239  12.926  2.1419 -1.6202 -0.0095
    1TMC1    H214349   2.754   1.302  13.310 -0.5973 -1.4736 -0.8032
    1TMC1    C714350   2.724   1.189  13.059  0.2888 -0.1625  0.0551
    1TMC1    C814351   2.948   1.412  13.419 -0.3151  0.2365 -0.3753
    1TMC1    O114352   2.684   1.223  12.950 -0.2362  0.4718 -0.1581
    1TMC1    O214353   2.980   1.523  13.455 -0.1000 -1.1574 -0.0083
    1TMC1    O314354   2.653   1.135  13.162  0.9502  0.5357 -0.3545
    1TMC1    H314355   2.700   1.104  13.243  0.6907 -0.0917 -0.4425
    1TMC1    O514356   2.912   1.297  13.487  0.2222  0.1382  0.1294
    1TMC1    H514357   2.930   1.217  13.433  0.9194  0.3007  0.1218
    2MPD2     C14358   3.405   1.489  12.895 -0.1086 -0.1812  0.4635
    2MPD2    C114359   3.399   1.412  13.005  0.3146 -0.1328 -0.2142
    2MPD2    C214360   3.505   1.400  13.094  0.7392 -0.6820  0.4957
    2MPD2    C314361   3.624   1.467  13.073  0.0672  0.4004  0.8785
    2MPD2    C414362   3.629   1.554  12.966 -0.3640 -0.2255 -0.3656
    2MPD2    C514363   3.524   1.554  12.877 -0.5908 -0.6496  0.0179
    2MPD2     H14364   3.503   1.334  13.181  3.8546 -1.3801  0.0304
    2MPD2    H114365   3.722   1.605  12.946  0.2586 -0.4377  1.9971
    2MPD2    H214366   3.325   1.511  12.826  0.1591 -0.4050  0.0806
    2MPD2    H314367   3.529   1.623  12.794 -1.5610 -1.7576 -0.9738
    2MPD2     N14368   3.719   1.453  13.175 -0.9883  0.7508  0.2212
    2MPD2    H514369   3.719   1.373  13.237  0.0780  0.0159 -0.7361
    2MPD2    N114370   3.278   1.359  13.042  0.5256  0.0519 -0.3711
    2MPD2    H714371   3.278   1.321  13.136 -0.8386  5.2332  1.7199
    3TCq1    O114372   3.966   1.599  13.740 -0.1049  0.0970 -0.3270
    3TCq1    C114373   3.980   1.678  13.630 -0.2171 -0.4337  0.2471
    3TCq1    O214374   3.952   1.793  13.611 -0.2042 -0.2335  0.9107
    3TCq1    C214375   3.988   1.581  13.523 -0.1931  0.1234  0.4713
    3TCq1    C314376   4.023   1.451  13.557  0.0882 -0.4914  0.6093
    3TCq1    C414377   3.995   1.347  13.466 -1.3316  0.5377  0.2005
    3TCq1    C514378   3.932   1.375  13.343 -0.5884 -0.1134 -0.1996
    3TCq1    C614379   3.901   1.509  13.316 -0.0223  0.4963 -0.3684
    3TCq1    C714380   3.941   1.609  13.397 -0.5442 -0.1794  0.0288
    3TCq1    C814381   3.814   1.548  13.202 -0.1286 -0.3492  0.2766
    3TCq1    O414382   3.813   1.667  13.167 -0.2167  0.0965 -0.4261
    3TCq1    C914383   4.009   1.210  13.500 -0.3549  0.2369 -0.1959
    3TCq1    O514384   4.046   1.184  13.617 -0.1185  0.5936  0.1727
    3TCq1    O614385   3.980   1.123  13.414 -0.2244 -0.5741 -0.6034
    3TCq1    H114386   3.959   1.505  13.713  1.3039 -0.7661  2.3293
    3TCq1    H214387   4.081   1.427  13.645 -1.4962 -0.9083  1.5386
    3TCq1    H314388   3.916   1.289  13.279  0.1622 -0.3223 -0.1067
    3TCq1    H414389   3.897   1.706  13.379 -0.5605 -0.1287  0.3427
    1MPD2     C14390   3.482   2.359  14.547 -0.1333  0.2093  0.0564
    1MPD2    C114391   3.342   2.349  14.543  0.8213  0.9785 -0.0550
    1MPD2    C214392   3.282   2.255  14.623 -0.3101  0.2055  0.7704
    1MPD2    C314393   3.356   2.175  14.716  0.1219  0.4303 -0.4673
    1MPD2    C414394   3.495   2.193  14.723 -0.2198  0.9107  0.1141
    1MPD2    C514395   3.556   2.277  14.628  0.7847  0.5448  0.4125
    1MPD2     H14396   3.176   2.247  14.605 -0.2192  0.6585  0.0364
    1MPD2    H114397   3.556   2.122  14.777  0.7999  0.6955 -1.3281
    1MPD2    H214398   3.543   2.423  14.485 -0.4796  1.4014  0.9475
    1MPD2    H314399   3.663   2.292  14.631  1.0280 -0.9729 -0.5493
    1MPD2     N14400   3.297   2.078  14.793  0.1001 -0.1111 -0.0776
    1MPD2    H514401   3.352   2.028  14.862  0.5166  0.0180 -0.3147
    1MPD2    N114402   3.272   2.428  14.449  0.5480 -0.8260  0.1030
    1MPD2    H714403   3.331   2.489  14.393 -0.6963  0.5807  0.3343
    2TMC3    C114404   3.080   2.541  14.345  0.3590  0.1169  0.3928
    2TMC3    C214405   2.960   2.493  14.309 -1.0298  0.3113  0.8549
    2TMC3    C314406   2.854   2.584  14.326  0.1244 -0.5087  0.5743
    2TMC3    C414407   3.090   2.671  14.394 -0.0126 -0.1712 -0.9659
    2TMC3    C514408   2.981   2.744  14.430  0.2896 -0.2177 -0.7069
    2TMC3    C614409   2.860   2.707  14.392 -0.5557  0.2239 -0.6107
    2TMC3     C14410   3.137   2.441  14.435 -0.1509 -0.1409 -0.0217
    2TMC3     O14411   3.044   2.386  14.497 -0.0423 -0.0799 -0.0007
    2TMC3     H14412   2.956   2.394  14.265  2.2664  0.2737  0.6583
    2TMC3    H114413   3.192   2.704  14.412  0.0872 -0.1182 -1.6231
    2TMC3    H214414   2.778   2.764  14.435 -0.3152  0.7567 -0.8610
    2TMC3    C714415   3.007   2.889  14.461  0.3234 -0.1596  0.3027
    2TMC3    C814416   2.736   2.506  14.356  0.7008  0.4820  0.4776
    2TMC3    O114417   2.930   2.974  14.417 -0.6238 -0.2848 -0.2861
    2TMC3    O214418   2.628   2.568  14.346 -0.4399  0.2125 -0.1519
    3TCq1    O114419   4.087   3.216  14.946 -0.3776  0.6048 -0.4935
    3TCq1    C114420   3.991   3.253  14.866  0.4816  0.0622 -0.6790
    3TCq1    O214421   3.988   3.231  14.744 -0.4844  0.2562 -0.7526
    3TCq1    C214422   3.866   3.238  14.949 -1.0246  0.2081 -0.4567
    3TCq1    C314423   3.848   3.130  15.029 -0.0652 -0.1386  0.7364
    3TCq1    C414424   3.732   3.079  15.067 -0.0625  0.2404 -0.2211
    3TCq1    C514425   3.622   3.127  15.015 -0.5780  0.0512  0.1870
    3TCq1    C614426   3.633   3.223  14.918  0.5266 -1.1247  0.5937
    3TCq1    C714427   3.755   3.283  14.883 -0.1482  0.0019 -0.0099
    3TCq1    C814428   3.520   3.257  14.836  0.1921  0.3990  0.6874
    3TCq1    O414429   3.526   3.364  14.775 -0.7861 -0.9241 -0.1537
    3TCq1    C914430   3.733   2.962  15.157 -0.6588  0.0349 -0.2918
    3TCq1    O514431   3.846   2.914  15.184  0.1367  0.0073  0.0623
    3TCq1    O614432   3.626   2.946  15.222  0.0771  0.2782  0.2076
    3TCq1    H114433   4.066   3.233  15.041  1.2376 -0.0518 -0.0027
    3TCq1    H214434   3.934   3.094  15.086  0.1354 -2.2570 -0.9254
    3TCq1    H314435   3.531   3.081  15.051 -0.7309  0.8198  0.7797
    3TCq1    H414436   3.762   3.352  14.800 -2.4035 -1.9336 -1.8388
    4MPD2     C14437   3.271   3.274  14.685  0.8095 -0.1059 -0.4863
    4MPD2    C114438   3.326   3.159  14.728  0.3597  0.2533  0.2532
    4MPD2    C214439   3.269   3.046  14.687 -0.5336  0.0492  0.8618
    4MPD2    C314440   3.170   3.043  14.588  0.6859 -0.0419 -0.4722
    4MPD2    C414441   3.108   3.163  14.545 -0.5425 -0.0169  0.4376
    4MPD2    C514442   3.167   3.274  14.597  0.3374  0.3599 -0.4373
    4MPD2     H14443   3.303   2.954  14.733 -1.7496 -0.5615  0.5537
    4MPD2    H114444   3.018   3.161  14.484 -0.0424  1.0550 -0.3223
    4MPD2    H214445   3.313   3.371  14.709  1.5343 -0.6951  0.6622
    4MPD2    H314446   3.128   3.370  14.563  2.7844  1.6824  0.4770
    4MPD2     N14447   3.119   2.915  14.547 -0.2163 -0.1204 -0.0163
    4MPD2    H514448   3.160   2.836  14.597  3.2348  1.3145 -0.5737
    4MPD2    N114449   3.439   3.149  14.814  0.1358  0.1372  0.0088
    4MPD2    H714450   3.463   3.059  14.854 -1.5013  0.5340  1.8489
    5TMC2    C114451   2.898   1.995  14.976 -0.1843 -0.0764 -0.7305
    5TMC2    C214452   2.949   2.048  15.094  0.6442  0.0342  0.5936
    5TMC2    C314453   3.082   2.047  15.120 -0.0860  0.8490 -0.7053
    5TMC2    C414454   2.976   1.953  14.875  0.4017 -0.3238 -0.8387
    5TMC2    C514455   3.115   1.963  14.904 -0.7124 -0.1178  0.2660
    5TMC2    C614456   3.168   2.009  15.018 -0.3706  0.0135  0.5915
    5TMC2     C14457   2.778   2.054  14.919 -0.4791  0.3008 -0.2311
    5TMC2     O14458   2.680   2.057  14.989  0.1978 -0.4971  0.4441
    5TMC2     H14459   2.885   2.082  15.175  0.3162  1.2017 -0.1722
    5TMC2    H114460   2.942   1.897  14.788  1.4031  2.0985 -2.7901
    5TMC2    H214461   3.274   2.030  15.021  0.0670 -2.2084  0.8402
    5TMC2    C714462   3.159   2.046  14.795 -0.2015 -0.0281  0.7081
    5TMC2    C814463   3.133   2.067  15.252 -0.1529  0.2314  0.4501
    5TMC2    O114464   3.068   2.093  14.725 -0.0977  0.1627  0.8325
    5TMC2    O214465   3.247   2.095  15.285 -0.6157  0.2856 -0.0504
    5TMC2    O514466   3.063   1.964  15.313  0.0074 -0.0054 -0.2449
    5TMC2    H514467   3.006   1.905  15.260  1.0069 -1.8908  0.7827
    6MPD2     C14468   2.561   2.338  14.550 -0.0732  0.3546 -0.1218
    6MPD2    C114469   2.694   2.310  14.515  0.2490 -0.3445  0.3453
    6MPD2    C214470   2.761   2.229  14.603  0.4418 -0.7101 -0.0584
    6MPD2    C314471   2.710   2.184  14.721 -0.0710 -0.3502 -0.1126
    6MPD2    C414472   2.580   2.210  14.750 -0.1272 -0.3179 -0.3294
    6MPD2    C514473   2.510   2.281  14.662 -0.1430 -0.0243  0.4099
    6MPD2     H14474   2.868   2.213  14.593  0.8737  3.0680 -1.7422
    6MPD2    H114475   2.539   2.186  14.848 -1.0750 -0.7317 -0.8323
    6MPD2    H214476   2.497   2.416  14.511  0.1772 -0.9581 -3.1246
    6MPD2    H314477   2.414   2.318  14.697 -0.5175 -0.3740 -0.2644
    6MPD2     N14478   2.802   2.111  14.799 -0.4650 -0.5682 -0.1023
    6MPD2    H514479   2.896   2.089  14.766 -0.7280 -0.1083 -1.1795
    6MPD2    N114480   2.771   2.390  14.430 -0.1865  0.1754  0.5525
    6MPD2    H714481   2.872   2.388  14.441 -0.0363 -0.7406 -0.9279
  945NH4     N114482   3.793   1.337  14.242  0.0552  0.0861  0.0856
  945NH4     H214483   3.695   1.306  14.261 -0.2230  1.3614  0.7648
  945NH4     H314484   3.820   1.411  14.310  1.1278 -1.2491  1.1005
  945NH4     H414485   3.801   1.393  14.155 -0.2333 -0.9041 -0.5786
  945NH4     H514486   3.860   1.258  14.253 -0.3011 -0.1816  0.3324
  946SOD     NA14487   1.548   1.836  13.415  0.1755  0.2059 -0.0606
  947SOD     NA14488   0.826   2.774  15.564  0.3052 -0.0800 -0.1491
  948SOD     NA14489   3.104   0.277  11.618  0.2200  0.7060 -0.0189
  949SOD     NA14490   3.977   4.598  14.762 -0.1639  0.1177  0.2325
  950SOD     NA14491   2.980   4.522   4.597  0.3660 -0.0501 -0.0963
  951SOD     NA14492   3.547   0.268   6.837 -0.7010 -0.3335 -0.0962
  952SOD     NA14493   2.699   2.213   8.211  0.0378  0.5757  0.3375
  953SOL     OW14494   0.631   1.252   7.018  0.6010 -0.2219  0.2543
  953SOL    HW114495   0.714   1.282   7.056  1.3053 -1.0316 -0.6266
  953SOL    HW214496   0.641   1.283   6.928  1.2374  3.9913  1.7502
  954SOL     OW14497   4.618   2.168  15.796 -0.1013 -0.3886  0.8321
  954SOL    HW114498   4.701   2.206  15.826 -0.6273  1.8651 -0.5634
  954SOL    HW214499   4.645   2.089  15.749  1.9443  1.5584 -1.2619
  955SOL     OW14500   4.526   4.298  13.063 -0.8155 -0.1887  0.1652
  955SOL    HW114501   4.590   4.351  13.110 -0.7082  0.4303 -0.6918
  955SOL    HW214502   4.478   4.372  13.026 -0.6264  0.9804  2.2990
  956SOL     OW14503   2.019   0.451   1.594 -0.2433  0.1807 -0.2182
  956SOL    HW114504   2.037   0.536   1.632  1.2310 -0.4310  0.4596
  956SOL    HW214505   2.091   0.401   1.633  1.1483  2.8190  0.5860
  957SOL     OW14506   2.266   3.652   0.689  0.0824  0.4218 -0.3508
  957SOL    HW114507   2.311   3.580   0.732  0.2611  0.2814 -0.7731
  957SOL    HW214508   2.343   3.707   0.673  0.5053 -0.1484 -0.2560
  958SOL     OW14509   2.716   3.664   9.688  0.1727 -0.2024 -0.1787
  958SOL    HW114510   2.687   3.634   9.602 -2.5757  0.5766  0.4576
  958SOL    HW214511   2.700   3.759   9.685 -2.3304 -0.6368 -0.7632
  959SOL     OW14512   0.260   1.085   6.717 -0.2769  0.2779  0.1370
  959SOL    HW114513   0.354   1.071   6.727 -0.1994 -1.4853 -3.2156
  959SOL    HW214514   0.250   1.161   6.660  0.8716 -0.5096 -1.0944
  960SOL     OW14515   3.483   3.167  10.433  0.3473 -0.1358  0.1899
  960SOL    HW114516   3.545   3.160  10.506  0.5093 -0.5873  0.0094
  960SOL    HW214517   3.463   3.075  10.420  1.2768 -0.3713  0.3734
  961SOL     OW14518   1.225   1.859   4.676 -0.0871 -0.6029  1.1113
  961SOL    HW114519   1.318   1.873   4.690 -0.1461  0.4600  0.4530
  961SOL    HW214520   1.225   1.764   4.663 -0.0039 -0.7020  1.8053
  962SOL     OW14521   1.700   3.566   5.603 -0.2534 -0.1747 -0.0297
  962SOL    HW114522   1.753   3.497   5.645  1.0771  0.4681 -0.6762
  962SOL    HW214523   1.732   3.581   5.515  0.2543  1.7143  0.4880
  963SOL     OW14524   1.564   1.866   0.837 -0.1975 -0.0305 -0.1651
  963SOL    HW114525   1.502   1.939   0.835 -0.2317 -0.0478  0.2344
  963SOL    HW214526   1.561   1.830   0.926 -0.0739 -0.0457 -0.1670
  964SOL     OW14527   4.085   1.494   9.268 -0.1950 -0.2352 -0.2315
  964SOL    HW114528   4.065   1.418   9.324  4.1077  0.0054  1.6007
  964SOL    HW214529   4.000   1.514   9.230 -0.3700  1.3540  1.0127
  965SOL     OW14530   1.442   3.223   2.443  0.5694 -0.2977 -0.8046
  965SOL    HW114531   1.518   3.172   2.415  1.6564  0.6117  0.4792
  965SOL    HW214532   1.452   3.217   2.538 -0.5979 -0.4447 -0.7025
  966SOL     OW14533   3.312   3.621   5.686 -0.2446 -0.0934  0.3100
  966SOL    HW114534   3.236   3.566   5.702  0.2977 -1.3654 -1.5166
  966SOL    HW214535   3.359   3.617   5.770  2.1579 -0.2490 -1.0419
  967SOL     OW14536   0.250   2.743   6.804 -0.0445  0.5739  0.0873
  967SOL    HW114537   0.327   2.746   6.747  0.0360  2.2820  0.2898
  967SOL    HW214538   0.282   2.682   6.871  1.8787  1.8998  0.3999
  968SOL     OW14539   4.491   0.272   7.258  0.5998 -0.4615  0.7594
  968SOL    HW114540   4.456   0.262   7.347 -0.8649 -0.9305  0.1287
  968SOL    HW214541   4.423   0.333   7.228  0.4669 -1.0545 -0.1147
  969SOL     OW14542   4.535   1.636   5.542 -0.3542 -0.3719 -0.0598
  969SOL    HW114543   4.476   1.627   5.616 -1.5018  2.8064 -0.5904
  969SOL    HW214544   4.577   1.550   5.545 -0.4419 -0.3887  0.6818
  970SOL     OW14545   4.042   0.026   8.790 -0.1102  0.2787  0.5076
  970SOL    HW114546   4.114   0.047   8.732 -0.4196 -0.0560  0.0037
  970SOL    HW214547   4.015   4.682   8.747 -0.5192  1.6042 -1.7283
  971SOL     OW14548   2.305   4.332   8.410 -0.0732  0.0621 -0.6150
  971SOL    HW114549   2.373   4.266   8.395 -0.9188 -1.1121  0.6987
  971SOL    HW214550   2.221   4.285   8.401 -1.1636  1.4046  2.7266
  972SOL     OW14551   2.507   3.445   4.596 -0.0705  0.3996  0.0800
  972SOL    HW114552   2.547   3.386   4.661 -0.6566  0.0207  0.0951
  972SOL    HW214553   2.512   3.390   4.518 -1.4192 -1.1419  1.0786
  973SOL     OW14554   1.935   2.850   4.051  0.1843  0.4483  0.4478
  973SOL    HW114555   1.861   2.819   4.103  2.6637 -2.7270  2.1615
  973SOL    HW214556   1.895   2.882   3.971 -0.7853 -2.2449 -0.1589
  974SOL     OW14557   2.809   2.561   1.436 -1.0450 -0.9225  0.2895
  974SOL    HW114558   2.727   2.606   1.416 -0.9304  0.7806  3.6453
  974SOL    HW214559   2.858   2.640   1.460  1.9341 -2.3358 -1.1143
  975SOL     OW14560   3.676   3.106  10.617 -0.1548  0.3536  0.5501
  975SOL    HW114561   3.655   3.178  10.677 -1.5727 -0.1387  0.6365
  975SOL    HW214562   3.752   3.140  10.568 -0.9989  0.3350 -0.7803
  976SOL     OW14563   3.482   4.043   4.761  0.3369 -0.1681 -0.2673
  976SOL    HW114564   3.473   4.079   4.673 -0.9292 -0.4496 -0.2501
  976SOL    HW214565   3.389   4.023   4.770  0.0912  0.8462 -0.6658
  977SOL     OW14566   3.838   1.629   3.177 -0.1529 -0.6370 -0.0892
  977SOL    HW114567   3.901   1.595   3.114 -1.0444  0.9423 -1.8030
  977SOL    HW214568   3.895   1.656   3.249 -0.3948  1.7121 -0.7865
  978SOL     OW14569   3.173   4.006   4.832 -0.0410  0.0031  0.1362
  978SOL    HW114570   3.127   4.089   4.845  0.0638  0.1586 -0.4839
  978SOL    HW214571   3.137   3.984   4.745 -1.4940  1.9918  0.2290
  979SOL     OW14572   1.467   1.674   7.392  0.1372  0.6334  0.3509
  979SOL    HW114573   1.444   1.758   7.432  0.1194  1.6428 -1.7960
  979SOL    HW214574   1.541   1.642   7.444 -1.1829 -1.6731  0.8012
  980SOL     OW14575   3.505   0.581  11.260 -0.1571 -0.0165  0.8239
  980SOL    HW114576   3.537   0.529  11.333  0.7804  1.1533  1.2467
  980SOL    HW214577   3.525   0.518  11.191  0.7728  2.0837 -0.8367
  981SOL     OW14578   2.215   0.648  11.823  0.4132 -0.0963 -0.0476
  981SOL    HW114579   2.255   0.735  11.836 -1.2240  0.8875 -1.6416
  981SOL    HW214580   2.186   0.665  11.734  0.1703 -1.3840 -0.2173
  982SOL     OW14581   3.919   3.883   7.437 -0.2943 -0.6106  0.1916
  982SOL    HW114582   3.902   3.973   7.410 -1.1101 -0.6256  0.6603
  982SOL    HW214583   3.895   3.831   7.360  1.3161  0.0720 -0.7664
  983SOL     OW14584   1.169   1.727  16.016 -0.1414  0.3999 -0.6897
  983SOL    HW114585   1.262   1.727  15.997 -0.4787 -0.6571 -2.3419
  983SOL    HW214586   1.158   1.821  16.027  0.9174  0.1570  2.5048
  984SOL     OW14587   4.697   0.298   9.478 -0.2728  0.4696 -0.1179
  984SOL    HW114588   4.616   0.298   9.428  0.7261 -0.2262 -1.7231
  984SOL    HW214589   4.693   0.225   9.541 -0.7026 -0.3397 -1.0748
  985SOL     OW14590   3.097   0.952   5.368 -0.0558  0.0361  0.0322
  985SOL    HW114591   3.185   0.924   5.392  0.3566  2.3475  1.2037
  985SOL    HW214592   3.085   1.035   5.414 -1.9810  0.7248 -1.6966
  986SOL     OW14593   2.206   4.435   1.725  0.1374 -0.4401  0.0742
  986SOL    HW114594   2.221   4.396   1.639 -1.6576 -0.6708 -0.1355
  986SOL    HW214595   2.125   4.487   1.717  0.8233  0.5479 -0.4795
  987SOL     OW14596   1.376   4.514   2.723  0.2588  0.7443  0.3090
  987SOL    HW114597   1.393   4.502   2.629 -0.4441 -1.1908  0.4204
  987SOL    HW214598   1.285   4.544   2.721  0.5815  1.6243 -1.4558
  988SOL     OW14599   4.375   3.065   6.437  0.4475  0.6148 -0.1442
  988SOL    HW114600   4.435   3.043   6.366  1.5942 -1.0186  1.3487
  988SOL    HW214601   4.438   3.104   6.497 -1.0291 -2.3226  3.2702
  989SOL     OW14602   4.177   1.736   2.342  0.5744 -0.9564  0.2346
  989SOL    HW114603   4.205   1.806   2.401 -0.4264  1.7675 -2.5461
  989SOL    HW214604   4.082   1.734   2.350  0.5910  0.8075  0.7810
  990SOL     OW14605   1.606   0.293   6.981  0.4798  0.2331 -0.1885
  990SOL    HW114606   1.542   0.325   7.045 -1.5457  4.1939 -4.2001
  990SOL    HW214607   1.689   0.318   7.022  0.3440 -0.2013  0.3480
  991SOL     OW14608   0.473   4.225  13.040 -0.2367 -0.2929 -0.5167
  991SOL    HW114609   0.566   4.209  13.028  0.6914  2.4072  2.9658
  991SOL    HW214610   0.433   4.223  12.953  0.5963 -2.3008 -0.8493
  992SOL     OW14611   0.048   1.546   8.585  0.5258 -0.6515 -0.4130
  992SOL    HW114612   0.040   1.610   8.656 -2.0113 -0.2602 -1.0596
  992SOL    HW214613   4.715   1.482   8.590 -1.0796  1.1598  0.5098
  993SOL     OW14614   3.359   1.850  16.040  0.1589  0.1299 -0.7150
  993SOL    HW114615   3.296   1.878  15.974  0.0888  2.6675  0.4002
  993SOL    HW214616   3.375   1.757  16.024 -0.9952  0.1324 -1.9072
  994SOL     OW14617   1.188   3.685  12.658 -0.5835 -0.1330  0.6489
  994SOL    HW114618   1.259   3.624  12.641 -1.4840 -0.7563 -0.9360
  994SOL    HW214619   1.223   3.760  12.609  0.2312  0.0577  1.5245
  995SOL     OW14620   1.691   3.268   1.809  0.3394  0.0443 -0.3290
  995SOL    HW114621   1.700   3.197   1.746  0.9310 -1.5329  1.5447
  995SOL    HW214622   1.768   3.247   1.862  0.4783 -1.6639 -1.2293
  996SOL     OW14623   4.625   1.939   1.418 -0.7598 -0.3091 -1.0520
  996SOL    HW114624   4.643   1.857   1.373  1.0429  0.0167 -0.9564
  996SOL    HW214625   4.678   1.920   1.496  0.4102 -0.0242 -1.7700
  997SOL     OW14626   2.153   4.334  15.595 -0.7195 -0.4520  0.1260
  997SOL    HW114627   2.115   4.277  15.662  1.9916 -1.2842  0.9437
  997SOL    HW214628   2.233   4.366  15.636  0.2190 -2.1826 -0.3785
  998SOL     OW14629   3.776   1.305   9.676 -0.4163 -0.6093  0.4952
  998SOL    HW114630   3.774   1.387   9.627 -0.7161 -1.8637 -1.5838
  998SOL    HW214631   3.728   1.248   9.616  1.5577 -1.1359 -0.5948
  999SOL     OW14632   4.218   0.224   9.798 -0.2643 -0.0202 -0.9483
  999SOL    HW114633   4.249   0.205   9.710 -1.5523  1.1921 -1.6825
  999SOL    HW214634   4.302   0.232   9.842 -0.5700  1.1559 -0.5693
 1000SOL     OW14635   1.277   0.519   8.905  0.2513 -0.2947 -0.1154
 1000SOL    HW114636   1.349   0.519   8.968 -0.6653  1.4751  0.9236
 1000SOL    HW214637   1.211   0.478   8.961  0.0211 -1.3774 -1.1698
 1001SOL     OW14638   2.346   4.227   0.909  0.7031  0.2874  0.5204
 1001SOL    HW114639   2.276   4.162   0.919 -0.2474  1.3777  1.0094
 1001SOL    HW214640   2.316   4.271   0.829  2.2468  1.7359  0.7583
 1002SOL     OW14641   1.735   4.217   8.347  0.0435  0.1692  0.5349
 1002SOL    HW114642   1.744   4.223   8.442 -0.8391 -1.4747  0.7161
 1002SOL    HW214643   1.655   4.267   8.334 -0.0210  0.4851  2.1447
 1003SOL     OW14644   0.755   2.165   1.113 -0.3074 -0.4337 -0.3441
 1003SOL    HW114645   0.724   2.160   1.204  0.2053 -0.1251 -0.1487
 1003SOL    HW214646   0.686   2.122   1.063  0.2351 -0.0324 -1.4349
 1004SOL     OW14647   3.604   2.306  13.959  0.1423  0.3902  0.1664
 1004SOL    HW114648   3.578   2.240  14.022  0.9060  1.3418  1.4750
 1004SOL    HW214649   3.541   2.284  13.890  2.4941 -0.9646 -1.5817
 1005SOL     OW14650   3.505   1.478   3.005 -0.5369  0.1157  0.3616
 1005SOL    HW114651   3.547   1.401   2.967 -1.1290  0.5413 -1.2042
 1005SOL    HW214652   3.443   1.496   2.934  0.7202  2.5492 -0.1214
 1006SOL     OW14653   1.595   0.001   4.258  0.3944 -0.6082 -0.2245
 1006SOL    HW114654   1.534   0.068   4.289  0.1406 -0.8832 -0.1318
 1006SOL    HW214655   1.660   0.014   4.328  0.3002 -0.8138 -0.0968
 1007SOL     OW14656   0.571   2.314  16.723 -0.0102 -0.0408 -0.0959
 1007SOL    HW114657   0.663   2.288  16.730 -0.3430 -0.5696  2.1533
 1007SOL    HW214658   0.565   2.385  16.787 -2.4641 -1.4942  1.2811
 1008SOL     OW14659   0.520   0.768   5.883 -0.3336  0.3940 -0.0162
 1008SOL    HW114660   0.557   0.851   5.913  0.7774 -0.2106  0.2718
 1008SOL    HW214661   0.470   0.809   5.812 -0.6881 -0.4783 -0.2689
 1009SOL     OW14662   0.836   2.934   4.996  0.6243 -0.3208  0.1853
 1009SOL    HW114663   0.914   2.981   5.025 -0.0702 -0.9007  2.9315
 1009SOL    HW214664   0.868   2.911   4.909 -1.6858  1.2980 -1.0993
 1010SOL     OW14665   1.702   2.679   8.885 -0.0168  0.0546  0.0430
 1010SOL    HW114666   1.739   2.674   8.973  0.1370 -2.1627 -0.1575
 1010SOL    HW214667   1.616   2.715   8.908 -0.7382 -1.6043 -0.0285
 1011SOL     OW14668   2.281   2.714  17.553  0.1497  0.7195 -0.1137
 1011SOL    HW114669   2.201   2.766  17.559 -0.3788 -0.1798  0.6782
 1011SOL    HW214670   2.242   2.662  17.483 -0.1774  1.2212 -0.3076
 1012SOL     OW14671   0.373   2.114   5.605 -0.1493 -0.3573  0.4049
 1012SOL    HW114672   0.317   2.062   5.547 -0.0968 -1.6843  1.5563
 1012SOL    HW214673   0.393   2.057   5.679  0.5776 -0.9245 -0.2256
 1013SOL     OW14674   3.321   0.681   6.910 -0.0375  0.5941 -0.2992
 1013SOL    HW114675   3.376   0.747   6.867  0.9080 -0.7316 -1.1266
 1013SOL    HW214676   3.304   0.616   6.841 -1.0186 -0.6555  1.1338
 1014SOL     OW14677   1.932   0.190   3.806  0.3110 -0.0053 -0.1180
 1014SOL    HW114678   1.974   0.276   3.811  0.5422 -0.1446  0.3030
 1014SOL    HW214679   1.849   0.223   3.772  0.4944  0.1331 -0.4395
 1015SOL     OW14680   3.881   4.664   7.738 -0.7240  0.1902 -0.7809
 1015SOL    HW114681   3.913   4.721   7.807 -2.4693 -1.3919  1.3376
 1015SOL    HW214682   3.960   4.644   7.688  0.6147  1.5107  0.8148
 1016SOL     OW14683   0.982   4.064   9.134  0.5039  0.0882 -0.3617
 1016SOL    HW114684   0.965   3.980   9.178 -0.1384 -0.1143 -0.9962
 1016SOL    HW214685   1.075   4.062   9.114  0.8773 -0.2615  1.3949
 1017SOL     OW14686   1.597   2.170   3.444 -0.3692 -0.5726  0.0704
 1017SOL    HW114687   1.679   2.217   3.428  0.5287 -2.0581  0.3227
 1017SOL    HW214688   1.633   2.081   3.442  2.3042  0.4746  1.0025
 1018SOL     OW14689   3.518   2.030   1.264 -0.3220  0.3712 -0.3544
 1018SOL    HW114690   3.484   2.055   1.178 -0.2979 -0.8281 -0.7019
 1018SOL    HW214691   3.540   1.939   1.244 -1.8859 -0.5007  1.8764
 1019SOL     OW14692   3.814   0.274   1.178  0.5147 -0.3107  0.3260
 1019SOL    HW114693   3.881   0.247   1.241  1.1929 -0.4685 -0.4632
 1019SOL    HW214694   3.848   0.345   1.124  1.0947  1.5191  3.1185
 1020SOL     OW14695   3.044   3.724   7.204 -0.3221  0.0557  0.6655
 1020SOL    HW114696   2.961   3.682   7.183 -0.8212  0.5111  1.7210
 1020SOL    HW214697   3.005   3.780   7.272  1.7242 -0.4595  2.2463
 1021SOL     OW14698   3.113   4.320   4.597 -0.3368  0.5999  0.0098
 1021SOL    HW114699   3.082   4.253   4.658 -0.9817 -1.3598 -2.4557
 1021SOL    HW214700   3.069   4.284   4.520 -1.3594 -0.1770  0.9541
 1022SOL     OW14701   4.290   1.749  10.874 -0.2483  0.4803  0.0870
 1022SOL    HW114702   4.295   1.819  10.809 -0.9996  0.2790 -0.1887
 1022SOL    HW214703   4.198   1.729  10.891 -0.0430 -0.3569  0.2096
 1023SOL     OW14704   2.203   0.966   1.654 -0.1217 -0.0540  0.3837
 1023SOL    HW114705   2.211   0.871   1.657  0.1949  0.0213  1.8305
 1023SOL    HW214706   2.253   0.985   1.575 -0.2775  0.3979  0.3949
 1024SOL     OW14707   3.780   4.531  12.752  0.7408 -0.0634 -0.4284
 1024SOL    HW114708   3.791   4.565  12.663 -3.2261  2.8208  0.1732
 1024SOL    HW214709   3.782   4.612  12.803 -1.8978  0.7976 -1.6758
 1025SOL     OW14710   0.801   2.850  16.932 -0.2691  0.3084 -0.2967
 1025SOL    HW114711   0.728   2.884  16.983 -0.8382 -0.1034 -0.8328
 1025SOL    HW214712   0.751   2.857  16.851 -0.2866 -0.6906 -0.3818
 1026SOL     OW14713   1.069   3.377  13.520 -0.3237 -0.6185 -1.0002
 1026SOL    HW114714   1.079   3.468  13.550  0.0221 -0.2901 -2.1204
 1026SOL    HW214715   1.029   3.397  13.435  0.3770  0.5043 -1.0672
 1027SOL     OW14716   4.444   1.793  16.989 -0.0405  0.3968  0.0544
 1027SOL    HW114717   4.442   1.797  16.894  0.7180 -3.5755 -0.1208
 1027SOL    HW214718   4.461   1.700  16.999 -1.3613  0.2415  0.8441
 1028SOL     OW14719   2.921   4.093  11.149 -0.5062  0.1105  0.4143
 1028SOL    HW114720   2.877   4.178  11.154 -2.7218 -0.9374 -0.9749
 1028SOL    HW214721   2.847   4.042  11.183  0.5082 -0.4714  1.7152
 1029SOL     OW14722   2.307   3.481   3.645 -0.0878  0.4198 -0.0848
 1029SOL    HW114723   2.385   3.502   3.697 -0.1163 -1.8667  0.8609
 1029SOL    HW214724   2.292   3.391   3.672  0.8343  0.3176  0.0973
 1030SOL     OW14725   0.573   2.531   8.404 -0.1181 -0.2642 -0.3001
 1030SOL    HW114726   0.552   2.610   8.454  0.1250  0.2950 -1.0913
 1030SOL    HW214727   0.648   2.504   8.459  1.8058  3.3982 -1.1659
 1031SOL     OW14728   0.446   3.274   5.079  0.1767 -0.4192  0.1524
 1031SOL    HW114729   0.355   3.252   5.060  0.9899 -1.3088 -2.6980
 1031SOL    HW214730   0.454   3.315   5.166  2.4742 -0.6142  0.0308
 1032SOL     OW14731   1.048   2.764   3.661  0.1252 -0.0705  1.0077
 1032SOL    HW114732   1.033   2.674   3.688 -0.6294  0.1421  1.3138
 1032SOL    HW214733   1.107   2.772   3.586 -1.2808  1.5642  0.0814
 1033SOL     OW14734   0.209   3.773   7.953  0.3317 -0.2789  0.7386
 1033SOL    HW114735   0.248   3.689   7.929 -1.0063 -0.7990  0.3860
 1033SOL    HW214736   0.115   3.756   7.940  0.2859 -0.1495  0.9049
 1034SOL     OW14737   1.760   4.328  12.782 -0.2241 -0.1795  0.8454
 1034SOL    HW114738   1.739   4.394  12.716 -1.7090 -2.2736 -0.7754
 1034SOL    HW214739   1.850   4.308  12.759 -1.0686 -1.6924 -1.0752
 1035SOL     OW14740   1.519   1.828  16.880 -0.2998 -0.1531 -0.3123
 1035SOL    HW114741   1.564   1.903  16.921 -1.9121 -1.5324  4.0263
 1035SOL    HW214742   1.449   1.875  16.835 -0.5010 -0.4949 -0.3539
 1036SOL     OW14743   4.555   0.067   4.669 -0.0166 -0.2393  0.2442
 1036SOL    HW114744   4.492   0.093   4.737  0.3097 -2.0581  1.2270
 1036SOL    HW214745   4.632   0.033   4.715 -0.4260 -1.1949  0.2251
 1037SOL     OW14746   1.379   1.641   3.932  0.1464  0.0099  0.3464
 1037SOL    HW114747   1.371   1.567   3.871  1.5132  0.6581 -0.6170
 1037SOL    HW214748   1.411   1.707   3.870  1.3153  0.8722  1.8929
 1038SOL     OW14749   4.126   4.377   2.938 -0.1979 -0.2244  0.2430
 1038SOL    HW114750   4.154   4.468   2.939 -1.2458  0.0795  1.1914
 1038SOL    HW214751   4.158   4.336   2.857 -0.2056 -3.0073  1.6529
 1039SOL     OW14752   3.063   3.447   0.854 -0.8331 -0.1184  0.0494
 1039SOL    HW114753   2.983   3.448   0.905 -0.3934  1.8858  0.7092
 1039SOL    HW214754   3.101   3.372   0.898 -0.8050 -0.6566 -0.8809
 1040SOL     OW14755   3.373   0.233   6.397  0.3742  0.5479  0.0579
 1040SOL    HW114756   3.467   0.239   6.382  0.7306  0.4046  2.4028
 1040SOL    HW214757   3.352   0.145   6.366  1.6447 -0.1802  1.2939
 1041SOL     OW14758   1.185   1.010   5.775 -0.7044 -0.3782  0.3052
 1041SOL    HW114759   1.100   1.009   5.819 -2.0462  1.6294 -2.2482
 1041SOL    HW214760   1.226   0.925   5.793 -0.7997 -0.5540 -0.3237
 1042SOL     OW14761   3.786   2.636  10.127  0.1806 -0.3214 -0.2049
 1042SOL    HW114762   3.763   2.706  10.188  0.3073  0.4637 -1.0546
 1042SOL    HW214763   3.779   2.558  10.182  0.3401  0.4003  0.8502
 1043SOL     OW14764   1.777   3.068   0.434 -0.4737  0.0846  0.7493
 1043SOL    HW114765   1.826   3.005   0.487 -0.3050 -0.3939  0.0082
 1043SOL    HW214766   1.688   3.039   0.450  0.1416 -0.8644  2.4982
 1044SOL     OW14767   1.997   2.007  14.363 -0.0359  0.4770 -0.6396
 1044SOL    HW114768   2.059   2.065  14.407  0.8934  1.8416 -3.7625
 1044SOL    HW214769   1.926   2.005  14.426 -0.1864  0.3173 -0.8142
 1045SOL     OW14770   4.229   3.965   6.655 -0.0069 -0.2067  0.2612
 1045SOL    HW114771   4.135   3.948   6.665 -0.4168  0.9383 -1.6154
 1045SOL    HW214772   4.240   4.042   6.709  2.3846 -0.0749 -0.4277
 1046SOL     OW14773   3.331   4.580   3.687  0.1421 -0.3377  0.0951
 1046SOL    HW114774   3.365   4.492   3.669 -0.4306 -0.2439 -1.4095
 1046SOL    HW214775   3.238   4.565   3.673 -0.0353  0.2464  0.6720
 1047SOL     OW14776   1.880   4.025   2.673 -0.2142  0.0833  0.2473
 1047SOL    HW114777   1.975   4.024   2.683 -0.4341 -2.1778  2.1975
 1047SOL    HW214778   1.874   4.020   2.577 -0.9850  1.6687  0.2157
 1048SOL     OW14779   0.322   0.543   5.463  0.9510 -0.3473 -0.1051
 1048SOL    HW114780   0.389   0.566   5.527 -0.2416 -0.5203  1.2194
 1048SOL    HW214781   0.336   0.610   5.396  1.6774  1.1453  1.5592
 1049SOL     OW14782   2.645   2.513  12.002 -0.4845  0.3846 -0.1231
 1049SOL    HW114783   2.643   2.427  11.960  0.0201 -0.3041  1.2478
 1049SOL    HW214784   2.552   2.532  12.012 -1.1385 -2.3486 -0.9242
 1050SOL     OW14785   0.908   1.176  11.459  0.1701  0.5365 -0.0804
 1050SOL    HW114786   0.935   1.086  11.444 -0.9391  0.1601  0.1823
 1050SOL    HW214787   0.902   1.179  11.555 -0.7957  0.9398 -0.1576
 1051SOL     OW14788   0.163   2.467  17.390 -0.1313 -0.2326  0.0646
 1051SOL    HW114789   0.096   2.530  17.414  0.9436  0.6619  0.7030
 1051SOL    HW214790   0.237   2.526  17.375 -1.0568  0.1569 -2.8761
 1052SOL     OW14791   3.249   0.103   2.754 -0.1879  0.8141 -0.1871
 1052SOL    HW114792   3.198   0.141   2.682 -1.1071  0.3540  0.2182
 1052SOL    HW214793   3.185   0.037   2.781  1.0674  0.1579  1.1711
 1053SOL     OW14794   3.603   3.749   5.926  0.0169  0.2054  0.4570
 1053SOL    HW114795   3.693   3.718   5.941  0.3922 -0.7402 -3.5868
 1053SOL    HW214796   3.613   3.821   5.863 -1.4337  2.2352  2.5889
 1054SOL     OW14797   3.135   2.278   6.506 -0.4072  0.2445 -0.1812
 1054SOL    HW114798   3.144   2.332   6.428 -1.2601  2.0584  0.9966
 1054SOL    HW214799   3.206   2.215   6.491  0.3417  1.5242 -1.9187
 1055SOL     OW14800   4.628   1.103  11.043 -0.2950  0.3088  0.5879
 1055SOL    HW114801   4.539   1.117  11.075  1.1910 -0.8029  5.2158
 1055SOL    HW214802   4.665   1.182  11.004 -0.1331 -0.1276 -0.1385
 1056SOL     OW14803   2.316   2.158   1.800  0.0219  0.2119 -0.0022
 1056SOL    HW114804   2.366   2.221   1.852  1.3708  0.7829 -1.9810
 1056SOL    HW214805   2.241   2.130   1.851 -0.8545 -0.3831 -1.6190
 1057SOL     OW14806   1.398   2.016   4.330 -0.1687  0.1618 -0.6628
 1057SOL    HW114807   1.470   2.024   4.268 -0.0567 -0.4108 -0.6050
 1057SOL    HW214808   1.333   1.972   4.276  2.1289 -3.2343 -0.6348
 1058SOL     OW14809   4.195   0.958   5.556 -0.0185 -0.6081 -1.3565
 1058SOL    HW114810   4.112   0.979   5.515 -0.7248  1.2483  0.9776
 1058SOL    HW214811   4.225   0.876   5.518  3.1502 -0.3596  0.6068
 1059SOL     OW14812   1.511   1.515   6.737  0.1520 -0.1480 -0.1291
 1059SOL    HW114813   1.491   1.439   6.683 -0.8569  0.9371 -1.2643
 1059SOL    HW214814   1.428   1.522   6.784  1.4442 -2.5960  2.5485
 1060SOL     OW14815   2.119   3.960   5.748  0.2645 -0.1522 -0.0956
 1060SOL    HW114816   2.066   3.961   5.827 -0.6845 -1.4948 -0.7048
 1060SOL    HW214817   2.091   3.875   5.714 -0.8511  0.1004  0.1852
 1061SOL     OW14818   3.104   0.710   5.713 -0.1268  0.0549  0.1182
 1061SOL    HW114819   3.125   0.632   5.662  0.1368  0.9306 -1.0897
 1061SOL    HW214820   3.196   0.730   5.731 -0.6488  1.2357  1.4741
 1062SOL     OW14821   1.347   0.155   2.378  0.5661 -0.1192 -0.6935
 1062SOL    HW114822   1.307   0.070   2.359  1.1434 -1.0855  2.4406
 1062SOL    HW214823   1.277   0.196   2.428  0.8886  1.3131 -1.4378
 1063SOL     OW14824   1.562   2.903   0.478  0.8654 -0.1284 -0.2264
 1063SOL    HW114825   1.542   2.867   0.392 -0.5800  0.1699 -0.0142
 1063SOL    HW214826   1.509   2.852   0.540  0.8224  0.3986  0.1713
 1064SOL     OW14827   2.065   2.640   1.327  0.8677  0.0286 -0.1155
 1064SOL    HW114828   2.077   2.545   1.324  1.8450  0.1169  0.7563
 1064SOL    HW214829   2.129   2.672   1.391 -0.6339  1.0378  0.8930
 1065SOL     OW14830   4.346   4.584   1.924 -0.1425 -0.5127 -0.0235
 1065SOL    HW114831   4.441   4.589   1.915 -0.0426 -1.7747  0.3750
 1065SOL    HW214832   4.319   4.576   1.832 -1.0795  1.4000  0.0824
 1066SOL     OW14833   4.117   1.968  16.663  0.2130 -0.6949 -0.3459
 1066SOL    HW114834   4.068   2.039  16.622 -0.2970 -0.0603  1.3394
 1066SOL    HW214835   4.125   1.902  16.594  3.0183 -2.6022  1.7999
 1067SOL     OW14836   2.264   0.110   7.524  0.0986  0.0700  0.2108
 1067SOL    HW114837   2.202   0.038   7.537 -1.2859  0.9738 -1.4379
 1067SOL    HW214838   2.327   0.090   7.593  0.9616  1.4828 -0.1680
 1068SOL     OW14839   3.681   3.864   6.883 -0.1480  0.3446 -0.8271
 1068SOL    HW114840   3.630   3.908   6.814  0.2897  0.3476 -1.1485
 1068SOL    HW214841   3.610   3.850   6.945  0.7233 -2.2138 -0.3892
 1069SOL     OW14842   1.135   2.796  13.036 -0.1992  0.2979  0.3650
 1069SOL    HW114843   1.219   2.841  13.042  0.4008 -0.6986 -0.5862
 1069SOL    HW214844   1.076   2.870  13.025 -0.6638  0.3967  3.5231
 1070SOL     OW14845   1.903   0.211   2.974  0.1306 -0.7268  0.0479
 1070SOL    HW114846   1.946   0.217   3.059 -0.5707  0.1379  0.3314
 1070SOL    HW214847   1.809   0.200   2.987  0.2458  1.6140  2.7301
 1071SOL     OW14848   0.542   1.594   5.856  0.8460 -0.1524 -0.1368
 1071SOL    HW114849   0.494   1.525   5.811  1.7513 -0.8452 -0.0524
 1071SOL    HW214850   0.571   1.648   5.782  0.4064  1.4215  0.8358
 1072SOL     OW14851   2.314   0.531   8.189  0.1732 -0.2503 -0.6591
 1072SOL    HW114852   2.368   0.519   8.110  1.2919 -0.7002  0.1843
 1072SOL    HW214853   2.246   0.589   8.155  0.3212 -0.6939 -1.7343
 1073SOL     OW14854   3.389   2.259   9.955  0.0978  0.4946  0.2171
 1073SOL    HW114855   3.376   2.254  10.049  0.6000  0.3524  0.2766
 1073SOL    HW214856   3.302   2.238   9.919  0.3294 -0.7797  0.3722
 1074SOL     OW14857   3.178   1.184  14.022 -0.2516 -0.2173 -0.1394
 1074SOL    HW114858   3.212   1.178  13.933 -0.9216  1.0474 -0.4830
 1074SOL    HW214859   3.202   1.274  14.045 -0.2663 -0.5183  1.0571
 1075SOL     OW14860   1.251   2.086   7.797  0.4642  0.5991  0.5627
 1075SOL    HW114861   1.300   2.146   7.741  0.7114  1.1234  1.3358
 1075SOL    HW214862   1.263   2.133   7.880  2.2127  0.1085  0.5833
 1076SOL     OW14863   2.437   4.185   5.660 -0.3867 -0.1989 -0.1201
 1076SOL    HW114864   2.390   4.263   5.687 -0.9788  0.1891 -2.3399
 1076SOL    HW214865   2.411   4.125   5.731 -0.1742 -0.8714 -0.6074
 1077SOL     OW14866   0.440   0.344   2.491 -0.1823 -0.2962 -0.6624
 1077SOL    HW114867   0.462   0.382   2.576  1.0727 -1.8899 -0.2616
 1077SOL    HW214868   0.433   0.412   2.424 -0.1096  0.8258  0.4822
 1078SOL     OW14869   0.549   2.142   8.998  0.1417  0.2711 -0.5756
 1078SOL    HW114870   0.584   2.062   9.038 -1.5209  0.3314  1.0385
 1078SOL    HW214871   0.572   2.126   8.907 -0.0521  0.5910 -0.6779
 1079SOL     OW14872   2.845   1.353   2.987 -0.2747  0.3353 -0.5444
 1079SOL    HW114873   2.769   1.330   2.934 -2.5041  0.9864  2.3862
 1079SOL    HW214874   2.813   1.431   3.032 -0.9839  0.7552 -1.7661
 1080SOL     OW14875   2.414   1.022  12.592  0.5260  0.2757 -0.3247
 1080SOL    HW114876   2.487   1.060  12.543 -1.0241  1.4787 -1.7195
 1080SOL    HW214877   2.448   0.933  12.593 -0.6880 -0.1799  0.2738
 1081SOL     OW14878   3.971   4.709   1.400 -0.0795  0.2415  0.0976
 1081SOL    HW114879   3.998   4.720   1.491 -1.7980 -1.3651  0.7909
 1081SOL    HW214880   3.992   0.059   1.366  1.5517  0.2725  1.1569
 1082SOL     OW14881   3.212   2.679   9.280  0.3413  0.4844 -0.0011
 1082SOL    HW114882   3.239   2.698   9.370 -0.2510  1.1485  0.0342
 1082SOL    HW214883   3.197   2.768   9.249  2.2842  0.3865 -1.2329
 1083SOL     OW14884   0.302   4.044  13.512 -0.0316 -0.8064 -0.4346
 1083SOL    HW114885   0.273   3.967  13.463 -0.3922 -0.8996 -0.0841
 1083SOL    HW214886   0.279   4.111  13.448 -1.9321 -1.3912 -0.3703
 1084SOL     OW14887   2.548   2.730  15.729  0.1109  0.1358 -0.2641
 1084SOL    HW114888   2.583   2.775  15.805  1.6063  2.2392 -2.2066
 1084SOL    HW214889   2.595   2.781  15.663  0.3846  0.7158  0.3844
 1085SOL     OW14890   3.327   0.784   5.457 -0.0184 -0.0850 -0.0411
 1085SOL    HW114891   3.317   0.786   5.552  0.9672 -2.8168  0.1077
 1085SOL    HW214892   3.283   0.703   5.432 -1.3827  0.5857  0.1379
 1086SOL     OW14893   3.496   3.370  16.154 -0.1324 -0.5578  0.4154
 1086SOL    HW114894   3.530   3.459  16.165 -1.9386 -0.1853  3.0084
 1086SOL    HW214895   3.419   3.375  16.210  0.0300 -1.4508  0.7090
 1087SOL     OW14896   2.558   0.491   8.331  0.2686 -0.1780 -0.3413
 1087SOL    HW114897   2.549   0.545   8.409 -1.3734 -1.9306  0.6930
 1087SOL    HW214898   2.471   0.505   8.294  0.1939 -1.4630 -0.6710
 1088SOL     OW14899   4.168   3.273   4.176 -0.2188  0.0046 -0.8493
 1088SOL    HW114900   4.249   3.237   4.212 -1.6921 -0.9955  1.4617
 1088SOL    HW214901   4.139   3.313   4.258  1.8132  1.2079 -0.7278
 1089SOL     OW14902   3.428   4.620   2.062  0.0721  0.3000  0.0122
 1089SOL    HW114903   3.447   4.581   2.148  0.5764 -0.2368 -0.3410
 1089SOL    HW214904   3.394   4.542   2.020  0.0458  0.5103 -0.3548
 1090SOL     OW14905   2.606   1.810  11.704  0.3973  0.1000 -0.8200
 1090SOL    HW114906   2.699   1.799  11.682  0.8559 -0.3882  1.3504
 1090SOL    HW214907   2.591   1.728  11.751  2.2898  0.0521 -0.2643
 1091SOL     OW14908   4.639   4.159   3.312  0.2606  0.2966 -0.1562
 1091SOL    HW114909   4.554   4.163   3.269 -0.5540 -1.5715  1.2350
 1091SOL    HW214910   4.613   4.180   3.402 -0.5791  0.5848 -0.4607
 1092SOL     OW14911   1.866   4.130   4.925  0.1154 -0.2956 -0.5609
 1092SOL    HW114912   1.932   4.183   4.881  0.5861 -1.3044 -1.0923
 1092SOL    HW214913   1.783   4.165   4.892  2.3031  2.3914 -3.1942
 1093SOL     OW14914   0.096   0.069  12.325 -0.3639  0.0093 -0.1043
 1093SOL    HW114915   0.035   0.081  12.398  1.0890 -0.9489  1.2583
 1093SOL    HW214916   0.148   0.147  12.345  0.7995 -0.3226 -1.8679
 1094SOL     OW14917   3.592   2.604  15.584  0.2264  0.2719 -0.5610
 1094SOL    HW114918   3.621   2.674  15.525  1.0057  0.1436 -0.3340
 1094SOL    HW214919   3.523   2.660  15.618  1.7633  0.9485  1.4731
 1095SOL     OW14920   3.405   1.823   6.487  0.8629 -0.3685 -0.4815
 1095SOL    HW114921   3.482   1.767   6.496  1.8126  1.0102 -0.0061
 1095SOL    HW214922   3.362   1.831   6.572  0.2491  2.0228 -1.0022
 1096SOL     OW14923   3.092   1.904   4.946  0.3729 -0.4015  0.2959
 1096SOL    HW114924   3.068   1.996   4.937 -0.0932 -0.6111 -0.6960
 1096SOL    HW214925   3.184   1.918   4.924  0.6670 -0.4988  1.4631
 1097SOL     OW14926   2.516   4.363   6.039 -0.2327  0.5370 -0.6620
 1097SOL    HW114927   2.526   4.438   6.098  0.9220 -1.9852  2.3401
 1097SOL    HW214928   2.605   4.331   6.025 -0.6567 -1.3494  0.9128
 1098SOL     OW14929   1.687   1.105   1.938  0.1340  0.0932 -0.0365
 1098SOL    HW114930   1.707   1.198   1.943 -0.6606  0.1096  2.6366
 1098SOL    HW214931   1.771   1.063   1.954 -0.0139 -0.7172 -1.3453
 1099SOL     OW14932   0.355   2.098   7.551 -0.5357  0.0389 -0.7639
 1099SOL    HW114933   0.428   2.157   7.567  1.3592 -2.5393  0.1380
 1099SOL    HW214934   0.304   2.109   7.631 -2.1061  1.1465 -1.9005
 1100SOL     OW14935   1.512   0.350   7.897 -0.0497 -0.2423  0.0154
 1100SOL    HW114936   1.490   0.417   7.832  0.1795 -0.7067 -0.5423
 1100SOL    HW214937   1.607   0.361   7.907 -0.0382 -0.5975  0.2998
 1101SOL     OW14938   2.558   2.746  17.553 -1.1003 -0.2962  0.4467
 1101SOL    HW114939   2.584   2.708  17.470 -0.8862 -0.7287  0.7080
 1101SOL    HW214940   2.467   2.776  17.542 -0.5059  0.4267 -2.2675
 1102SOL     OW14941   2.103   4.724   5.834 -0.4655 -0.2187  0.1700
 1102SOL    HW114942   2.123   0.061   5.777  0.4382 -1.1093 -0.6689
 1102SOL    HW214943   2.178   4.730   5.895 -0.7554 -1.2190  0.6205
 1103SOL     OW14944   0.389   3.923   6.614  0.1521 -0.2862 -0.5865
 1103SOL    HW114945   0.447   3.850   6.632  0.8449  0.0426 -1.4835
 1103SOL    HW214946   0.426   3.988   6.673  0.4809 -0.4431 -0.6199
 1104SOL     OW14947   3.867   1.752   2.284  0.0883 -0.2420 -0.7914
 1104SOL    HW114948   3.854   1.847   2.288 -0.1505 -0.2819 -0.6059
 1104SOL    HW214949   3.879   1.746   2.189  0.8984 -0.1500 -0.6912
 1105SOL     OW14950   1.661   3.645   8.853  0.1265  0.7273  0.1108
 1105SOL    HW114951   1.714   3.572   8.886 -1.6806 -0.5840  0.1403
 1105SOL    HW214952   1.692   3.721   8.901  0.8579 -0.3038  1.2710
 1106SOL     OW14953   2.589   1.228   1.500 -0.0669 -0.6878 -0.2439
 1106SOL    HW114954   2.684   1.227   1.491 -0.0518  0.5104 -0.1873
 1106SOL    HW214955   2.568   1.319   1.480  0.1336 -0.6071 -0.0922
 1107SOL     OW14956   1.858   2.818   8.560  0.2516 -0.0749 -0.3223
 1107SOL    HW114957   1.804   2.822   8.482 -1.1780  0.9532  0.7215
 1107SOL    HW214958   1.935   2.794   8.508 -0.0345 -1.2215 -0.2204
 1108SOL     OW14959   0.119   3.772   9.697  0.1609 -0.1348 -0.2180
 1108SOL    HW114960   0.100   3.736   9.784 -0.9382  2.1837  0.5068
 1108SOL    HW214961   0.207   3.809   9.706  1.2418 -3.1622  1.6238
 1109SOL     OW14962   3.577   3.501   3.561 -0.1330 -0.4991 -0.0249
 1109SOL    HW114963   3.621   3.513   3.476 -0.8061  0.2939 -0.2667
 1109SOL    HW214964   3.650   3.518   3.621  0.0534  0.0426 -0.3981
 1110SOL     OW14965   4.324   0.812  13.236  0.3658  0.0828 -0.1509
 1110SOL    HW114966   4.378   0.855  13.303 -0.5294 -1.5885  1.6422
 1110SOL    HW214967   4.388   0.771  13.178  0.2968  2.0095 -1.5763
 1111SOL     OW14968   3.887   3.782  11.697 -0.8456 -0.8080  0.0994
 1111SOL    HW114969   3.902   3.689  11.715 -0.3473 -0.5883  0.8495
 1111SOL    HW214970   3.977   3.815  11.703 -1.2506  0.4688 -0.9685
 1112SOL     OW14971   0.600   2.941  17.074  0.1241 -0.3086  0.2103
 1112SOL    HW114972   0.505   2.932  17.069 -0.2361  2.9871  1.3913
 1112SOL    HW214973   0.600   3.034  17.094  0.1687 -0.6584  1.8841
 1113SOL     OW14974   3.391   3.043   2.508  0.3043 -0.2365  0.1959
 1113SOL    HW114975   3.316   2.989   2.486 -0.4108  0.9483 -0.2989
 1113SOL    HW214976   3.445   3.037   2.430 -1.4291  1.6934 -1.1618
 1114SOL     OW14977   4.619   2.014   2.247 -0.1352  0.1558 -0.4761
 1114SOL    HW114978   4.601   1.926   2.283  2.4871  0.1205  0.7438
 1114SOL    HW214979   4.547   2.014   2.183  0.1555  0.3277 -0.8005
 1115SOL     OW14980   1.405   3.206  14.234 -0.1503 -0.7887 -0.2390
 1115SOL    HW114981   1.317   3.216  14.199 -0.2801  0.5573  0.4761
 1115SOL    HW214982   1.418   3.278  14.296 -0.1470 -1.2522  0.3048
 1116SOL     OW14983   3.832   0.654   9.520  0.3840 -0.4946  0.3069
 1116SOL    HW114984   3.838   0.718   9.590  0.4812 -0.6543  0.4436
 1116SOL    HW214985   3.894   0.587   9.549  0.4523 -0.3715  0.4439
 1117SOL     OW14986   1.581   4.442  15.066 -0.0680  0.2555  0.2482
 1117SOL    HW114987   1.619   4.529  15.059 -3.1212  1.7728  2.4388
 1117SOL    HW214988   1.536   4.458  14.983 -2.0824  1.7465  1.6341
 1118SOL     OW14989   3.059   1.301  16.169  0.0009 -0.0534 -0.2165
 1118SOL    HW114990   2.982   1.259  16.131 -0.4611  0.9603 -0.3953
 1118SOL    HW214991   3.049   1.278  16.261  0.7723 -1.6274 -0.5235
 1119SOL     OW14992   0.349   0.877   3.620  0.0559 -0.6802  0.9905
 1119SOL    HW114993   0.334   0.832   3.703  0.9540 -1.2568  0.8380
 1119SOL    HW214994   0.377   0.960   3.658  0.0300 -0.0472 -0.3544
 1120SOL     OW14995   3.525   0.934   5.377  0.5076 -0.1552  0.3273
 1120SOL    HW114996   3.454   0.877   5.408  1.4022 -0.8168  1.2042
 1120SOL    HW214997   3.570   0.932   5.462  0.7731 -0.5044  0.1796
 1121SOL     OW14998   0.588   1.801   4.680 -0.1598 -0.7725  0.3205
 1121SOL    HW114999   0.532   1.877   4.662  0.4717 -0.5058 -0.5192
 1121SOL    HW215000   0.651   1.853   4.730 -2.2264 -0.3958  2.5457
 1122SOL     OW15001   2.539   1.164   1.237 -0.5039  0.5463  0.7211
 1122SOL    HW115002   2.536   1.184   1.331 -0.6502 -0.5023  0.9436
 1122SOL    HW215003   2.616   1.217   1.219 -0.5562 -0.4198 -2.2175
 1123SOL     OW15004   3.259   0.861   0.343 -0.9320 -0.4411 -0.3394
 1123SOL    HW115005   3.232   0.776   0.310  3.6234 -2.5228  1.3840
 1123SOL    HW215006   3.249   0.905   0.258  2.0851 -2.2545 -1.6256
 1124SOL     OW15007   1.829   0.637  10.487  0.2176 -0.2172 -0.1640
 1124SOL    HW115008   1.773   0.628  10.410 -0.3146 -0.5900  0.2712
 1124SOL    HW215009   1.771   0.684  10.548  0.4448  0.0976 -0.1907
 1125SOL     OW15010   4.171   1.766  16.861 -0.2716  0.3790  0.0871
 1125SOL    HW115011   4.140   1.816  16.786 -2.0594 -0.9909 -0.1016
 1125SOL    HW215012   4.254   1.745  16.817 -0.6604  1.2109 -1.0123
 1126SOL     OW15013   1.398   2.373  14.275 -0.0940  0.1893  0.5297
 1126SOL    HW115014   1.327   2.437  14.274  1.4700  1.9365 -0.1881
 1126SOL    HW215015   1.473   2.422  14.240 -0.8909  0.8245 -0.2980
 1127SOL     OW15016   2.057   1.438   4.896 -0.2036 -0.1024  0.0857
 1127SOL    HW115017   2.150   1.458   4.891 -0.1140 -1.0709 -2.1857
 1127SOL    HW215018   2.037   1.465   4.807 -1.3858  1.4784  0.8294
 1128SOL     OW15019   3.644   4.064   4.003  0.1609  0.2086 -0.2698
 1128SOL    HW115020   3.573   4.001   3.995 -0.7197  1.3148 -1.2030
 1128SOL    HW215021   3.695   4.021   4.072 -0.5297  1.4766  1.0396
 1129SOL     OW15022   1.656   0.062  11.037  0.0533 -0.5040  0.2081
 1129SOL    HW115023   1.577   0.073  11.088 -0.1109  0.7700 -0.3242
 1129SOL    HW215024   1.669   0.149  10.999  0.3496 -0.6940 -0.1303
 1130SOL     OW15025   3.191   2.184   1.526  0.2767 -0.2181  0.0858
 1130SOL    HW115026   3.176   2.115   1.590  2.2833 -0.8571 -0.1377
 1130SOL    HW215027   3.272   2.217   1.563 -0.1314 -1.1779  1.8245
 1131SOL     OW15028   4.694   4.319   8.919 -0.1280  0.4356  0.3591
 1131SOL    HW115029   4.625   4.263   8.885 -0.6102 -0.8169  3.4612
 1131SOL    HW215030   0.002   4.341   8.837  0.7762  0.4262  0.8495
 1132SOL     OW15031   3.731   0.932   7.258  0.6034  0.2921  0.7568
 1132SOL    HW115032   3.786   0.900   7.330  0.1896  1.7799  1.7327
 1132SOL    HW215033   3.669   0.989   7.304 -0.5084  0.7594 -1.3213
 1133SOL     OW15034   3.426   2.813   3.764 -0.0151  0.1102  0.6012
 1133SOL    HW115035   3.414   2.803   3.669  2.4391 -0.2556  0.3155
 1133SOL    HW215036   3.444   2.722   3.786 -1.3342 -0.6001 -1.2490
 1134SOL     OW15037   0.361   2.618   4.390 -0.1983  0.3772 -0.2898
 1134SOL    HW115038   0.326   2.700   4.357 -2.1560  0.4256  1.9039
 1134SOL    HW215039   0.456   2.629   4.384 -0.3947  1.8663 -0.6133
 1135SOL     OW15040   2.630   4.627   0.717  0.1553  0.1155 -0.5525
 1135SOL    HW115041   2.643   4.704   0.662  0.3141 -1.6078 -2.9152
 1135SOL    HW215042   2.706   4.571   0.701 -1.0084 -1.2906 -1.1170
 1136SOL     OW15043   2.463   1.725   4.838  0.2685  0.2440 -0.1111
 1136SOL    HW115044   2.529   1.736   4.770 -0.7702 -1.7397 -1.4889
 1136SOL    HW215045   2.524   1.682   4.898  0.7281 -0.9811 -1.4622
 1137SOL     OW15046   2.961   3.312   4.594  0.1842  0.1086  0.6883
 1137SOL    HW115047   2.916   3.283   4.515  1.8167 -1.9314  0.5282
 1137SOL    HW215048   2.904   3.270   4.659 -0.5374  2.1401  1.3852
 1138SOL     OW15049   0.649   1.550   2.746 -0.5702 -0.1553  0.0704
 1138SOL    HW115050   0.575   1.509   2.790 -1.2500  1.6788  0.6649
 1138SOL    HW215051   0.684   1.590   2.825  1.5349  0.7410 -1.3018
 1139SOL     OW15052   2.528   0.408   6.700  0.0248  0.0019 -0.1334
 1139SOL    HW115053   2.446   0.383   6.657 -0.3694 -0.4437  0.8883
 1139SOL    HW215054   2.495   0.453   6.777  0.3501  1.9542 -1.1512
 1140SOL     OW15055   2.140   1.790  14.349  0.0066 -0.6084  0.0402
 1140SOL    HW115056   2.090   1.871  14.355  0.6793 -0.2283  0.5827
 1140SOL    HW215057   2.209   1.814  14.288 -0.4980  0.7660  0.0189
 1141SOL     OW15058   2.523   4.594   2.292  0.7016 -0.2555  0.1909
 1141SOL    HW115059   2.501   4.527   2.228 -3.4150  2.0228 -0.8042
 1141SOL    HW215060   2.609   4.570   2.325 -0.4318 -3.1157  1.0112
 1142SOL     OW15061   4.721   1.730   9.024  0.0042 -0.0781 -0.3849
 1142SOL    HW115062   0.029   1.724   9.109 -0.5642  0.6519 -0.0376
 1142SOL    HW215063   4.731   1.637   9.003  2.5155  0.1484 -0.2279
 1143SOL     OW15064   3.423   3.234   3.272  0.0960  0.3635  0.1438
 1143SOL    HW115065   3.426   3.160   3.212  0.1756  1.4643 -1.1979
 1143SOL    HW215066   3.447   3.194   3.356 -2.7813  0.5519  1.0527
 1144SOL     OW15067   0.206   3.349   6.480 -0.0097 -0.1644  0.1006
 1144SOL    HW115068   0.263   3.425   6.465  0.0560  0.0956  1.6921
 1144SOL    HW215069   0.134   3.394   6.525  0.9615  1.0108  0.4839
 1145SOL     OW15070   3.674   3.113  17.470  0.2766  0.2943  0.0760
 1145SOL    HW115071   3.736   3.053  17.428  0.3229 -0.9868  1.9527
 1145SOL    HW215072   3.629   3.171  17.409 -0.3172 -1.0243 -0.7369
 1146SOL     OW15073   3.759   1.904  14.763  0.5225  0.6184  0.3681
 1146SOL    HW115074   3.753   1.827  14.820 -0.1329  0.6590  0.3504
 1146SOL    HW215075   3.708   1.968  14.813  1.1046  1.1816  0.2442
 1147SOL     OW15076   3.618   2.233   0.230 -0.3145 -0.1139  0.0042
 1147SOL    HW115077   3.618   2.153   0.283  0.3429 -0.2149 -0.1490
 1147SOL    HW215078   3.668   2.198   0.157 -1.4448  0.3826 -1.0230
 1148SOL     OW15079   3.144   2.759   3.663 -0.3745 -0.5239  1.1217
 1148SOL    HW115080   3.068   2.745   3.720 -1.2091  0.0799  0.1686
 1148SOL    HW215081   3.217   2.749   3.724  0.3791  0.9427  0.4615
 1149SOL     OW15082   0.911   0.719   3.994 -0.0298  0.8078 -0.4638
 1149SOL    HW115083   0.924   0.813   4.008  0.0313  0.5866  1.0064
 1149SOL    HW215084   0.851   0.718   3.920 -0.8178 -1.7135  0.1864
 1150SOL     OW15085   0.423   3.400  14.382  0.0490  0.7485  0.3892
 1150SOL    HW115086   0.343   3.395  14.434 -1.3809 -1.8321 -2.0568
 1150SOL    HW215087   0.405   3.324  14.327  2.2864  0.3245  0.2105
 1151SOL     OW15088   2.393   4.671   5.799 -0.4443  0.2950  0.2644
 1151SOL    HW115089   2.482   4.694   5.827 -0.9361  3.4407 -0.7638
 1151SOL    HW215090   2.381   4.590   5.848 -0.8047  1.4255  2.0269
 1152SOL     OW15091   4.013   4.646  14.012 -0.1683 -0.0760  0.5196
 1152SOL    HW115092   3.948   4.681  13.950 -0.7279  1.8939  2.2257
 1152SOL    HW215093   3.971   4.563  14.037 -0.3282  0.2563  1.3503
 1153SOL     OW15094   3.937   1.660   6.927  0.4001 -0.2203 -0.1209
 1153SOL    HW115095   3.944   1.654   7.023 -1.6362  0.4842  0.0622
 1153SOL    HW215096   4.026   1.654   6.892  0.7200 -1.0279  0.8111
 1154SOL     OW15097   4.467   2.620   2.379  0.3010 -0.5435 -0.2403
 1154SOL    HW115098   4.474   2.712   2.404  3.5424 -0.6625 -0.6577
 1154SOL    HW215099   4.546   2.611   2.325 -0.6190  1.2229 -1.8734
 1155SOL     OW15100   2.983   4.148   2.090 -0.5230 -0.5507  0.7813
 1155SOL    HW115101   3.030   4.228   2.114  1.8329 -1.4865 -0.7008
 1155SOL    HW215102   2.910   4.148   2.152 -1.3722  0.6473 -0.2070
 1156SOL     OW15103   0.497   4.114  16.765 -0.0507 -0.4216  0.1428
 1156SOL    HW115104   0.528   4.024  16.758  0.6615 -0.0049 -1.9361
 1156SOL    HW215105   0.411   4.107  16.807 -0.0138  1.9209  0.6081
 1157SOL     OW15106   2.974   0.428   3.605 -0.2431 -0.2819  0.1081
 1157SOL    HW115107   2.929   0.388   3.530 -0.8624 -2.2238  1.5259
 1157SOL    HW215108   3.051   0.463   3.561 -1.2322  1.5633 -0.1646
 1158SOL     OW15109   4.507   0.872   9.458 -0.0401 -0.0357 -0.1068
 1158SOL    HW115110   4.565   0.831   9.394  0.8710  0.9821  0.0702
 1158SOL    HW215111   4.477   0.942   9.400 -1.8087  0.9839  2.0588
 1159SOL     OW15112   2.816   1.106  15.485  0.4506  0.3301 -0.2726
 1159SOL    HW115113   2.724   1.104  15.458  0.5959  0.7333 -0.7789
 1159SOL    HW215114   2.804   1.148  15.570  2.5582 -1.5883  0.9818
 1160SOL     OW15115   2.316   3.303   8.790 -0.5969 -0.1712  0.0533
 1160SOL    HW115116   2.279   3.250   8.720  0.9934  1.1814 -1.7937
 1160SOL    HW215117   2.407   3.274   8.786 -0.3548  0.6057 -0.2009
 1161SOL     OW15118   4.067   3.287   2.747 -0.4295  0.3069 -0.8289
 1161SOL    HW115119   4.004   3.306   2.677  1.2556  0.7732 -2.2205
 1161SOL    HW215120   4.145   3.268   2.695 -0.1425 -0.2735 -0.1935
 1162SOL     OW15121   1.768   3.125   9.269 -0.4005 -0.0068 -0.3787
 1162SOL    HW115122   1.823   3.203   9.272 -1.6976  0.9022 -0.7240
 1162SOL    HW215123   1.683   3.146   9.231 -0.4641  0.4981  0.0347
 1163SOL     OW15124   4.031   3.671  10.608 -0.3946 -0.0738 -0.1280
 1163SOL    HW115125   3.969   3.611  10.648 -0.6475 -0.4002 -1.0114
 1163SOL    HW215126   4.026   3.748  10.665 -1.0234  1.2789 -2.0449
 1164SOL     OW15127   3.713   3.246   4.562 -0.4823 -0.6821 -0.6325
 1164SOL    HW115128   3.740   3.316   4.622  2.5575 -2.3925 -0.0110
 1164SOL    HW215129   3.624   3.229   4.592 -0.6488  2.0342  0.4312
 1165SOL     OW15130   2.037   3.960   9.425 -0.0405 -0.5673  0.1925
 1165SOL    HW115131   2.073   4.036   9.379  0.5716 -1.3652 -0.6452
 1165SOL    HW215132   2.073   3.982   9.511 -3.3841  0.8199  1.2400
 1166SOL     OW15133   4.197   2.640   8.354  0.2876 -0.0255  0.1433
 1166SOL    HW115134   4.238   2.718   8.393  1.4314 -0.7941  0.4680
 1166SOL    HW215135   4.214   2.570   8.417 -1.3183 -1.6402 -1.2586
 1167SOL     OW15136   0.661   4.046   6.913  0.1651 -0.5602  0.2374
 1167SOL    HW115137   0.580   3.995   6.906  1.5972 -2.6378 -1.4575
 1167SOL    HW215138   0.632   4.113   6.975 -3.9882  0.1547 -2.4731
 1168SOL     OW15139   4.202   1.508  10.696 -0.0417  0.3992 -0.0293
 1168SOL    HW115140   4.106   1.509  10.697 -0.0351 -0.3662  1.7363
 1168SOL    HW215141   4.214   1.522  10.790  0.7878  1.9559 -0.3794
 1169SOL     OW15142   1.618   3.886  12.844  0.0506  0.0259 -0.2526
 1169SOL    HW115143   1.588   3.974  12.824  0.0730  0.0045 -0.3815
 1169SOL    HW215144   1.668   3.881  12.763 -0.2235  0.1838 -0.4328
 1170SOL     OW15145   4.136   3.889  14.681 -0.2089 -0.2393  0.4463
 1170SOL    HW115146   4.212   3.865  14.629 -0.4208  0.7626 -0.3486
 1170SOL    HW215147   4.173   3.869  14.767 -1.7870 -0.5974  1.0550
 1171SOL     OW15148   2.679   3.948   5.037  0.8198  0.1328  0.0401
 1171SOL    HW115149   2.584   3.954   5.029  0.6094 -1.0382  1.7886
 1171SOL    HW215150   2.687   3.916   5.127  3.4206 -0.3195 -0.3477
 1172SOL     OW15151   3.387   3.257  10.201 -0.0852 -0.8111  0.2294
 1172SOL    HW115152   3.414   3.252  10.293 -0.7966  1.6873  0.5696
 1172SOL    HW215153   3.467   3.295  10.165 -0.5426 -1.0322 -0.9921
 1173SOL     OW15154   3.642   4.115   4.513  0.8875 -0.2589  0.0399
 1173SOL    HW115155   3.678   4.158   4.591  0.0994 -0.9545  0.7813
 1173SOL    HW215156   3.552   4.148   4.513  1.9607  2.6855 -0.4748
 1174SOL     OW15157   3.617   2.500   5.694  0.6503 -0.1858 -0.1334
 1174SOL    HW115158   3.627   2.412   5.730  0.1331  1.0270  2.9109
 1174SOL    HW215159   3.586   2.554   5.766 -1.2655 -1.9263  0.3361
 1175SOL     OW15160   3.186   1.050   8.023  0.1527 -0.7121  0.0975
 1175SOL    HW115161   3.115   1.104   8.059  0.0197 -1.0195  0.2942
 1175SOL    HW215162   3.243   1.038   8.099  0.8279  0.7878 -0.1808
 1176SOL     OW15163   3.254   3.035  10.078 -0.0552 -0.1586  0.5660
 1176SOL    HW115164   3.286   3.066   9.993 -1.4483 -1.4056 -0.4102
 1176SOL    HW215165   3.307   3.095  10.130  1.9831 -2.5929  1.2753
 1177SOL     OW15166   2.155   0.839   9.010  0.5855 -0.2899 -0.0807
 1177SOL    HW115167   2.177   0.910   9.069 -0.0910 -1.8034  2.0297
 1177SOL    HW215168   2.078   0.809   9.059 -0.2373  2.1292  0.1072
 1178SOL     OW15169   2.928   2.992   1.912  0.2047 -0.1619 -0.4272
 1178SOL    HW115170   2.949   3.084   1.897 -1.8970  0.5588  1.0865
 1178SOL    HW215171   2.979   2.948   1.844  0.3108 -0.5049 -0.1237
 1179SOL     OW15172   3.013   1.454   4.276  0.1194 -0.7994  0.0224
 1179SOL    HW115173   3.048   1.387   4.334 -1.7487 -0.9725  0.9478
 1179SOL    HW215174   3.085   1.517   4.283 -0.4363 -0.2342  0.6389
 1180SOL     OW15175   4.703   3.670   4.189  0.4555  0.0347  0.0077
 1180SOL    HW115176   4.706   3.580   4.157 -2.8381 -0.4298  0.9620
 1180SOL    HW215177   0.033   3.671   4.257  1.2787  1.5641 -0.8225
 1181SOL     OW15178   2.355   2.365   5.038 -0.2667 -0.2170  0.9691
 1181SOL    HW115179   2.314   2.379   5.124 -1.0995  1.8097  0.2524
 1181SOL    HW215180   2.432   2.314   5.060 -0.3697 -0.6098  0.4175
 1182SOL     OW15181   1.836   0.358   3.449 -0.0220  0.3206 -0.6328
 1182SOL    HW115182   1.808   0.277   3.491 -1.0792  0.5076 -0.9746
 1182SOL    HW215183   1.930   0.341   3.449  0.1067  1.0350 -0.2013
 1183SOL     OW15184   3.352   0.811   1.347  0.3516 -0.2663  0.0755
 1183SOL    HW115185   3.443   0.789   1.327  1.5507  2.6523  2.4537
 1183SOL    HW215186   3.371   0.903   1.366 -1.2541  0.1017 -0.0987
 1184SOL     OW15187   3.999   3.061   4.089 -0.0856 -0.5749 -0.7185
 1184SOL    HW115188   4.035   3.018   4.167 -1.3881 -1.8100 -0.8056
 1184SOL    HW215189   4.045   3.145   4.099  0.1355 -0.6698 -0.9336
 1185SOL     OW15190   3.496   1.387   1.428 -0.1951 -0.5345 -1.1079
 1185SOL    HW115191   3.566   1.429   1.479 -2.3495 -0.7124  1.9382
 1185SOL    HW215192   3.525   1.404   1.338  2.2488  0.8598 -0.0618
 1186SOL     OW15193   3.238   2.100   8.124 -0.5478  0.0075  0.6266
 1186SOL    HW115194   3.238   2.116   8.030  2.8939 -0.2174  0.5940
 1186SOL    HW215195   3.156   2.055   8.147 -1.9508  1.3941 -1.5970
 1187SOL     OW15196   0.634   3.726  15.671 -0.9451  0.0812  0.5256
 1187SOL    HW115197   0.592   3.738  15.586  0.4134 -1.3416 -0.3712
 1187SOL    HW215198   0.564   3.742  15.734  0.4678  0.4189  2.0077
 1188SOL     OW15199   3.242   3.701   4.634  0.2552 -0.3321 -0.0797
 1188SOL    HW115200   3.252   3.610   4.605 -0.7502 -0.8514  1.2363
 1188SOL    HW215201   3.273   3.700   4.724  0.0385 -1.6806 -0.0250
 1189SOL     OW15202   4.465   3.011   5.780 -0.2402 -0.2743  0.5681
 1189SOL    HW115203   4.494   2.951   5.711  0.2813  1.8538 -1.0509
 1189SOL    HW215204   4.546   3.049   5.815  1.7349 -1.6158 -2.5523
 1190SOL     OW15205   1.615   2.929   0.995 -0.1095 -0.1876 -0.2962
 1190SOL    HW115206   1.628   2.888   1.080  1.6268 -0.1966 -0.5700
 1190SOL    HW215207   1.615   2.849   0.943  0.5744 -0.5840  0.3118
 1191SOL     OW15208   2.922   3.448   3.160 -0.0328 -0.2532  0.3191
 1191SOL    HW115209   2.931   3.543   3.165 -0.0205 -0.2556  0.3460
 1191SOL    HW215210   3.014   3.424   3.147  0.5531  1.9605  0.4522
 1192SOL     OW15211   2.122   2.621   6.292 -0.1355  0.0511 -0.0546
 1192SOL    HW115212   2.121   2.571   6.373 -0.1940 -0.0450 -0.1150
 1192SOL    HW215213   2.043   2.599   6.243  0.8700 -1.2148 -1.1128
 1193SOL     OW15214   2.999   4.426   1.476 -0.5180  0.0695 -0.7245
 1193SOL    HW115215   2.945   4.350   1.455 -0.6424 -0.1598  0.4125
 1193SOL    HW215216   2.968   4.490   1.413  0.5801  0.5713 -0.7616
 1194SOL     OW15217   0.451   2.588   2.411 -0.2335 -0.4566 -0.3676
 1194SOL    HW115218   0.515   2.531   2.367 -0.6615 -0.5063 -0.9215
 1194SOL    HW215219   0.399   2.625   2.340 -2.8212 -1.7254  0.8582
 1195SOL     OW15220   3.234   3.441   2.634  0.1914 -0.0035 -0.0671
 1195SOL    HW115221   3.326   3.439   2.606  0.0828  0.7452 -0.4598
 1195SOL    HW215222   3.193   3.511   2.583 -0.2185 -0.9858 -1.0735
 1196SOL     OW15223   1.361   4.362   1.480  0.4893 -0.1253  0.4520
 1196SOL    HW115224   1.426   4.337   1.546  0.1795  0.8286  1.1254
 1196SOL    HW215225   1.331   4.284   1.434  2.7325 -0.1110 -1.0178
 1197SOL     OW15226   4.491   3.417   7.931  0.5479 -0.3622  0.1415
 1197SOL    HW115227   4.460   3.426   7.841  0.8048 -0.1786  0.0713
 1197SOL    HW215228   4.494   3.507   7.965 -2.7141 -0.0278 -0.4930
 1198SOL     OW15229   0.535   3.915   2.320  0.1262 -0.1885 -0.4276
 1198SOL    HW115230   0.518   3.999   2.364 -0.1452 -0.7287  0.5095
 1198SOL    HW215231   0.473   3.920   2.248 -1.2215 -1.2983  0.6457
 1199SOL     OW15232   0.356   0.145   9.584 -0.3170 -0.1250 -0.2437
 1199SOL    HW115233   0.310   0.164   9.502  0.1575  0.7346 -0.3064
 1199SOL    HW215234   0.445   0.174   9.567 -0.7445  3.2156  3.2630
 1200SOL     OW15235   1.284   4.158  12.470 -0.6956  0.1972  0.2612
 1200SOL    HW115236   1.352   4.226  12.467 -1.3959  0.8879 -0.0288
 1200SOL    HW215237   1.210   4.218  12.467 -0.4588  0.5727  2.2210
 1201SOL     OW15238   3.086   4.237   3.049 -0.0670 -0.2918  0.0288
 1201SOL    HW115239   3.116   4.166   2.991  1.9614  0.2541  0.3930
 1201SOL    HW215240   3.160   4.241   3.110 -2.6173  1.4005  2.9846
 1202SOL     OW15241   0.389   4.119   3.690  0.1086 -0.3500 -0.1293
 1202SOL    HW115242   0.393   4.208   3.725  1.8538 -0.8855  1.0212
 1202SOL    HW215243   0.444   4.077   3.756 -1.9123 -1.4048  0.8768
 1203SOL     OW15244   1.113   3.498   9.632 -0.0577  0.5799 -0.3830
 1203SOL    HW115245   1.078   3.461   9.713 -1.7278  0.2366 -1.2684
 1203SOL    HW215246   1.138   3.412   9.597 -0.9484 -0.0133  0.4665
 1204SOL     OW15247   1.162   0.944   4.122  0.8974 -0.1402  0.1836
 1204SOL    HW115248   1.080   0.965   4.076  0.4387  0.4258  1.2489
 1204SOL    HW215249   1.124   0.929   4.209  0.5197  2.8487  0.5282
 1205SOL     OW15250   1.430   2.825   7.379  0.8047  0.0842  0.1909
 1205SOL    HW115251   1.441   2.754   7.316  2.5156  0.4027  0.1341
 1205SOL    HW215252   1.437   2.896   7.316  0.0076 -0.7466 -0.8245
 1206SOL     OW15253   0.041   4.468   6.048  0.2346 -0.1145 -0.1653
 1206SOL    HW115254   0.021   4.427   5.964  0.5529  0.2865 -0.4345
 1206SOL    HW215255   0.101   4.403   6.083  0.0535 -0.4154 -0.4141
 1207SOL     OW15256   3.554   2.857   6.695 -0.4345  0.4867  0.5419
 1207SOL    HW115257   3.466   2.828   6.669  0.1825  0.8163 -1.9792
 1207SOL    HW215258   3.596   2.843   6.610 -1.6199  0.7575 -0.0884
 1208SOL     OW15259   2.482   2.073   6.848  0.2798  0.7546  0.4430
 1208SOL    HW115260   2.435   2.014   6.789 -1.0871  0.4368  1.8527
 1208SOL    HW215261   2.564   2.090   6.801  0.1883 -2.5643 -0.9450
 1209SOL     OW15262   1.798   1.613   4.539 -0.1790 -0.0128  0.0159
 1209SOL    HW115263   1.890   1.640   4.535  0.4901 -2.3004  0.0665
 1209SOL    HW215264   1.788   1.619   4.634 -0.2663 -2.2347  0.1499
 1210SOL     OW15265   1.066   1.333   3.497  0.3295 -0.3086 -0.3186
 1210SOL    HW115266   1.092   1.402   3.559  0.4115 -0.6656  0.0425
 1210SOL    HW215267   0.991   1.373   3.453  0.4235  2.0233  1.6071
 1211SOL     OW15268   2.418   0.892   4.860 -0.0756  0.1197 -0.0653
 1211SOL    HW115269   2.355   0.822   4.872  0.3087 -0.5334 -1.7566
 1211SOL    HW215270   2.383   0.960   4.917 -0.3074 -0.8840  0.9568
 1212SOL     OW15271   4.732   3.806   9.458 -0.1326  0.7825 -1.0664
 1212SOL    HW115272   0.038   3.782   9.540  0.0694  2.3262 -0.7144
 1212SOL    HW215273   0.057   3.781   9.390 -0.0300 -0.5431 -0.4849
 1213SOL     OW15274   3.985   0.569   7.997  0.1811 -0.2762 -0.0428
 1213SOL    HW115275   4.068   0.530   8.023  0.7948 -0.9304 -2.8996
 1213SOL    HW215276   3.966   0.525   7.914  0.9393  1.0165 -0.8975
 1214SOL     OW15277   0.647   4.211   3.136 -0.3168  0.2597  1.0890
 1214SOL    HW115278   0.720   4.162   3.099 -1.5189 -0.1512 -0.7415
 1214SOL    HW215279   0.576   4.199   3.073  1.6137 -1.3075 -0.8116
 1215SOL     OW15280   1.424   3.764   6.003 -0.0865  0.0644 -0.2698
 1215SOL    HW115281   1.494   3.796   6.059 -0.4789  0.2136  0.1369
 1215SOL    HW215282   1.476   3.696   5.961 -1.1011 -2.3680  2.4857
 1216SOL     OW15283   4.511   2.723  15.007 -0.1375 -0.7301 -0.3723
 1216SOL    HW115284   4.495   2.689  14.919 -0.6371 -1.6992  0.0886
 1216SOL    HW215285   4.419   2.716  15.032  0.1738  0.2041  1.0192
 1217SOL     OW15286   2.670   0.738   4.496  0.4751  0.4159 -0.4898
 1217SOL    HW115287   2.621   0.658   4.513 -0.3824  1.7911  3.4475
 1217SOL    HW215288   2.751   0.698   4.466  0.1325 -0.9236  0.4093
 1218SOL     OW15289   0.702   0.231   9.961 -0.8485 -0.3590  0.4397
 1218SOL    HW115290   0.653   0.301   9.918 -0.1329  0.5706  1.1369
 1218SOL    HW215291   0.629   0.180   9.996  0.2808 -1.8294  0.6530
 1219SOL     OW15292   3.840   0.825  15.606  0.0147  0.5026  0.0911
 1219SOL    HW115293   3.826   0.756  15.541 -0.5548  0.1029  0.6463
 1219SOL    HW215294   3.808   0.902  15.559  0.7418  1.6786  1.5264
 1220SOL     OW15295   4.319   2.703   2.771 -0.5750  0.4746 -0.4761
 1220SOL    HW115296   4.365   2.782   2.742  1.3794 -0.9791 -1.3548
 1220SOL    HW215297   4.378   2.633   2.742  0.1060  1.6655 -1.9844
 1221SOL     OW15298   3.844   3.864   0.564  0.4780 -0.3680 -0.1942
 1221SOL    HW115299   3.822   3.793   0.504  0.2457 -0.2892 -0.2010
 1221SOL    HW215300   3.872   3.812   0.640  0.3286  1.3680  1.0531
 1222SOL     OW15301   1.908   0.357   4.743 -0.1941 -0.3418 -0.1586
 1222SOL    HW115302   1.912   0.264   4.765 -1.2470 -0.6557 -1.2631
 1222SOL    HW215303   1.838   0.358   4.677  0.7658  1.9125 -1.1521
 1223SOL     OW15304   4.089   4.395  17.279  0.5627 -0.5052  0.0816
 1223SOL    HW115305   4.132   4.428  17.358  1.6615  2.0841 -1.6107
 1223SOL    HW215306   4.128   4.308  17.282  0.7255 -0.4339  0.0008
 1224SOL     OW15307   0.641   4.253  10.175  0.0710  0.0500 -0.0400
 1224SOL    HW115308   0.724   4.301  10.177  0.2775 -0.3975  2.5335
 1224SOL    HW215309   0.669   4.162  10.170  0.6510  0.3446 -2.1172
 1225SOL     OW15310   0.339   0.344  15.432  0.1355 -0.3442 -0.2550
 1225SOL    HW115311   0.395   0.378  15.361  0.7551 -0.0234  0.3929
 1225SOL    HW215312   0.312   0.417  15.487  0.0124  1.6372 -2.9381
 1226SOL     OW15313   1.590   1.004   1.710  0.0761  0.1035 -0.0382
 1226SOL    HW115314   1.624   1.031   1.796 -1.4354  2.4439 -0.1520
 1226SOL    HW215315   1.496   1.002   1.730  0.3293 -0.6348  1.0641
 1227SOL     OW15316   0.615   2.644  13.768  0.1047  0.1310 -0.4422
 1227SOL    HW115317   0.673   2.717  13.749  1.8067 -1.3058 -0.7155
 1227SOL    HW215318   0.690   2.605  13.812  0.0531  1.7464  1.0680
 1228SOL     OW15319   1.844   1.180   8.893 -0.0473 -0.2556  0.0954
 1228SOL    HW115320   1.796   1.104   8.925 -0.9152 -0.0165 -0.6387
 1228SOL    HW215321   1.929   1.136   8.880 -0.0038  0.1125 -0.8511
 1229SOL     OW15322   2.875   4.314   6.785  0.8063 -0.8080 -0.2104
 1229SOL    HW115323   2.792   4.269   6.796  0.8855 -0.7445  0.6741
 1229SOL    HW215324   2.892   4.326   6.692 -0.1130  0.9742 -0.1523
 1230SOL     OW15325   4.141   4.170   7.776 -0.2149  0.0522 -0.2061
 1230SOL    HW115326   4.083   4.246   7.768  0.3095  0.3449 -1.2461
 1230SOL    HW215327   4.220   4.205   7.735 -1.2376  0.6909 -1.6409
 1231SOL     OW15328   0.041   1.178   8.007 -0.1708  0.6337  0.4317
 1231SOL    HW115329   0.048   1.269   7.980  2.4566  0.4289  0.3617
 1231SOL    HW215330   4.728   1.140   7.935  1.9990 -1.3729 -0.0631
 1232SOL     OW15331   1.967   4.233   3.223 -0.0445  0.1034  0.1919
 1232SOL    HW115332   2.023   4.308   3.240 -2.3333  2.0926 -1.1069
 1232SOL    HW215333   1.969   4.196   3.312 -2.9698  1.1345  0.6805
 1233SOL     OW15334   3.069   4.080   8.601 -0.6480 -0.0267 -0.4468
 1233SOL    HW115335   3.073   4.043   8.688 -1.3743 -1.8531 -1.1958
 1233SOL    HW215336   3.142   4.142   8.608 -0.2952 -0.7759  2.1956
 1234SOL     OW15337   4.491   2.685   5.877 -0.0887  0.6098 -0.0383
 1234SOL    HW115338   4.571   2.737   5.874 -0.5647  1.3896  0.7024
 1234SOL    HW215339   4.439   2.730   5.944  0.0502  3.2545 -1.7155
 1235SOL     OW15340   0.388   4.650  10.869 -0.0976 -0.2978  0.3112
 1235SOL    HW115341   0.319   4.588  10.893  1.4881 -1.8954  0.7487
 1235SOL    HW215342   0.421   4.599  10.795 -1.3343 -0.8404  0.1260
 1236SOL     OW15343   4.006   0.234   6.086 -0.1878  0.1315  0.4956
 1236SOL    HW115344   3.924   0.188   6.069 -0.0769 -0.8314  2.6003
 1236SOL    HW215345   4.003   0.238   6.181  0.5063  0.4037  0.5080
 1237SOL     OW15346   3.064   2.455   1.112 -0.0034  0.5718 -0.2495
 1237SOL    HW115347   3.152   2.421   1.121 -1.0973 -2.2123 -0.1013
 1237SOL    HW215348   3.031   2.408   1.036  0.1363 -1.0506  0.6988
 1238SOL     OW15349   0.800   3.202   5.735  0.2284  0.0584 -0.5329
 1238SOL    HW115350   0.758   3.122   5.705  0.9562 -0.8339  0.8194
 1238SOL    HW215351   0.862   3.165   5.799  0.4540 -0.3230 -0.9755
 1239SOL     OW15352   1.570   0.050  12.695  0.3131  0.2351  0.5399
 1239SOL    HW115353   1.490   0.098  12.672 -0.6135 -2.5141 -1.9244
 1239SOL    HW215354   1.587   4.731  12.619  1.1334 -1.2024  1.7744
 1240SOL     OW15355   0.260   0.731   8.632 -0.6478  0.0053 -0.6692
 1240SOL    HW115356   0.317   0.654   8.634  0.1299  0.6162  0.1349
 1240SOL    HW215357   0.288   0.776   8.552 -0.5252  2.1443  0.5781
 1241SOL     OW15358   4.255   0.611   8.671  0.1493 -0.1082  0.7835
 1241SOL    HW115359   4.297   0.684   8.627 -1.1664  0.6141  0.7454
 1241SOL    HW215360   4.221   0.558   8.599 -0.6192  1.1251  0.2375
 1242SOL     OW15361   3.725   4.669   2.453  0.3577 -0.0236  0.2924
 1242SOL    HW115362   3.815   4.644   2.435  0.2123  1.0658 -1.9455
 1242SOL    HW215363   3.739   0.015   2.497  1.1677  0.1780 -0.3571
 1243SOL     OW15364   3.606   2.401  12.400 -0.3513 -0.2797  0.4180
 1243SOL    HW115365   3.609   2.478  12.343 -1.3731 -0.0883  0.6282
 1243SOL    HW215366   3.560   2.347  12.335  0.2595 -0.3226  0.0162
 1244SOL     OW15367   0.635   0.232   5.358  0.2459 -0.0263  0.2318
 1244SOL    HW115368   0.707   0.295   5.366 -0.2710  0.4052  1.4164
 1244SOL    HW215369   0.580   0.279   5.296  2.5239 -0.7002 -2.3106
 1245SOL     OW15370   1.200   0.395   6.030  0.3036 -0.0945 -0.0537
 1245SOL    HW115371   1.167   0.459   6.092 -0.2614  0.9833 -1.4823
 1245SOL    HW215372   1.139   0.403   5.956 -0.0082  0.8964  0.3172
 1246SOL     OW15373   2.553   3.301  11.215 -0.1247  0.0326  0.0063
 1246SOL    HW115374   2.523   3.323  11.303 -1.3919  0.5642 -0.5639
 1246SOL    HW215375   2.646   3.322  11.220 -0.3994  0.7055  2.2596
 1247SOL     OW15376   3.439   2.141  13.070  0.2008 -0.3622  0.4065
 1247SOL    HW115377   3.504   2.193  13.023 -0.4554  0.0417 -0.0525
 1247SOL    HW215378   3.480   2.132  13.157  0.5438  1.8882  0.4806
 1248SOL     OW15379   0.609   1.835   5.343  0.4078 -0.2234  0.0484
 1248SOL    HW115380   0.585   1.870   5.257  1.3162 -0.4335 -0.3031
 1248SOL    HW215381   0.550   1.760   5.351  0.6965 -0.5589 -0.8813
 1249SOL     OW15382   0.815   3.950  10.822 -0.1226  0.2682 -0.3607
 1249SOL    HW115383   0.748   3.906  10.875 -0.2065  1.0975  0.2259
 1249SOL    HW215384   0.849   3.875  10.774  1.5535 -0.7085  2.3635
 1250SOL     OW15385   4.454   0.565   8.034  0.4267  0.0819 -0.4896
 1250SOL    HW115386   4.435   0.651   7.996  1.2966  0.3960 -0.2229
 1250SOL    HW215387   4.524   0.591   8.095 -0.4424  1.8544 -0.2328
 1251SOL     OW15388   2.816   3.482  16.393 -0.0653  0.1262 -0.1687
 1251SOL    HW115389   2.853   3.401  16.428 -0.0580  1.2173  2.3186
 1251SOL    HW215390   2.848   3.537  16.464 -1.0761 -0.3040  0.6154
 1252SOL     OW15391   0.546   3.616   5.010  0.0806 -0.2378  0.0594
 1252SOL    HW115392   0.556   3.693   5.066 -0.9130 -1.0964  1.3923
 1252SOL    HW215393   0.511   3.544   5.061  0.0446  0.5438  1.1322
 1253SOL     OW15394   4.570   2.692   5.199  0.3090 -0.0206 -0.2206
 1253SOL    HW115395   4.652   2.691   5.248  0.7092  0.1160 -0.8754
 1253SOL    HW215396   4.601   2.689   5.108 -0.5956 -1.8563 -0.4678
 1254SOL     OW15397   1.699   4.541   7.581 -0.1019  0.1258 -0.2227
 1254SOL    HW115398   1.770   4.484   7.610 -0.4809  0.0139  0.4722
 1254SOL    HW215399   1.693   4.595   7.659  0.4586  1.2488 -0.9482
 1255SOL     OW15400   3.113   0.499  11.602  0.0114 -0.0495 -0.2210
 1255SOL    HW115401   3.184   0.552  11.638  0.8887 -0.6907 -1.0187
 1255SOL    HW215402   3.081   0.557  11.533  0.9924 -0.8762 -1.3574
 1256SOL     OW15403   1.021   0.048   4.554 -0.1479  0.3672 -0.0682
 1256SOL    HW115404   1.102   0.100   4.556  0.0492  0.0026  1.9261
 1256SOL    HW215405   1.004   0.004   4.637 -0.2606 -3.2679 -1.9906
 1257SOL     OW15406   4.344   0.946   7.175 -0.7223 -0.2962 -0.3486
 1257SOL    HW115407   4.417   0.884   7.172 -0.2673  0.1497  1.4644
 1257SOL    HW215408   4.360   0.989   7.259  0.4259  0.1285 -0.7862
 1258SOL     OW15409   0.372   2.483   7.231 -0.8011  0.2367 -0.4968
 1258SOL    HW115410   0.319   2.525   7.299  0.8661 -0.2908  1.1325
 1258SOL    HW215411   0.443   2.449   7.286  0.0042 -0.3725 -1.9232
 1259SOL     OW15412   4.727   3.140   5.829  0.3895  0.0613 -0.1885
 1259SOL    HW115413   0.011   3.208   5.893 -2.0164  0.9132 -0.2987
 1259SOL    HW215414   4.710   3.192   5.751 -0.1420  0.6423  0.3092
 1260SOL     OW15415   1.094   0.020  12.988  0.7970  0.0446 -0.2241
 1260SOL    HW115416   1.044   0.087  12.941 -0.6823 -1.0159 -0.1757
 1260SOL    HW215417   1.132   0.080  13.052  0.8682 -0.2569  0.0158
 1261SOL     OW15418   2.517   0.642  10.700 -0.5740 -0.2733 -0.6344
 1261SOL    HW115419   2.553   0.554  10.700 -0.8527 -0.3975  1.2063
 1261SOL    HW215420   2.479   0.634  10.612  0.0622 -0.7207 -0.8617
 1262SOL     OW15421   2.100   0.370  13.307  0.1202 -0.4609 -0.3648
 1262SOL    HW115422   2.128   0.340  13.394 -0.4899  1.4292  0.4867
 1262SOL    HW215423   2.007   0.348  13.302 -0.5144  1.5916  2.3224
 1263SOL     OW15424   2.595   1.535   9.480 -0.0632 -0.2371 -0.3751
 1263SOL    HW115425   2.503   1.521   9.502 -0.4121  1.9159 -0.4541
 1263SOL    HW215426   2.592   1.568   9.390  0.6081  0.2326 -0.2278
 1264SOL     OW15427   2.088   3.968   7.298 -0.3176 -0.4011 -0.0689
 1264SOL    HW115428   2.044   3.942   7.217  0.4012 -2.7077  0.2803
 1264SOL    HW215429   2.069   3.903   7.366 -3.0705  2.2698  1.6756
 1265SOL     OW15430   2.178   1.171   5.986 -0.8259  0.2100  0.1196
 1265SOL    HW115431   2.222   1.252   5.959  0.3620 -1.3405 -2.5903
 1265SOL    HW215432   2.121   1.196   6.059 -0.4743 -2.7551  1.4182
 1266SOL     OW15433   2.733   1.223   4.350  0.0554  0.0788 -0.1507
 1266SOL    HW115434   2.692   1.309   4.341  0.8622  0.4283 -0.5045
 1266SOL    HW215435   2.683   1.170   4.412  2.1673 -0.3341  1.2200
 1267SOL     OW15436   0.669   1.884   7.506 -0.0125 -0.0835 -0.3569
 1267SOL    HW115437   0.596   1.863   7.448 -0.1271 -0.4341 -0.0832
 1267SOL    HW215438   0.640   1.839   7.586  2.6377 -0.4853  0.3895
 1268SOL     OW15439   1.514   0.804  17.208  0.1957  0.0393 -0.0425
 1268SOL    HW115440   1.456   0.744  17.256 -2.1227  1.5730 -0.9238
 1268SOL    HW215441   1.579   0.824  17.276 -0.2492 -2.6457  1.1938
 1269SOL     OW15442   1.085   1.926   2.902  0.2125  0.0809 -0.3870
 1269SOL    HW115443   1.081   1.896   2.993  0.1928  0.6029 -0.2130
 1269SOL    HW215444   1.045   2.013   2.907 -0.0435  0.0064 -1.1607
 1270SOL     OW15445   1.832   2.786   4.682 -0.3102  0.6325  0.3268
 1270SOL    HW115446   1.765   2.782   4.614 -2.2917 -1.2111  2.3815
 1270SOL    HW215447   1.838   2.692   4.699  2.2614  1.0744  1.9044
 1271SOL     OW15448   1.592   0.593   6.318 -0.0667  0.1758 -0.2704
 1271SOL    HW115449   1.613   0.651   6.245  1.6227  0.0470  0.1120
 1271SOL    HW215450   1.573   0.512   6.271  1.9543 -0.3497 -0.1771
 1272SOL     OW15451   0.107   2.817  14.904  0.3778 -0.2277 -0.0089
 1272SOL    HW115452   0.030   2.771  14.872 -0.9091  2.1436 -0.3467
 1272SOL    HW215453   0.067   2.871  14.972  0.6092 -0.1825  0.0938
 1273SOL     OW15454   0.190   4.227   5.266  0.4031 -0.2803  0.0867
 1273SOL    HW115455   0.254   4.233   5.337  0.0386  1.8803  0.2632
 1273SOL    HW215456   0.117   4.284   5.294  0.2024 -0.6572  0.3306
 1274SOL     OW15457   3.834   3.074  16.304  0.1494 -0.3763 -0.0396
 1274SOL    HW115458   3.904   3.124  16.264 -1.7553  2.0001 -0.4081
 1274SOL    HW215459   3.847   3.106  16.393  1.0483  0.3465 -0.4387
 1275SOL     OW15460   0.169   1.667  13.033 -0.2725  0.4746  0.5107
 1275SOL    HW115461   0.128   1.617  13.103 -1.5064  0.7397 -0.0207
 1275SOL    HW215462   0.101   1.710  12.980  0.3858 -0.7551 -1.2990
 1276SOL     OW15463   0.364   1.278   0.769  0.7999  0.2799  0.6533
 1276SOL    HW115464   0.384   1.370   0.757 -1.4440  0.8267  1.0304
 1276SOL    HW215465   0.317   1.273   0.853 -0.4933  1.1332 -0.0216
 1277SOL     OW15466   1.996   2.533   7.281  0.2524  0.6259  0.0668
 1277SOL    HW115467   2.024   2.599   7.217  1.8325  0.1973  0.3055
 1277SOL    HW215468   2.059   2.462   7.265 -1.2480 -0.9553  1.0630
 1278SOL     OW15469   1.302   0.076   7.725 -0.2044  0.3476 -0.1493
 1278SOL    HW115470   1.313   0.141   7.794  0.0129 -0.9035  0.9815
 1278SOL    HW215471   1.344   4.735   7.760 -0.8508 -0.0450 -0.2436
 1279SOL     OW15472   2.113   4.133   5.533 -0.2233 -0.7319 -0.2470
 1279SOL    HW115473   2.158   4.073   5.473  0.4457 -1.1396  0.6627
 1279SOL    HW215474   2.107   4.090   5.618  1.2347  0.3627  0.3895
 1280SOL     OW15475   2.650   1.480   5.827 -0.2330  0.0721  0.0544
 1280SOL    HW115476   2.609   1.557   5.869  0.5929  0.5477 -0.0113
 1280SOL    HW215477   2.571   1.435   5.798 -0.1078  0.4423 -0.8768
 1281SOL     OW15478   0.991   1.568   5.450 -0.3139 -0.1338 -0.3936
 1281SOL    HW115479   1.056   1.577   5.520  0.2762 -1.1805 -0.8090
 1281SOL    HW215480   0.944   1.652   5.451 -0.2333 -0.0890 -0.1693
 1282SOL     OW15481   2.374   2.643   6.069 -0.3071  0.0980 -0.7362
 1282SOL    HW115482   2.437   2.610   6.133 -0.6018  0.1264 -0.4300
 1282SOL    HW215483   2.294   2.653   6.121 -1.8672 -2.2749 -2.7042
 1283SOL     OW15484   2.907   3.444   3.751 -0.0256 -0.2613 -0.3490
 1283SOL    HW115485   2.936   3.442   3.660  0.2169 -0.0237 -0.2779
 1283SOL    HW215486   2.832   3.387   3.744  0.0969 -0.4856  0.1403
 1284SOL     OW15487   1.582   1.052  16.254 -0.5827  0.6184  0.3784
 1284SOL    HW115488   1.646   1.100  16.306  1.7566 -1.7700 -0.2729
 1284SOL    HW215489   1.503   1.048  16.306  0.3101 -0.6686  1.6294
 1285SOL     OW15490   2.938   3.243   6.595  0.4428 -0.0658  0.4037
 1285SOL    HW115491   3.030   3.248   6.568  0.8308 -0.7787  1.5837
 1285SOL    HW215492   2.944   3.277   6.684  0.1256  1.6029 -0.2048
 1286SOL     OW15493   2.283   1.706   2.340 -0.0353 -0.3881 -0.3819
 1286SOL    HW115494   2.333   1.716   2.421  0.3690  0.7625 -0.7749
 1286SOL    HW215495   2.333   1.636   2.298  0.2367 -1.4827  1.7713
 1287SOL     OW15496   0.894   3.809   4.927  0.2096  0.0993 -0.1266
 1287SOL    HW115497   0.958   3.748   4.891 -1.2822 -0.4618 -1.7966
 1287SOL    HW215498   0.905   3.800   5.022 -3.9893  1.6139  0.4957
 1288SOL     OW15499   0.577   2.000   2.987  0.3872 -0.1944 -0.0109
 1288SOL    HW115500   0.666   1.986   3.019  0.7134 -0.5593 -1.0743
 1288SOL    HW215501   0.575   2.029   2.896 -1.1979  2.0769  0.7605
 1289SOL     OW15502   1.916   3.970   3.511  0.8763 -0.0076  0.4798
 1289SOL    HW115503   1.932   3.922   3.592 -2.7337  0.1968  1.3532
 1289SOL    HW215504   1.966   3.916   3.451  0.3098  0.0677 -0.0562
 1290SOL     OW15505   1.996   3.836   2.223 -0.0298 -0.1197 -0.8365
 1290SOL    HW115506   2.071   3.886   2.257  1.0904 -0.9164 -2.1594
 1290SOL    HW215507   1.960   3.895   2.157  1.4920 -0.0593 -1.6068
 1291SOL     OW15508   3.597   3.933   1.794 -0.6256  0.0597 -0.0729
 1291SOL    HW115509   3.660   3.907   1.862 -1.1220 -2.2255 -0.4937
 1291SOL    HW215510   3.637   3.885   1.722 -0.3451 -1.1276  0.8725
 1292SOL     OW15511   2.674   0.775   7.328  0.0033  0.1040  0.0928
 1292SOL    HW115512   2.615   0.726   7.270  0.5466  0.3810 -0.7043
 1292SOL    HW215513   2.745   0.784   7.264  0.8372 -1.6576  0.7620
 1293SOL     OW15514   4.165   4.415   7.437  0.6662 -0.2767 -0.3822
 1293SOL    HW115515   4.102   4.349   7.408 -0.2495  1.0385 -1.4003
 1293SOL    HW215516   4.235   4.386   7.379  1.2684 -0.5981  0.5052
 1294SOL     OW15517   2.462   0.235   3.361 -0.2713 -0.4504 -0.5642
 1294SOL    HW115518   2.437   0.143   3.349 -0.8886 -0.1736 -1.4758
 1294SOL    HW215519   2.390   0.274   3.310 -1.6293 -0.9060  1.0050
 1295SOL     OW15520   2.446   2.457   5.623 -0.2789 -0.2110  0.2939
 1295SOL    HW115521   2.390   2.388   5.589 -0.4701  0.1660 -0.1445
 1295SOL    HW215522   2.434   2.532   5.566 -0.9013 -0.8679 -0.4456
 1296SOL     OW15523   2.231   3.943   2.266  0.3382 -0.3740 -0.2137
 1296SOL    HW115524   2.313   3.898   2.247  0.6003 -0.5413  1.3399
 1296SOL    HW215525   2.239   4.025   2.216  1.8645  0.4426  1.3443
 1297SOL     OW15526   0.007   2.020   8.982 -0.4563  0.5166  0.2655
 1297SOL    HW115527   4.724   1.933   8.945  1.5256  0.1134  0.1244
 1297SOL    HW215528   0.091   2.037   8.939 -0.4883  1.9852  0.8271
 1298SOL     OW15529   4.516   2.015   5.449  0.3037 -0.4276 -0.1193
 1298SOL    HW115530   4.598   2.001   5.496  0.2629  1.4121  0.5050
 1298SOL    HW215531   4.478   1.928   5.458  0.3615 -0.3955  0.4072
 1299SOL     OW15532   0.824   2.312   3.857 -0.1695 -0.0186  0.0982
 1299SOL    HW115533   0.800   2.370   3.929 -0.9513 -2.7772  2.0527
 1299SOL    HW215534   0.747   2.257   3.853 -1.2999  1.4885  1.3059
 1300SOL     OW15535   1.136   4.075   5.120 -0.5526 -0.2485 -0.0788
 1300SOL    HW115536   1.131   4.145   5.055  2.6282 -1.2850 -1.4572
 1300SOL    HW215537   1.065   4.094   5.181 -0.7086  1.1580 -0.7016
 1301SOL     OW15538   2.519   0.901   7.762  0.0681 -0.2576  0.6010
 1301SOL    HW115539   2.484   0.818   7.793  1.0565  0.4198  3.5374
 1301SOL    HW215540   2.565   0.874   7.683  0.1446  0.1305  0.5119
 1302SOL     OW15541   0.647   2.942   9.091 -0.2238  0.1685  0.0118
 1302SOL    HW115542   0.571   2.896   9.057  2.0789 -2.4524 -1.6539
 1302SOL    HW215543   0.641   3.030   9.055 -1.0088 -0.0822 -0.4577
 1303SOL     OW15544   4.345   1.507   8.747  0.2035  0.6271  0.2493
 1303SOL    HW115545   4.331   1.422   8.705  1.8964 -0.4384  1.8517
 1303SOL    HW215546   4.280   1.561   8.702 -0.0594  0.9769  1.0569
 1304SOL     OW15547   2.249   3.984   8.280 -0.3801 -0.1113 -0.0716
 1304SOL    HW115548   2.200   3.921   8.333 -0.8839 -0.1088 -0.5371
 1304SOL    HW215549   2.194   4.062   8.275  0.9726  0.8526  0.0568
 1305SOL     OW15550   4.013   2.512  17.085  0.3360 -0.7832 -0.5865
 1305SOL    HW115551   4.097   2.483  17.051  1.1377  0.5356  0.2407
 1305SOL    HW215552   3.995   2.430  17.131  0.1315 -0.3587  0.1067
 1306SOL     OW15553   0.356   4.594   2.216  0.6436 -0.0587 -0.6199
 1306SOL    HW115554   0.279   4.573   2.269  1.8214  0.8786  1.4987
 1306SOL    HW215555   0.344   4.689   2.221  0.7229 -0.0775 -0.0340
 1307SOL     OW15556   2.973   1.096  14.406  0.4828  0.4676  0.0234
 1307SOL    HW115557   2.970   1.116  14.312 -0.3907 -1.3235 -0.3432
 1307SOL    HW215558   2.886   1.058  14.416  0.5396  0.0284 -1.1246
 1308SOL     OW15559   3.319   1.669  10.270 -0.2463  0.1116  0.8258
 1308SOL    HW115560   3.393   1.677  10.330 -2.0854 -2.7769  3.4830
 1308SOL    HW215561   3.306   1.575  10.268 -0.1358  0.1569 -2.0829
 1309SOL     OW15562   0.980   0.839   0.164 -0.3574 -0.6222  0.8102
 1309SOL    HW115563   1.026   0.909   0.209 -0.4539  0.2185 -0.3889
 1309SOL    HW215564   0.914   0.827   0.232 -2.1024 -0.9658 -0.9375
 1310SOL     OW15565   2.884   0.398   7.851  0.0800  0.2146  0.2155
 1310SOL    HW115566   2.820   0.409   7.782  0.6070  0.2278 -0.2743
 1310SOL    HW215567   2.887   0.487   7.886 -0.0705 -0.0516  0.9217
 1311SOL     OW15568   0.941   4.325   5.801 -0.2708 -0.2839 -0.4371
 1311SOL    HW115569   0.872   4.364   5.748 -1.0397 -1.0303  0.0282
 1311SOL    HW215570   0.946   4.384   5.876 -0.8744  0.9998 -1.4039
 1312SOL     OW15571   1.228   1.981   1.971 -0.3635 -0.2495 -0.0637
 1312SOL    HW115572   1.197   2.006   1.883  0.3674 -0.0719 -0.2698
 1312SOL    HW215573   1.143   1.977   2.015 -0.4599 -1.0642 -0.3197
 1313SOL     OW15574   4.360   4.059  13.131 -0.0874  0.1322  0.1829
 1313SOL    HW115575   4.371   4.002  13.055  1.8559 -1.2240  1.4711
 1313SOL    HW215576   4.411   4.139  13.115  0.6306 -0.1000  1.2562
 1314SOL     OW15577   4.422   4.660   8.468  0.1106  0.1385  0.0151
 1314SOL    HW115578   4.471   4.728   8.422  0.9394  0.1056  0.8645
 1314SOL    HW215579   4.333   4.684   8.445  0.2787  0.3117 -0.4584
 1315SOL     OW15580   3.440   3.314   0.173 -0.1358  0.1910  0.2365
 1315SOL    HW115581   3.349   3.341   0.190 -0.5515  0.5541 -2.6462
 1315SOL    HW215582   3.438   3.268   0.090  0.1499  1.4632 -0.4791
 1316SOL     OW15583   3.864   1.909   1.292  0.3280  0.2973 -0.8901
 1316SOL    HW115584   3.876   1.821   1.329 -0.2869  0.4172 -0.4196
 1316SOL    HW215585   3.947   1.954   1.309  1.4099 -1.4889 -1.3579
 1317SOL     OW15586   4.152   4.554   7.672  0.1023  0.7041  0.0280
 1317SOL    HW115587   4.156   4.504   7.590  3.5839 -0.9166  1.2181
 1317SOL    HW215588   4.154   4.644   7.639 -1.9377  1.0762  0.9306
 1318SOL     OW15589   3.656   2.540  13.825 -0.1791  0.3495 -0.5003
 1318SOL    HW115590   3.637   2.477  13.895 -1.3434 -0.5384 -1.6236
 1318SOL    HW215591   3.720   2.589  13.876 -0.6747 -0.2347  0.6926
 1319SOL     OW15592   4.112   2.769  14.697  0.3342  0.3718 -0.4082
 1319SOL    HW115593   4.082   2.687  14.738 -0.8712  0.9252 -0.1608
 1319SOL    HW215594   4.082   2.769  14.606 -1.3547 -1.3223  0.1267
 1320SOL     OW15595   4.283   1.870  14.661  0.0280 -0.7941  0.1542
 1320SOL    HW115596   4.346   1.878  14.589  1.4507 -3.0277  1.1253
 1320SOL    HW215597   4.201   1.882  14.613  0.3481  1.8810  0.2924
 1321SOL     OW15598   1.664   0.718   1.447 -0.0602 -0.0786 -0.3846
 1321SOL    HW115599   1.581   0.763   1.462  0.3243  0.0865  1.2467
 1321SOL    HW215600   1.698   0.774   1.377 -2.1389  0.4736 -0.9588
 1322SOL     OW15601   2.178   3.994   8.637 -0.6153  0.1201  0.2440
 1322SOL    HW115602   2.244   3.992   8.568 -1.3370 -1.9375 -0.3920
 1322SOL    HW215603   2.229   3.948   8.703  1.9283  1.0953 -1.0435
 1323SOL     OW15604   1.710   2.559  17.632  0.0229  0.1444 -0.2218
 1323SOL    HW115605   1.623   2.550  17.594  0.1806  0.0793 -0.5661
 1323SOL    HW215606   1.734   2.468  17.650 -0.3277 -0.4955 -3.1113
 1324SOL     OW15607   0.987   3.515   1.998 -0.2184  0.0419  0.2892
 1324SOL    HW115608   1.022   3.537   2.084 -0.3138 -0.8274  0.5523
 1324SOL    HW215609   0.956   3.601   1.970 -0.2290 -0.1365 -0.2464
 1325SOL     OW15610   2.170   0.811  12.862  0.0159  0.4674  0.1690
 1325SOL    HW115611   2.168   0.810  12.957  0.4698  3.2559  0.2304
 1325SOL    HW215612   2.079   0.838  12.845  0.0484  0.7580  0.4556
 1326SOL     OW15613   2.510   2.218   8.765 -0.1501  0.3722 -0.4214
 1326SOL    HW115614   2.570   2.156   8.723 -0.6740 -0.3178 -0.1704
 1326SOL    HW215615   2.432   2.207   8.710  0.0045  1.7460 -0.8938
 1327SOL     OW15616   1.723   2.150   1.506  0.7738 -0.4566 -0.8447
 1327SOL    HW115617   1.696   2.154   1.597  0.6690  3.1811 -1.0728
 1327SOL    HW215618   1.636   2.151   1.465  0.1537 -0.1583  0.4974
 1328SOL     OW15619   3.049   0.986   2.996 -0.7666 -0.4453 -0.1456
 1328SOL    HW115620   2.964   0.973   3.039  0.1343  2.0465  2.3649
 1328SOL    HW215621   3.027   0.998   2.904  1.0358  0.3185 -0.4805
 1329SOL     OW15622   4.413   4.602   3.494 -0.1392  0.0594  0.1570
 1329SOL    HW115623   4.361   4.676   3.462 -0.8725 -0.4790  0.1175
 1329SOL    HW215624   4.460   4.637   3.570 -0.6273 -1.5904  1.2244
 1330SOL     OW15625   2.200   2.587   0.120 -0.1789 -0.2199  0.1077
 1330SOL    HW115626   2.151   2.543   0.189  3.2908 -2.0187  1.4716
 1330SOL    HW215627   2.131   2.589   0.055 -0.5570 -0.7207  0.4934
 1331SOL     OW15628   4.650   3.961   6.916  0.1479 -0.3117  0.2314
 1331SOL    HW115629   4.624   3.897   6.850 -0.0288  0.8337 -0.8051
 1331SOL    HW215630   4.633   4.044   6.872 -1.2430 -0.7621 -0.0670
 1332SOL     OW15631   1.774   0.773   4.980  0.0651 -0.1531 -0.4347
 1332SOL    HW115632   1.831   0.700   5.003  0.6266  0.1930 -0.7386
 1332SOL    HW215633   1.700   0.735   4.933  1.3633 -0.7712 -1.9699
 1333SOL     OW15634   0.982   2.691  13.235 -0.4245 -0.0937 -0.6162
 1333SOL    HW115635   0.909   2.681  13.173 -0.0238 -2.6281 -0.6983
 1333SOL    HW215636   1.047   2.736  13.181 -0.2880  0.3552 -0.0721
 1334SOL     OW15637   1.232   3.957   5.649 -0.0503  0.3467  0.0465
 1334SOL    HW115638   1.179   3.971   5.728  0.1504  1.0043  0.0699
 1334SOL    HW215639   1.279   4.040   5.637 -2.8926  1.8899 -0.4102
 1335SOL     OW15640   3.995   2.816   7.396 -0.3699  0.1952 -0.0283
 1335SOL    HW115641   3.914   2.860   7.423  0.7739  2.2558  0.0284
 1335SOL    HW215642   4.029   2.867   7.323  4.6237  0.2055  2.2947
 1336SOL     OW15643   4.338   0.143   1.689 -0.1354 -0.5959  0.0453
 1336SOL    HW115644   4.341   0.233   1.656  0.8664 -0.8965 -0.6593
 1336SOL    HW215645   4.430   0.120   1.700 -0.1605  0.5033  2.6643
 1337SOL     OW15646   3.653   3.255   9.812  0.0895  0.0546 -0.3231
 1337SOL    HW115647   3.726   3.316   9.807 -0.3678  0.5506 -1.0432
 1337SOL    HW215648   3.654   3.257   9.907  0.0227  2.1218 -0.3597
 1338SOL     OW15649   2.105   4.454   3.257 -0.2101 -0.2203  0.2617
 1338SOL    HW115650   2.092   4.509   3.334 -0.6535  1.5835 -1.1096
 1338SOL    HW215651   2.154   4.518   3.205  1.6880 -2.2343 -0.3998
 1339SOL     OW15652   4.547   0.435   2.314 -0.7205  0.2541 -1.0102
 1339SOL    HW115653   4.539   0.379   2.391 -0.3715 -0.4595 -1.5062
 1339SOL    HW215654   4.590   0.510   2.356 -2.3491  0.6090  0.0502
 1340SOL     OW15655   3.467   3.276   8.306 -0.2674 -0.5131 -0.6068
 1340SOL    HW115656   3.457   3.371   8.305 -1.1831 -0.5968  0.8629
 1340SOL    HW215657   3.552   3.263   8.264 -0.4777 -0.6931 -0.9791
 1341SOL     OW15658   3.970   0.276   8.517  0.2609 -0.0571 -0.5607
 1341SOL    HW115659   3.910   0.326   8.460  0.4529  1.8519  0.8931
 1341SOL    HW215660   3.999   0.347   8.575 -1.1744 -0.4693  0.6648
 1342SOL     OW15661   0.624   0.184   2.600 -0.3909 -0.0011  0.3598
 1342SOL    HW115662   0.715   0.152   2.602  0.1263  1.4475  0.0486
 1342SOL    HW215663   0.614   0.216   2.511 -1.4017 -0.2785  0.3786
 1343SOL     OW15664   4.088   1.167   6.732 -0.3399 -0.1061  0.5280
 1343SOL    HW115665   4.161   1.137   6.785  0.9924  0.9580 -0.7294
 1343SOL    HW215666   4.015   1.108   6.754  0.7522 -1.8471 -0.4469
 1344SOL     OW15667   4.569   0.724   2.464 -0.6572  0.1529  0.2940
 1344SOL    HW115668   4.533   0.812   2.453  1.7513  0.9902 -1.0059
 1344SOL    HW215669   4.654   0.727   2.507 -0.1282  0.8914 -0.7910
 1345SOL     OW15670   3.321   2.278   5.287 -0.6293  0.1122  0.5153
 1345SOL    HW115671   3.400   2.243   5.328 -0.0465  1.7687  0.8382
 1345SOL    HW215672   3.331   2.242   5.199 -2.3287 -0.0094  0.3778
 1346SOL     OW15673   0.125   1.061   2.644 -0.0172 -0.0433 -0.2636
 1346SOL    HW115674   0.068   1.052   2.568 -0.3196 -1.2282  0.1076
 1346SOL    HW215675   0.074   1.126   2.692 -0.1797 -0.2237 -0.1903
 1347SOL     OW15676   1.879   0.054   9.584 -0.1843 -0.1124  0.8659
 1347SOL    HW115677   1.876   4.731   9.510  0.6504 -0.5028  1.1524
 1347SOL    HW215678   1.836   0.003   9.653 -1.1058 -1.5012 -0.7407
 1348SOL     OW15679   0.122   3.464   1.672 -0.2198 -0.3300 -0.0242
 1348SOL    HW115680   0.161   3.505   1.595 -0.0423 -1.1405 -0.3606
 1348SOL    HW215681   0.134   3.534   1.737 -0.8853 -0.6338  0.4189
 1349SOL     OW15682   3.304   1.527   7.487  0.0037  0.1144  0.1103
 1349SOL    HW115683   3.252   1.554   7.562 -0.3089 -1.6206  0.5246
 1349SOL    HW215684   3.291   1.432   7.492  0.9878  0.1396  3.0831
 1350SOL     OW15685   1.365   1.198   9.905 -0.1112  0.2294 -0.3390
 1350SOL    HW115686   1.334   1.174   9.818  0.1850  0.5869 -0.5393
 1350SOL    HW215687   1.284   1.234   9.942 -0.3461 -0.1575 -0.4760
 1351SOL     OW15688   1.371   4.557   6.527 -0.5679 -0.2956  0.0981
 1351SOL    HW115689   1.387   4.636   6.476 -2.1603  0.2763  0.4674
 1351SOL    HW215690   1.402   4.585   6.613 -0.5465  0.3545 -0.1201
 1352SOL     OW15691   2.561   2.129   7.532  0.1681  0.1110 -0.4771
 1352SOL    HW115692   2.626   2.164   7.593 -0.8448 -1.9294  1.7504
 1352SOL    HW215693   2.499   2.097   7.597  1.3455  0.0080  0.6062
 1353SOL     OW15694   2.808   1.723   5.899  0.5619  0.3245  0.2289
 1353SOL    HW115695   2.813   1.632   5.868 -1.5536 -0.3510  1.8874
 1353SOL    HW215696   2.718   1.732   5.929  0.6829 -1.0203  0.9739
 1354SOL     OW15697   1.251   2.132   6.524  0.2924  0.5594  0.1925
 1354SOL    HW115698   1.194   2.207   6.540  0.1737  0.5277 -0.0729
 1354SOL    HW215699   1.292   2.152   6.439  0.4022 -0.4156  0.0222
 1355SOL     OW15700   1.657   1.881   9.216 -0.1476 -0.5502 -0.1370
 1355SOL    HW115701   1.710   1.897   9.139  0.5500  1.3573  0.7248
 1355SOL    HW215702   1.647   1.963   9.265 -1.9620 -0.4939 -0.5997
 1356SOL     OW15703   1.716   1.882  11.557  0.1867  0.2014  0.6837
 1356SOL    HW115704   1.676   1.911  11.640 -3.3962 -0.6898 -0.7168
 1356SOL    HW215705   1.805   1.868  11.588  1.4840  1.5998 -2.3812
 1357SOL     OW15706   2.010   2.202   3.837  0.1580  0.2672  0.1223
 1357SOL    HW115707   1.964   2.222   3.919  0.2740 -0.6037  0.4093
 1357SOL    HW215708   1.944   2.161   3.780  0.5111  1.5818 -1.2222
 1358SOL     OW15709   3.555   4.649   7.185  0.0295 -0.2913  0.1116
 1358SOL    HW115710   3.599   4.667   7.268  0.5849  0.1522 -0.2820
 1358SOL    HW215711   3.556   4.553   7.186 -2.6351 -0.2863  2.5837
 1359SOL     OW15712   2.134   1.349   2.911  0.1318  0.2850  0.6287
 1359SOL    HW115713   2.212   1.324   2.961  1.2631 -0.0024 -1.2966
 1359SOL    HW215714   2.099   1.411   2.976 -1.2509  0.1167  0.0327
 1360SOL     OW15715   2.046   0.627   8.498  0.2095 -0.0961 -0.4404
 1360SOL    HW115716   2.116   0.689   8.520 -1.4359  0.8494  2.1479
 1360SOL    HW215717   1.994   0.633   8.578  1.7619  2.2213  0.4015
 1361SOL     OW15718   3.878   1.985  11.356  0.1868 -0.1658 -0.4511
 1361SOL    HW115719   3.888   2.058  11.417  0.0707 -0.0543 -0.5653
 1361SOL    HW215720   3.845   1.930  11.427  0.5972  1.5030  1.0083
 1362SOL     OW15721   3.242   1.014  16.018  0.2504 -0.5947  0.0135
 1362SOL    HW115722   3.265   1.024  16.110 -0.1612  0.2722  0.0206
 1362SOL    HW215723   3.162   1.066  16.010  2.4969  2.5865 -1.4653
 1363SOL     OW15724   1.839   4.028   1.802  0.3007 -0.3279 -0.5686
 1363SOL    HW115725   1.866   4.027   1.894  2.5095  0.9820 -1.2308
 1363SOL    HW215726   1.897   4.091   1.761  1.4718 -0.4854  0.8484
 1364SOL     OW15727   0.084   0.346   8.305  0.5615  0.2187 -0.2716
 1364SOL    HW115728   0.153   0.328   8.368 -0.7636 -0.4862  0.9762
 1364SOL    HW215729   0.111   0.299   8.227 -0.5045 -1.2261  0.2349
 1365SOL     OW15730   2.603   1.120  13.437 -0.0343 -0.0340  0.0676
 1365SOL    HW115731   2.579   1.038  13.479  1.5703 -0.8752 -0.6586
 1365SOL    HW215732   2.528   1.173  13.466  0.1716  1.2628 -1.7425
 1366SOL     OW15733   2.355   2.930  10.098  0.1860 -0.2882  0.1802
 1366SOL    HW115734   2.388   2.986  10.029 -0.4361 -1.0493 -0.7389
 1366SOL    HW215735   2.429   2.886  10.140  0.0111 -0.7319  0.0281
 1367SOL     OW15736   2.108   4.672   4.228  0.0624 -0.2869  0.3326
 1367SOL    HW115737   2.085   0.027   4.223 -2.0535 -0.7777  0.9647
 1367SOL    HW215738   2.018   4.638   4.232  0.1709 -0.6025  0.1382
 1368SOL     OW15739   1.229   2.504   0.639 -0.1891  0.1635  0.2371
 1368SOL    HW115740   1.227   2.417   0.681  0.4752 -0.6360 -1.4020
 1368SOL    HW215741   1.182   2.482   0.559 -1.2768 -0.4959  1.0576
 1369SOL     OW15742   3.140   1.425   8.510  0.0044 -0.0074 -0.2973
 1369SOL    HW115743   3.177   1.350   8.463 -1.6542 -1.5550  0.8664
 1369SOL    HW215744   3.181   1.416   8.596  0.0813  0.5491 -0.2794
 1370SOL     OW15745   2.852   0.532   6.463 -0.0844  0.4379 -0.0829
 1370SOL    HW115746   2.858   0.447   6.505 -1.0853  0.2450 -0.3138
 1370SOL    HW215747   2.758   0.553   6.460 -0.7459 -2.5526  0.2297
 1371SOL     OW15748   2.782   0.014   4.905 -0.8225 -0.3445  0.0545
 1371SOL    HW115749   2.687   0.005   4.910 -0.7767 -0.4141  0.8855
 1371SOL    HW215750   2.800   0.047   4.994  0.9124 -0.2131 -0.3429
 1372SOL     OW15751   1.868   2.039  10.990  0.4191  0.4519  0.0082
 1372SOL    HW115752   1.901   2.114  10.941 -0.0756 -0.7495 -2.1607
 1372SOL    HW215753   1.877   2.067  11.081  0.8450 -0.9444  0.4074
 1373SOL     OW15754   1.043   1.062   5.133  0.1364 -0.4719 -0.0381
 1373SOL    HW115755   1.059   0.993   5.069 -1.1183 -0.8984  0.1059
 1373SOL    HW215756   1.083   1.009   5.202  0.8399 -0.9688 -0.8260
 1374SOL     OW15757   0.131   1.658   5.400 -0.0787 -0.3642  0.1235
 1374SOL    HW115758   0.116   1.727   5.335 -0.6251 -0.6862 -0.0890
 1374SOL    HW215759   0.081   1.590   5.355 -0.0516  1.2101 -2.2774
 1375SOL     OW15760   1.798   2.489   2.688 -0.5385 -0.1299 -0.2790
 1375SOL    HW115761   1.826   2.540   2.764 -3.6845  0.6420  0.3961
 1375SOL    HW215762   1.707   2.519   2.682 -0.7088 -0.6367 -0.1938
 1376SOL     OW15763   3.785   3.109   3.209  0.7756  0.2573 -1.0980
 1376SOL    HW115764   3.707   3.078   3.162  0.0693  0.1474  0.1618
 1376SOL    HW215765   3.847   3.040   3.184 -0.5153 -1.0472 -0.7248
 1377SOL     OW15766   2.418   3.708  10.270  0.0591 -0.0209  0.9951
 1377SOL    HW115767   2.378   3.684  10.354 -0.7953 -1.6019  0.1322
 1377SOL    HW215768   2.444   3.795  10.300 -3.2798  0.4259  2.5932
 1378SOL     OW15769   3.444   1.570   6.087  0.1801 -0.2461 -0.0499
 1378SOL    HW115770   3.431   1.658   6.124 -0.5926 -0.2868 -0.2327
 1378SOL    HW215771   3.414   1.512   6.157 -1.7023  1.7723  0.7908
 1379SOL     OW15772   2.109   0.634   8.848  0.7475 -0.2440  0.0362
 1379SOL    HW115773   2.139   0.700   8.911 -1.6266  0.5920  0.2819
 1379SOL    HW215774   2.123   0.556   8.902 -0.4392  0.4522  1.3408
 1380SOL     OW15775   1.505   3.280   3.457 -0.4508  0.2507  0.0401
 1380SOL    HW115776   1.531   3.190   3.437  0.0256  0.0405  1.5429
 1380SOL    HW215777   1.415   3.291   3.427 -0.4520 -1.0778 -0.4234
 1381SOL     OW15778   4.356   4.073   7.117 -0.1706  0.2211 -0.1724
 1381SOL    HW115779   4.335   3.982   7.138 -1.2867  1.1143  2.7146
 1381SOL    HW215780   4.283   4.107   7.170  0.8900 -1.8543  2.6509
 1382SOL     OW15781   4.426   3.396  17.603  0.1749 -0.0363  0.2356
 1382SOL    HW115782   4.389   3.398  17.691  2.6874 -0.7324  1.3311
 1382SOL    HW215783   4.358   3.433  17.547  1.0612 -0.1795 -0.9412
 1383SOL     OW15784   2.676   4.276   2.989 -0.1263  0.3384 -0.5416
 1383SOL    HW115785   2.716   4.281   2.903  0.9635 -0.0397 -0.0534
 1383SOL    HW215786   2.700   4.192   3.028  0.2958  0.2240 -1.0675
 1384SOL     OW15787   3.688   4.310   4.963 -0.4990  0.8509 -0.2649
 1384SOL    HW115788   3.686   4.362   5.043  1.5116  0.4822  0.0141
 1384SOL    HW215789   3.766   4.257   4.980 -2.3706 -1.6768  0.5609
 1385SOL     OW15790   2.221   4.180   6.393 -0.2507 -0.0859  0.1904
 1385SOL    HW115791   2.257   4.092   6.398 -0.8942 -0.3058  0.8597
 1385SOL    HW215792   2.129   4.155   6.393 -0.3082  0.1259 -0.7990
 1386SOL     OW15793   3.661   4.098   8.983  0.1632 -0.2149 -0.5409
 1386SOL    HW115794   3.659   4.191   9.004 -0.6417 -0.6795  1.3751
 1386SOL    HW215795   3.742   4.073   9.027 -0.3866  0.0149  0.5908
 1387SOL     OW15796   1.362   1.996   7.039  0.4348 -0.0577 -0.4881
 1387SOL    HW115797   1.377   2.010   6.946 -0.4822 -0.2698 -0.6660
 1387SOL    HW215798   1.454   1.976   7.057  0.2636 -0.8684 -0.5116
 1388SOL     OW15799   2.633   4.093   9.495 -0.2993 -0.1327 -0.4558
 1388SOL    HW115800   2.547   4.122   9.527 -1.0897  0.3491 -3.0249
 1388SOL    HW215801   2.665   4.041   9.569 -0.0450 -0.7603 -1.0093
 1389SOL     OW15802   1.911   0.357   0.707 -0.0080  0.0508  0.5498
 1389SOL    HW115803   1.847   0.427   0.690 -0.7514 -0.3248  1.7836
 1389SOL    HW215804   1.923   0.372   0.801  1.0954 -2.1117  0.7409
 1390SOL     OW15805   1.291   0.612   3.126  0.0228  0.0674  0.0162
 1390SOL    HW115806   1.277   0.622   3.031 -0.4399 -2.9090 -0.2076
 1390SOL    HW215807   1.215   0.556   3.141 -3.2823  5.0075  1.7519
 1391SOL     OW15808   0.907   3.050   6.326 -0.0280 -0.3089  0.3854
 1391SOL    HW115809   0.990   3.049   6.277 -0.9843  0.3652 -1.2765
 1391SOL    HW215810   0.923   2.994   6.401  1.1167  0.2507  0.5549
 1392SOL     OW15811   4.718   4.202   8.329  0.2137 -0.1981  0.4976
 1392SOL    HW115812   0.011   4.276   8.276 -0.1936 -1.1289 -1.0571
 1392SOL    HW215813   4.656   4.241   8.391  1.6412  2.4159  0.2755
 1393SOL     OW15814   2.734   4.254   7.593 -0.0892  0.2074  0.0959
 1393SOL    HW115815   2.749   4.159   7.590 -2.3091 -0.1093 -1.4647
 1393SOL    HW215816   2.808   4.290   7.544 -0.5964  1.1584  0.0224
 1394SOL     OW15817   1.191   4.513  16.174 -0.2368 -0.0841 -0.0042
 1394SOL    HW115818   1.142   4.582  16.129  0.0276 -1.0016 -1.7106
 1394SOL    HW215819   1.270   4.498  16.122 -1.9518  2.2318 -3.2721
 1395SOL     OW15820   1.783   0.025  16.687 -0.5080  0.1633 -0.2954
 1395SOL    HW115821   1.812   0.105  16.729  0.6204  0.1909 -1.1284
 1395SOL    HW215822   1.744   0.059  16.606 -1.1536 -2.0815 -0.9247
 1396SOL     OW15823   2.627   3.939   7.839  0.2811 -0.0647 -0.0873
 1396SOL    HW115824   2.590   3.878   7.902 -0.1632 -1.3871 -1.6148
 1396SOL    HW215825   2.718   3.937   7.869 -0.0732 -1.6217  0.9219
 1397SOL     OW15826   1.794   1.853  16.315  0.4011  0.1038 -0.1413
 1397SOL    HW115827   1.829   1.800  16.244  0.5247  0.3415 -0.2564
 1397SOL    HW215828   1.701   1.827  16.317  0.4185 -0.1289 -2.2984
 1398SOL     OW15829   0.097   3.078  10.079 -0.1119 -0.5722 -0.4581
 1398SOL    HW115830   0.123   3.148  10.138  0.1960  0.2763 -1.5858
 1398SOL    HW215831   0.043   3.128  10.018 -0.2847  0.2938  0.4236
 1399SOL     OW15832   3.596   3.220   2.795  0.2310 -0.1957  0.0955
 1399SOL    HW115833   3.667   3.157   2.807  0.0963 -0.4750 -0.6107
 1399SOL    HW215834   3.614   3.257   2.709  1.0068  0.9471  0.7482
 1400SOL     OW15835   2.349   1.814   1.467  0.6449  0.6854 -0.1676
 1400SOL    HW115836   2.263   1.850   1.492  0.1875 -1.4320  1.3013
 1400SOL    HW215837   2.330   1.784   1.378 -0.0567  0.6751 -0.0183
 1401SOL     OW15838   1.468   2.929   1.890  0.3175  0.0674  0.4357
 1401SOL    HW115839   1.485   2.888   1.805 -1.5868  0.9607 -0.3868
 1401SOL    HW215840   1.544   2.897   1.938  1.3895  1.9072  0.0094
 1402SOL     OW15841   0.502   0.951  13.688 -0.4713 -0.0234  0.9234
 1402SOL    HW115842   0.530   0.862  13.667  1.1795  0.6490  0.3192
 1402SOL    HW215843   0.521   0.999  13.607  0.2468 -0.1435  1.0224
 1403SOL     OW15844   3.565   1.287   3.487 -0.6532  0.0306  0.2004
 1403SOL    HW115845   3.559   1.378   3.516 -0.9773 -0.3815  1.4283
 1403SOL    HW215846   3.535   1.304   3.398 -1.8079  1.5056  0.8703
 1404SOL     OW15847   3.098   2.765  17.038 -0.7315 -0.6790 -0.2404
 1404SOL    HW115848   3.098   2.823  17.115  0.0405  1.3580 -1.7683
 1404SOL    HW215849   3.014   2.723  17.056 -0.5737  0.4518  3.1624
 1405SOL     OW15850   1.247   0.943  11.273 -0.5815 -0.0492  0.2543
 1405SOL    HW115851   1.282   0.900  11.351  0.1323 -1.0656 -0.6325
 1405SOL    HW215852   1.208   1.027  11.297 -0.6515 -0.2267  0.7711
 1406SOL     OW15853   0.382   4.566   7.721 -0.1881 -0.8362  0.2456
 1406SOL    HW115854   0.336   4.482   7.716 -3.2362  0.8966 -0.3953
 1406SOL    HW215855   0.453   4.552   7.784 -0.3532  0.7227  0.7583
 1407SOL     OW15856   2.937   3.339   7.929 -0.2008  0.1073 -0.4474
 1407SOL    HW115857   2.936   3.243   7.930  0.7391  0.0739 -1.5656
 1407SOL    HW215858   2.930   3.369   7.838 -1.6727  0.6492 -0.1537
 1408SOL     OW15859   2.902   0.472   5.594  0.3128  0.4823 -0.7113
 1408SOL    HW115860   2.825   0.511   5.636  0.1782 -1.0765  0.4802
 1408SOL    HW215861   2.867   0.406   5.535  3.4092 -0.4840 -1.4884
 1409SOL     OW15862   3.508   2.966   3.275  0.6281 -0.3495  0.0421
 1409SOL    HW115863   3.529   3.010   3.358  1.5127 -1.3624  0.3491
 1409SOL    HW215864   3.472   2.879   3.293 -1.0385  0.1587 -0.7681
 1410SOL     OW15865   2.484   1.647  10.469  0.2346 -0.0346 -0.0291
 1410SOL    HW115866   2.552   1.590  10.433  0.8341 -0.6355  2.0763
 1410SOL    HW215867   2.456   1.592  10.541  1.0337  0.9989  1.0843
 1411SOL     OW15868   1.007   3.775   9.291 -0.2444 -0.0764  0.0807
 1411SOL    HW115869   0.931   3.718   9.279  0.9405 -1.5542 -0.4932
 1411SOL    HW215870   0.966   3.830   9.358  1.6857  3.5791 -1.7994
 1412SOL     OW15871   3.081   2.695   9.574 -0.2558 -0.1161 -0.1541
 1412SOL    HW115872   3.176   2.695   9.583 -0.2731  0.1875  0.0374
 1412SOL    HW215873   3.068   2.789   9.561  1.5585  0.3305  1.2498
 1413SOL     OW15874   1.167   2.616   8.768 -0.3352  0.2484 -0.6172
 1413SOL    HW115875   1.112   2.539   8.755  0.8127 -0.5661 -0.7184
 1413SOL    HW215876   1.095   2.679   8.773  0.6757  1.5808 -2.5547
 1414SOL     OW15877   0.486   4.053   3.453 -0.1314  0.8205  0.1200
 1414SOL    HW115878   0.553   4.120   3.465 -0.4256  1.2200 -0.4527
 1414SOL    HW215879   0.425   4.074   3.524 -0.1067  1.3821 -0.0212
 1415SOL     OW15880   2.513   4.081   1.716  0.2507  0.1152 -0.0642
 1415SOL    HW115881   2.541   4.008   1.661 -0.9582 -0.3898  0.0012
 1415SOL    HW215882   2.555   4.067   1.801 -0.4216 -0.4210  0.1718
 1416SOL     OW15883   0.658   2.470   4.043  0.0544 -0.0792  0.2812
 1416SOL    HW115884   0.569   2.485   4.011  0.3838  0.0997 -0.5555
 1416SOL    HW215885   0.649   2.442   4.134 -0.9258 -0.0065  0.2091
 1417SOL     OW15886   4.410   1.334   0.989 -0.2093 -0.1165 -0.5153
 1417SOL    HW115887   4.340   1.272   1.007 -1.3529  0.4153 -3.0900
 1417SOL    HW215888   4.366   1.375   0.915 -2.8227 -0.4620  0.8506
 1418SOL     OW15889   1.735   1.342   6.261 -0.3433  0.1864 -0.2611
 1418SOL    HW115890   1.737   1.390   6.343 -2.1223 -0.9221  0.4190
 1418SOL    HW215891   1.726   1.416   6.201 -1.5174  0.8845  0.7747
 1419SOL     OW15892   3.807   1.906   1.020 -0.1624 -0.4756 -0.5980
 1419SOL    HW115893   3.713   1.895   1.007 -0.1787  1.3819 -1.9168
 1419SOL    HW215894   3.819   1.887   1.113  1.2658  3.9246  0.0884
 1420SOL     OW15895   0.373   2.346   0.504  0.1283 -0.6408 -0.1100
 1420SOL    HW115896   0.292   2.298   0.483  0.4721 -1.7180  1.0440
 1420SOL    HW215897   0.403   2.374   0.418  1.0010 -1.6644 -0.1320
 1421SOL     OW15898   4.402   1.246   3.854 -0.1226  0.0943  0.4049
 1421SOL    HW115899   4.459   1.204   3.790 -0.7961 -0.5851  0.2414
 1421SOL    HW215900   4.322   1.259   3.802  0.1754 -0.5109 -0.2090
 1422SOL     OW15901   0.354   1.514   7.899  0.2871 -0.2985 -0.0867
 1422SOL    HW115902   0.386   1.463   7.973  0.7571 -0.8604 -0.6746
 1422SOL    HW215903   0.405   1.479   7.826  2.6343  2.4873  0.2014
 1423SOL     OW15904   3.044   2.362   8.296 -0.0936 -0.2047 -0.3123
 1423SOL    HW115905   3.015   2.445   8.259  0.7908  1.0170  1.7542
 1423SOL    HW215906   3.028   2.378   8.389  0.6353 -1.9990  0.1219
 1424SOL     OW15907   3.069   2.075   2.846  0.2082 -0.4055 -0.3748
 1424SOL    HW115908   3.084   1.981   2.832  0.6086 -0.6508  1.7431
 1424SOL    HW215909   3.157   2.100   2.871  0.5047 -2.4316  0.5803
 1425SOL     OW15910   3.547   1.809   7.900  0.0619 -0.8358 -0.1364
 1425SOL    HW115911   3.493   1.858   7.838  0.6894 -1.5442 -1.2465
 1425SOL    HW215912   3.532   1.855   7.982  0.2683 -0.6030 -0.2290
 1426SOL     OW15913   2.658   2.524   6.072  0.7876 -0.3139 -0.4319
 1426SOL    HW115914   2.703   2.497   5.992 -0.2522 -0.0709 -1.1010
 1426SOL    HW215915   2.636   2.442   6.117 -2.7858  0.9307  0.0585
 1427SOL     OW15916   1.004   1.108   6.777  0.1390 -0.7876  0.3251
 1427SOL    HW115917   0.989   1.203   6.778 -2.5758 -1.2524  1.5690
 1427SOL    HW215918   0.971   1.083   6.691  0.1811 -2.9619  0.9396
 1428SOL     OW15919   0.984   0.996   3.138 -0.3106  0.1188  0.4565
 1428SOL    HW115920   0.920   1.044   3.085 -1.7588  1.7535  3.7448
 1428SOL    HW215921   0.955   0.906   3.148 -0.5225  0.0656 -0.6042
 1429SOL     OW15922   3.674   1.807   4.405  0.0829 -0.1845  0.5719
 1429SOL    HW115923   3.749   1.867   4.396 -0.9783  1.4521  2.4593
 1429SOL    HW215924   3.605   1.869   4.429 -1.9282 -0.6450 -4.0841
 1430SOL     OW15925   2.389   4.305  12.087 -0.1222 -0.5482  0.4489
 1430SOL    HW115926   2.455   4.280  12.022 -2.6528 -2.8638 -1.2427
 1430SOL    HW215927   2.438   4.309  12.169 -1.0922 -1.0003  1.0438
 1431SOL     OW15928   3.571   1.817   6.895 -0.3980 -0.7476  0.3420
 1431SOL    HW115929   3.555   1.723   6.890  1.5060 -1.0950  0.7822
 1431SOL    HW215930   3.652   1.815   6.844 -0.6932 -1.7906 -0.0869
 1432SOL     OW15931   0.646   2.740  17.294  0.0701 -0.0044  0.1001
 1432SOL    HW115932   0.712   2.694  17.242 -0.3580 -1.9403  1.2384
 1432SOL    HW215933   0.611   2.803  17.231 -1.1558  0.7042  1.4736
 1433SOL     OW15934   1.940   0.942  12.861  0.0000 -0.0722  0.3385
 1433SOL    HW115935   1.886   0.988  12.924  0.4476 -0.3887  0.9481
 1433SOL    HW215936   1.884   0.865  12.854  0.7270 -0.3783 -2.2387
 1434SOL     OW15937   2.653   2.221   2.961 -0.6371 -0.3957  0.4118
 1434SOL    HW115938   2.566   2.258   2.946  0.1001  0.7545 -0.9315
 1434SOL    HW215939   2.720   2.280   2.927 -0.7846  0.7040  2.0285
 1435SOL     OW15940   4.252   1.125   1.006 -0.2969  0.3807 -0.3578
 1435SOL    HW115941   4.282   1.082   0.925  3.2634 -0.0885  1.2007
 1435SOL    HW215942   4.172   1.073   1.004  0.1294 -0.2669 -0.7974
 1436SOL     OW15943   1.569   0.540   1.061  0.0789  0.4968 -0.1631
 1436SOL    HW115944   1.484   0.581   1.044 -0.5048 -0.6091  0.0770
 1436SOL    HW215945   1.544   0.477   1.129 -0.4125  1.1522  0.2638
 1437SOL     OW15946   4.454   1.904  12.955 -0.8012  0.4745 -0.7972
 1437SOL    HW115947   4.442   1.977  12.894  2.7400  1.5394 -0.2314
 1437SOL    HW215948   4.418   1.940  13.036 -1.9189 -0.4421 -0.8915
 1438SOL     OW15949   1.027   3.333   0.918 -0.3802  0.3372  0.6210
 1438SOL    HW115950   0.970   3.405   0.889 -0.0464  0.7713  1.0472
 1438SOL    HW215951   0.998   3.323   1.009  1.4420 -2.0851  0.9213
 1439SOL     OW15952   3.008   2.728   6.468 -0.2542 -0.0015  0.0058
 1439SOL    HW115953   3.039   2.717   6.378 -1.8951  1.1280 -0.6924
 1439SOL    HW215954   3.065   2.677   6.525  1.9712  2.5375  0.0819
 1440SOL     OW15955   0.464   0.556  16.876  0.3142  0.6035  0.7508
 1440SOL    HW115956   0.501   0.542  16.964 -0.4223  1.1038  1.1414
 1440SOL    HW215957   0.498   0.477  16.834 -1.4310  1.1459 -1.6105
 1441SOL     OW15958   1.612   1.234   5.667 -0.3193 -0.1988  0.7692
 1441SOL    HW115959   1.542   1.260   5.727  0.3592 -1.7474  2.2414
 1441SOL    HW215960   1.593   1.144   5.640 -1.7065  0.2481  0.2307
 1442SOL     OW15961   4.719   2.271   6.940  0.0874 -0.0515 -0.3551
 1442SOL    HW115962   0.040   2.218   6.994  1.1030 -0.5966 -1.9679
 1442SOL    HW215963   0.019   2.359   6.947  0.7134 -0.4768  1.6816
 1443SOL     OW15964   2.209   2.384   4.548 -0.5203 -0.4613  0.7384
 1443SOL    HW115965   2.231   2.461   4.601 -1.9473 -0.2234  0.9929
 1443SOL    HW215966   2.286   2.329   4.562  0.6775  0.8213 -0.8591
 1444SOL     OW15967   3.073   3.773   6.628 -0.1206  0.3369  0.2560
 1444SOL    HW115968   3.093   3.739   6.715 -0.5035 -1.1256 -0.2190
 1444SOL    HW215969   2.986   3.812   6.644 -0.2840 -0.2055  0.6688
 1445SOL     OW15970   3.512   3.944   2.107 -0.0192  0.1635  0.5509
 1445SOL    HW115971   3.536   3.877   2.043 -0.8467  0.6011 -0.2044
 1445SOL    HW215972   3.501   3.887   2.184 -0.9070 -2.1167 -1.2704
 1446SOL     OW15973   2.719   2.051   6.679  0.0825 -0.0264 -0.2672
 1446SOL    HW115974   2.765   2.091   6.605  1.9384  0.5286  1.1967
 1446SOL    HW215975   2.772   1.973   6.690 -2.5926 -1.5821  1.5467
 1447SOL     OW15976   0.845   1.647   2.960 -0.4347 -0.1505 -0.4266
 1447SOL    HW115977   0.893   1.664   2.879 -2.0049 -2.0646 -1.7429
 1447SOL    HW215978   0.919   1.644   3.020 -0.5639  0.1907 -0.2448
 1448SOL     OW15979   1.727   2.850  17.562 -0.0409  0.1225  1.0407
 1448SOL    HW115980   1.703   2.757  17.559 -0.3880  0.1740  2.0725
 1448SOL    HW215981   1.650   2.880  17.611  0.6823  4.0896 -0.2966
 1449SOL     OW15982   0.477   3.663   8.191 -0.9289 -0.1939 -0.1267
 1449SOL    HW115983   0.559   3.615   8.201 -0.4115  0.2738 -2.0022
 1449SOL    HW215984   0.428   3.636   8.268  0.0119  0.1667  0.5966
 1450SOL     OW15985   4.642   2.363   6.077  0.0668 -0.4925  0.4447
 1450SOL    HW115986   4.650   2.443   6.026  1.7967 -0.5983  0.5382
 1450SOL    HW215987   4.562   2.388   6.123  0.5181  2.2511 -0.3165
 1451SOL     OW15988   4.070   3.805   2.955 -0.3933 -0.1310 -0.4076
 1451SOL    HW115989   4.165   3.808   2.965 -0.6351 -0.5192  2.0594
 1451SOL    HW215990   4.065   3.711   2.941 -1.8736 -0.4552  2.1857
 1452SOL     OW15991   4.606   1.391  16.537  0.0127 -0.0879 -0.4047
 1452SOL    HW115992   4.647   1.444  16.468  0.6064  1.4340  1.1194
 1452SOL    HW215993   4.663   1.315  16.542  0.0159  0.0157  0.9240
 1453SOL     OW15994   3.048   3.501   9.933  0.1498  0.1023 -0.2246
 1453SOL    HW115995   3.001   3.569   9.980 -0.3328 -0.0534 -0.4752
 1453SOL    HW215996   2.989   3.482   9.860  1.3763 -2.4316 -0.5608
 1454SOL     OW15997   1.732   4.347   7.323  0.0690 -0.4375  0.3852
 1454SOL    HW115998   1.792   4.320   7.254  1.2282  0.5782  0.9864
 1454SOL    HW215999   1.766   4.434   7.346 -1.4769  0.6659 -1.4745
 1455SOL     OW16000   0.968   3.473   1.722  0.0911  0.5311  0.6015
 1455SOL    HW116001   0.956   3.479   1.817  0.2894  3.6085  0.4339
 1455SOL    HW216002   0.877   3.478   1.691  0.9330  0.8657 -1.7757
 1456SOL     OW16003   3.424   3.554   5.948 -0.2000  0.5904  0.2757
 1456SOL    HW116004   3.498   3.614   5.941  0.3270 -0.4457 -2.8811
 1456SOL    HW216005   3.361   3.613   5.990  2.0039  1.6506  2.0864
 1457SOL     OW16006   0.200   2.130   7.336 -0.3653  0.3812  0.0930
 1457SOL    HW116007   0.159   2.044   7.330 -0.2232  0.2722  0.6619
 1457SOL    HW216008   0.251   2.119   7.416 -0.7206 -1.6969  0.0086
 1458SOL     OW16009   1.471   0.360  17.551  0.4102 -0.7161  0.5950
 1458SOL    HW116010   1.489   0.298  17.480 -0.8248  1.1005 -1.2995
 1458SOL    HW216011   1.553   0.407  17.568  0.9444 -2.1642  2.0027
 1459SOL     OW16012   4.075   4.155  10.751  0.0840 -0.0342 -0.1639
 1459SOL    HW116013   4.026   4.231  10.784  0.9190 -0.2351  1.5601
 1459SOL    HW216014   4.149   4.180  10.697 -0.7341  1.3342 -0.6604
 1460SOL     OW16015   1.117   1.905  10.937 -0.8996  0.5555  0.3793
 1460SOL    HW116016   1.085   1.844  11.004  0.3800  1.0868  1.4765
 1460SOL    HW216017   1.094   1.993  10.965 -0.0362  0.9012  0.0101
 1461SOL     OW16018   0.031   3.422   5.870  0.1430  0.2852  0.3684
 1461SOL    HW116019   4.725   3.399   5.788 -0.0933 -0.0025  0.5739
 1461SOL    HW216020   0.125   3.416   5.852  0.0319  0.4489 -0.2381
 1462SOL     OW16021   3.428   2.830   5.861  0.0324 -0.3391 -0.2069
 1462SOL    HW116022   3.341   2.831   5.902  0.6679  3.2960  1.0394
 1462SOL    HW216023   3.410   2.757   5.801  0.8062  1.1193 -2.1994
 1463SOL     OW16024   1.874   0.292   8.980  0.2109 -0.3455  0.0105
 1463SOL    HW116025   1.838   0.296   8.891  2.0051  5.0077 -0.5059
 1463SOL    HW216026   1.958   0.338   8.968 -0.3291  1.3580  2.7232
 1464SOL     OW16027   3.286   1.815   4.156 -0.3074 -0.5200  0.1300
 1464SOL    HW116028   3.255   1.729   4.130 -0.0658 -0.4716 -0.3257
 1464SOL    HW216029   3.368   1.791   4.198 -1.1942 -1.1804  1.4692
 1465SOL     OW16030   4.640   3.950   8.235 -0.2899 -0.3998  0.0416
 1465SOL    HW116031   4.646   3.877   8.297 -0.0355  0.0583  0.5527
 1465SOL    HW216032   4.678   4.024   8.282  0.2798 -0.7173  0.0775
 1466SOL     OW16033   1.935   2.932   7.344  0.2256  0.6868  0.5024
 1466SOL    HW116034   1.879   2.868   7.299 -0.4247  0.6484  1.3652
 1466SOL    HW216035   1.913   2.907   7.433 -0.7863  0.8670  0.3065
 1467SOL     OW16036   2.731   0.869   4.740  0.2187 -0.1442 -0.3454
 1467SOL    HW116037   2.699   0.852   4.651 -0.2402 -0.3550 -0.1400
 1467SOL    HW216038   2.653   0.856   4.794 -1.9272 -1.5090 -3.7585
 1468SOL     OW16039   0.046   2.955  11.928 -0.3724 -0.3524  0.5169
 1468SOL    HW116040   0.037   2.897  11.853 -1.3947  0.3495  0.0981
 1468SOL    HW216041   4.713   2.920  11.983 -1.0456 -0.7452 -0.5876
 1469SOL     OW16042   1.373   1.491   5.475  0.5540 -0.1329 -0.9044
 1469SOL    HW116043   1.301   1.439   5.439  1.0079  0.5189 -2.7518
 1469SOL    HW216044   1.404   1.445   5.553 -0.9138  1.2238  0.4812
 1470SOL     OW16045   3.769   1.773  14.438  0.8620 -0.3706 -0.2641
 1470SOL    HW116046   3.699   1.743  14.497  0.0014 -0.0442 -1.1176
 1470SOL    HW216047   3.836   1.794  14.503 -0.0645 -0.0721  0.6085
 1471SOL     OW16048   4.318   1.399   4.860 -0.3761  0.2057  0.6705
 1471SOL    HW116049   4.270   1.467   4.812 -0.6000 -0.7374 -0.4253
 1471SOL    HW216050   4.391   1.451   4.894 -0.1270  1.5577 -1.9227
 1472SOL     OW16051   2.901   3.829   7.805  0.5246  0.6988 -0.1184
 1472SOL    HW116052   2.894   3.748   7.754  1.6306 -0.5408  1.7143
 1472SOL    HW216053   2.988   3.830   7.845  0.4487  0.0979  0.0709
 1473SOL     OW16054   4.414   1.689  17.374  0.3111 -0.0872 -0.1377
 1473SOL    HW116055   4.350   1.665  17.440  2.2773 -1.7012  1.2100
 1473SOL    HW216056   4.367   1.716  17.296 -0.3748 -1.0922 -0.0781
 1474SOL     OW16057   0.178   2.933   8.424 -0.1987 -0.2087 -0.1522
 1474SOL    HW116058   0.187   2.841   8.401  2.0850 -0.3270  1.1720
 1474SOL    HW216059   0.084   2.949   8.432 -0.3980 -1.1297 -0.7002
 1475SOL     OW16060   3.131   4.609   2.802 -0.5182  1.2378  0.3201
 1475SOL    HW116061   3.057   4.557   2.833 -0.2331  0.3161 -0.5201
 1475SOL    HW216062   3.136   4.572   2.714 -0.9468  2.3591 -0.1694
 1476SOL     OW16063   2.028   2.406   9.950  0.5368  0.6944 -0.2857
 1476SOL    HW116064   2.100   2.384  10.009  0.4395 -0.3077 -0.5375
 1476SOL    HW216065   2.026   2.347   9.875  0.7335  0.0897  0.1876
 1477SOL     OW16066   2.250   0.471   3.482  0.0040 -1.0680 -0.3031
 1477SOL    HW116067   2.226   0.542   3.541  2.3421 -1.2927  0.9299
 1477SOL    HW216068   2.322   0.515   3.436 -1.1335 -0.2807 -1.3165
 1478SOL     OW16069   0.223   0.090   1.530 -0.7848  0.0357 -0.1144
 1478SOL    HW116070   0.255   0.148   1.461  0.6883 -2.3284 -1.4215
 1478SOL    HW216071   0.136   0.130   1.531 -0.5795  0.5077 -1.0227
 1479SOL     OW16072   3.684   0.775   2.225 -0.3914 -0.9102  0.0769
 1479SOL    HW116073   3.712   0.829   2.151 -1.4686 -1.6064 -0.8373
 1479SOL    HW216074   3.765   0.724   2.234  1.1925  1.5141 -0.2774
 1480SOL     OW16075   1.528   3.761  15.407  0.5264 -0.0601  0.6351
 1480SOL    HW116076   1.542   3.711  15.327  1.1553  1.4112 -0.1576
 1480SOL    HW216077   1.620   3.779  15.424  0.6427 -0.7902  0.7794
 1481SOL     OW16078   2.075   0.550  10.908  0.1931 -0.3715 -0.4704
 1481SOL    HW116079   2.103   0.594  10.988 -1.3791  1.5571 -0.9994
 1481SOL    HW216080   2.076   0.458  10.936  2.3604  0.5429  2.4634
 1482SOL     OW16081   3.144   3.775   7.952 -0.5923  0.3178 -0.2072
 1482SOL    HW116082   3.221   3.724   7.928 -0.2636  1.0524 -0.7361
 1482SOL    HW216083   3.129   3.734   8.037  0.5558  0.0978 -0.1179
 1483SOL     OW16084   3.715   1.371   4.173  0.2515  0.2667  0.5089
 1483SOL    HW116085   3.697   1.289   4.218  0.1499 -0.6855 -1.2611
 1483SOL    HW216086   3.636   1.385   4.121 -1.3596 -0.5482  2.7660
 1484SOL     OW16087   4.392   4.406   5.893  0.0884 -0.1856 -0.0881
 1484SOL    HW116088   4.439   4.342   5.840 -2.8943 -2.7803  0.3551
 1484SOL    HW216089   4.322   4.349   5.924  0.7346 -0.8328  0.1748
 1485SOL     OW16090   2.515   1.936  17.153  0.3443 -0.2793  0.0903
 1485SOL    HW116091   2.431   1.917  17.110 -0.0682  0.8963  0.3753
 1485SOL    HW216092   2.514   2.031  17.140 -1.4436 -0.7040 -2.8304
 1486SOL     OW16093   0.303   4.383  16.577 -0.0671  0.1780  0.3760
 1486SOL    HW116094   0.291   4.356  16.668 -0.5969  2.0449  0.8447
 1486SOL    HW216095   0.291   4.303  16.526  0.9420  0.5587 -0.4673
 1487SOL     OW16096   2.098   2.234   9.085  1.0341 -0.6033 -0.5598
 1487SOL    HW116097   2.077   2.304   9.147  2.2747 -2.4307  1.9120
 1487SOL    HW216098   2.028   2.168   9.090  0.4076  0.0316 -0.8603
 1488SOL     OW16099   0.618   4.255   0.498  0.5328 -0.1252  0.0768
 1488SOL    HW116100   0.698   4.255   0.446  0.4369  0.0694 -0.0708
 1488SOL    HW216101   0.558   4.296   0.436 -2.1210  0.6153  3.1481
 1489SOL     OW16102   3.433   3.692  12.883  0.0418  0.6159  0.1165
 1489SOL    HW116103   3.471   3.734  12.960 -0.6016  2.1218 -0.3957
 1489SOL    HW216104   3.338   3.694  12.893  0.1240 -0.0628  0.9880
 1490SOL     OW16105   3.851   1.779  13.963  0.0511  0.2772  0.6635
 1490SOL    HW116106   3.942   1.777  13.933  0.6496 -2.9223  2.6842
 1490SOL    HW216107   3.812   1.845  13.906  1.1350 -1.0826 -1.6156
 1491SOL     OW16108   0.479   3.842   5.107 -0.0634  0.5956 -0.2296
 1491SOL    HW116109   0.488   3.913   5.170 -0.4714  1.3275 -0.9937
 1491SOL    HW216110   0.388   3.849   5.077 -0.3753 -0.8509  0.3366
 1492SOL     OW16111   0.075   0.560   0.748  0.1707 -0.5919  0.9247
 1492SOL    HW116112   0.150   0.594   0.700 -0.5299 -0.1429  0.1404
 1492SOL    HW216113   0.103   0.578   0.838  1.3426 -0.1229  0.4612
 1493SOL     OW16114   1.264   4.496   4.796 -0.1093  0.1759  0.5678
 1493SOL    HW116115   1.337   4.471   4.739  0.0624  1.1081  0.3781
 1493SOL    HW216116   1.303   4.582   4.810  1.4319 -0.2982 -0.8094
 1494SOL     OW16117   3.680   1.235   1.579 -0.2016 -0.2046  0.2516
 1494SOL    HW116118   3.674   1.171   1.507  0.7834 -0.4589  0.4015
 1494SOL    HW216119   3.594   1.225   1.620 -0.7353  1.6928 -0.4184
 1495SOL     OW16120   3.991   0.217   2.321 -0.2986 -0.0281 -0.4065
 1495SOL    HW116121   4.006   0.175   2.236 -1.8215 -2.4669  0.5198
 1495SOL    HW216122   4.079   0.208   2.358 -0.7279 -1.1012  0.3655
 1496SOL     OW16123   2.740   0.737   1.233  0.4648  0.8532 -0.4643
 1496SOL    HW116124   2.761   0.747   1.140 -0.6307 -2.5620 -1.0653
 1496SOL    HW216125   2.818   0.697   1.271 -0.4036 -0.0195  0.4145
 1497SOL     OW16126   2.418   0.549  16.181  0.2364 -0.0258  0.0784
 1497SOL    HW116127   2.384   0.588  16.100 -0.9552  1.8283  1.4693
 1497SOL    HW216128   2.460   0.624  16.224  1.8251 -0.6451 -0.3895
 1498SOL     OW16129   3.016   1.683   3.058  0.5487  0.4609 -0.1230
 1498SOL    HW116130   2.973   1.765   3.079  0.3874 -0.1706  1.9698
 1498SOL    HW216131   3.108   1.706   3.071  0.3467  1.7422 -0.9887
 1499SOL     OW16132   0.970   1.376   2.117 -0.1982  0.8206  0.4723
 1499SOL    HW116133   0.982   1.281   2.121  1.1335  0.9174 -0.9765
 1499SOL    HW216134   1.057   1.417   2.110  0.8064 -1.6281 -1.4031
 1500SOL     OW16135   3.743   3.189   1.464  0.1043  0.2107  0.0037
 1500SOL    HW116136   3.697   3.264   1.500 -1.9388 -2.5177  3.1341
 1500SOL    HW216137   3.836   3.211   1.466  0.0680  0.4144 -0.4245
 1501SOL     OW16138   4.314   1.766   0.685 -0.3276  0.1918  0.1717
 1501SOL    HW116139   4.346   1.823   0.755  1.1949 -3.3032  2.3374
 1501SOL    HW216140   4.395   1.747   0.638  0.1179  0.6224  0.7604
 1502SOL     OW16141   0.101   2.566  11.386  0.7879 -0.0993 -0.1185
 1502SOL    HW116142   0.009   2.589  11.373  1.1565  0.6471 -1.4780
 1502SOL    HW216143   0.114   2.506  11.312  0.7357 -1.7513  1.2263
 1503SOL     OW16144   2.768   2.786   2.786 -1.2245 -0.8210 -0.1566
 1503SOL    HW116145   2.688   2.739   2.762  0.1219 -1.8287 -2.6663
 1503SOL    HW216146   2.761   2.872   2.745  1.4660 -0.4409  0.2131
 1504SOL     OW16147   1.595   0.059   3.236 -0.0228 -0.0589  0.1533
 1504SOL    HW116148   1.548   0.040   3.318  1.5821  2.3612  1.6290
 1504SOL    HW216149   1.624   4.705   3.228 -0.6068 -0.3581  1.3171
 1505SOL     OW16150   1.879   1.120   4.547  1.1237  0.4307 -0.6454
 1505SOL    HW116151   1.959   1.072   4.525  0.4116 -0.8771 -0.4295
 1505SOL    HW216152   1.853   1.091   4.635  0.2314 -0.5445 -1.2297
 1506SOL     OW16153   1.236   0.650   3.811 -0.4096 -0.6216  0.0514
 1506SOL    HW116154   1.198   0.734   3.784  1.1595 -0.0787 -0.4718
 1506SOL    HW216155   1.170   0.597   3.767 -1.3720  0.0566  0.6690
 1507SOL     OW16156   0.751   1.336   1.195  0.7547 -0.3247 -0.2491
 1507SOL    HW116157   0.777   1.247   1.217  1.8891 -0.8627 -3.8746
 1507SOL    HW216158   0.660   1.325   1.167  0.7717  4.9664 -2.5476
 1508SOL     OW16159   3.866   3.997   6.013 -0.2507 -0.3718 -0.8583
 1508SOL    HW116160   3.860   3.902   6.022  2.1898 -0.4740 -0.4730
 1508SOL    HW216161   3.961   4.005   6.015 -0.3692  1.1504 -1.5779
 1509SOL     OW16162   1.485   4.428   5.309  0.1358 -0.5864 -0.4593
 1509SOL    HW116163   1.482   4.481   5.230  0.9459 -1.0147 -0.7749
 1509SOL    HW216164   1.561   4.457   5.359 -1.4850 -0.3559  1.8999
 1510SOL     OW16165   1.575   4.408  12.080  0.1717 -0.0742  0.0864
 1510SOL    HW116166   1.600   4.395  12.172 -0.0027  0.1935  0.1713
 1510SOL    HW216167   1.609   4.492  12.050  2.6549 -1.3588 -0.6719
 1511SOL     OW16168   1.459   3.774  15.937 -0.6485 -0.1419 -0.0830
 1511SOL    HW116169   1.506   3.804  16.015 -0.7435  0.0542 -0.1004
 1511SOL    HW216170   1.537   3.766  15.882 -0.2560 -1.6580  0.6915
 1512SOL     OW16171   3.049   3.437   8.915  0.0477  0.4994  0.2948
 1512SOL    HW116172   2.955   3.418   8.905  0.3158 -0.2859 -0.6944
 1512SOL    HW216173   3.088   3.356   8.885 -0.7681 -0.1151  0.8819
 1513SOL     OW16174   0.666   0.230   6.062 -0.9187 -0.3897  0.3844
 1513SOL    HW116175   0.677   0.197   5.973  2.0647  3.3191 -0.6218
 1513SOL    HW216176   0.688   0.322   6.044  0.5146 -0.5871  1.1910
 1514SOL     OW16177   0.387   2.521   3.662 -0.2078  0.2766 -0.4004
 1514SOL    HW116178   0.447   2.449   3.641  0.0005  0.6803 -1.2158
 1514SOL    HW216179   0.436   2.591   3.618  1.5647 -0.8629 -0.2465
 1515SOL     OW16180   1.347   1.459   5.904  0.2568  0.7054 -0.2486
 1515SOL    HW116181   1.360   1.543   5.860 -1.5820  1.0595 -0.1089
 1515SOL    HW216182   1.345   1.405   5.826 -1.9538  0.5249 -0.0613
 1516SOL     OW16183   3.118   0.164   3.498 -0.0475  0.1595 -0.3866
 1516SOL    HW116184   3.114   0.192   3.407  1.8709 -1.1060 -0.8588
 1516SOL    HW216185   3.073   0.081   3.488  0.8079 -0.2077 -1.1496
 1517SOL     OW16186   2.811   2.977   6.603  0.0547 -0.2343 -0.1773
 1517SOL    HW116187   2.832   3.063   6.567 -1.9568  0.8361  1.1826
 1517SOL    HW216188   2.878   2.964   6.671  0.5768  0.1931 -0.6158
 1518SOL     OW16189   1.403   3.164  17.120  0.2921 -0.1171  0.1007
 1518SOL    HW116190   1.411   3.206  17.205  0.0663  0.6122 -0.2360
 1518SOL    HW216191   1.320   3.198  17.084 -0.2799 -0.4313  1.1392
 1519SOL     OW16192   2.787   0.983   3.777  0.4678 -0.3204  0.3476
 1519SOL    HW116193   2.769   1.002   3.869 -2.8116 -1.9897  0.0406
 1519SOL    HW216194   2.751   1.057   3.728  1.1795  1.0421  1.9096
 1520SOL     OW16195   3.416   2.622  16.785  0.3105  0.3883  0.1155
 1520SOL    HW116196   3.322   2.612  16.801  0.3602  0.7697  0.6523
 1520SOL    HW216197   3.442   2.537  16.821  1.1590  1.1076  1.1905
 1521SOL     OW16198   4.140   2.013   6.204 -0.1389 -0.5867 -0.1886
 1521SOL    HW116199   4.069   1.994   6.143  0.1723  0.7427 -0.9716
 1521SOL    HW216200   4.125   2.108   6.207 -1.0125 -0.7765  1.9542
 1522SOL     OW16201   3.477   4.111   5.034 -0.2204  0.0034 -0.4672
 1522SOL    HW116202   3.523   4.195   5.042 -0.9066  0.2173  1.1180
 1522SOL    HW216203   3.492   4.091   4.941  1.3099 -1.5846  0.1197
 1523SOL     OW16204   0.122   4.527   3.536 -0.0479  0.6268 -0.1202
 1523SOL    HW116205   0.056   4.504   3.470  0.9301 -0.9337 -0.5544
 1523SOL    HW216206   0.143   4.616   3.509  0.7036  0.5204  0.1289
 1524SOL     OW16207   2.513   0.661   8.535 -0.0226  0.1117  0.4092
 1524SOL    HW116208   2.425   0.697   8.534  0.2097  0.6535 -1.1250
 1524SOL    HW216209   2.550   0.677   8.622  0.1053 -1.8301  0.7071
 1525SOL     OW16210   4.152   3.502   5.344  0.4465 -0.2279 -0.0549
 1525SOL    HW116211   4.076   3.548   5.310 -0.1314 -0.7336  0.5707
 1525SOL    HW216212   4.215   3.573   5.356  1.1113 -1.1556  1.8873
 1526SOL     OW16213   0.064   3.006   1.051  0.1153  0.7587 -0.3710
 1526SOL    HW116214   4.729   3.010   1.115  1.1715  2.3176  0.7228
 1526SOL    HW216215   0.114   3.084   1.076  2.4317 -0.9557  0.3611
 1527SOL     OW16216   4.157   0.992  14.878 -0.1559 -0.3073 -0.1168
 1527SOL    HW116217   4.205   1.067  14.842 -0.4620 -0.1036 -0.1080
 1527SOL    HW216218   4.085   0.987  14.815 -1.7116  1.4072  1.5410
 1528SOL     OW16219   1.954   0.612   3.304  0.2708  0.0595 -0.3421
 1528SOL    HW116220   1.898   0.617   3.226  0.6645 -1.4996 -0.7278
 1528SOL    HW216221   1.927   0.525   3.335 -0.1393 -0.4050 -1.9812
 1529SOL     OW16222   1.591   2.265   9.749  0.4025 -0.8001  0.1311
 1529SOL    HW116223   1.614   2.344   9.700  0.3255  0.6607  2.4354
 1529SOL    HW216224   1.680   2.235   9.770  0.6060 -0.2721  0.0297
 1530SOL     OW16225   0.265   4.014  16.861 -0.2791 -0.1274  0.4826
 1530SOL    HW116226   0.196   4.013  16.927 -1.2631 -2.3936 -0.5702
 1530SOL    HW216227   0.313   3.934  16.881  2.2550  1.4136  0.5372
 1531SOL     OW16228   2.745   4.494   7.321  1.0928  0.2678 -0.2596
 1531SOL    HW116229   2.796   4.425   7.362  0.8298  0.3623  0.2278
 1531SOL    HW216230   2.736   4.566   7.384  1.0183 -0.9593  1.1252
 1532SOL     OW16231   3.638   0.567   9.088  0.3641 -0.7553  0.1847
 1532SOL    HW116232   3.610   0.658   9.083  1.1886 -0.6125 -1.7072
 1532SOL    HW216233   3.634   0.551   9.183 -1.4819 -2.3673 -0.1566
 1533SOL     OW16234   4.699   3.644  12.517 -0.6281  0.2818 -0.3114
 1533SOL    HW116235   4.700   3.606  12.605 -0.5256 -0.4576 -0.6316
 1533SOL    HW216236   4.627   3.600  12.473 -0.5120 -0.2710  0.0499
 1534SOL     OW16237   0.409   2.377  17.164  0.8547 -0.1077  0.0710
 1534SOL    HW116238   0.365   2.381  17.080  0.8443  3.1421  0.2053
 1534SOL    HW216239   0.366   2.307  17.212  2.1318 -0.7365  0.2912
 1535SOL     OW16240   0.502   0.570  14.835  0.3312  0.4048  0.7242
 1535SOL    HW116241   0.595   0.566  14.858  0.8987  4.9193 -0.8829
 1535SOL    HW216242   0.482   0.481  14.807  0.2220  1.4912 -2.5855
 1536SOL     OW16243   0.541   0.027   0.574  0.1101 -0.4355  0.0920
 1536SOL    HW116244   0.630   0.064   0.581 -0.5991  1.0797  1.1584
 1536SOL    HW216245   0.497   0.110   0.554 -3.7571 -1.9243  2.4675
 1537SOL     OW16246   2.877   3.214  14.176  0.3737 -0.1699 -0.7222
 1537SOL    HW116247   2.969   3.204  14.153  0.5693 -4.4290  1.8902
 1537SOL    HW216248   2.857   3.300  14.140 -0.3535 -0.6520 -1.4777
 1538SOL     OW16249   4.046   0.188  16.330  0.2382 -0.1107 -0.4480
 1538SOL    HW116250   4.068   0.175  16.422  1.4844 -1.1638 -0.8970
 1538SOL    HW216251   3.953   0.210  16.328  0.5037  0.8451 -2.5060
 1539SOL     OW16252   2.920   1.418   5.377  0.3023 -0.1234  0.0678
 1539SOL    HW116253   2.966   1.366   5.311  0.5860 -0.2184  0.3451
 1539SOL    HW216254   2.971   1.397   5.454  1.6871 -0.2332 -0.8826
 1540SOL     OW16255   1.684   4.195   6.685  0.3341 -0.3276  0.5080
 1540SOL    HW116256   1.598   4.216   6.650  1.1663  1.5019 -0.4543
 1540SOL    HW216257   1.737   4.188   6.605 -0.7661  0.7682 -0.3036
 1541SOL     OW16258   3.716   4.347  17.520 -0.5128 -0.4228 -0.1866
 1541SOL    HW116259   3.688   4.438  17.505 -0.4106 -0.4467 -0.5259
 1541SOL    HW216260   3.683   4.306  17.439 -0.0868 -0.9633 -0.0832
 1542SOL     OW16261   4.235   2.867   7.550  0.6605  0.5020 -0.7348
 1542SOL    HW116262   4.166   2.831   7.495  1.9287 -0.5655 -1.6482
 1542SOL    HW216263   4.301   2.797   7.545 -0.3567 -0.3823 -1.9279
 1543SOL     OW16264   1.088   2.744   6.810  0.4222  0.3765  0.5318
 1543SOL    HW116265   1.045   2.665   6.843 -0.7012 -0.0127 -1.8687
 1543SOL    HW216266   1.059   2.821   6.858  0.8100  1.3069 -0.7280
 1544SOL     OW16267   2.217   2.062   6.345 -0.1341  0.4901  0.1551
 1544SOL    HW116268   2.167   1.981   6.341 -0.1280  0.5840 -1.6407
 1544SOL    HW216269   2.295   2.029   6.388  0.1929  0.0318 -0.7945
 1545SOL     OW16270   4.003   0.943   4.215 -0.1613  0.2579  0.0978
 1545SOL    HW116271   4.007   0.854   4.180 -1.7310  0.4424 -0.5903
 1545SOL    HW216272   3.918   0.983   4.194 -0.1639 -0.3834 -1.1213
 1546SOL     OW16273   4.256   1.704   9.742 -0.2566 -0.0048  0.8750
 1546SOL    HW116274   4.247   1.642   9.815  6.1224 -2.2897 -0.3409
 1546SOL    HW216275   4.311   1.649   9.687  0.3634 -1.2976  2.7940
 1547SOL     OW16276   3.618   4.358  17.239 -0.0677  0.2306 -0.5263
 1547SOL    HW116277   3.617   4.454  17.236  0.2347  0.2107 -1.4549
 1547SOL    HW216278   3.709   4.346  17.212 -0.1524 -2.1381  0.2631
 1548SOL     OW16279   2.348   3.853   3.546 -0.0739  0.6727 -0.2155
 1548SOL    HW116280   2.263   3.858   3.502 -0.3083 -0.9083  0.0643
 1548SOL    HW216281   2.377   3.942   3.564 -0.0659  0.3078  1.6065
 1549SOL     OW16282   2.393   2.817  13.965  0.6041 -0.2799 -0.1426
 1549SOL    HW116283   2.381   2.901  13.920 -0.3371  0.2340  1.0671
 1549SOL    HW216284   2.345   2.824  14.047  0.3135  0.5646 -0.3752
 1550SOL     OW16285   2.464   0.576  10.113 -0.1072  0.1768  0.4692
 1550SOL    HW116286   2.409   0.526  10.053  0.1845  0.0997  0.2667
 1550SOL    HW216287   2.400   0.596  10.181  0.5408  2.6492  0.3393
 1551SOL     OW16288   0.290   3.871  10.192  0.5513 -0.8763 -0.5831
 1551SOL    HW116289   0.233   3.931  10.240  2.2708 -0.5595  1.0890
 1551SOL    HW216290   0.353   3.934  10.157 -0.0396  0.0235 -0.0275
 1552SOL     OW16291   1.538   3.969   6.394  0.1478 -0.7188  0.2602
 1552SOL    HW116292   1.478   3.963   6.468 -0.4836  1.2232 -0.1131
 1552SOL    HW216293   1.516   4.056   6.361  0.5796 -0.9749 -0.7301
 1553SOL     OW16294   0.892   0.728  10.468  0.3044  0.4921 -0.0698
 1553SOL    HW116295   0.828   0.770  10.526  0.3345 -0.4734  0.6611
 1553SOL    HW216296   0.975   0.728  10.516 -0.4311 -1.0114  1.1820
 1554SOL     OW16297   3.128   1.526   7.110  0.3343  0.0578  0.0171
 1554SOL    HW116298   3.132   1.621   7.121  0.0795  0.1626 -0.7705
 1554SOL    HW216299   3.217   1.499   7.133 -0.7086 -0.6030  3.3020
 1555SOL     OW16300   0.641   3.436   4.352  0.3229  0.2096  0.2185
 1555SOL    HW116301   0.703   3.372   4.386 -1.5511 -0.3450  2.6496
 1555SOL    HW216302   0.680   3.523   4.360  1.4466 -0.3782  1.1468
 1556SOL     OW16303   2.024   0.190  13.937 -0.0730 -0.7935  0.4630
 1556SOL    HW116304   2.048   0.272  13.981 -0.3157  1.1694 -3.0691
 1556SOL    HW216305   1.943   0.225  13.899 -0.2905 -1.0389  0.6973
 1557SOL     OW16306   3.018   3.273   6.843  0.0997  0.4656  0.5107
 1557SOL    HW116307   3.049   3.305   6.928  2.2243  0.7458 -0.3650
 1557SOL    HW216308   3.048   3.182   6.842  0.4606  0.5405  3.4074
 1558SOL     OW16309   4.164   0.896   3.547  0.2178  0.6062  0.8976
 1558SOL    HW116310   4.173   0.964   3.480 -0.9267 -1.8723 -1.7448
 1558SOL    HW216311   4.246   0.850   3.531 -1.1620 -1.9343  1.1068
 1559SOL     OW16312   4.273   3.282   4.735 -0.0813  0.1479  0.5530
 1559SOL    HW116313   4.278   3.365   4.782 -0.3354  0.7269 -0.4442
 1559SOL    HW216314   4.367   3.266   4.724 -0.6146 -2.5835 -0.2116
 1560SOL     OW16315   1.127   1.598   5.685  0.2268 -0.0668  0.7005
 1560SOL    HW116316   1.075   1.553   5.751 -1.4572 -0.2172 -0.7238
 1560SOL    HW216317   1.160   1.676   5.731  1.9142 -0.1528 -0.3714
 1561SOL     OW16318   1.052   3.111   7.273 -0.4791  0.2339 -0.6340
 1561SOL    HW116319   0.959   3.117   7.291 -0.3518 -2.3644  1.0166
 1561SOL    HW216320   1.086   3.195   7.302 -2.6011  0.3707  1.4450
 1562SOL     OW16321   3.916   2.749   8.736  0.0852  0.4360  0.9031
 1562SOL    HW116322   3.850   2.779   8.674  0.5825 -0.4849 -0.0626
 1562SOL    HW216323   3.877   2.668   8.768 -1.5674  1.5593  1.7737
 1563SOL     OW16324   2.520   4.002   1.193  0.1616  0.6064 -0.0333
 1563SOL    HW116325   2.446   3.950   1.226  1.8082 -1.2995  0.6524
 1563SOL    HW216326   2.544   3.950   1.116 -1.8794 -0.7207  0.2093
 1564SOL     OW16327   4.732   0.297   5.548  0.0186  0.1005  0.1886
 1564SOL    HW116328   0.012   0.209   5.515  0.3054  0.5109 -0.7581
 1564SOL    HW216329   4.708   0.341   5.467  0.2275 -1.8548 -0.9229
 1565SOL     OW16330   3.173   2.853   7.389 -0.5524  0.5832  0.3582
 1565SOL    HW116331   3.144   2.772   7.430  1.7891  0.2177  1.3026
 1565SOL    HW216332   3.215   2.893   7.465  1.1580  0.2529 -0.4164
 1566SOL     OW16333   2.017   0.800   3.507  0.5516  0.1371 -0.4217
 1566SOL    HW116334   1.972   0.755   3.436  0.2602 -1.7701  0.9566
 1566SOL    HW216335   2.073   0.857   3.455  2.4390 -0.4644  0.9296
 1567SOL     OW16336   4.222   0.394   2.716  0.1444 -0.7130  0.1320
 1567SOL    HW116337   4.255   0.308   2.690 -0.6413  0.4547 -4.8417
 1567SOL    HW216338   4.291   0.448   2.678  1.8905 -1.3434  2.3999
 1568SOL     OW16339   1.302   1.196   0.252  0.3581  0.5586 -0.3831
 1568SOL    HW116340   1.335   1.239   0.173 -1.8341  1.1145 -1.0002
 1568SOL    HW216341   1.379   1.203   0.308  1.4944 -0.6058 -1.8318
 1569SOL     OW16342   3.983   2.409   4.471  0.4967  0.4057  0.0365
 1569SOL    HW116343   3.979   2.504   4.473 -1.6889  0.2887  0.9682
 1569SOL    HW216344   3.896   2.380   4.498  1.5133 -1.1936  1.5846
 1570SOL     OW16345   2.288   3.991  10.667  0.7149  0.9455 -0.1984
 1570SOL    HW116346   2.209   3.944  10.638  2.0505 -0.5819 -1.3576
 1570SOL    HW216347   2.350   3.918  10.668  1.2290  1.3767 -0.6308
 1571SOL     OW16348   1.971   2.617   9.687 -0.2167  0.3429  0.2011
 1571SOL    HW116349   1.882   2.585   9.704 -0.1490 -0.0172 -0.1340
 1571SOL    HW216350   2.000   2.641   9.775  0.3234 -2.5278  0.7879
 1572SOL     OW16351   3.511   1.242   8.612 -0.1194  0.0851  0.3722
 1572SOL    HW116352   3.442   1.230   8.678 -1.6508  0.6973 -1.1031
 1572SOL    HW216353   3.521   1.164   8.558 -5.6611  0.3246 -1.0199
 1573SOL     OW16354   4.558   1.778  15.485  0.4443  0.1376  0.4823
 1573SOL    HW116355   4.539   1.802  15.394  0.6460 -1.3374  0.0492
 1573SOL    HW216356   4.475   1.778  15.532  0.1311 -0.6125 -0.0661
 1574SOL     OW16357   1.631   1.025   1.432 -0.4541  0.2118  0.4129
 1574SOL    HW116358   1.685   1.104   1.429 -0.6912  0.3836  0.7160
 1574SOL    HW216359   1.621   1.020   1.527 -1.8389 -1.3247  0.1802
 1575SOL     OW16360   1.333   3.611   6.431  0.1826  0.3906 -0.2354
 1575SOL    HW116361   1.408   3.563   6.465  0.8745  3.4516  2.4975
 1575SOL    HW216362   1.316   3.671   6.504 -0.5003 -0.8779  0.6421
 1576SOL     OW16363   1.462   1.717  11.583  0.2404 -0.2151 -0.1712
 1576SOL    HW116364   1.538   1.760  11.622  1.2400  0.2137 -2.5813
 1576SOL    HW216365   1.493   1.631  11.557 -1.9633 -1.0188 -0.1297
 1577SOL     OW16366   3.798   3.297   5.596  0.3324  0.0891  0.0606
 1577SOL    HW116367   3.703   3.309   5.586  0.3214 -1.6366 -1.8770
 1577SOL    HW216368   3.791   3.237   5.671 -0.8938 -0.2792 -0.3342
 1578SOL     OW16369   1.524   1.186  10.341 -0.3223  0.3505  0.3164
 1578SOL    HW116370   1.580   1.242  10.395 -3.7708  4.1128  0.0353
 1578SOL    HW216371   1.520   1.234  10.258 -1.6377  0.4510  0.4450
 1579SOL     OW16372   1.205   0.052  14.212  0.1675 -0.2191 -0.4010
 1579SOL    HW116373   1.126   0.001  14.193 -0.6227  1.3338 -1.3520
 1579SOL    HW216374   1.185   0.062  14.305 -3.3628 -1.1709 -1.0458
 1580SOL     OW16375   3.538   2.965  10.073 -0.2086  0.3381 -0.4036
 1580SOL    HW116376   3.463   2.939  10.127  1.0066 -1.0620  0.6105
 1580SOL    HW216377   3.496   3.032  10.019 -2.6519  0.1884  1.2948
 1581SOL     OW16378   3.750   1.894   8.574 -0.6096  0.1208 -0.3047
 1581SOL    HW116379   3.711   1.939   8.499  0.4382  2.6765  0.6983
 1581SOL    HW216380   3.764   1.967   8.634  0.6193  1.0565 -1.7142
 1582SOL     OW16381   2.109   0.362   2.280 -0.5371  0.6472 -0.1016
 1582SOL    HW116382   2.127   0.325   2.366  0.1365 -0.0360 -0.5248
 1582SOL    HW216383   2.185   0.419   2.265 -1.0248  1.1030 -0.8022
 1583SOL     OW16384   1.311   1.673   2.811 -0.2983  0.0796  0.3025
 1583SOL    HW116385   1.397   1.631   2.819 -0.8427 -1.2832 -0.8136
 1583SOL    HW216386   1.267   1.593   2.781 -0.4296  0.8275 -1.5416
 1584SOL     OW16387   3.037   0.223  15.741  0.4933 -0.5803  0.8152
 1584SOL    HW116388   3.015   0.205  15.832  0.6939 -1.0356  0.7751
 1584SOL    HW216389   3.009   0.135  15.716  1.5275 -0.7879  0.4190
 1585SOL     OW16390   3.202   3.946   7.486 -0.1053  0.8056 -0.5802
 1585SOL    HW116391   3.160   3.957   7.571 -0.8293 -0.3285 -0.7895
 1585SOL    HW216392   3.295   3.950   7.507 -0.2256 -2.4276  0.4684
 1586SOL     OW16393   2.801   0.679   3.295  0.1370  0.3660 -0.4355
 1586SOL    HW116394   2.758   0.686   3.380 -0.1169 -1.1874 -0.4373
 1586SOL    HW216395   2.730   0.670   3.231  2.2101  1.6653 -2.9035
 1587SOL     OW16396   0.153   0.220   9.802  0.0648  0.0671  0.0111
 1587SOL    HW116397   0.112   0.145   9.846  0.2703 -0.5184 -0.7976
 1587SOL    HW216398   0.223   0.174   9.756  0.8723  1.3161 -0.0055
 1588SOL     OW16399   3.212   0.948  11.529  0.7311 -0.0350 -0.2642
 1588SOL    HW116400   3.170   0.924  11.611  1.0872  2.6063  0.6647
 1588SOL    HW216401   3.199   1.042  11.524 -1.4794 -0.3217  0.4067
 1589SOL     OW16402   1.187   2.714   3.032 -0.3179 -0.0379  0.5688
 1589SOL    HW116403   1.120   2.712   2.963 -0.8108  0.9490  1.0301
 1589SOL    HW216404   1.154   2.643   3.088 -0.6164 -1.6199 -1.5823
 1590SOL     OW16405   4.660   3.216   7.636  0.9550 -0.0665 -0.5882
 1590SOL    HW116406   4.581   3.200   7.585  1.5267 -0.4825 -1.3295
 1590SOL    HW216407   4.665   3.142   7.696  4.0589 -1.6395 -2.7954
 1591SOL     OW16408   0.552   0.811   2.602  0.4349 -0.0523  0.4716
 1591SOL    HW116409   0.609   0.873   2.557  1.1855 -0.5029  0.8183
 1591SOL    HW216410   0.608   0.739   2.631  0.8568 -0.6155 -1.7033
 1592SOL     OW16411   3.429   1.236   0.618  0.1851 -0.2613 -0.2977
 1592SOL    HW116412   3.350   1.186   0.637  0.6559 -0.3550  1.4236
 1592SOL    HW216413   3.395   1.325   0.613  0.2407 -0.2444 -0.3934
 1593SOL     OW16414   1.755   0.360  12.741  0.1180 -0.0762 -0.2759
 1593SOL    HW116415   1.663   0.366  12.715 -0.0338 -1.5548 -0.0771
 1593SOL    HW216416   1.763   0.306  12.819 -0.9993  1.2973  0.7802
 1594SOL     OW16417   4.641   0.117  11.686  0.1501 -0.7860 -0.0130
 1594SOL    HW116418   4.723   0.117  11.637  0.6372 -1.0536  0.8060
 1594SOL    HW216419   4.663   0.149  11.773  1.2116 -0.3971 -0.4301
 1595SOL     OW16420   3.541   0.852   1.625 -0.3994 -0.3413 -0.2143
 1595SOL    HW116421   3.520   0.775   1.572 -1.8423 -1.1906  1.5567
 1595SOL    HW216422   3.598   0.810   1.689  0.8704  1.0072 -0.4759
 1596SOL     OW16423   3.399   4.515   0.567 -0.0471 -0.2433 -0.2887
 1596SOL    HW116424   3.347   4.596   0.566  1.0922  0.5038  0.4904
 1596SOL    HW216425   3.435   4.522   0.479  2.7051 -0.4381  0.8166
 1597SOL     OW16426   0.157   2.324   5.430  0.0971  0.3413 -0.1060
 1597SOL    HW116427   0.171   2.229   5.427 -0.9386  0.1860 -0.1763
 1597SOL    HW216428   0.111   2.323   5.514  0.2530 -0.9638 -0.0265
 1598SOL     OW16429   2.715   2.385   8.059  0.0226 -0.0909  0.3543
 1598SOL    HW116430   2.665   2.449   8.110 -0.3748 -1.1250  1.2566
 1598SOL    HW216431   2.779   2.442   8.018  0.2406  0.0945  0.9456
 1599SOL     OW16432   2.948   1.566   6.193 -0.5238 -0.0591  0.1214
 1599SOL    HW116433   2.875   1.565   6.254  0.0985  0.4921  0.8740
 1599SOL    HW216434   3.000   1.492   6.223  1.9126  1.7977  0.5514
 1600SOL     OW16435   0.873   0.588  10.096  0.3002 -0.5804  0.1517
 1600SOL    HW116436   0.878   0.684  10.092 -1.5594 -0.5619 -1.3768
 1600SOL    HW216437   0.807   0.582  10.165 -2.6639  0.8306 -2.5651
 1601SOL     OW16438   0.235   3.969   3.245 -0.8838  0.8670  0.2759
 1601SOL    HW116439   0.266   3.899   3.302 -1.3304 -0.3624 -0.9971
 1601SOL    HW216440   0.259   3.928   3.161 -1.3401 -0.5760  0.8570
 1602SOL     OW16441   0.448   2.379  15.724  0.2884  0.3251  0.3699
 1602SOL    HW116442   0.447   2.284  15.739  0.9942  0.5490  1.8091
 1602SOL    HW216443   0.500   2.423  15.791 -1.3029  3.6774 -0.5953
 1603SOL     OW16444   0.309   3.458   5.513  0.3810  0.8752  0.2559
 1603SOL    HW116445   0.350   3.532   5.467 -0.8211  1.7245  0.5575
 1603SOL    HW216446   0.369   3.386   5.495 -2.3332 -1.1007 -0.7810
 1604SOL     OW16447   4.168   3.084   5.713  0.4200  0.1022 -0.5306
 1604SOL    HW116448   4.238   3.022   5.734  1.1712  0.9576 -0.4635
 1604SOL    HW216449   4.166   3.095   5.618 -0.5020  1.7387 -0.3340
 1605SOL     OW16450   1.802   1.618  11.676 -0.0880  0.4166  0.2225
 1605SOL    HW116451   1.757   1.613  11.592 -1.1333 -1.4558  0.8866
 1605SOL    HW216452   1.820   1.525  11.685  1.4583  0.6958 -0.0213
 1606SOL     OW16453   0.715   2.093   8.209  0.2799  0.0648  0.2458
 1606SOL    HW116454   0.723   2.186   8.226 -0.5240  0.0161  0.9041
 1606SOL    HW216455   0.806   2.068   8.198 -0.5916 -2.5796 -1.0168
 1607SOL     OW16456   4.252   3.386   5.619 -0.1159  0.2778 -0.3694
 1607SOL    HW116457   4.163   3.369   5.650 -1.1045 -0.2682 -3.5332
 1607SOL    HW216458   4.252   3.381   5.524  0.9137 -1.5018 -0.2767
 1608SOL     OW16459   0.628   3.118  12.154 -0.3573 -0.0347 -0.0435
 1608SOL    HW116460   0.540   3.124  12.118 -0.1726  2.7336 -0.0590
 1608SOL    HW216461   0.617   3.143  12.246 -2.0335 -0.4773 -0.1248
 1609SOL     OW16462   3.061   3.257   5.587  0.1724  0.0879  0.1567
 1609SOL    HW116463   3.037   3.312   5.512  0.4518  0.6135  0.4581
 1609SOL    HW216464   3.137   3.211   5.552  0.6041  1.5085 -0.7677
 1610SOL     OW16465   4.411   3.202   4.356  0.6640 -0.1698 -0.0878
 1610SOL    HW116466   4.445   3.288   4.380 -1.1172  0.5660 -0.2682
 1610SOL    HW216467   4.372   3.180   4.440  0.3405 -0.4240 -0.3065
 1611SOL     OW16468   2.117   0.638  11.154  0.6071  0.3570  0.4862
 1611SOL    HW116469   2.113   0.734  11.163 -0.2975  0.4245 -0.6425
 1611SOL    HW216470   2.097   0.597  11.238 -1.8277  0.1807 -0.1692
 1612SOL     OW16471   3.613   3.044   4.771 -0.2960  0.0191 -0.8268
 1612SOL    HW116472   3.565   2.962   4.785 -0.7951  0.4092 -0.2803
 1612SOL    HW216473   3.554   3.101   4.723  0.4416  2.0937  0.7413
 1613SOL     OW16474   3.707   4.329   4.693  0.7877 -0.0317 -0.3262
 1613SOL    HW116475   3.770   4.399   4.677  0.1725  0.4625 -0.5784
 1613SOL    HW216476   3.704   4.327   4.789  1.9081  3.9418 -0.2106
 1614SOL     OW16477   4.116   2.224  16.275 -0.3615  0.3739  0.4767
 1614SOL    HW116478   4.084   2.294  16.331 -1.1452  0.6631 -0.3323
 1614SOL    HW216479   4.195   2.190  16.318 -1.4413 -1.1759  1.2137
 1615SOL     OW16480   2.487   2.309   1.936  0.2779 -0.4762 -0.6890
 1615SOL    HW116481   2.527   2.248   1.997 -1.3651 -1.1647 -0.3127
 1615SOL    HW216482   2.549   2.382   1.925  2.0672 -2.2865 -2.4530
 1616SOL     OW16483   2.009   2.215  11.899  0.6768 -0.4234  0.5645
 1616SOL    HW116484   1.971   2.133  11.932 -4.7161  1.4115 -0.9845
 1616SOL    HW216485   1.929   2.246  11.857 -0.6271  0.2474  3.5330
 1617SOL     OW16486   0.935   2.403   2.668 -0.2820 -0.0805 -0.0165
 1617SOL    HW116487   0.875   2.420   2.595  1.7296  0.6989 -1.4967
 1617SOL    HW216488   0.886   2.428   2.746  2.2683  0.7318  1.2983
 1618SOL     OW16489   4.503   0.558   8.825 -0.6876 -0.2505  0.3038
 1618SOL    HW116490   4.431   0.604   8.783 -0.9920 -0.4386  0.6097
 1618SOL    HW216491   4.582   0.596   8.787  0.3810 -2.4936  0.2597
 1619SOL     OW16492   3.797   1.634  17.151  0.3786  0.6679  0.1694
 1619SOL    HW116493   3.858   1.634  17.078 -0.0087  2.1290 -0.1556
 1619SOL    HW216494   3.773   1.542  17.160 -0.4511  0.9221  0.6421
 1620SOL     OW16495   4.577   1.104   8.966 -0.5942  0.3209 -0.5593
 1620SOL    HW116496   4.515   1.160   9.013  0.5965  0.9633  0.2345
 1620SOL    HW216497   4.633   1.077   9.038 -1.0361  3.2082  0.8770
 1621SOL     OW16498   1.666   2.164  15.644  0.0905  0.1759 -0.2556
 1621SOL    HW116499   1.702   2.250  15.624 -1.4810  1.2218  1.4856
 1621SOL    HW216500   1.709   2.153  15.729  0.3609 -0.5538 -0.4775
 1622SOL     OW16501   1.181   0.297  13.946  0.8027 -0.8209  0.6901
 1622SOL    HW116502   1.196   0.255  14.031 -1.6593  0.1469  1.5942
 1622SOL    HW216503   1.250   0.363  13.940  0.8617 -1.0893 -1.3712
 1623SOL     OW16504   2.137   2.670  10.620 -0.3886 -0.1599 -0.3344
 1623SOL    HW116505   2.063   2.624  10.579  0.3328  1.1601 -3.1136
 1623SOL    HW216506   2.156   2.749  10.569  0.4092  0.2481  0.6154
 1624SOL     OW16507   1.638   3.794   6.810  0.5340  0.1595 -0.2250
 1624SOL    HW116508   1.571   3.727   6.798 -0.9527  1.4790  0.6761
 1624SOL    HW216509   1.596   3.860   6.865  0.4535 -0.3932  0.3661
 1625SOL     OW16510   4.601   3.417   4.367 -0.4338 -0.2457 -0.0821
 1625SOL    HW116511   4.696   3.425   4.369 -0.2905 -1.5390 -1.3888
 1625SOL    HW216512   4.567   3.486   4.424 -1.3826 -0.7511 -0.0257
 1626SOL     OW16513   4.193   4.523   2.138  0.1667  0.5853  0.4161
 1626SOL    HW116514   4.249   4.541   2.062  0.8666 -2.2036  0.2885
 1626SOL    HW216515   4.256   4.544   2.206  1.2819 -0.9315 -0.1552
 1627SOL     OW16516   1.609   0.553   2.727 -0.5468 -0.1671 -0.9546
 1627SOL    HW116517   1.523   0.557   2.687 -0.8487 -1.6991 -0.4898
 1627SOL    HW216518   1.590   0.549   2.821  1.1383 -2.0708 -0.6863
 1628SOL     OW16519   3.431   3.479   8.051 -0.0408  0.0775 -0.5781
 1628SOL    HW116520   3.485   3.486   8.130 -2.0189  1.7989  0.6208
 1628SOL    HW216521   3.397   3.390   8.039 -1.1424  0.5899 -1.2214
 1629SOL     OW16522   0.363   2.558  13.780  0.0674  0.4927  0.1481
 1629SOL    HW116523   0.444   2.607  13.764  0.0147  0.5242 -0.0243
 1629SOL    HW216524   0.336   2.612  13.854 -3.5777 -0.4708 -0.4728
 1630SOL     OW16525   2.929   0.532   1.259 -0.3363  0.0753 -0.6026
 1630SOL    HW116526   3.024   0.532   1.264 -0.3492 -0.7329 -0.4611
 1630SOL    HW216527   2.908   0.462   1.198  1.0193 -1.9783  1.3097
 1631SOL     OW16528   2.413   0.163   4.173  0.1718  0.2448  0.3644
 1631SOL    HW116529   2.451   0.201   4.094  1.1801 -0.9852  0.2631
 1631SOL    HW216530   2.461   0.081   4.180  0.7076  0.7857  3.0696
 1632SOL     OW16531   1.009   2.979   1.106 -0.1157 -0.1225  0.5528
 1632SOL    HW116532   1.071   2.906   1.110  0.6850  0.6006  1.4292
 1632SOL    HW216533   0.960   2.951   1.029  2.3312  0.3413 -1.1736
 1633SOL     OW16534   2.277   3.679   3.210  0.7828 -0.4245 -0.3538
 1633SOL    HW116535   2.230   3.618   3.153  0.8792  0.0164 -0.8942
 1633SOL    HW216536   2.355   3.627   3.229 -1.9517 -3.1039  3.5978
 1634SOL     OW16537   2.128   2.396   4.862 -0.3047 -0.0030  0.0444
 1634SOL    HW116538   2.200   2.395   4.924  1.2676  0.4497 -1.7565
 1634SOL    HW216539   2.126   2.304   4.838 -1.4720  0.5942 -2.1996
 1635SOL     OW16540   2.173   4.411   2.787  0.1034 -0.5659 -0.1187
 1635SOL    HW116541   2.247   4.384   2.842  1.2027  1.4482 -0.6288
 1635SOL    HW216542   2.152   4.328   2.743  0.6923 -0.2485 -0.9757
 1636SOL     OW16543   3.640   0.048  14.599 -0.6092 -0.0481 -0.8023
 1636SOL    HW116544   3.729   0.012  14.597 -0.0496  1.3237 -0.6099
 1636SOL    HW216545   3.648   0.141  14.617  0.3057 -0.5272  1.2221
 1637SOL     OW16546   1.286   4.228   4.338 -0.2229 -0.2871 -0.4515
 1637SOL    HW116547   1.354   4.195   4.279  0.0849  0.5714 -0.5891
 1637SOL    HW216548   1.303   4.171   4.413  2.2991  0.8639 -0.1363
 1638SOL     OW16549   1.463   2.039   4.056  0.0118  0.2204 -0.1811
 1638SOL    HW116550   1.536   1.977   4.059  0.6233  0.8519 -2.3439
 1638SOL    HW216551   1.455   2.074   3.967 -0.3443  1.1955  0.2284
 1639SOL     OW16552   2.376   0.023  16.300  0.2122  0.0772 -0.1127
 1639SOL    HW116553   2.375   4.698  16.226  0.0207  0.0395 -0.0792
 1639SOL    HW216554   2.387   0.113  16.270 -0.0145 -0.3067 -1.3469
 1640SOL     OW16555   0.433   3.915   9.019 -0.0322  0.1963  0.1730
 1640SOL    HW116556   0.426   4.010   9.032  0.5871  0.2190  0.3450
 1640SOL    HW216557   0.338   3.902   9.018 -0.1965  1.7435 -4.4634
 1641SOL     OW16558   3.369   0.454   8.593  0.7422 -0.4572  0.1647
 1641SOL    HW116559   3.368   0.474   8.500  0.8215 -0.0181  0.2595
 1641SOL    HW216560   3.280   0.420   8.609  0.5568 -0.8253 -1.6893
 1642SOL     OW16561   2.368   3.557  11.852 -0.2050  0.1735  0.6644
 1642SOL    HW116562   2.308   3.614  11.900  0.8128  2.1001 -0.3603
 1642SOL    HW216563   2.310   3.487  11.822  0.1324 -0.9108  2.4847
 1643SOL     OW16564   2.768   1.658   2.677  0.4074 -0.5675 -0.5645
 1643SOL    HW116565   2.847   1.632   2.726 -0.0978 -3.0076 -1.0229
 1643SOL    HW216566   2.814   1.639   2.595 -0.4068 -0.7391 -0.9726
 1644SOL     OW16567   2.109   3.706  10.951 -0.0689  0.7751  0.2021
 1644SOL    HW116568   2.139   3.618  10.927 -1.5788  0.3706 -0.1968
 1644SOL    HW216569   2.090   3.696  11.044  1.0069 -1.5453  0.1567
 1645SOL     OW16570   2.503   0.074   2.447 -0.2306  0.0553 -0.7043
 1645SOL    HW116571   2.498   4.729   2.398 -0.1316 -0.0008 -0.6206
 1645SOL    HW216572   2.424   0.077   2.501 -2.6561 -1.5593 -4.1239
 1646SOL     OW16573   3.761   0.331   2.214  0.0788 -0.2793  0.4192
 1646SOL    HW116574   3.724   0.244   2.229  0.5340 -1.0472 -3.0672
 1646SOL    HW216575   3.836   0.337   2.273 -1.7638  1.7287  2.6043
 1647SOL     OW16576   3.167   3.541   1.418  0.4499  0.2821 -0.5849
 1647SOL    HW116577   3.262   3.531   1.407  0.6288  0.2760  1.0180
 1647SOL    HW216578   3.163   3.536   1.514  0.5700 -1.4511 -0.6738
 1648SOL     OW16579   2.816   1.116   1.956 -0.1735 -0.1918 -0.3263
 1648SOL    HW116580   2.872   1.141   2.029  0.4817 -2.4283 -0.0438
 1648SOL    HW216581   2.823   1.183   1.888 -0.1517  1.5231  1.3933
 1649SOL     OW16582   2.400   0.620   6.342 -0.1849 -0.5126 -0.0864
 1649SOL    HW116583   2.419   0.617   6.249 -0.3175 -1.8926 -0.0815
 1649SOL    HW216584   2.476   0.672   6.368  0.7510 -1.5275 -0.8113
 1650SOL     OW16585   1.376   1.845   7.626 -0.1048  0.3082  1.0145
 1650SOL    HW116586   1.345   1.881   7.709 -2.2794  1.3007 -0.2165
 1650SOL    HW216587   1.430   1.920   7.602 -0.2036  0.2263  0.5393
 1651SOL     OW16588   4.007   0.684   4.559  0.4314 -0.0714  0.5062
 1651SOL    HW116589   4.093   0.653   4.589  1.2715  0.7606 -1.0098
 1651SOL    HW216590   3.972   0.729   4.635  1.0925  3.8080 -1.4564
 1652SOL     OW16591   1.117   2.202   2.717 -0.6522 -0.4496 -0.3599
 1652SOL    HW116592   1.041   2.219   2.662 -0.6217  0.5161 -0.0943
 1652SOL    HW216593   1.080   2.229   2.801 -1.8197  0.0982 -1.0572
 1653SOL     OW16594   3.790   4.031  11.720 -0.6281  0.5207 -0.3356
 1653SOL    HW116595   3.863   4.085  11.690  0.1015 -0.1809  0.1745
 1653SOL    HW216596   3.800   3.939  11.699 -1.6343 -0.3378  2.8555
 1654SOL     OW16597   0.993   0.310   9.694 -0.5273  0.1488  0.1122
 1654SOL    HW116598   1.085   0.334   9.710 -0.1944 -1.1846  0.1443
 1654SOL    HW216599   0.977   0.246   9.763  0.1333  0.5535  0.6524
 1655SOL     OW16600   3.699   2.167  14.978  0.6874 -0.6501  0.0999
 1655SOL    HW116601   3.750   2.207  15.048 -0.6812 -0.0720  0.7690
 1655SOL    HW216602   3.609   2.173  15.011  0.8509 -0.7661  0.5658
 1656SOL     OW16603   3.237   3.982   6.132  0.5334 -0.1314 -1.0973
 1656SOL    HW116604   3.218   3.930   6.210  0.3391 -0.1593 -1.1629
 1656SOL    HW216605   3.253   4.068   6.170 -0.7289 -0.6032  0.4774
 1657SOL     OW16606   3.217   2.166   0.533 -0.6254 -0.1817 -0.8490
 1657SOL    HW116607   3.215   2.188   0.440 -0.6685  1.2123 -0.5230
 1657SOL    HW216608   3.203   2.256   0.563 -0.4742  0.1094 -1.6544
 1658SOL     OW16609   3.199   3.347   6.236  0.3696 -0.1110 -0.2404
 1658SOL    HW116610   3.285   3.337   6.276 -0.3546  0.7807  1.5056
 1658SOL    HW216611   3.209   3.294   6.157 -0.1254  1.8515 -1.6166
 1659SOL     OW16612   4.500   4.012  16.745 -0.1240 -0.0158  1.0210
 1659SOL    HW116613   4.427   4.071  16.730  1.3198  1.5500  0.1868
 1659SOL    HW216614   4.549   4.039  16.667  0.5010 -2.1691  0.6530
 1660SOL     OW16615   2.176   0.335   2.894  0.2022  0.0049 -0.2271
 1660SOL    HW116616   2.122   0.272   2.845 -0.0150  0.3611 -0.4451
 1660SOL    HW216617   2.259   0.335   2.846  0.3339 -0.5726 -0.0049
 1661SOL     OW16618   3.125   4.426  16.413 -0.1762 -0.4419  0.1807
 1661SOL    HW116619   3.163   4.339  16.399 -0.7354 -1.1096  2.8204
 1661SOL    HW216620   3.160   4.456  16.497 -1.7485  0.7732  0.3905
 1662SOL     OW16621   1.422   1.733   4.290  0.9562 -0.1877  0.4741
 1662SOL    HW116622   1.478   1.810   4.302 -1.0243  1.0940  1.6501
 1662SOL    HW216623   1.490   1.667   4.298  2.9873  1.7581 -0.9569
 1663SOL     OW16624   1.774   3.338   4.529  0.1202  0.3374 -0.3339
 1663SOL    HW116625   1.830   3.415   4.536 -0.9473  1.2184 -1.3335
 1663SOL    HW216626   1.837   3.268   4.511  2.0098  1.6360  1.2108
 1664SOL     OW16627   2.410   4.182   9.600 -0.0110 -0.6676  0.5819
 1664SOL    HW116628   2.335   4.211   9.548 -0.1406  0.3562  1.3330
 1664SOL    HW216629   2.434   4.256   9.657  0.1308  0.2415 -0.6562
 1665SOL     OW16630   2.506   2.442   0.401 -0.5955 -0.3088 -0.4136
 1665SOL    HW116631   2.516   2.512   0.338 -1.5936 -0.1014 -0.3464
 1665SOL    HW216632   2.557   2.476   0.475 -1.6421 -0.4542  0.3771
 1666SOL     OW16633   3.224   1.591  11.692  0.0186 -0.4779  0.0839
 1666SOL    HW116634   3.172   1.602  11.771 -0.0020 -0.1606  0.0278
 1666SOL    HW216635   3.303   1.631  11.729 -0.4445  1.2180 -0.7410
 1667SOL     OW16636   4.127   2.524  11.965  0.2493  0.4935 -0.3376
 1667SOL    HW116637   4.094   2.518  12.054 -0.1142  0.3302 -0.4827
 1667SOL    HW216638   4.119   2.432  11.940  1.0512 -0.4968  3.1343
 1668SOL     OW16639   1.520   0.591   4.841 -0.3593  0.2214  0.0462
 1668SOL    HW116640   1.506   0.514   4.895  0.3693  0.9598  1.2834
 1668SOL    HW216641   1.504   0.551   4.755  1.6979  1.2458 -0.8315
 1669SOL     OW16642   2.824   1.972   4.151 -0.2147 -0.5468 -0.4250
 1669SOL    HW116643   2.831   1.907   4.081 -1.6391 -2.0788  0.8552
 1669SOL    HW216644   2.914   2.005   4.162 -0.3834 -0.4556  0.6627
 1670SOL     OW16645   1.781   1.019  13.066  0.3712  0.2562 -0.8670
 1670SOL    HW116646   1.719   0.947  13.063  2.2026 -1.2405 -2.4204
 1670SOL    HW216647   1.817   1.007  13.154 -1.1196  1.1259 -0.1418
 1671SOL     OW16648   3.919   1.163   1.862  0.5885 -0.4068 -0.2447
 1671SOL    HW116649   3.922   1.217   1.783 -1.9683 -1.1884 -0.8685
 1671SOL    HW216650   3.888   1.217   1.934  4.4461  1.3170  0.1176
 1672SOL     OW16651   3.502   0.223   4.485  0.2917  0.5889 -0.4556
 1672SOL    HW116652   3.517   0.256   4.397 -1.5856 -1.6260 -1.5763
 1672SOL    HW216653   3.419   0.263   4.513 -0.1010  0.8725 -2.0521
 1673SOL     OW16654   4.692   4.006  10.023  0.5226  0.3983  0.2111
 1673SOL    HW116655   4.609   4.046   9.997  0.0190 -0.8778 -0.1188
 1673SOL    HW216656   4.671   3.987  10.114  1.1543 -1.7094 -0.0903
 1674SOL     OW16657   3.351   0.466   8.328  0.7376 -0.2102 -0.2860
 1674SOL    HW116658   3.432   0.426   8.297  1.6792  1.9230 -0.6192
 1674SOL    HW216659   3.319   0.511   8.249 -0.7692  0.1108  0.5099
 1675SOL     OW16660   1.190   0.389   7.249 -0.0333  0.0221  0.8451
 1675SOL    HW116661   1.249   0.429   7.185 -2.3666 -0.5443 -1.6801
 1675SOL    HW216662   1.242   0.341   7.313 -1.9534  0.2995  2.6386
 1676SOL     OW16663   2.535   0.196   2.744 -0.2202  0.1680 -0.0647
 1676SOL    HW116664   2.450   0.177   2.704 -0.0533  1.7501 -1.1799
 1676SOL    HW216665   2.520   0.179   2.837 -0.3071 -0.2314 -0.1530
 1677SOL     OW16666   4.093   3.647   8.495  0.2415 -0.0616  0.2202
 1677SOL    HW116667   4.122   3.580   8.557 -0.5498 -1.0864 -0.5012
 1677SOL    HW216668   3.999   3.659   8.506  0.7393  0.9466  3.2990
 1678SOL     OW16669   1.979   0.439   5.734 -0.4623 -0.5935  0.2451
 1678SOL    HW116670   1.932   0.522   5.727 -0.5275 -0.4684  2.2757
 1678SOL    HW216671   1.924   0.361   5.744 -3.1237  1.2365 -0.1083
 1679SOL     OW16672   2.654   3.884  14.074 -0.5374  0.2620  0.3210
 1679SOL    HW116673   2.676   3.906  14.165  2.5233  1.2294 -0.6551
 1679SOL    HW216674   2.562   3.868  14.092 -0.2053 -0.4440  1.4514
 1680SOL     OW16675   3.352   1.836  15.347  0.4682  0.5628  0.1257
 1680SOL    HW116676   3.398   1.838  15.430  0.2150 -2.6428  0.3449
 1680SOL    HW216677   3.295   1.911  15.363  0.5591  1.2068 -2.5742
 1681SOL     OW16678   3.122   4.012   8.871  0.5391  0.0492 -1.2342
 1681SOL    HW116679   3.077   3.928   8.875  2.0419 -0.7324 -0.5741
 1681SOL    HW216680   3.216   3.996   8.876  0.5879  0.3798 -1.1390
 1682SOL     OW16681   2.467   1.559  12.228 -0.1067 -0.5634 -0.4935
 1682SOL    HW116682   2.537   1.624  12.226  0.2289 -0.8903  0.5506
 1682SOL    HW216683   2.448   1.549  12.322  1.0692 -0.4030 -0.2329
 1683SOL     OW16684   3.866   0.716  13.122  0.6644 -0.1460 -0.1095
 1683SOL    HW116685   3.939   0.773  13.146  0.9508 -0.7084  0.3588
 1683SOL    HW216686   3.881   0.721  13.028  0.6924  0.6739 -0.0572
 1684SOL     OW16687   3.614   2.720   3.527  0.2203 -0.2934  0.3802
 1684SOL    HW116688   3.549   2.735   3.458  0.8836 -0.6735 -0.3214
 1684SOL    HW216689   3.684   2.723   3.462 -0.4601  1.6476 -0.2583
 1685SOL     OW16690   2.099   2.372   8.833  0.0088 -0.0011 -0.9194
 1685SOL    HW116691   2.022   2.316   8.824  1.8524 -2.4132 -1.5463
 1685SOL    HW216692   2.147   2.328   8.902  0.4495  3.4566  0.9451
 1686SOL     OW16693   1.981   2.943   6.650 -0.1882 -0.1508  0.0539
 1686SOL    HW116694   1.963   3.023   6.700 -0.4447 -0.0005 -0.2836
 1686SOL    HW216695   1.945   2.973   6.567  1.0635 -0.0250 -0.4436
 1687SOL     OW16696   1.873   4.295   1.988  0.8537  0.6841 -0.0562
 1687SOL    HW116697   1.941   4.250   1.938 -2.8879 -0.8216 -3.7762
 1687SOL    HW216698   1.802   4.306   1.925  0.7053  1.9591  0.3314
 1688SOL     OW16699   4.433   0.102  16.535  0.3401  0.6330 -0.1096
 1688SOL    HW116700   4.482   0.179  16.506  0.2422  0.2075 -1.4286
 1688SOL    HW216701   4.446   0.044  16.460 -0.5369  0.8872 -0.4579
 1689SOL     OW16702   0.167   3.839   5.018 -0.1443  0.6300 -0.4381
 1689SOL    HW116703   0.097   3.775   5.029  1.2090 -0.7743  0.1583
 1689SOL    HW216704   0.119   3.921   5.030 -0.1798  0.4632  0.5716
 1690SOL     OW16705   1.865   2.973   8.841  0.2870  0.5114  0.1047
 1690SOL    HW116706   1.799   2.963   8.910  2.3087  1.9978  2.2877
 1690SOL    HW216707   1.820   2.959   8.758  0.6008 -0.1266  0.0390
 1691SOL     OW16708   0.706   0.046   7.960  0.6950  0.5161 -0.3853
 1691SOL    HW116709   0.703   4.716   7.892 -1.7842  2.0857 -1.8439
 1691SOL    HW216710   0.793   0.028   7.994  0.9854  2.3798 -0.1314
 1692SOL     OW16711   2.422   0.776   1.053  0.3964  0.9218 -0.7112
 1692SOL    HW116712   2.393   0.849   1.107 -0.1456 -0.1502  0.4283
 1692SOL    HW216713   2.421   0.704   1.116 -1.1369  1.5955  0.0291
 1693SOL     OW16714   2.379   3.089   7.263  0.0868  0.1571 -0.0247
 1693SOL    HW116715   2.304   3.052   7.310 -0.5468 -0.2833 -1.4082
 1693SOL    HW216716   2.442   3.017   7.271 -0.8860 -1.0045 -2.8965
 1694SOL     OW16717   1.440   1.226   3.024 -0.3858 -0.1243  0.5474
 1694SOL    HW116718   1.522   1.203   3.069 -0.0539 -0.4542 -0.2271
 1694SOL    HW216719   1.418   1.142   2.984  0.0649 -0.1524  0.3604
 1695SOL     OW16720   0.195   1.710   7.556 -0.0326  0.1771  0.0169
 1695SOL    HW116721   0.175   1.789   7.606  0.7431 -0.0675  0.7176
 1695SOL    HW216722   0.167   1.645   7.621 -0.0126  0.2084  0.0571
 1696SOL     OW16723   1.239   0.945   2.177 -0.3675  0.0106  0.0480
 1696SOL    HW116724   1.289   0.981   2.103  2.0259 -0.4309  1.4499
 1696SOL    HW216725   1.214   0.859   2.144 -0.0859 -0.8918  2.2193
 1697SOL     OW16726   2.891   3.381   5.875 -0.2922  0.4524  0.9666
 1697SOL    HW116727   2.872   3.287   5.877  1.4800  0.0958  1.3961
 1697SOL    HW216728   2.803   3.413   5.859 -0.6228 -1.2405 -0.6193
 1698SOL     OW16729   2.020   0.207   7.924  0.0359  0.4821 -0.3422
 1698SOL    HW116730   2.055   0.119   7.938  0.6704  0.8085  0.0931
 1698SOL    HW216731   2.065   0.251   7.996  0.1039  1.4026 -0.9475
 1699SOL     OW16732   3.170   1.829  16.228 -0.1316  0.5567  0.3765
 1699SOL    HW116733   3.094   1.835  16.170  1.2720 -1.3310 -1.6771
 1699SOL    HW216734   3.242   1.839  16.166  0.8268 -3.3348  0.8456
 1700SOL     OW16735   0.793   3.500   0.888 -0.5601 -0.1231  0.3952
 1700SOL    HW116736   0.736   3.435   0.847 -1.3031  1.4138 -1.0190
 1700SOL    HW216737   0.761   3.577   0.841  0.1516 -0.9774 -1.5141
 1701SOL     OW16738   2.235   3.129  13.772  0.5216  0.2649  0.2646
 1701SOL    HW116739   2.220   3.068  13.700  1.3401  2.4023 -1.6939
 1701SOL    HW216740   2.330   3.117  13.775  0.4936 -0.1544 -0.4641
 1702SOL     OW16741   3.893   1.400  15.276 -0.5414 -0.0726  0.4108
 1702SOL    HW116742   3.938   1.405  15.360 -0.8772 -0.5018  0.6162
 1702SOL    HW216743   3.908   1.308  15.252  0.6719  0.0344  0.7858
 1703SOL     OW16744   4.724   2.577  12.020  0.5434  0.2529 -0.1433
 1703SOL    HW116745   4.732   2.624  12.104 -1.0591 -0.7664  0.5674
 1703SOL    HW216746   0.080   2.560  12.004 -0.0921 -3.7660  0.5025
 1704SOL     OW16747   1.423   3.551  12.706 -0.5856 -0.2233 -0.4593
 1704SOL    HW116748   1.399   3.588  12.791  0.1348  0.2834 -0.4758
 1704SOL    HW216749   1.496   3.501  12.743 -0.0694  1.2685  0.5308
 1705SOL     OW16750   2.714   3.545   2.752 -0.1064 -0.2643 -0.2694
 1705SOL    HW116751   2.670   3.493   2.684  0.3543 -0.6624 -0.2543
 1705SOL    HW216752   2.640   3.539   2.812 -0.7583  1.2494 -0.8949
 1706SOL     OW16753   4.686   3.334   5.633 -0.0913  0.3818  0.5883
 1706SOL    HW116754   4.734   3.351   5.552 -2.0144  1.3052 -0.3737
 1706SOL    HW216755   4.609   3.293   5.593  0.0169  0.3205  0.4434
 1707SOL     OW16756   1.986   3.193   3.350  0.3571 -0.8953  0.7180
 1707SOL    HW116757   1.943   3.271   3.384  0.9248  0.0541 -0.7359
 1707SOL    HW216758   2.077   3.222   3.352 -0.0251  0.4293 -1.1519
 1708SOL     OW16759   2.074   2.682   8.425  0.6643 -0.0669 -0.5969
 1708SOL    HW116760   2.149   2.707   8.479  0.9031 -0.3268 -0.8118
 1708SOL    HW216761   2.109   2.614   8.367  0.8776 -0.2902 -0.2010
 1709SOL     OW16762   2.099   0.680   1.203  0.5304  0.5742 -0.5413
 1709SOL    HW116763   2.117   0.585   1.202  2.2158  0.8808  1.8681
 1709SOL    HW216764   2.094   0.698   1.109 -1.1696 -1.3043 -0.8119
 1710SOL     OW16765   0.396   3.203   7.355 -0.4398  0.4056 -0.3840
 1710SOL    HW116766   0.435   3.220   7.269 -2.9836  1.4801 -1.3162
 1710SOL    HW216767   0.399   3.289   7.398  1.7374 -0.8692  2.0745
 1711SOL     OW16768   2.213   3.125  12.261 -0.0445 -0.3689 -0.3614
 1711SOL    HW116769   2.149   3.059  12.234 -1.5317 -0.2291  2.8685
 1711SOL    HW216770   2.243   3.094  12.346  1.8521  4.8006  0.8258
 1712SOL     OW16771   2.918   3.070   1.197 -0.1187  0.4391  0.0723
 1712SOL    HW116772   2.989   3.118   1.240 -0.3074  0.1311  0.7333
 1712SOL    HW216773   2.840   3.109   1.235 -0.0504 -1.0992  1.7926
 1713SOL     OW16774   1.130   4.602   6.248  0.7684  0.2200  0.6849
 1713SOL    HW116775   1.147   4.623   6.340 -0.5695 -1.7081  1.3840
 1713SOL    HW216776   1.142   4.690   6.213 -1.4833 -0.9453 -3.0563
 1714SOL     OW16777   0.469   3.989  16.031  0.1037  0.2982  0.3865
 1714SOL    HW116778   0.431   3.908  15.998  0.6757  0.0386  0.3695
 1714SOL    HW216779   0.525   3.994  15.954 -1.3290 -0.4810 -0.7123
 1715SOL     OW16780   3.785   3.275   5.148 -0.1213 -0.0294  0.4530
 1715SOL    HW116781   3.879   3.272   5.132 -0.4376 -1.2570 -1.1238
 1715SOL    HW216782   3.774   3.370   5.149  0.2529 -0.0301  3.8303
 1716SOL     OW16783   3.443   1.123  15.366  0.0624  0.1989 -0.0735
 1716SOL    HW116784   3.514   1.142  15.305 -0.0380 -1.2805 -0.6572
 1716SOL    HW216785   3.466   1.034  15.392  0.0953  0.7943  1.9547
 1717SOL     OW16786   2.097   3.630   2.711 -0.1086 -0.1369  0.1543
 1717SOL    HW116787   2.091   3.567   2.640  0.2604  1.7331 -1.5398
 1717SOL    HW216788   2.004   3.650   2.716 -0.0618 -0.1958  1.2803
 1718SOL     OW16789   0.072   2.564   6.518 -0.2068 -0.2325  0.7975
 1718SOL    HW116790   0.044   2.593   6.605 -0.5209 -1.0589  0.9648
 1718SOL    HW216791   4.736   2.586   6.460 -0.8879  2.4275  2.6730
 1719SOL     OW16792   4.274   3.210   2.589 -0.4958  0.7502  0.7615
 1719SOL    HW116793   4.359   3.236   2.554  0.6384 -2.4620  1.0880
 1719SOL    HW216794   4.237   3.178   2.507  1.4295  0.9247 -0.1848
 1720SOL     OW16795   4.395   3.556   2.794  0.3331 -0.1281  0.2184
 1720SOL    HW116796   4.306   3.522   2.791 -0.1918  1.2546  0.1808
 1720SOL    HW216797   4.437   3.517   2.871 -1.4506  2.0848  2.3413
 1721SOL     OW16798   0.705   2.615  12.729  0.0742 -0.0360  0.4644
 1721SOL    HW116799   0.797   2.598  12.709  0.4741  3.4594 -0.6341
 1721SOL    HW216800   0.673   2.533  12.767  1.8972 -1.2418 -0.5981
 1722SOL     OW16801   1.149   1.873   7.156 -0.4731  0.1732  0.0495
 1722SOL    HW116802   1.190   1.786   7.158 -1.1135 -0.1009  1.1311
 1722SOL    HW216803   1.224   1.922   7.120 -2.3753  2.6951 -0.5021
 1723SOL     OW16804   0.357   3.231   1.386 -0.1716  0.0495  0.7410
 1723SOL    HW116805   0.430   3.172   1.406 -0.8718 -0.9941  0.1603
 1723SOL    HW216806   0.363   3.226   1.291  2.6514  0.2121  0.9067
 1724SOL     OW16807   3.340   0.274  11.654 -0.1988  0.0811  0.8411
 1724SOL    HW116808   3.407   0.299  11.718  2.1674 -3.6106 -0.1696
 1724SOL    HW216809   3.379   0.203  11.603 -1.4155  1.1452 -1.5631
 1725SOL     OW16810   3.136   4.020   2.843 -0.6397 -0.2256 -1.0190
 1725SOL    HW116811   3.108   3.934   2.872 -1.0595  0.8767  1.8913
 1725SOL    HW216812   3.108   4.011   2.752 -3.0129 -0.0247 -0.3281
 1726SOL     OW16813   4.053   2.972   7.192  0.1030  0.3808 -0.5349
 1726SOL    HW116814   3.974   3.024   7.207 -1.2736 -1.3327 -1.7276
 1726SOL    HW216815   4.099   3.031   7.132  1.7384 -1.6703 -1.3143
 1727SOL     OW16816   2.881   4.014   7.573  0.3172  0.3066  0.0505
 1727SOL    HW116817   2.865   3.943   7.635 -0.1721  0.3664 -0.0057
 1727SOL    HW216818   2.968   4.049   7.589  1.1754  0.1763 -4.3721
 1728SOL     OW16819   2.258   0.209   4.901  0.1742 -0.0263  0.1364
 1728SOL    HW116820   2.245   0.242   4.990 -1.8941 -0.5693  0.0493
 1728SOL    HW216821   2.248   0.115   4.916  0.1361  0.2032  1.5436
 1729SOL     OW16822   1.037   2.599   4.649 -0.0356 -0.0611  0.5324
 1729SOL    HW116823   1.088   2.582   4.570  0.6923 -1.8965  1.3961
 1729SOL    HW216824   1.090   2.558   4.717  0.8556  0.8386  0.3847
 1730SOL     OW16825   3.315   1.672  11.301 -0.0274  0.2442  0.6856
 1730SOL    HW116826   3.350   1.760  11.315  0.2300 -0.0240  1.7322
 1730SOL    HW216827   3.238   1.691  11.356 -0.1201 -0.3769  0.7732
 1731SOL     OW16828   0.050   1.915   7.382 -0.1207  0.2316 -0.4143
 1731SOL    HW116829   0.042   1.851   7.453  1.4279  1.6896  1.0950
 1731SOL    HW216830   4.733   1.877   7.313  0.8804 -0.5362 -0.7727
 1732SOL     OW16831   3.449   0.218  13.127 -0.1169 -0.6880  0.1303
 1732SOL    HW116832   3.453   0.137  13.177  1.4544 -0.6435  0.0595
 1732SOL    HW216833   3.501   0.283  13.174 -1.0474  0.6627 -0.7044
 1733SOL     OW16834   4.330   0.813  11.822 -0.0213  0.5165  0.4778
 1733SOL    HW116835   4.377   0.896  11.811  0.2452  0.3554  0.3863
 1733SOL    HW216836   4.282   0.823  11.904  1.1298 -1.8979  1.4575
 1734SOL     OW16837   1.361   4.420  11.829  0.1466  0.0228 -0.7845
 1734SOL    HW116838   1.382   4.513  11.836  2.8108 -0.6094 -0.3350
 1734SOL    HW216839   1.390   4.404  11.740  2.9739 -0.6161  0.2396
 1735SOL     OW16840   0.477   4.379   8.141  0.0452  0.0893 -0.4324
 1735SOL    HW116841   0.430   4.393   8.223  0.5433 -2.0572  0.2150
 1735SOL    HW216842   0.498   4.286   8.153 -0.8575 -0.1906 -1.0699
 1736SOL     OW16843   0.790   3.398   5.032 -0.6990 -0.0898 -0.2515
 1736SOL    HW116844   0.885   3.409   5.028 -0.7085 -0.0260 -0.3056
 1736SOL    HW216845   0.768   3.443   5.114  2.8800  2.3849 -0.6409
 1737SOL     OW16846   2.068   1.714   7.994 -0.6202 -0.7183 -0.1083
 1737SOL    HW116847   2.066   1.657   8.070  0.7142  0.5017  0.8213
 1737SOL    HW216848   2.090   1.797   8.037 -1.8703 -0.8570  0.7913
 1738SOL     OW16849   3.664   2.797   8.054  0.1718 -0.9506 -0.1341
 1738SOL    HW116850   3.735   2.851   8.020 -1.9441  1.7794 -0.1520
 1738SOL    HW216851   3.714   2.741   8.114  1.2423  1.5332  1.2796
 1739SOL     OW16852   0.695   0.828  11.359 -0.5052 -0.5790 -0.2184
 1739SOL    HW116853   0.684   0.737  11.333 -1.4186 -0.4308 -0.3733
 1739SOL    HW216854   0.745   0.819  11.440  0.7913  0.4192 -0.9024
 1740SOL     OW16855   1.249   0.813   6.280  0.2610 -0.0237  0.6897
 1740SOL    HW116856   1.165   0.791   6.240 -0.0309  0.6479  0.9275
 1740SOL    HW216857   1.241   0.759   6.359  0.8464  0.0576  0.8015
 1741SOL     OW16858   3.323   1.739   5.419 -0.6160 -0.3883  0.7553
 1741SOL    HW116859   3.283   1.732   5.332  0.1288  0.4423  0.3421
 1741SOL    HW216860   3.249   1.743   5.479  0.0168 -0.2524  1.5209
 1742SOL     OW16861   1.949   1.565   2.535 -0.4777 -0.7509  0.5015
 1742SOL    HW116862   1.934   1.563   2.440 -0.8645 -1.7365  0.5808
 1742SOL    HW216863   1.972   1.479   2.571  1.7826 -0.0368  0.7408
 1743SOL     OW16864   2.804   4.017  14.979 -0.0675 -0.0956 -0.0895
 1743SOL    HW116865   2.858   3.985  15.051  1.3993  3.1955  0.2625
 1743SOL    HW216866   2.783   4.101  15.020 -0.3905 -0.5249  0.6315
 1744SOL     OW16867   1.196   2.816  14.655 -0.7862 -0.4686  0.3122
 1744SOL    HW116868   1.119   2.801  14.600 -0.5369  2.1881 -0.7255
 1744SOL    HW216869   1.260   2.834  14.586 -1.5747 -2.5439 -0.9778
 1745SOL     OW16870   0.291   3.105   2.837  0.0038  0.0049  0.2329
 1745SOL    HW116871   0.353   3.175   2.816 -0.5018 -0.5212 -2.9818
 1745SOL    HW216872   0.252   3.149   2.913  1.7324  0.4916  0.8420
 1746SOL     OW16873   2.839   2.432   5.884 -0.0423 -0.1893  0.8313
 1746SOL    HW116874   2.836   2.385   5.801  1.9435 -0.6064  1.0071
 1746SOL    HW216875   2.876   2.514   5.851 -2.5350  0.3205 -0.7176
 1747SOL     OW16876   2.928   1.200   9.202 -0.1854  0.2185  0.0113
 1747SOL    HW116877   2.891   1.236   9.283 -1.8276  0.3106 -0.7752
 1747SOL    HW216878   3.012   1.245   9.206 -0.3343  0.6208 -1.3888
 1748SOL     OW16879   0.989   3.115   6.875 -0.1657 -0.6635 -0.5330
 1748SOL    HW116880   0.911   3.169   6.859 -0.0904 -0.6363 -0.8039
 1748SOL    HW216881   0.955   3.046   6.932 -0.2363 -0.4231 -0.2797
 1749SOL     OW16882   1.667   0.625   2.382 -0.8857  0.0474  0.0297
 1749SOL    HW116883   1.690   0.553   2.323 -2.0087 -0.5091  0.2682
 1749SOL    HW216884   1.746   0.677   2.396 -0.4011 -0.5678 -0.3731
 1750SOL     OW16885   3.481   0.298   2.045  0.5491  0.4383 -0.0301
 1750SOL    HW116886   3.441   0.276   2.129  0.0671  3.2034  0.4732
 1750SOL    HW216887   3.561   0.247   2.059  0.5030  0.5227  0.5676
 1751SOL     OW16888   2.465   4.630   3.831 -0.2132  0.0882 -0.4982
 1751SOL    HW116889   2.371   4.642   3.841 -0.1269  2.1024 -2.0395
 1751SOL    HW216890   2.503   4.659   3.914 -1.9356  1.1761 -0.1016
 1752SOL     OW16891   1.141   4.323  10.143 -0.3549  0.5127 -1.0703
 1752SOL    HW116892   1.192   4.288  10.217 -0.0763  0.7279 -1.1633
 1752SOL    HW216893   1.111   4.250  10.089  1.2490 -1.2516  0.3877
 1753SOL     OW16894   3.514   1.610   3.502 -0.4948 -0.1906 -0.0396
 1753SOL    HW116895   3.563   1.691   3.517 -1.2884 -0.1165  2.1304
 1753SOL    HW216896   3.496   1.614   3.408 -1.8219 -2.0249  0.1302
 1754SOL     OW16897   0.216   2.105   5.111 -0.2536 -0.1287 -0.3025
 1754SOL    HW116898   0.129   2.136   5.137  0.2046  0.2601  0.7755
 1754SOL    HW216899   0.269   2.184   5.123  2.5820 -1.8842 -1.2972
 1755SOL     OW16900   4.256   2.208   3.477  0.2714  0.0830 -0.1046
 1755SOL    HW116901   4.276   2.247   3.392  2.7660 -2.0938 -0.5103
 1755SOL    HW216902   4.162   2.194   3.466  0.1785  0.2388  0.4712
 1756SOL     OW16903   1.094   1.486   7.370  0.0170  0.7595 -0.2018
 1756SOL    HW116904   1.053   1.432   7.438  2.0978 -2.6944 -1.7286
 1756SOL    HW216905   1.035   1.562   7.373 -0.3505  0.4825 -0.3241
 1757SOL     OW16906   1.912   0.512   2.881  0.3049 -0.6233 -0.4004
 1757SOL    HW116907   1.885   0.483   2.794 -3.2513 -0.2112  0.5466
 1757SOL    HW216908   1.928   0.422   2.910 -0.0229 -1.4257 -2.6681
 1758SOL     OW16909   2.969   0.427   0.289  0.0752  0.5612  0.2723
 1758SOL    HW116910   2.878   0.413   0.262 -0.2776  0.1168  1.6677
 1758SOL    HW216911   2.978   0.391   0.378 -1.0748 -1.1848 -0.3090
 1759SOL     OW16912   0.727   0.293  11.535  0.4797 -0.0747 -0.0637
 1759SOL    HW116913   0.692   0.253  11.615 -0.5123  2.7304  0.9106
 1759SOL    HW216914   0.670   0.259  11.466  2.7555 -0.3429 -1.7980
 1760SOL     OW16915   2.242   2.692   7.385  0.0531 -0.5886  0.0258
 1760SOL    HW116916   2.295   2.612   7.380  1.5521  0.3571  0.5832
 1760SOL    HW216917   2.199   2.687   7.300  0.3231  2.6239 -0.3045
 1761SOL     OW16918   2.357   3.173   6.552  0.1543  0.5206  0.1283
 1761SOL    HW116919   2.409   3.225   6.490 -0.0435  2.5798  1.6936
 1761SOL    HW216920   2.271   3.213   6.536  1.0060  1.9775 -0.7919
 1762SOL     OW16921   0.090   3.113   8.208  0.4236 -0.0769 -0.3453
 1762SOL    HW116922   0.028   3.070   8.267 -2.6916  2.2745 -1.9131
 1762SOL    HW216923   0.025   3.144   8.146 -1.5130 -0.7496  1.3401
 1763SOL     OW16924   1.867   2.052   3.664 -0.8144  0.1587  0.2408
 1763SOL    HW116925   1.838   1.990   3.731  0.7152 -0.7122  0.1036
 1763SOL    HW216926   1.789   2.101   3.638 -0.8670  0.6249  1.2606
 1764SOL     OW16927   2.411   2.233  17.197  0.1456 -0.6936 -0.4046
 1764SOL    HW116928   2.337   2.263  17.143  2.6631  1.2590 -2.7913
 1764SOL    HW216929   2.466   2.310  17.185  0.2368 -0.8980 -1.3027
 1765SOL     OW16930   1.725   2.299   3.744  0.1601 -0.0143  0.0922
 1765SOL    HW116931   1.739   2.393   3.750 -0.0439 -0.1315  2.3630
 1765SOL    HW216932   1.718   2.274   3.836 -0.9394 -2.3843 -0.6238
 1766SOL     OW16933   0.995   2.640   7.104 -0.0447  0.6549 -0.1198
 1766SOL    HW116934   1.026   2.580   7.037  1.5147  1.6697 -0.3212
 1766SOL    HW216935   1.020   2.598   7.186  0.8727  0.3080 -0.5790
 1767SOL     OW16936   2.806   2.397   7.085  0.0528 -0.0035  0.0426
 1767SOL    HW116937   2.818   2.344   7.007 -0.2719  0.0875 -0.0716
 1767SOL    HW216938   2.799   2.481   7.040  3.2237  0.0248 -0.4035
 1768SOL     OW16939   2.708   2.822   6.829  0.4388  0.1239  0.3887
 1768SOL    HW116940   2.718   2.901   6.775  0.6852  0.2527  0.6227
 1768SOL    HW216941   2.661   2.764   6.769  0.8154  0.5457 -0.3127
 1769SOL     OW16942   4.627   2.620  10.933 -0.0525 -0.0171  0.4833
 1769SOL    HW116943   4.586   2.545  10.888  0.5169  1.2178 -2.1103
 1769SOL    HW216944   4.600   2.692  10.876 -0.6297 -0.3480  0.3374
 1770SOL     OW16945   0.769   1.445   0.594 -0.0332 -0.0352 -0.0941
 1770SOL    HW116946   0.826   1.380   0.553  0.4371 -0.7081  1.6175
 1770SOL    HW216947   0.750   1.405   0.679 -0.0462  0.0055 -0.0780
 1771SOL     OW16948   0.356   3.927  13.754  0.3014  0.7196 -0.2819
 1771SOL    HW116949   0.326   3.985  13.683 -1.2630 -1.9948 -1.8264
 1771SOL    HW216950   0.309   3.970  13.825  1.3938  1.2030  0.1618
 1772SOL     OW16951   1.204   3.402   5.902 -0.3039  0.2817 -0.3376
 1772SOL    HW116952   1.178   3.310   5.907  0.0025  0.2454  0.5774
 1772SOL    HW216953   1.299   3.406   5.893 -0.3482  1.0575 -0.5177
 1773SOL     OW16954   2.457   3.360   2.190  0.6961  0.3478  0.8713
 1773SOL    HW116955   2.409   3.278   2.178  1.5167 -0.0669  0.4237
 1773SOL    HW216956   2.545   3.340   2.156 -0.2651 -2.0836 -0.1597
 1774SOL     OW16957   4.683   3.553   8.205 -0.1429  0.0720 -0.0308
 1774SOL    HW116958   0.028   3.506   8.220 -0.1060  0.3891  0.7780
 1774SOL    HW216959   4.685   3.624   8.269 -1.7956 -0.5019  0.6509
 1775SOL     OW16960   0.481   2.972   5.669  0.0097 -0.1857 -0.5191
 1775SOL    HW116961   0.519   3.025   5.739 -0.1740  1.4020 -1.6303
 1775SOL    HW216962   0.559   2.949   5.619  0.0141 -1.3674  0.0260
 1776SOL     OW16963   1.803   3.706   9.388 -0.1113  0.6621 -0.0761
 1776SOL    HW116964   1.736   3.771   9.411 -2.1328 -0.6301 -2.2815
 1776SOL    HW216965   1.877   3.765   9.382  1.9430 -1.8870  0.1972
 1777SOL     OW16966   3.436   3.120   4.574 -0.7599 -0.1342  0.0548
 1777SOL    HW116967   3.345   3.145   4.591 -0.1409  2.7674 -0.9276
 1777SOL    HW216968   3.426   3.079   4.487 -2.2781  0.9045 -0.2677
 1778SOL     OW16969   0.395   1.644   5.452 -0.0203 -0.3272  0.1311
 1778SOL    HW116970   0.317   1.693   5.426 -1.8624 -1.9274  2.6231
 1778SOL    HW216971   0.358   1.557   5.436  0.1056  0.0147 -1.9297
 1779SOL     OW16972   2.985   2.265  16.830 -0.4460 -0.2047 -0.7527
 1779SOL    HW116973   3.011   2.224  16.913  1.6965 -0.9375 -1.7898
 1779SOL    HW216974   3.065   2.265  16.779 -0.2514  1.7414 -0.4663
 1780SOL     OW16975   0.514   0.561   5.668  0.3721 -0.1944 -0.4010
 1780SOL    HW116976   0.608   0.547   5.655  0.5749  2.0357 -1.3184
 1780SOL    HW216977   0.511   0.642   5.719 -2.8774 -0.2859 -0.4712
 1781SOL     OW16978   1.620   1.483   2.346 -0.6290 -0.0294  0.1607
 1781SOL    HW116979   1.550   1.543   2.368 -2.3152 -1.3914 -1.4901
 1781SOL    HW216980   1.597   1.402   2.391  1.5181 -0.7466 -0.0120
 1782SOL     OW16981   0.126   1.251   4.484 -0.0390  0.4119  0.2914
 1782SOL    HW116982   0.056   1.198   4.446  1.2785 -1.0590 -0.1169
 1782SOL    HW216983   0.203   1.228   4.431 -0.3788 -2.4654  1.0371
 1783SOL     OW16984   0.811   1.798   3.380  0.2331 -0.7813  0.3254
 1783SOL    HW116985   0.805   1.889   3.411  3.4459 -0.0635 -1.1283
 1783SOL    HW216986   0.722   1.769   3.401 -0.0478  0.5309  0.9519
 1784SOL     OW16987   2.583   3.870   5.314 -0.8810 -0.5054  0.7477
 1784SOL    HW116988   2.506   3.814   5.300 -0.5572 -0.6153 -0.5465
 1784SOL    HW216989   2.540   3.952   5.341  0.7273  0.0222  1.6941
 1785SOL     OW16990   4.223   3.340   3.621  0.1665  0.0783  0.6703
 1785SOL    HW116991   4.297   3.281   3.635 -1.4046 -2.0568  0.0007
 1785SOL    HW216992   4.200   3.368   3.710  1.2776 -0.0481  0.9973
 1786SOL     OW16993   1.648   1.365   9.683  0.1458 -0.1245 -0.4330
 1786SOL    HW116994   1.563   1.392   9.646 -0.4348 -0.8281  0.4021
 1786SOL    HW216995   1.712   1.430   9.654  0.8669  0.8553  3.4240
 1787SOL     OW16996   2.913   3.180   2.716  0.1575 -0.5003  0.4243
 1787SOL    HW116997   3.008   3.171   2.721  0.4539  0.5883 -3.0905
 1787SOL    HW216998   2.894   3.228   2.797  2.6037  0.7355  0.2814
 1788SOL     OW16999   3.347   3.861   2.369 -0.2237 -0.7699  0.4118
 1788SOL    HW117000   3.408   3.793   2.341 -1.5080 -1.4400 -0.7697
 1788SOL    HW217001   3.366   3.881   2.460  1.0120  1.8728 -0.4479
 1789SOL     OW17002   2.488   4.073   0.735  0.1819 -0.3818 -0.1155
 1789SOL    HW117003   2.581   4.077   0.759  0.6478 -0.1149 -1.9262
 1789SOL    HW217004   2.445   4.133   0.795  1.2320 -0.4555  0.7018
 1790SOL     OW17005   0.610   0.338   1.866 -0.0783 -0.2779  0.0468
 1790SOL    HW117006   0.562   0.420   1.880 -0.0509 -0.5608  1.8787
 1790SOL    HW217007   0.549   0.292   1.810 -1.5060  1.6862 -0.0308
 1791SOL     OW17008   4.463   3.442  13.066 -0.0563  0.3031  0.2941
 1791SOL    HW117009   4.493   3.513  13.008  0.3364  0.5883  0.8480
 1791SOL    HW217010   4.528   3.446  13.136 -1.3923 -1.6111  1.6247
 1792SOL     OW17011   3.329   3.473  17.588 -0.5072  0.6084  0.4787
 1792SOL    HW117012   3.287   3.445  17.669  1.8968 -1.3315  1.0841
 1792SOL    HW217013   3.275   3.424  17.527  0.9038  0.0202 -0.2847
 1793SOL     OW17014   0.725   4.607   1.665  0.4290  0.4534 -0.4888
 1793SOL    HW117015   0.812   4.607   1.627  1.4552 -2.9271  1.8816
 1793SOL    HW217016   0.675   4.646   1.593 -0.6477  1.7645  0.9731
 1794SOL     OW17017   2.692   4.497   6.470  0.0027 -0.2936 -0.0011
 1794SOL    HW117018   2.664   4.589   6.472  1.1173  0.0653 -0.4845
 1794SOL    HW217019   2.624   4.459   6.416  0.4753 -2.2927  0.8154
 1795SOL     OW17020   2.913   0.057   6.443 -0.3725 -0.1207 -0.1210
 1795SOL    HW117021   2.978   0.084   6.507 -1.4613  1.4631  0.3154
 1795SOL    HW217022   2.946   4.709   6.414 -0.6161 -0.1268 -0.3807
 1796SOL     OW17023   1.685   4.114   4.419 -0.1053  0.0743  0.2386
 1796SOL    HW117024   1.667   4.062   4.340  0.8026  1.8991 -1.1634
 1796SOL    HW217025   1.760   4.064   4.450 -1.0454 -1.0987  0.6270
 1797SOL     OW17026   0.521   1.705   0.415  0.7915  0.2657 -0.5537
 1797SOL    HW117027   0.579   1.712   0.339 -1.4485  0.5321 -2.2306
 1797SOL    HW217028   0.455   1.767   0.383  1.3751  1.7457  1.0651
 1798SOL     OW17029   2.852   4.684   7.977  0.2895 -0.2707  0.3046
 1798SOL    HW117030   2.940   4.678   8.014 -0.4095 -2.5408  1.5997
 1798SOL    HW217031   2.806   4.699   8.059  1.8083 -0.1771  1.1407
 1799SOL     OW17032   4.498   3.000  13.627 -0.2313 -0.3077  0.1447
 1799SOL    HW117033   4.510   2.922  13.681 -1.6919 -1.5099 -1.2982
 1799SOL    HW217034   4.518   2.960  13.542 -2.1854 -1.6948  0.3438
 1800SOL     OW17035   2.882   0.158   9.989 -0.0893  0.4879  0.2582
 1800SOL    HW117036   2.965   0.111   9.980  0.0411  1.1325 -1.9414
 1800SOL    HW217037   2.908   0.224  10.053  0.8222 -1.6004  2.0337
 1801SOL     OW17038   3.499   2.315   8.443  0.5290  0.3423 -0.4276
 1801SOL    HW117039   3.410   2.291   8.418 -0.3253  2.9076  0.1652
 1801SOL    HW217040   3.491   2.408   8.465 -1.0796 -0.5751  2.8482
 1802SOL     OW17041   0.311   3.525   7.878 -0.1979  0.0684 -0.0000
 1802SOL    HW117042   0.370   3.453   7.903 -0.1831  0.1778  0.2805
 1802SOL    HW217043   0.236   3.476   7.845  1.0565 -0.9123 -1.4522
 1803SOL     OW17044   3.308   2.771   4.182 -0.5531  0.5605  0.1231
 1803SOL    HW117045   3.358   2.823   4.119  1.2813 -3.3341 -1.5828
 1803SOL    HW217046   3.386   2.750   4.234 -0.8291  0.7560  0.6112
 1804SOL     OW17047   0.010   3.349   5.366 -0.2462  0.0906 -0.4022
 1804SOL    HW117048   0.033   3.258   5.349 -1.5613 -0.6828  1.9256
 1804SOL    HW217049   0.075   3.390   5.309  1.7018 -1.2406  0.8587
 1805SOL     OW17050   3.455   3.316   6.365  0.2415  0.2138  0.3298
 1805SOL    HW117051   3.447   3.404   6.401  1.8680  0.8210 -0.7741
 1805SOL    HW217052   3.524   3.274   6.417  0.4568  0.3606  0.1674
 1806SOL     OW17053   0.649   1.529  10.971 -0.4614 -0.1015 -0.2958
 1806SOL    HW117054   0.641   1.467  11.044  0.0823  1.0797  0.7610
 1806SOL    HW217055   0.737   1.564  10.985 -0.3589  0.9162 -3.4777
 1807SOL     OW17056   3.342   4.582   3.355  0.4115  0.0342  0.2971
 1807SOL    HW117057   3.409   4.554   3.417 -1.1560 -2.8940  0.6843
 1807SOL    HW217058   3.392   4.638   3.297  1.3035 -0.0156  1.0209
 1808SOL     OW17059   0.899   3.777  10.607  0.2620  0.6571 -0.3821
 1808SOL    HW117060   0.924   3.849  10.548  0.8878  0.3452 -0.5051
 1808SOL    HW217061   0.808   3.760  10.586  0.2153  2.5477 -1.7246
 1809SOL     OW17062   4.082   0.295   5.846  0.3632 -0.5692  0.1087
 1809SOL    HW117063   4.045   0.278   5.933 -1.7129 -0.7787 -0.8127
 1809SOL    HW217064   4.119   0.379   5.873  1.2699 -0.1348 -2.4885
 1810SOL     OW17065   3.210   1.377  10.323 -0.0238  0.4913  0.6565
 1810SOL    HW117066   3.248   1.325  10.393  1.0707 -1.2786 -1.2557
 1810SOL    HW217067   3.141   1.313  10.305 -1.1071  2.1102 -1.1011
 1811SOL     OW17068   0.374   1.143   8.483 -0.4254  0.0082  0.1120
 1811SOL    HW117069   0.367   1.230   8.523  0.8940 -0.1391  0.6424
 1811SOL    HW217070   0.352   1.080   8.551  0.5111  1.5886  1.8641
 1812SOL     OW17071   4.235   4.337   2.670 -0.6442 -0.2436  0.4806
 1812SOL    HW117072   4.329   4.316   2.674 -1.3123 -2.9720  1.5993
 1812SOL    HW217073   4.205   4.300   2.587 -0.6720  0.8291  0.0068
 1813SOL     OW17074   3.162   0.013  12.432 -0.3198 -0.1017  0.0846
 1813SOL    HW117075   3.103   4.714  12.498  0.7265 -0.9895  0.5559
 1813SOL    HW217076   3.232   0.057  12.481  0.3971  1.3526 -2.2970
 1814SOL     OW17077   0.139   3.134   3.373 -0.2608  0.4945  0.1187
 1814SOL    HW117078   0.118   3.041   3.382 -1.9102  0.7207 -1.2346
 1814SOL    HW217079   0.098   3.163   3.454 -2.2917  1.0910 -1.1074
 1815SOL     OW17080   1.822   1.606   1.345 -0.2637  0.1482  0.5117
 1815SOL    HW117081   1.874   1.551   1.286 -0.3647 -1.0065  1.5202
 1815SOL    HW217082   1.880   1.680   1.363  0.1785 -0.3600  1.1431
 1816SOL     OW17083   0.260   4.169  13.256 -0.5770 -0.0565  0.0021
 1816SOL    HW117084   0.217   4.244  13.296  2.6756  1.5184  0.4749
 1816SOL    HW217085   0.336   4.209  13.214 -0.3946 -2.9364 -2.4627
 1817SOL     OW17086   4.724   1.293   2.689  0.1722 -0.6897 -0.2463
 1817SOL    HW117087   4.646   1.278   2.742  0.0308  3.4314  0.7078
 1817SOL    HW217088   0.046   1.331   2.754  0.0742 -1.2464  0.1636
 1818SOL     OW17089   4.422   2.665  14.744  0.1142  0.4522  0.7207
 1818SOL    HW117090   4.382   2.749  14.761 -2.2333 -0.0987 -2.0533
 1818SOL    HW217091   4.353   2.611  14.705  0.7720  0.4896 -0.5028
 1819SOL     OW17092   1.592   0.434   2.992  0.3761 -0.4041  0.2302
 1819SOL    HW117093   1.579   0.340   2.976  0.6282 -0.0577 -1.9383
 1819SOL    HW217094   1.570   0.446   3.084 -1.1227 -0.1198 -0.1680
 1820SOL     OW17095   0.429   3.902   7.708 -0.0888 -0.1057 -0.2411
 1820SOL    HW117096   0.464   3.988   7.731 -0.3640 -0.4462  1.4052
 1820SOL    HW217097   0.449   3.853   7.787  0.3100 -0.7405 -0.7306
 1821SOL     OW17098   0.649   3.628   2.387 -0.2003  0.3184 -0.2053
 1821SOL    HW117099   0.617   3.710   2.349 -0.1279  0.7860  0.7603
 1821SOL    HW217100   0.603   3.623   2.470  1.3169  0.0071  0.6229
 1822SOL     OW17101   0.545   0.203   6.296 -0.2109  0.1650 -0.4652
 1822SOL    HW117102   0.562   0.112   6.320 -0.5281  0.4714  0.9642
 1822SOL    HW217103   0.586   0.207   6.209 -0.0986  1.1742 -0.3668
 1823SOL     OW17104   1.008   4.320   4.860  0.1770 -0.0686  0.2186
 1823SOL    HW117105   0.987   4.243   4.808 -0.9388 -1.0573  2.1347
 1823SOL    HW217106   1.071   4.355   4.797 -0.6809  2.7497  0.8900
 1824SOL     OW17107   0.776   1.884   6.850 -0.2125 -0.4806  0.2030
 1824SOL    HW117108   0.854   1.935   6.868 -1.5484  2.0512 -1.0741
 1824SOL    HW217109   0.792   1.860   6.758 -2.1506  0.0767 -0.2859
 1825SOL     OW17110   2.908   2.124   6.483 -0.3951  0.1496 -0.3949
 1825SOL    HW117111   2.986   2.178   6.501  0.0026 -0.4553 -0.3160
 1825SOL    HW217112   2.943   2.070   6.413 -0.4660 -1.9966  1.2474
 1826SOL     OW17113   2.856   0.824   5.909  0.0490 -0.2216 -0.1626
 1826SOL    HW117114   2.914   0.758   5.946  0.0364  0.3385  0.8358
 1826SOL    HW217115   2.925   0.886   5.887  0.1609  0.1505  1.2570
 1827SOL     OW17116   3.649   0.631   8.490 -0.5862  0.1542 -0.3038
 1827SOL    HW117117   3.671   0.540   8.511 -0.5520 -0.6047 -3.6890
 1827SOL    HW217118   3.685   0.677   8.566  0.7786 -1.7345  0.2165
 1828SOL     OW17119   0.992   1.457  17.380 -0.6070 -0.3338 -1.1179
 1828SOL    HW117120   1.072   1.458  17.433 -1.4755 -0.8221  0.2111
 1828SOL    HW217121   0.934   1.463  17.456  0.3697  1.7444 -0.5499
 1829SOL     OW17122   3.324   2.611   0.802 -0.0773  0.5239 -0.2878
 1829SOL    HW117123   3.289   2.528   0.768 -0.0661  1.1417 -1.8300
 1829SOL    HW217124   3.373   2.578   0.877 -0.3154 -0.8392 -0.7108
 1830SOL     OW17125   1.794   3.432   2.211  0.2967 -0.3757 -0.4216
 1830SOL    HW117126   1.730   3.474   2.269 -0.0610 -0.8337 -0.4872
 1830SOL    HW217127   1.764   3.461   2.125 -0.1426 -2.4828 -0.9683
 1831SOL     OW17128   4.615   3.901  10.248 -0.2186  0.1143  0.3656
 1831SOL    HW117129   4.549   3.836  10.224  1.3030 -0.9022 -1.1326
 1831SOL    HW217130   4.656   3.858  10.323 -2.7192 -2.5679  0.2056
 1832SOL     OW17131   0.853   3.745  11.247  0.5194 -0.3189 -0.0491
 1832SOL    HW117132   0.908   3.673  11.279  0.6162  0.4357  1.4774
 1832SOL    HW217133   0.861   3.718  11.156 -1.3766  0.1954 -0.3574
 1833SOL     OW17134   3.981   4.377   0.434 -0.1270 -0.0161 -0.6113
 1833SOL    HW117135   3.897   4.397   0.392  1.3361  1.9164 -2.5766
 1833SOL    HW217136   3.976   4.284   0.416  1.4212  0.1015 -1.5601
 1834SOL     OW17137   0.569   0.382   1.214  0.8130 -0.5046  0.3199
 1834SOL    HW117138   0.538   0.411   1.129 -1.1787  1.5263  1.7480
 1834SOL    HW217139   0.486   0.340   1.238  1.5436 -2.4814 -0.5877
 1835SOL     OW17140   0.236   2.068   9.540 -0.4098 -0.4121 -0.2792
 1835SOL    HW117141   0.215   2.045   9.449  0.0105  0.1974 -0.5285
 1835SOL    HW217142   0.295   1.996   9.561 -0.3003 -0.5117 -0.9251
 1836SOL     OW17143   0.180   4.622  13.133 -0.3395 -0.4067  0.2360
 1836SOL    HW117144   0.232   4.672  13.195 -1.5240  0.3035  0.6515
 1836SOL    HW217145   0.255   4.582  13.089 -1.3118  0.2362 -2.0064
 1837SOL     OW17146   4.262   4.565   1.656  0.2452  0.1066  0.0310
 1837SOL    HW117147   4.341   4.583   1.606 -0.6092  2.1472 -0.5719
 1837SOL    HW217148   4.239   4.479   1.618  0.4840 -0.2151  0.6159
 1838SOL     OW17149   1.285   3.014  17.395 -0.0188  0.2230 -0.4894
 1838SOL    HW117150   1.278   3.107  17.418  1.2520 -0.4952  2.7059
 1838SOL    HW217151   1.212   2.982  17.448 -0.0784  0.0257 -0.6854
 1839SOL     OW17152   4.556   3.828   4.384 -0.2601 -0.8384 -0.1417
 1839SOL    HW117153   4.609   3.779   4.322 -1.7281 -1.0431 -1.2563
 1839SOL    HW217154   4.604   3.817   4.466 -0.7780  2.1437  0.5936
 1840SOL     OW17155   1.391   4.063   8.363  0.1310 -0.2625  0.6019
 1840SOL    HW117156   1.314   4.087   8.312 -1.3487 -2.0857  1.9494
 1840SOL    HW217157   1.450   4.135   8.343 -0.8878  0.2264 -0.5974
 1841SOL     OW17158   3.060   3.723   0.852  0.6157  0.1165  0.0614
 1841SOL    HW117159   3.016   3.740   0.935 -1.1808 -0.8127 -0.7054
 1841SOL    HW217160   3.057   3.628   0.846 -0.5165  0.1430  0.1472
 1842SOL     OW17161   0.216   3.748   2.668  0.2744 -0.1994 -0.2705
 1842SOL    HW117162   0.132   3.777   2.702 -0.0400 -0.3334 -0.9380
 1842SOL    HW217163   0.234   3.666   2.715  1.0245  0.5241  0.7091
 1843SOL     OW17164   4.158   1.147  12.624 -0.3466 -0.2833  0.0262
 1843SOL    HW117165   4.123   1.212  12.562 -1.3716  1.0970  2.0472
 1843SOL    HW217166   4.231   1.194  12.664 -0.9049 -0.5684  1.3489
 1844SOL     OW17167   1.757   1.894   2.646  0.5468  0.7142  0.1324
 1844SOL    HW117168   1.796   1.817   2.688  0.1551 -1.0717 -2.7450
 1844SOL    HW217169   1.679   1.905   2.700  0.2165  0.6558 -0.3239
 1845SOL     OW17170   1.940   3.280   3.741  0.7174 -0.4026 -0.1296
 1845SOL    HW117171   1.855   3.270   3.783  0.6253  2.2100  0.3260
 1845SOL    HW217172   1.908   3.317   3.658  2.5112  2.0128  0.2388
 1846SOL     OW17173   3.983   1.166  12.983 -0.3830 -0.2227  0.1509
 1846SOL    HW117174   3.971   1.225  12.909  1.3654  0.1480  0.1746
 1846SOL    HW217175   3.909   1.171  13.044  0.5104 -1.6586  1.3578
 1847SOL     OW17176   0.544   1.868   2.185 -0.7199 -0.0130  0.3267
 1847SOL    HW117177   0.596   1.882   2.264 -0.6588  3.6782 -0.3663
 1847SOL    HW217178   0.524   1.953   2.146  0.5193  0.4059  0.5919
 1848SOL     OW17179   3.539   2.227   6.413  0.1248 -0.0926 -0.5328
 1848SOL    HW117180   3.535   2.230   6.317  3.2538  0.4236 -0.6259
 1848SOL    HW217181   3.474   2.296   6.430 -0.1109 -0.7136  1.0916
 1849SOL     OW17182   2.794   3.195  11.006 -0.1314  0.4866  0.3999
 1849SOL    HW117183   2.802   3.249  11.085 -1.1753  2.1031 -0.6194
 1849SOL    HW217184   2.865   3.132  11.023 -0.6175 -0.2096 -0.1853
 1850SOL     OW17185   0.259   3.222  14.189  0.2019  0.3795 -0.3772
 1850SOL    HW117186   0.173   3.188  14.212  0.0404 -1.4403 -3.6498
 1850SOL    HW217187   0.248   3.261  14.102 -1.8334  0.9155  0.1277
 1851SOL     OW17188   1.269   1.927   5.415 -0.1285  0.3330 -0.0643
 1851SOL    HW117189   1.178   1.926   5.446 -0.3691  2.1753 -0.7101
 1851SOL    HW217190   1.294   1.864   5.483  4.2515  2.4348  0.2461
 1852SOL     OW17191   1.695   2.108   7.340 -0.4161 -0.0749  0.1474
 1852SOL    HW117192   1.664   2.189   7.302  0.6168  0.0312 -0.4662
 1852SOL    HW217193   1.785   2.137   7.355 -0.9347  2.0205 -0.9119
 1853SOL     OW17194   1.805   0.911  15.410 -0.2057  0.2979 -0.0200
 1853SOL    HW117195   1.727   0.866  15.377 -0.1485 -0.0896  0.3657
 1853SOL    HW217196   1.872   0.856  15.370 -2.0212 -0.9248 -1.3895
 1854SOL     OW17197   4.033   3.756   2.236  0.2266  0.3339 -0.1872
 1854SOL    HW117198   4.005   3.847   2.241 -4.3632 -0.9424 -3.0716
 1854SOL    HW217199   4.114   3.753   2.287 -1.0665  0.3820  1.8288
 1855SOL     OW17200   4.540   2.054   3.162  0.3832  0.2089 -0.6728
 1855SOL    HW117201   4.534   2.021   3.073  0.6444  0.6119 -0.8423
 1855SOL    HW217202   4.491   2.136   3.160 -1.0308 -0.5954  0.8103
 1856SOL     OW17203   1.187   3.474  17.203  0.5313  0.1823 -0.0255
 1856SOL    HW117204   1.257   3.440  17.147  0.9309  0.3731  0.3576
 1856SOL    HW217205   1.221   3.557  17.239  1.3843  0.7442 -2.1444
 1857SOL     OW17206   1.280   1.780   2.470  0.3052 -0.3813 -0.7680
 1857SOL    HW117207   1.185   1.769   2.474  0.1043  1.1572 -1.2462
 1857SOL    HW217208   1.293   1.819   2.557  0.7357 -1.0367 -0.5381
 1858SOL     OW17209   2.801   1.524   8.109 -0.0596 -0.1281 -0.3036
 1858SOL    HW117210   2.822   1.529   8.202  1.7662  0.5628 -0.7620
 1858SOL    HW217211   2.715   1.481   8.102  0.6858 -1.4833 -1.0292
 1859SOL     OW17212   3.887   0.481  13.257  0.5996  0.1185  0.1470
 1859SOL    HW117213   3.904   0.545  13.188  0.6143  0.3602  0.3724
 1859SOL    HW217214   3.926   0.517  13.336 -0.2202  0.3968  0.4317
 1860SOL     OW17215   1.785   0.331   7.214 -0.7502  0.2716 -0.2333
 1860SOL    HW117216   1.827   0.335   7.129 -0.8516  0.5744 -0.2677
 1860SOL    HW217217   1.788   0.236   7.226 -2.4212  0.4443  1.6595
 1861SOL     OW17218   0.215   4.048   4.002  0.4791  0.4456 -0.0833
 1861SOL    HW117219   0.214   4.053   3.907 -2.3993  1.8790  0.0377
 1861SOL    HW217220   0.311   4.051   4.010  0.4943 -0.3969 -0.0369
 1862SOL     OW17221   1.517   0.014  13.086 -0.9896  0.5275  0.3245
 1862SOL    HW117222   1.434   0.007  13.038 -0.2541  1.4076 -1.0745
 1862SOL    HW217223   1.498   4.726  13.176 -1.2401  0.6280  0.3001
 1863SOL     OW17224   2.182   2.673   6.885  0.1014 -0.4878  0.3637
 1863SOL    HW117225   2.207   2.694   6.795 -0.3522  1.4066  0.6696
 1863SOL    HW217226   2.259   2.709   6.930 -0.7794 -0.4608  1.8650
 1864SOL     OW17227   0.350   4.070   0.812  0.1601 -0.0100  0.3553
 1864SOL    HW117228   0.278   4.069   0.749 -0.1422  1.7591  0.6586
 1864SOL    HW217229   0.349   4.159   0.847 -0.3233  0.8077 -1.7651
 1865SOL     OW17230   4.296   4.120   2.202  0.4350 -0.3070  0.4313
 1865SOL    HW117231   4.329   4.083   2.120  1.1474 -1.6746  1.3350
 1865SOL    HW217232   4.355   4.085   2.269 -0.0734 -2.3307 -0.1825
 1866SOL     OW17233   4.030   0.595  14.750  0.2115  0.2573  0.0917
 1866SOL    HW117234   4.058   0.576  14.839  0.7379  0.7467  0.0321
 1866SOL    HW217235   4.104   0.568  14.695 -0.0959  1.4406 -0.9053
 1867SOL     OW17236   1.010   2.245   2.981  0.0342  0.6487  0.2841
 1867SOL    HW117237   1.003   2.169   3.039 -0.2940 -1.2255 -2.1468
 1867SOL    HW217238   0.940   2.301   3.012 -0.5650 -0.5800  1.1469
 1868SOL     OW17239   4.718   0.623   8.219  0.4486 -0.6327 -0.1258
 1868SOL    HW117240   0.064   0.660   8.191  0.2582  0.0032  0.1501
 1868SOL    HW217241   0.008   0.539   8.255  0.8810 -0.6692 -0.5388
 1869SOL     OW17242   4.612   4.225   6.313  0.2392 -0.2928  0.1552
 1869SOL    HW117243   4.535   4.261   6.269 -0.6169 -3.9010 -1.2424
 1869SOL    HW217244   4.639   4.287   6.381  0.4529 -0.7579  0.4962
 1870SOL     OW17245   2.449   2.445   2.540 -0.4989 -0.2756 -0.1380
 1870SOL    HW117246   2.377   2.383   2.532 -0.3399 -0.2477 -1.7777
 1870SOL    HW217247   2.492   2.431   2.455 -1.7345  0.8128 -0.9444
 1871SOL     OW17248   3.766   1.071   2.883  0.3027 -0.0488  0.2637
 1871SOL    HW117249   3.759   0.979   2.860 -0.0149  0.0900 -0.1767
 1871SOL    HW217250   3.858   1.091   2.866  0.2664  0.2494  0.4138
 1872SOL     OW17251   0.459   1.665   7.216  0.0240  0.1652  0.0420
 1872SOL    HW117252   0.471   1.746   7.266  0.9489  0.2374 -0.2952
 1872SOL    HW217253   0.549   1.632   7.211  0.1272  0.3904  0.4335
 1873SOL     OW17254   4.682   4.365   6.619 -0.2872 -0.1291 -0.0732
 1873SOL    HW117255   4.688   4.428   6.690 -0.7800 -0.4083  0.2126
 1873SOL    HW217256   4.622   4.303   6.661  0.7329  0.0410  1.6593
 1874SOL     OW17257   4.300   3.045   3.312 -0.5158 -0.1905  0.5810
 1874SOL    HW117258   4.240   3.068   3.383  1.1453 -0.6422  2.1284
 1874SOL    HW217259   4.362   2.994   3.365 -3.2846 -1.8861  2.1754
 1875SOL     OW17260   0.010   4.036  14.701  0.5615 -0.1290  0.2309
 1875SOL    HW117261   0.049   3.976  14.636  0.1327 -0.3419  0.1724
 1875SOL    HW217262   4.689   3.970  14.738 -1.5818  1.5533 -0.1389
 1876SOL     OW17263   4.601   3.916  12.657  0.9507 -0.3260 -0.0431
 1876SOL    HW117264   4.606   3.991  12.597 -1.5410  0.5583  0.8561
 1876SOL    HW217265   4.642   3.845  12.608  1.2597 -1.8844  2.5006
 1877SOL     OW17266   4.500   4.098   4.596 -0.1437 -0.2001  0.0294
 1877SOL    HW117267   4.418   4.139   4.569 -1.1172 -0.6286  2.3645
 1877SOL    HW217268   4.561   4.129   4.529 -1.1139  2.0100  0.1936
 1878SOL     OW17269   3.684   3.496   2.036  0.4612 -0.7283 -0.1518
 1878SOL    HW117270   3.680   3.574   1.980  1.6161  2.3204  4.0327
 1878SOL    HW217271   3.648   3.430   1.977 -0.8222 -0.0816 -0.0987
 1879SOL     OW17272   4.691   2.596   0.253 -0.1301  0.3141 -0.2573
 1879SOL    HW117273   0.003   2.515   0.266 -1.4691 -0.2352  1.3525
 1879SOL    HW217274   4.609   2.565   0.291 -0.4280  0.6220 -0.6474
 1880SOL     OW17275   0.418   4.546   6.280 -0.1451 -0.1664  0.4489
 1880SOL    HW117276   0.361   4.553   6.356 -1.3606  2.1351 -0.6877
 1880SOL    HW217277   0.351   4.532   6.213 -1.5507 -1.1057  2.0387
 1881SOL     OW17278   2.690   4.057   4.149 -0.1995 -0.6995  0.7745
 1881SOL    HW117279   2.618   4.100   4.195  0.2475 -0.4991  1.2928
 1881SOL    HW217280   2.722   4.124   4.088 -1.3565 -0.6874  0.1808
 1882SOL     OW17281   1.649   3.245   3.028 -0.5167  0.3726 -0.3351
 1882SOL    HW117282   1.572   3.250   3.084 -0.7514 -0.2499 -0.6016
 1882SOL    HW217283   1.709   3.199   3.085  0.0215  3.0877  1.2996
 1883SOL     OW17284   0.655   0.632   9.020 -0.2906 -0.1418  0.1306
 1883SOL    HW117285   0.704   0.630   8.937  1.4889 -3.0331  1.2537
 1883SOL    HW217286   0.709   0.606   9.094 -0.1495 -2.0960 -0.6665
 1884SOL     OW17287   2.298   3.351   7.636 -0.7167  0.4067  0.6127
 1884SOL    HW117288   2.349   3.431   7.645 -1.6031  1.2667 -2.0021
 1884SOL    HW217289   2.216   3.398   7.619 -1.8334 -2.1747 -1.2205
 1885SOL     OW17290   2.010   4.009   2.006 -0.0526  0.4124 -0.4126
 1885SOL    HW117291   2.054   3.967   1.932 -0.4722  0.6247 -0.7799
 1885SOL    HW217292   2.070   4.079   2.032 -0.0213  0.3227 -0.2386
 1886SOL     OW17293   3.496   3.687  17.459  0.0993  0.1896 -0.8296
 1886SOL    HW117294   3.555   3.654  17.391  0.8594  0.7659 -0.4559
 1886SOL    HW217295   3.440   3.614  17.482  0.9173  0.7748  2.9501
 1887SOL     OW17296   2.381   2.340   3.779  0.2542 -0.1209 -0.0588
 1887SOL    HW117297   2.350   2.287   3.852  1.8008  0.2143  0.8242
 1887SOL    HW217298   2.458   2.297   3.743  0.8385  2.1819 -1.5665
 1888SOL     OW17299   2.179   4.296   1.498  0.1356  0.1715  0.1658
 1888SOL    HW117300   2.221   4.283   1.413 -1.4091 -2.4626 -0.2049
 1888SOL    HW217301   2.188   4.212   1.543  0.7215 -0.2394 -0.7364
 1889SOL     OW17302   0.355   2.374   5.709  0.4888  0.2503 -0.5525
 1889SOL    HW117303   0.259   2.377   5.703  0.3826 -0.5721  0.6909
 1889SOL    HW217304   0.380   2.293   5.664 -2.5883 -2.3139  2.3724
 1890SOL     OW17305   1.192   1.003  10.032  0.1889 -0.3794 -0.1737
 1890SOL    HW117306   1.272   1.049  10.007  0.1243  0.3706  1.0448
 1890SOL    HW217307   1.127   1.061   9.992 -0.6410 -1.0885  0.1374
 1891SOL     OW17308   3.323   3.047   9.655  0.0510 -0.1083  0.1258
 1891SOL    HW117309   3.324   2.958   9.618 -0.2536 -0.0737  0.0317
 1891SOL    HW217310   3.237   3.073   9.620 -0.0889  0.2580  0.7508
 1892SOL     OW17311   0.485   4.590   2.816  0.5803 -0.3344 -0.7369
 1892SOL    HW117312   0.581   4.592   2.824  0.6604  0.5327 -1.7827
 1892SOL    HW217313   0.467   4.635   2.733  0.1005  1.7114  0.4838
 1893SOL     OW17314   0.494   3.981  13.199 -0.0105 -0.1444 -0.7867
 1893SOL    HW117315   0.432   3.934  13.255  0.7852 -1.6445 -1.1482
 1893SOL    HW217316   0.436   4.056  13.188 -0.2987 -0.5179 -1.8370
 1894SOL     OW17317   2.145   0.110   8.796 -0.5346  0.2099  0.9453
 1894SOL    HW117318   2.153   0.180   8.861 -0.4022  2.2352 -1.2557
 1894SOL    HW217319   2.237   0.105   8.768 -0.0245  1.3365  2.3992
 1895SOL     OW17320   1.265   4.295  10.458 -0.3412 -0.2136  0.0054
 1895SOL    HW117321   1.320   4.293  10.537  1.8278 -2.0507 -1.5478
 1895SOL    HW217322   1.189   4.315  10.512  1.5549 -0.1264  2.6517
 1896SOL     OW17323   3.301   4.312  17.585 -0.0869  0.2567  0.4229
 1896SOL    HW117324   3.372   4.281  17.528 -1.0136 -0.8281 -0.1700
 1896SOL    HW217325   3.345   4.378  17.638  1.4625  0.9778 -1.7623
 1897SOL     OW17326   0.178   0.103  14.263  0.2159 -0.3804  0.4076
 1897SOL    HW117327   0.178   0.017  14.305 -1.8091 -0.6578 -0.1400
 1897SOL    HW217328   0.086   0.115  14.240  0.2021 -0.5328  0.3865
 1898SOL     OW17329   1.237   3.143   5.301 -0.0690  0.2918 -0.3080
 1898SOL    HW117330   1.206   3.055   5.281  0.4380  0.4285 -1.7488
 1898SOL    HW217331   1.167   3.193   5.259 -0.6249  0.2200  0.5447
 1899SOL     OW17332   1.553   3.631   5.807 -0.5536 -0.9129  0.1245
 1899SOL    HW117333   1.479   3.611   5.749 -1.2552 -0.8102  0.9937
 1899SOL    HW217334   1.621   3.601   5.747 -1.4844 -0.1290 -1.3267
 1900SOL     OW17335   0.180   3.888   8.449 -0.2517 -0.1831 -0.2371
 1900SOL    HW117336   0.243   3.891   8.378 -2.5780  1.0938 -2.2699
 1900SOL    HW217337   0.202   3.969   8.494  1.6614 -2.2761  2.6337
 1901SOL     OW17338   2.779   2.715   8.742  0.0118 -0.6482 -0.4241
 1901SOL    HW117339   2.711   2.781   8.732 -0.0025 -0.3031  1.8404
 1901SOL    HW217340   2.745   2.687   8.827  0.8755  0.2507  0.2203
 1902SOL     OW17341   1.760   3.839   5.371 -0.2035  0.2580  0.2855
 1902SOL    HW117342   1.743   3.847   5.465 -0.1820  1.6514  0.1766
 1902SOL    HW217343   1.749   3.933   5.353  0.3530  0.2570 -0.0717
 1903SOL     OW17344   2.182   3.430   1.023  0.4263  0.4372  0.0120
 1903SOL    HW117345   2.088   3.424   1.007  0.5303  3.0309 -1.6523
 1903SOL    HW217346   2.184   3.524   1.042  0.4277  0.6586 -1.0877
 1904SOL     OW17347   1.091   2.557   0.069  0.1833  0.3194 -0.1723
 1904SOL    HW117348   1.135   2.635   0.103 -2.5606  1.7181  0.1387
 1904SOL    HW217349   1.010   2.593   0.034 -0.3421 -0.8674 -0.1786
 1905SOL     OW17350   2.964   2.997   0.581 -0.1055 -0.2326 -0.4006
 1905SOL    HW117351   2.887   3.024   0.531  1.8036  0.2436 -3.0864
 1905SOL    HW217352   3.031   2.993   0.513 -0.9460  3.4905 -1.4217
 1906SOL     OW17353   0.396   1.006   7.881  0.0646 -0.2834 -0.0964
 1906SOL    HW117354   0.382   0.915   7.906  0.4918 -0.8413 -1.9047
 1906SOL    HW217355   0.365   1.051   7.960 -0.1375 -1.4050  0.4669
 1907SOL     OW17356   3.952   2.238   9.159  0.1319  0.0649 -0.3875
 1907SOL    HW117357   4.032   2.283   9.188  0.5917 -0.2876 -1.1129
 1907SOL    HW217358   3.967   2.234   9.065  1.2572 -1.1071 -0.1605
 1908SOL     OW17359   2.534   2.624   6.717 -0.2051 -0.7060 -0.3682
 1908SOL    HW117360   2.557   2.535   6.690 -1.6395 -1.0264 -0.5246
 1908SOL    HW217361   2.476   2.648   6.645  0.4039 -0.6991 -0.8630
 1909SOL     OW17362   3.546   0.710  15.829 -0.2379  0.3495 -0.5063
 1909SOL    HW117363   3.525   0.796  15.793  1.8051  1.0545 -0.0223
 1909SOL    HW217364   3.486   0.699  15.903 -0.0127  2.5464 -0.0020
 1910SOL     OW17365   1.401   1.337   2.769 -0.2019  0.6076  0.6023
 1910SOL    HW117366   1.367   1.329   2.858  0.0855 -0.4311  0.6158
 1910SOL    HW217367   1.325   1.336   2.711  1.4462  0.1977 -1.5769
 1911SOL     OW17368   3.940   1.701   4.597  0.5740  0.1488 -0.1408
 1911SOL    HW117369   3.937   1.652   4.515 -0.9265  2.2130 -1.3318
 1911SOL    HW217370   3.924   1.791   4.567  2.4613  0.5852  0.1438
 1912SOL     OW17371   1.423   4.031   5.920  0.2988 -0.1676 -0.4262
 1912SOL    HW117372   1.455   4.027   5.829  0.8704  1.0232 -0.2848
 1912SOL    HW217373   1.411   3.938   5.941 -3.8513  0.2553 -1.0301
 1913SOL     OW17374   4.310   3.683   4.455 -0.0745  0.5783 -0.3622
 1913SOL    HW117375   4.390   3.704   4.408  0.9331 -2.2919  0.0949
 1913SOL    HW217376   4.260   3.634   4.390 -0.1924  1.2184 -0.7631
 1914SOL     OW17377   0.179   4.625   7.004 -0.6963 -0.0186  0.2221
 1914SOL    HW117378   0.240   4.599   7.073 -0.0171  1.5847  0.2185
 1914SOL    HW217379   0.213   4.714   6.997 -0.0970 -0.2300  0.3975
 1915SOL     OW17380   2.589   0.532   4.191 -0.0850  0.3758 -0.2407
 1915SOL    HW117381   2.603   0.512   4.283 -0.0356 -1.4370 -0.6433
 1915SOL    HW217382   2.672   0.551   4.146 -0.2892 -0.2196 -0.8746
 1916SOL     OW17383   4.466   1.375   8.161  0.2308  0.4653  0.8394
 1916SOL    HW117384   4.458   1.333   8.075  1.1769 -0.1765  1.0590
 1916SOL    HW217385   4.443   1.305   8.223 -1.3334  0.1672 -0.0765
 1917SOL     OW17386   4.670   3.343   3.864 -0.5873  0.3169  0.2665
 1917SOL    HW117387   4.717   3.356   3.946 -1.4522  1.5638  0.5702
 1917SOL    HW217388   4.622   3.267   3.895  2.2293 -1.3504  0.5288
 1918SOL     OW17389   1.032   3.824   7.730  0.0506  0.5307 -0.2980
 1918SOL    HW117390   0.956   3.776   7.765 -0.0669  0.5041 -0.5906
 1918SOL    HW217391   1.100   3.758   7.742  0.6412  1.3191  0.6587
 1919SOL     OW17392   2.167   2.853   9.546 -0.0905  0.0566 -1.0337
 1919SOL    HW117393   2.156   2.863   9.641 -0.2182 -2.1598 -0.8130
 1919SOL    HW217394   2.218   2.932   9.528  0.1151  1.0688  3.9139
 1920SOL     OW17395   4.282   1.792   6.202 -0.6337 -0.3526 -0.1946
 1920SOL    HW117396   4.245   1.880   6.207  1.0524  0.2258  1.9738
 1920SOL    HW217397   4.206   1.743   6.170 -1.6564 -0.5547  2.5814
 1921SOL     OW17398   4.121   0.722   3.866 -0.0829 -0.7080  0.0973
 1921SOL    HW117399   4.141   0.815   3.852 -0.6268 -0.5738  0.2041
 1921SOL    HW217400   4.113   0.704   3.773 -0.1726 -1.0182  0.1649
 1922SOL     OW17401   2.690   2.806   4.813  0.2179 -0.0019  0.6389
 1922SOL    HW117402   2.603   2.789   4.851 -0.6992  0.9374 -1.0390
 1922SOL    HW217403   2.752   2.758   4.868  0.6851 -0.7682 -0.5558
 1923SOL     OW17404   0.358   4.675   4.816  0.0039 -0.0981 -0.4674
 1923SOL    HW117405   0.297   0.002   4.852  0.5185 -1.5422  2.9496
 1923SOL    HW217406   0.434   4.727   4.790 -0.1384  0.6228  0.5589
 1924SOL     OW17407   1.881   0.153   5.424  0.6618  0.0477 -0.0490
 1924SOL    HW117408   1.946   0.095   5.385  0.1137 -1.6624  1.5817
 1924SOL    HW217409   1.918   0.179   5.508  0.8018 -0.6102  0.0909
 1925SOL     OW17410   1.894   1.354  11.731 -0.6032  0.1698  0.4954
 1925SOL    HW117411   1.956   1.386  11.666 -2.1686  0.0747 -1.0449
 1925SOL    HW217412   1.951   1.317  11.799  0.0840  1.6759  0.7564
 1926SOL     OW17413   3.942   3.322   3.792 -0.1022 -0.3267  0.6970
 1926SOL    HW117414   3.899   3.387   3.738 -0.4938 -2.5447 -1.6749
 1926SOL    HW217415   4.003   3.381   3.836  2.3123 -1.3589 -1.2920
 1927SOL     OW17416   0.882   0.503   2.785  0.1602  0.2849 -0.0907
 1927SOL    HW117417   0.842   0.560   2.719  0.1556 -0.7676 -1.0032
 1927SOL    HW217418   0.808   0.492   2.844  0.7565 -2.4845  0.1670
 1928SOL     OW17419   4.730   3.754   1.948  0.0505  0.2264 -0.0493
 1928SOL    HW117420   0.056   3.710   1.891  2.0301  1.4614  1.1658
 1928SOL    HW217421   4.693   3.814   1.884  2.3901  2.3402  0.5835
 1929SOL     OW17422   2.540   3.530   6.745 -0.0622 -0.4743 -0.0171
 1929SOL    HW117423   2.559   3.569   6.660 -1.5439  1.6024  0.5884
 1929SOL    HW217424   2.523   3.438   6.726 -0.3277 -0.8562  2.0605
 1930SOL     OW17425   2.549   1.066   8.387  0.1786 -0.1031  0.3485
 1930SOL    HW117426   2.602   1.058   8.467 -1.9935  0.3452  1.8568
 1930SOL    HW217427   2.569   1.155   8.356  0.7858 -0.9714 -1.7000
 1931SOL     OW17428   3.841   2.401   5.881 -0.0139  0.1726  0.0354
 1931SOL    HW117429   3.789   2.360   5.950  0.9891  0.3090  0.8635
 1931SOL    HW217430   3.919   2.430   5.928 -0.8162  0.7468  1.0171
 1932SOL     OW17431   1.333   1.826   6.462 -0.8186 -0.2881  0.4093
 1932SOL    HW117432   1.357   1.872   6.382  1.0664 -1.7192  0.1618
 1932SOL    HW217433   1.341   1.735   6.435 -2.3763 -0.6237  1.0600
 1933SOL     OW17434   2.936   3.577   0.217  0.0213  0.4243  0.0335
 1933SOL    HW117435   3.026   3.559   0.245  0.1972  0.1220 -0.7376
 1933SOL    HW217436   2.903   3.487   0.225 -0.2646  0.5818  0.6223
 1934SOL     OW17437   2.167   4.132  15.786  0.7710  0.0362  0.4209
 1934SOL    HW117438   2.185   4.048  15.743  0.7973  0.2285  0.0618
 1934SOL    HW217439   2.258   4.162  15.795  0.6080 -0.1630  2.7109
 1935SOL     OW17440   4.472   1.247   7.215  0.4457 -0.4376  0.4472
 1935SOL    HW117441   4.521   1.208   7.287  1.8699  1.6305  0.5975
 1935SOL    HW217442   4.389   1.270   7.257  0.7494  3.3953 -1.0078
 1936SOL     OW17443   0.427   1.536   0.866  0.0926 -0.0458 -0.1368
 1936SOL    HW117444   0.354   1.564   0.922  0.2317  0.9701 -0.4771
 1936SOL    HW217445   0.479   1.615   0.877  2.0764 -1.4014  0.2588
 1937SOL     OW17446   3.589   4.504   2.271  0.1988 -0.0178  0.6732
 1937SOL    HW117447   3.604   4.514   2.365  0.0033 -1.8522  0.8970
 1937SOL    HW217448   3.677   4.481   2.242 -0.3647  0.8710 -1.7660
 1938SOL     OW17449   2.897   1.602   4.541  0.2584  0.2645 -0.4267
 1938SOL    HW117450   2.975   1.614   4.595  0.5123 -1.0266 -0.5098
 1938SOL    HW217451   2.928   1.646   4.462  3.1162  0.8219  0.9848
 1939SOL     OW17452   4.694   1.782  15.050 -0.3348 -0.5795 -0.3235
 1939SOL    HW117453   4.718   1.788  15.142 -1.4759  1.0653 -0.1224
 1939SOL    HW217454   4.714   1.868  15.013 -1.0364  0.1052  0.8961
 1940SOL     OW17455   3.938   4.509   8.717  0.0514  0.3883  0.5799
 1940SOL    HW117456   4.018   4.471   8.682 -0.1859 -1.4253  2.0712
 1940SOL    HW217457   3.874   4.500   8.646  0.5708 -0.5795  0.2472
 1941SOL     OW17458   2.882   0.567   4.946  0.4766 -0.5517  0.5599
 1941SOL    HW117459   2.890   0.617   5.027  2.9779 -1.1052  0.6433
 1941SOL    HW217460   2.971   0.585   4.917 -0.5655  1.2988 -1.5203
 1942SOL     OW17461   2.046   1.516   4.266  0.2116 -0.0526 -1.0147
 1942SOL    HW117462   2.060   1.474   4.181 -0.8137 -1.2509 -0.5805
 1942SOL    HW217463   1.979   1.456   4.299 -0.2173  0.6977 -0.5236
 1943SOL     OW17464   1.854   0.085   6.501  0.0131 -0.1731  0.1650
 1943SOL    HW117465   1.920   0.100   6.433 -0.2895  2.5279  0.4369
 1943SOL    HW217466   1.785   0.150   6.488 -0.0355 -0.8207 -2.7827
 1944SOL     OW17467   0.964   2.029   5.239 -0.4393 -0.0636  0.4840
 1944SOL    HW117468   0.897   2.027   5.308 -0.3851  1.9600  0.6117
 1944SOL    HW217469   1.025   2.097   5.267 -0.6945  0.8209 -1.0933
 1945SOL     OW17470   4.363   1.133  10.183  0.1206  0.0797  0.6228
 1945SOL    HW117471   4.379   1.224  10.159 -0.3221 -0.2511 -0.9495
 1945SOL    HW217472   4.326   1.099  10.102 -1.9457  0.4457  1.4042
 1946SOL     OW17473   2.071   2.473   3.785 -0.0361  0.4633 -0.4775
 1946SOL    HW117474   2.064   2.378   3.774 -0.6528  0.6205 -1.4253
 1946SOL    HW217475   2.109   2.486   3.872  0.1203  0.3765 -0.5324
 1947SOL     OW17476   3.867   3.529   3.609 -0.1246 -0.2595  0.0080
 1947SOL    HW117477   3.866   3.620   3.638  0.2799  0.7429 -3.0857
 1947SOL    HW217478   3.897   3.536   3.518  3.0032  1.3376  1.1660
 1948SOL     OW17479   1.865   0.005   6.844 -0.3455  0.1914 -0.0814
 1948SOL    HW117480   1.832   0.090   6.815 -1.9109  0.9486  3.9461
 1948SOL    HW217481   1.820   4.737   6.928  0.4415 -3.3616  0.1099
 1949SOL     OW17482   0.958   4.095   5.579 -0.2889  0.0826 -0.0083
 1949SOL    HW117483   1.018   4.093   5.654 -1.7642  2.6382  1.2315
 1949SOL    HW217484   0.976   4.188   5.568  2.3633 -0.3036  1.0669
 1950SOL     OW17485   0.420   0.588   7.636 -0.4304  0.4866  0.2792
 1950SOL    HW117486   0.483   0.644   7.590  0.4952 -1.3315 -0.6499
 1950SOL    HW217487   0.363   0.557   7.566  1.5732 -0.7275 -0.8150
 1951SOL     OW17488   3.751   2.642   7.783 -0.7977 -0.6232  0.5213
 1951SOL    HW117489   3.838   2.677   7.765 -0.0267 -1.7906  2.0378
 1951SOL    HW217490   3.741   2.569   7.721 -0.2087 -2.7532  2.9428
 1952SOL     OW17491   2.813   2.808  16.352  0.5996  0.0620  0.5965
 1952SOL    HW117492   2.813   2.894  16.310 -0.9307  0.0371  0.5258
 1952SOL    HW217493   2.720   2.791  16.368  0.0730  2.0184 -0.4001
 1953SOL     OW17494   2.358   3.221   4.017 -0.2278 -0.3127 -0.1303
 1953SOL    HW117495   2.442   3.178   3.998 -0.9378 -3.1641  3.1282
 1953SOL    HW217496   2.291   3.181   3.961  0.8964  1.0139 -2.4038
 1954SOL     OW17497   4.494   4.319   4.334  0.2591 -0.2425  0.1524
 1954SOL    HW117498   4.476   4.231   4.300 -2.1723  0.3918 -0.2169
 1954SOL    HW217499   4.589   4.323   4.324  0.2379 -1.8427 -0.6496
 1955SOL     OW17500   0.372   0.511   2.272  0.6178 -0.3079  0.3254
 1955SOL    HW117501   0.413   0.585   2.317  0.8994 -0.5834  0.5211
 1955SOL    HW217502   0.315   0.573   2.227  0.5273  0.8148  1.9780
 1956SOL     OW17503   0.435   2.079   2.036 -0.4663 -0.4220  0.1911
 1956SOL    HW117504   0.495   2.045   1.969 -0.2469  2.8196 -1.2590
 1956SOL    HW217505   0.348   2.056   2.005 -0.5737 -0.2408  0.3614
 1957SOL     OW17506   3.445   1.009   4.892  0.0002  0.0799 -0.1445
 1957SOL    HW117507   3.525   1.006   4.839  1.0014  1.1150  1.2694
 1957SOL    HW217508   3.472   1.068   4.963  2.2358 -0.0835 -0.8521
 1958SOL     OW17509   0.831   3.335  16.408  0.0457 -0.3318  0.2134
 1958SOL    HW117510   0.772   3.392  16.458  0.7683  1.5490 -1.0784
 1958SOL    HW217511   0.916   3.347  16.450 -1.0637  0.2818  2.3146
 1959SOL     OW17512   3.163   0.218   7.132  0.0783 -0.1561  0.7924
 1959SOL    HW117513   3.091   0.156   7.133  0.2054 -0.3061  0.6464
 1959SOL    HW217514   3.231   0.157   7.162  0.5204 -0.8868 -1.7515
 1960SOL     OW17515   0.502   2.304   3.766  0.3526  0.0177 -0.7017
 1960SOL    HW117516   0.486   2.310   3.861  2.4980  1.8928 -0.4513
 1960SOL    HW217517   0.428   2.249   3.740 -1.3073  0.9655  1.9199
 1961SOL     OW17518   3.361   4.239   9.069  0.4723 -0.1745 -0.5055
 1961SOL    HW117519   3.392   4.266   9.155 -2.8286 -0.0226  0.6365
 1961SOL    HW217520   3.362   4.323   9.024  0.8067 -0.0892 -0.3382
 1962SOL     OW17521   1.063   2.598  12.864  0.1093 -0.1700 -0.0221
 1962SOL    HW117522   1.089   2.680  12.907 -0.6212  0.7963 -1.4393
 1962SOL    HW217523   0.973   2.585  12.895  0.0497 -1.6451 -0.8019
 1963SOL     OW17524   0.005   4.393   5.317 -0.0775  0.3520 -0.3200
 1963SOL    HW117525   0.021   4.465   5.377  0.8824  0.5187 -0.7643
 1963SOL    HW217526   4.649   4.395   5.295 -0.2051 -4.5626 -0.2760
 1964SOL     OW17527   3.530   3.738   8.492 -0.0087 -0.5190  0.1988
 1964SOL    HW117528   3.511   3.807   8.428  1.0576 -2.8176 -2.5956
 1964SOL    HW217529   3.443   3.707   8.517  0.2951 -1.6662 -0.1756
 1965SOL     OW17530   4.564   2.834   3.154  0.0776  0.0927 -0.4936
 1965SOL    HW117531   4.619   2.762   3.122 -0.8055 -0.4410 -0.8139
 1965SOL    HW217532   4.479   2.818   3.115 -0.5058  1.9630 -0.0197
 1966SOL     OW17533   0.880   0.606   3.252  0.3348  0.4297  0.7885
 1966SOL    HW117534   0.856   0.519   3.221 -0.0375  1.0741 -0.7142
 1966SOL    HW217535   0.961   0.610   3.201  0.6877 -3.3707  1.1080
 1967SOL     OW17536   4.085   2.283  15.784 -1.1083  0.0786 -0.5299
 1967SOL    HW117537   4.098   2.264  15.877  0.7617 -0.5335 -0.9272
 1967SOL    HW217538   3.989   2.288  15.778 -1.1209 -0.0517 -0.4388
 1968SOL     OW17539   3.547   3.236   3.534  0.0735  0.6084  0.1605
 1968SOL    HW117540   3.513   3.197   3.615 -1.2914  1.2890 -0.0803
 1968SOL    HW217541   3.545   3.328   3.559 -1.6930  0.3922  0.8494
 1969SOL     OW17542   2.920   0.110   2.001  0.4439 -0.2116 -0.3878
 1969SOL    HW117543   2.927   0.183   1.940 -3.0655 -0.7899 -1.4844
 1969SOL    HW217544   3.007   0.109   2.040 -0.4457  1.7591  1.6417
 1970SOL     OW17545   2.420   0.132  16.778 -0.0086 -0.0955  0.0963
 1970SOL    HW117546   2.450   0.043  16.799 -1.2398 -0.5070  0.1550
 1970SOL    HW217547   2.373   0.156  16.859  0.7090  2.3825 -0.2344
 1971SOL     OW17548   2.321   3.468  12.541  0.1732 -0.5643 -0.4182
 1971SOL    HW117549   2.400   3.438  12.586 -0.5469 -0.3990  0.9448
 1971SOL    HW217550   2.336   3.563  12.535  0.3451 -0.5245  0.7112
 1972SOL     OW17551   1.868   2.034   4.191  0.3722 -0.3431  0.3223
 1972SOL    HW117552   1.862   2.024   4.286  1.8790 -0.5782  0.3852
 1972SOL    HW217553   1.846   1.941   4.179 -1.9070  0.2409  0.0343
 1973SOL     OW17554   4.196   2.377   7.785  0.0380  0.1491 -0.5840
 1973SOL    HW117555   4.155   2.321   7.719  0.2678  4.2194 -4.1276
 1973SOL    HW217556   4.258   2.429   7.734  0.9718 -0.0709  0.3333
 1974SOL     OW17557   2.259   2.935  15.423 -0.2579  0.8083  0.2400
 1974SOL    HW117558   2.211   3.008  15.385  2.4281  2.8868  0.8573
 1974SOL    HW217559   2.205   2.920  15.500 -1.2485  0.4593 -0.5091
 1975SOL     OW17560   4.454   1.193  11.239 -0.0059  0.3649 -0.3088
 1975SOL    HW117561   4.443   1.287  11.227  0.0582  0.5993  1.4149
 1975SOL    HW217562   4.535   1.192  11.291 -0.9538 -0.3549  1.1420
 1976SOL     OW17563   3.494   3.271   7.227 -0.6238 -0.6691 -0.2833
 1976SOL    HW117564   3.575   3.287   7.179  0.1237  0.5415  1.3782
 1976SOL    HW217565   3.467   3.355   7.263 -0.1861 -0.8336  0.4231
 1977SOL     OW17566   3.034   1.655   4.769  0.4178 -0.0375  0.1977
 1977SOL    HW117567   3.050   1.744   4.802  2.7176 -0.4175  0.1001
 1977SOL    HW217568   2.964   1.627   4.828 -1.4140  0.1161 -1.8775
 1978SOL     OW17569   4.326   4.138   5.543  0.0112  0.2191  0.1790
 1978SOL    HW117570   4.397   4.185   5.588  1.4165  0.8559 -2.7135
 1978SOL    HW217571   4.286   4.080   5.607  0.0344  0.5097  0.4617
 1979SOL     OW17572   1.342   0.152   3.130 -0.3338  0.3084 -0.7694
 1979SOL    HW117573   1.306   0.075   3.173  2.0273 -0.0506  0.5320
 1979SOL    HW217574   1.436   0.136   3.137 -0.4679  0.8330  2.2688
 1980SOL     OW17575   1.576   2.067   9.393 -0.2268 -0.0466 -0.5557
 1980SOL    HW117576   1.533   2.129   9.335  0.8423  0.7947 -0.4583
 1980SOL    HW217577   1.639   2.117   9.445 -1.0619  0.8819 -0.4582
 1981SOL     OW17578   4.057   2.467   5.140  0.0686 -0.8230  0.5552
 1981SOL    HW117579   4.086   2.549   5.178  0.8675 -0.5068 -0.7376
 1981SOL    HW217580   3.963   2.470   5.155  0.2837  2.5009  1.0636
 1982SOL     OW17581   3.971   3.486   5.741 -0.4968 -0.4141 -0.0908
 1982SOL    HW117582   3.993   3.460   5.830 -0.8718  0.1458  0.1657
 1982SOL    HW217583   3.924   3.409   5.709 -2.9253  0.8358  0.4059
 1983SOL     OW17584   4.736   2.718   9.650 -0.0837  0.2892  0.0406
 1983SOL    HW117585   0.013   2.800   9.697 -0.2252  0.0373  0.5235
 1983SOL    HW217586   0.051   2.737   9.571  0.0965 -1.4695 -0.2639
 1984SOL     OW17587   0.733   0.394   9.620 -0.3950 -0.5263 -0.0203
 1984SOL    HW117588   0.822   0.383   9.654  0.1904  2.0236 -0.7175
 1984SOL    HW217589   0.739   0.472   9.566  0.3009 -1.4042 -1.2043
 1985SOL     OW17590   2.603   4.682   4.072  0.7987 -0.1682 -0.0316
 1985SOL    HW117591   2.652   0.019   4.108  1.5328 -1.5940  1.8794
 1985SOL    HW217592   2.584   4.637   4.155  0.3929  0.4369  0.2062
 1986SOL     OW17593   1.573   1.667   5.736 -0.3032 -0.5629  0.0218
 1986SOL    HW117594   1.578   1.692   5.644  1.9778 -0.4200  0.1902
 1986SOL    HW217595   1.651   1.614   5.751  2.2631  2.0929 -3.7040
 1987SOL     OW17596   4.365   4.432   7.790 -0.4641 -0.0436  0.1781
 1987SOL    HW117597   4.288   4.468   7.748 -1.3962 -3.2019 -0.8132
 1987SOL    HW217598   4.393   4.364   7.728  2.9420  1.1299  0.3954
 1988SOL     OW17599   0.865   4.079   2.986 -0.2313 -0.5202  0.4593
 1988SOL    HW117600   0.947   4.042   3.018  0.1596 -1.0318 -1.1045
 1988SOL    HW217601   0.837   4.006   2.931  1.4521 -0.8936  0.0996
 1989SOL     OW17602   3.077   1.237  11.074 -0.4478 -0.3731  0.0720
 1989SOL    HW117603   3.120   1.306  11.124  0.8582 -0.8844 -0.3618
 1989SOL    HW217604   3.119   1.157  11.106  1.9860  0.8257 -0.1465
 1990SOL     OW17605   4.386   0.710   3.541 -0.0621  0.2035  0.0313
 1990SOL    HW117606   4.421   0.642   3.597  0.0661 -0.2273 -0.5737
 1990SOL    HW217607   4.327   0.655   3.490  0.8714 -1.3161  0.6005
 1991SOL     OW17608   0.912   2.444   2.068  0.5259 -0.6886  0.5861
 1991SOL    HW117609   0.866   2.513   2.115  0.8786  0.0932 -0.2074
 1991SOL    HW217610   0.992   2.442   2.121  0.5274  2.3066  0.7237
 1992SOL     OW17611   2.981   4.658  16.605  0.0012  0.6335  0.4067
 1992SOL    HW117612   2.925   4.700  16.670 -0.5789 -1.2611  1.1256
 1992SOL    HW217613   3.063   4.653  16.654  0.4057  2.5947 -0.0946
 1993SOL     OW17614   1.788   2.053  15.037  0.0619 -0.2184  0.1930
 1993SOL    HW117615   1.848   2.002  14.982  1.2748  1.3006  0.1107
 1993SOL    HW217616   1.788   2.001  15.117 -1.3351 -0.5608 -0.0366
 1994SOL     OW17617   2.215   3.518  15.379  0.1608  0.0844  0.5229
 1994SOL    HW117618   2.233   3.609  15.406 -3.3355  0.2424  2.3914
 1994SOL    HW217619   2.136   3.499  15.429  1.2055 -1.0070  1.7554
 1995SOL     OW17620   0.334   3.966   9.332  0.2517 -0.3520 -0.0790
 1995SOL    HW117621   0.386   3.986   9.409  1.0091 -2.6249  0.0060
 1995SOL    HW217622   0.363   3.876   9.318 -3.4434 -1.6542  0.6800
 1996SOL     OW17623   0.700   0.282   7.790 -0.2928 -0.2334 -0.3126
 1996SOL    HW117624   0.734   0.362   7.831 -1.3637  0.1930 -0.2516
 1996SOL    HW217625   0.724   0.221   7.859  0.6054 -0.5429 -0.8979
 1997SOL     OW17626   2.353   4.671   3.138  0.2854 -0.0736 -0.3759
 1997SOL    HW117627   2.391   4.593   3.097 -0.1383  0.0851 -1.0666
 1997SOL    HW217628   2.274   4.691   3.088 -0.1768  0.2213  0.4625
 1998SOL     OW17629   0.819   4.079   8.258  0.1810  0.3175 -0.2826
 1998SOL    HW117630   0.729   4.097   8.232  0.1261  0.4813  0.0218
 1998SOL    HW217631   0.862   4.098   8.174 -1.6249  0.2556 -1.2082
 1999SOL     OW17632   1.714   2.144  16.489  0.0825  0.4613  0.2055
 1999SOL    HW117633   1.640   2.091  16.460 -0.0369  0.2010  1.0063
 1999SOL    HW217634   1.686   2.223  16.444  0.0770 -2.0004 -4.1413
 2000SOL     OW17635   0.422   2.398   4.949  0.3598  0.8174  0.0840
 2000SOL    HW117636   0.468   2.321   4.914  1.4669  1.6226 -0.2279
 2000SOL    HW217637   0.423   2.457   4.874 -1.3937  1.1153  0.2880
 2001SOL     OW17638   0.314   1.205   4.290 -0.5184  0.2644 -0.1570
 2001SOL    HW117639   0.254   1.148   4.242  2.4043 -1.7683 -1.3750
 2001SOL    HW217640   0.348   1.258   4.218  1.0881 -1.3530 -0.5862
 2002SOL     OW17641   3.229   2.255   0.259 -0.0393  0.1635 -0.0711
 2002SOL    HW117642   3.158   2.317   0.243  0.2531  0.4822 -0.1312
 2002SOL    HW217643   3.303   2.316   0.260 -0.1878  0.3463 -0.0992
 2003SOL     OW17644   3.703   4.218   5.969  0.2852  0.1667 -0.0077
 2003SOL    HW117645   3.761   4.146   5.994  1.1347  0.6542 -0.6078
 2003SOL    HW217646   3.694   4.201   5.875 -2.5023  1.4199  0.0344
 2004SOL     OW17647   3.282   1.687   8.084  0.0346 -0.6598  0.1715
 2004SOL    HW117648   3.327   1.751   8.139  3.3320 -0.9556 -2.1670
 2004SOL    HW217649   3.343   1.613   8.086 -1.7389 -2.1807 -1.5060
 2005SOL     OW17650   1.723   3.648  10.986 -0.1007  0.3826  0.4736
 2005SOL    HW117651   1.800   3.602  10.955  0.7835  1.9885  0.2556
 2005SOL    HW217652   1.758   3.666  11.073 -1.8615 -0.5397  1.3706
 2006SOL     OW17653   2.677   0.946   1.594  0.1917  0.1254 -0.3758
 2006SOL    HW117654   2.668   1.035   1.629 -0.0100  0.2212 -0.6684
 2006SOL    HW217655   2.605   0.952   1.531 -0.5257  1.0221  0.5510
 2007SOL     OW17656   2.671   2.836   7.854  0.1078  0.4282 -0.6260
 2007SOL    HW117657   2.716   2.765   7.900 -0.0063 -0.1772 -1.4552
 2007SOL    HW217658   2.735   2.851   7.784  0.1500  1.1306 -0.4373
 2008SOL     OW17659   1.939   0.638   7.581 -0.7277  0.0158  0.3297
 2008SOL    HW117660   1.860   0.587   7.601 -0.8613 -0.6181 -1.8182
 2008SOL    HW217661   1.993   0.565   7.552  0.4918  0.1921  2.1971
 2009SOL     OW17662   1.188   1.591   3.561  0.3880  0.0621 -0.4637
 2009SOL    HW117663   1.115   1.606   3.501 -0.5527  0.8968  0.8933
 2009SOL    HW217664   1.261   1.566   3.503 -0.9418  0.0286 -2.1214
 2010SOL     OW17665   0.659   4.638   9.797 -0.0578 -0.4811 -0.5036
 2010SOL    HW117666   0.705   4.659   9.878 -0.1099  1.5520 -1.0229
 2010SOL    HW217667   0.700   4.690   9.729 -1.5390  3.1222  1.3840
 2011SOL     OW17668   0.521   0.723   2.330 -0.2921 -0.1437 -0.1056
 2011SOL    HW117669   0.546   0.735   2.421 -0.6408  0.5510 -0.1078
 2011SOL    HW217670   0.529   0.813   2.300 -1.2831 -0.4674 -1.3388
 2012SOL     OW17671   3.777   0.190  17.362  0.2451 -0.1748 -0.8287
 2012SOL    HW117672   3.781   0.279  17.327 -0.1921  0.7227  1.4405
 2012SOL    HW217673   3.684   0.188  17.383  0.2129 -0.8510 -1.0288
 2013SOL     OW17674   0.186   2.925  12.266  0.5368  0.6505 -0.5450
 2013SOL    HW117675   0.262   2.868  12.277  1.5036  2.0933  0.2563
 2013SOL    HW217676   0.216   3.001  12.215  0.8889  1.3470  0.7007
 2014SOL     OW17677   2.238   2.152   0.012 -0.0907  0.2757  0.2141
 2014SOL    HW117678   2.155   2.196   0.027 -0.6840  0.3568 -3.2971
 2014SOL    HW217679   2.296   2.186   0.080 -0.1335  1.5082 -0.3647
 2015SOL     OW17680   0.423   3.485   0.763  0.6221 -0.5187  0.1005
 2015SOL    HW117681   0.335   3.454   0.787  1.3376 -2.7086 -0.0910
 2015SOL    HW217682   0.401   3.558   0.705  0.0915  0.2454  1.2587
 2016SOL     OW17683   4.506   2.577   3.893 -0.3217 -0.1023 -0.2485
 2016SOL    HW117684   4.510   2.651   3.955 -1.1099 -1.2846  1.2075
 2016SOL    HW217685   4.469   2.508   3.947  0.9147  1.0066  2.0260
 2017SOL     OW17686   1.047   1.187   8.371  0.0698  0.8296  1.0564
 2017SOL    HW117687   1.080   1.245   8.303  0.5400 -0.8437 -0.1625
 2017SOL    HW217688   1.124   1.133   8.390 -0.9286 -1.4062 -1.2753
 2018SOL     OW17689   2.990   2.639   8.233  0.1101 -0.3038 -0.4190
 2018SOL    HW117690   3.025   2.728   8.226 -0.5432  0.0616  1.0259
 2018SOL    HW217691   2.914   2.656   8.287 -0.0320  1.1429 -1.0648
 2019SOL     OW17692   1.134   4.212   2.335 -0.3003 -0.7270  0.3123
 2019SOL    HW117693   1.103   4.302   2.345  2.9516  0.3496  0.9262
 2019SOL    HW217694   1.227   4.223   2.317 -0.6949 -1.0686 -1.9223
 2020SOL     OW17695   1.297   0.515   8.389  0.0017  0.2098  0.3143
 2020SOL    HW117696   1.306   0.428   8.430 -0.1801 -0.2759 -0.6749
 2020SOL    HW217697   1.225   0.553   8.440 -1.3220 -0.0031 -1.4164
 2021SOL     OW17698   0.403   1.378   9.905 -0.1567 -0.6713 -0.3042
 2021SOL    HW117699   0.330   1.379   9.967  0.7150 -1.1812  0.7450
 2021SOL    HW217700   0.449   1.460   9.923  0.8753 -1.1617 -0.6761
 2022SOL     OW17701   0.006   0.154   7.977 -0.2721  0.5591 -0.3521
 2022SOL    HW117702   0.018   0.075   8.029 -0.6925 -0.0119 -1.1088
 2022SOL    HW217703   0.099   0.173   7.961 -0.2626  0.7431 -0.0687
 2023SOL     OW17704   3.958   2.510   7.941 -0.8512  0.3838  0.1083
 2023SOL    HW117705   3.942   2.465   8.023  0.7699 -0.3324  0.0215
 2023SOL    HW217706   4.016   2.449   7.896 -0.0847 -0.3662  2.1304
 2024SOL     OW17707   2.709   4.120   7.048 -0.4736 -0.3645 -0.0100
 2024SOL    HW117708   2.690   4.052   7.113  1.3382 -0.0977  0.8021
 2024SOL    HW217709   2.805   4.117   7.050 -0.5010 -0.4427  1.1773
 2025SOL     OW17710   1.220   0.710   2.861  0.2971 -0.3762  0.1486
 2025SOL    HW117711   1.270   0.630   2.844  0.5846  0.5433 -3.4882
 2025SOL    HW217712   1.205   0.748   2.774  1.6029  0.3660  0.2494
 2026SOL     OW17713   2.308   0.987  16.471 -0.4622  0.1539 -0.0226
 2026SOL    HW117714   2.359   0.916  16.431 -0.9954 -0.0392 -0.3674
 2026SOL    HW217715   2.220   0.962  16.443 -0.9790 -0.1096  1.8583
 2027SOL     OW17716   2.117   1.297  17.326  0.2808 -0.0543  0.1867
 2027SOL    HW117717   2.040   1.350  17.349  0.8109  0.6855  0.2598
 2027SOL    HW217718   2.184   1.366  17.328 -0.0238  0.2495 -0.0119
 2028SOL     OW17719   3.401   2.285   1.663 -0.3452 -1.1100  0.8823
 2028SOL    HW117720   3.373   2.374   1.684 -0.7872 -0.8706 -0.7401
 2028SOL    HW217721   3.488   2.307   1.629 -0.5764 -0.0293  0.9952
 2029SOL     OW17722   3.606   3.360  10.082  0.4680  0.4896 -0.7433
 2029SOL    HW117723   3.677   3.368  10.146 -0.0828 -3.8408  0.4466
 2029SOL    HW217724   3.584   3.452  10.069 -0.0047  0.2178 -1.8342
 2030SOL     OW17725   4.218   2.965   6.747  0.1868 -0.1792 -0.8287
 2030SOL    HW117726   4.199   3.049   6.705 -1.1282 -1.1253 -2.1501
 2030SOL    HW217727   4.148   2.964   6.812  0.4845 -0.8249 -0.5236
 2031SOL     OW17728   4.418   0.306   7.520 -0.1834  0.0221  0.1993
 2031SOL    HW117729   4.479   0.256   7.573  0.0968  1.6233  1.4116
 2031SOL    HW217730   4.348   0.321   7.584 -3.0556  1.0697 -3.1572
 2032SOL     OW17731   4.403   0.704   6.670 -0.0070 -0.4510  0.0051
 2032SOL    HW117732   4.477   0.765   6.674  1.1003 -1.7774 -0.0964
 2032SOL    HW217733   4.334   0.768   6.653  0.7943  0.3744 -0.1715
 2033SOL     OW17734   4.534   2.620   8.091 -0.2437  0.5495  0.2379
 2033SOL    HW117735   4.618   2.620   8.136 -1.8756 -0.0645  3.2632
 2033SOL    HW217736   4.484   2.694   8.126 -0.2224  1.2168 -1.1360
 2034SOL     OW17737   0.478   1.026   5.426 -0.2546  0.3513 -0.0291
 2034SOL    HW117738   0.421   0.998   5.355 -1.0626  0.2843  0.6395
 2034SOL    HW217739   0.522   1.106   5.398 -0.6238  0.4645 -0.2864
 2035SOL     OW17740   3.314   2.678   5.667  0.6462  0.1562  0.0216
 2035SOL    HW117741   3.276   2.593   5.692 -0.5904  1.5103  2.7557
 2035SOL    HW217742   3.375   2.649   5.599  0.2477  0.4204 -0.4475
 2036SOL     OW17743   3.300   0.840   2.013  0.2188 -0.0127 -0.1942
 2036SOL    HW117744   3.386   0.797   2.008  0.0369 -0.3286 -0.6164
 2036SOL    HW217745   3.238   0.767   2.009  0.3740 -0.1797  0.4579
 2037SOL     OW17746   4.230   3.461  17.385 -0.2983 -0.1461 -0.2857
 2037SOL    HW117747   4.242   3.483  17.293 -4.2460  0.5272 -0.6582
 2037SOL    HW217748   4.134   3.465  17.384 -0.3577 -1.4448  0.2530
 2038SOL     OW17749   0.603   0.698   9.750 -0.2389 -0.0189 -0.0871
 2038SOL    HW117750   0.691   0.733   9.760  0.2530 -1.0290 -0.8661
 2038SOL    HW217751   0.563   0.777   9.715  0.6422  0.3445 -0.2624
 2039SOL     OW17752   2.166   3.658   7.289  0.0756  0.1756 -0.1922
 2039SOL    HW117753   2.108   3.634   7.216 -0.5159 -0.6604  0.5556
 2039SOL    HW217754   2.151   3.581   7.344  3.2644 -0.0427  0.3233
 2040SOL     OW17755   3.306   0.931   1.028  0.1024  0.0084  0.1703
 2040SOL    HW117756   3.222   0.885   1.029 -0.2213  0.5767 -1.9127
 2040SOL    HW217757   3.331   0.932   0.936 -0.0720 -0.9016  0.1135
 2041SOL     OW17758   3.328   2.662  15.917 -0.1933 -0.4245  0.0264
 2041SOL    HW117759   3.333   2.571  15.889  0.0630 -0.0252 -1.2403
 2041SOL    HW217760   3.387   2.657  15.992 -0.0997  1.1615  0.0706
 2042SOL     OW17761   4.654   0.107  12.523 -0.0500  0.3618  0.0114
 2042SOL    HW117762   4.563   0.078  12.516 -0.2872  0.9455  0.7101
 2042SOL    HW217763   4.682   0.037  12.581 -1.0407 -0.1680 -0.1489
 2043SOL     OW17764   3.032   0.817   1.264 -0.1864  0.0731  0.5896
 2043SOL    HW117765   3.098   0.886   1.256  0.8037 -1.1612 -1.6577
 2043SOL    HW217766   3.035   0.766   1.183 -0.3571  0.5050  0.3111
 2044SOL     OW17767   4.333   1.477   2.490 -0.1349  0.1352 -0.2998
 2044SOL    HW117768   4.373   1.392   2.474  0.6722  0.5242 -0.3090
 2044SOL    HW217769   4.241   1.452   2.477 -0.5479  1.7022 -0.4804
 2045SOL     OW17770   0.682   1.069  12.797  0.3981 -0.2577  0.6211
 2045SOL    HW117771   0.713   1.061  12.707 -1.1725  0.1497  0.0415
 2045SOL    HW217772   0.757   1.065  12.856 -0.6462 -0.4314  1.9418
 2046SOL     OW17773   1.333   0.817   9.107  0.0353 -0.2243 -0.3860
 2046SOL    HW117774   1.298   0.730   9.128 -2.9955  0.9481 -0.6471
 2046SOL    HW217775   1.296   0.879   9.169  0.1651 -1.3937  0.8728
 2047SOL     OW17776   4.662   3.218   6.897 -0.1490  0.3557  0.5177
 2047SOL    HW117777   4.637   3.229   6.806 -0.0223  2.2195  0.7112
 2047SOL    HW217778   4.696   3.129   6.897 -0.0472  0.4062 -0.8810
 2048SOL     OW17779   1.224   1.136   2.403 -0.4492  0.2274  0.0169
 2048SOL    HW117780   1.245   1.059   2.350  1.3088 -0.4397  1.6537
 2048SOL    HW217781   1.249   1.204   2.341 -0.2018 -0.5187 -0.7052
 2049SOL     OW17782   3.558   2.237   3.519  0.0935 -0.0894  0.6979
 2049SOL    HW117783   3.625   2.296   3.484 -1.8863  0.8359 -1.5632
 2049SOL    HW217784   3.603   2.153   3.524  2.0081  0.7636 -2.1471
 2050SOL     OW17785   3.553   2.998   2.320  0.2479 -0.3572 -0.0001
 2050SOL    HW117786   3.551   3.008   2.225 -1.5420 -0.1224  0.0542
 2050SOL    HW217787   3.597   2.914   2.334  4.0634  1.8477  1.3661
 2051SOL     OW17788   1.309   0.476   2.775  0.0969 -0.4966  0.0660
 2051SOL    HW117789   1.285   0.401   2.831  0.2502  0.1332  0.9803
 2051SOL    HW217790   1.227   0.481   2.726  1.1644 -1.2347 -1.7914
 2052SOL     OW17791   1.607   4.019   6.989  0.0613 -0.6768 -0.0242
 2052SOL    HW117792   1.648   4.065   6.916 -0.8091  0.4576  0.2012
 2052SOL    HW217793   1.539   4.080   7.018  1.9358  1.0920  0.6622
 2053SOL     OW17794   3.966   0.713   6.492 -0.1658  0.2426 -0.0877
 2053SOL    HW117795   3.923   0.736   6.410 -0.1162 -1.0045 -0.4664
 2053SOL    HW217796   4.043   0.669   6.457 -0.4169 -1.9926  2.1617
 2054SOL     OW17797   3.132   4.632  12.184  0.0056  0.0202  0.4539
 2054SOL    HW117798   3.120   4.635  12.279 -1.3293  0.8434  0.2699
 2054SOL    HW217799   3.194   4.705  12.181 -0.4215  0.2588 -2.4668
 2055SOL     OW17800   2.024   4.329  10.564  0.1646 -0.3519  0.7556
 2055SOL    HW117801   1.993   4.418  10.581 -0.4339 -0.4071 -0.0247
 2055SOL    HW217802   1.951   4.288  10.518 -0.2127  0.3204  0.7510
 2056SOL     OW17803   3.612   3.078   5.475 -0.1586 -0.4648 -0.4789
 2056SOL    HW117804   3.552   3.080   5.401  0.7775  0.5187 -1.2213
 2056SOL    HW217805   3.554   3.081   5.551 -0.2536 -0.1284 -0.5621
 2057SOL     OW17806   1.033   1.069   1.549  0.4935  0.3594  0.2322
 2057SOL    HW117807   0.937   1.076   1.551  0.4802  0.6882 -2.2626
 2057SOL    HW217808   1.049   1.128   1.476  1.8504  0.0289  0.2644
 2058SOL     OW17809   0.026   3.571   7.609  0.3221 -0.7659  1.0735
 2058SOL    HW117810   0.058   3.498   7.557 -2.9916 -1.6767  0.3037
 2058SOL    HW217811   0.098   3.633   7.594 -1.3013  1.3908  2.2499
 2059SOL     OW17812   2.647   4.619   3.583  0.0787  0.3777  0.5770
 2059SOL    HW117813   2.652   4.709   3.550  0.8650 -0.0003 -0.3339
 2059SOL    HW217814   2.576   4.623   3.647 -3.7851  1.2610 -3.8074
 2060SOL     OW17815   1.371   0.423   0.325 -0.8032  0.3099 -0.0307
 2060SOL    HW117816   1.323   0.505   0.328  0.3269  0.8961  1.8530
 2060SOL    HW217817   1.382   0.398   0.233  1.0860 -0.4634  0.3946
 2061SOL     OW17818   1.016   1.845   2.433 -0.0470  0.3351  0.2077
 2061SOL    HW117819   1.045   1.933   2.409 -4.5282  2.1849  1.5696
 2061SOL    HW217820   0.943   1.832   2.372 -0.1485  1.7900  0.0201
 2062SOL     OW17821   3.243   0.155   3.746 -0.5458 -0.0577 -0.1064
 2062SOL    HW117822   3.178   0.102   3.793 -0.2913 -0.4481 -0.1913
 2062SOL    HW217823   3.210   0.163   3.657 -1.7210  0.3796  0.3719
 2063SOL     OW17824   0.219   2.500   6.306 -0.2286  0.2980  0.2116
 2063SOL    HW117825   0.250   2.573   6.253 -0.4651 -2.3613 -3.5718
 2063SOL    HW217826   0.187   2.548   6.382 -0.0414  0.1393  0.3902
 2064SOL     OW17827   0.734   3.402   4.058  0.0550 -0.1130 -0.2108
 2064SOL    HW117828   0.754   3.332   4.120 -2.4234 -0.1570  0.5243
 2064SOL    HW217829   0.668   3.352   4.010  1.8500 -1.8820 -0.8100
 2065SOL     OW17830   3.699   3.462  13.792  0.1576 -0.5900  0.2593
 2065SOL    HW117831   3.670   3.552  13.778  0.3374 -0.8923 -2.0334
 2065SOL    HW217832   3.622   3.414  13.763 -1.2627  2.5788 -1.1494
 2066SOL     OW17833   4.167   2.761   7.058  0.3930  0.0799 -0.1478
 2066SOL    HW117834   4.085   2.724   7.027 -0.5298  0.1660  2.1671
 2066SOL    HW217835   4.132   2.841   7.097 -0.6906 -0.5418  0.1630
 2067SOL     OW17836   1.185   1.860   3.667 -0.4404 -0.1317 -0.0479
 2067SOL    HW117837   1.188   1.774   3.624  2.9843  0.1856 -0.4359
 2067SOL    HW217838   1.135   1.836   3.745 -3.1326 -1.3589 -2.1040
 2068SOL     OW17839   1.245   1.296   9.343 -0.2518  0.3279  0.3046
 2068SOL    HW117840   1.217   1.374   9.295 -1.0721  0.3811  0.8608
 2068SOL    HW217841   1.307   1.265   9.277  0.0156 -0.4383  0.9193
 2069SOL     OW17842   1.800   1.831   7.852  0.2902  0.3683  0.2815
 2069SOL    HW117843   1.709   1.811   7.829  0.0389 -0.2557  1.8232
 2069SOL    HW217844   1.803   1.793   7.940  0.5095 -0.6571 -0.1626
 2070SOL     OW17845   1.420   0.049  11.169 -0.0998 -0.0449  0.4489
 2070SOL    HW117846   1.383   4.699  11.154 -0.0195  0.0549 -0.3362
 2070SOL    HW217847   1.345   0.102  11.141 -0.8608 -1.1372  0.4646
 2071SOL     OW17848   4.299   0.960   8.858 -0.3327 -0.6303  0.3382
 2071SOL    HW117849   4.381   0.960   8.907  0.4370 -1.5409 -0.9504
 2071SOL    HW217850   4.278   0.867   8.845  1.3305 -1.0809  0.8321
 2072SOL     OW17851   3.855   1.190   5.332 -0.1018  0.3676  0.2211
 2072SOL    HW117852   3.777   1.244   5.319 -1.1678 -0.3981  3.3596
 2072SOL    HW217853   3.868   1.154   5.244 -2.7509 -0.2024  0.0646
 2073SOL     OW17854   2.406   3.427   7.006  0.0333  0.0892  0.3829
 2073SOL    HW117855   2.496   3.444   6.979  0.8100  0.1151  2.9426
 2073SOL    HW217856   2.381   3.350   6.955  2.5801 -0.9666  0.7100
 2074SOL     OW17857   2.128   0.866   6.209 -0.7925 -1.0294 -0.1748
 2074SOL    HW117858   2.132   0.858   6.304  1.3411 -0.8228 -0.2419
 2074SOL    HW217859   2.199   0.930   6.199 -0.3902 -1.5392 -0.5909
 2075SOL     OW17860   0.528   2.558  10.245  0.1664 -0.2592  0.2916
 2075SOL    HW117861   0.450   2.591  10.291  1.3650  0.3309  1.9122
 2075SOL    HW217862   0.504   2.596  10.161  1.1105  0.9012  0.5589
 2076SOL     OW17863   2.509   0.612   5.594  0.2203  0.0460  0.2554
 2076SOL    HW117864   2.533   0.531   5.550  0.7604  0.8944 -1.0225
 2076SOL    HW217865   2.587   0.631   5.645 -0.5347 -0.8506  1.7500
 2077SOL     OW17866   4.236   0.153   6.434 -0.1608  0.2368  0.2147
 2077SOL    HW117867   4.309   0.180   6.488  0.0050 -0.2705  0.2500
 2077SOL    HW217868   4.274   0.172   6.348  0.7297  2.6253  1.1563
 2078SOL     OW17869   1.078   1.215  17.304 -0.2510 -0.4895  0.5599
 2078SOL    HW117870   1.047   1.236  17.392 -1.4799  1.0002 -0.2402
 2078SOL    HW217871   1.078   1.308  17.280 -0.2806 -0.5764  0.2236
 2079SOL     OW17872   3.550   2.718   4.285 -0.3304 -0.2547  0.2263
 2079SOL    HW117873   3.615   2.659   4.321  0.3855  0.5265  0.2206
 2079SOL    HW217874   3.607   2.765   4.223  0.1325 -0.4860  0.4828
 2080SOL     OW17875   4.695   3.108   2.938  1.3409  0.1699  0.1705
 2080SOL    HW117876   4.729   3.166   3.005 -0.6659  0.1456  1.2329
 2080SOL    HW217877   0.024   3.044   2.963  1.6082 -0.5464 -2.4100
 2081SOL     OW17878   1.829   3.493  14.930 -0.1102 -0.1143  0.3636
 2081SOL    HW117879   1.909   3.538  14.904 -1.3876  2.4877  0.8762
 2081SOL    HW217880   1.767   3.564  14.946  1.5991  1.5839 -0.5358
 2082SOL     OW17881   4.645   0.371   8.964  0.4434  0.1167 -0.0080
 2082SOL    HW117882   4.590   0.431   8.914  0.1876 -0.6593 -0.6502
 2082SOL    HW217883   4.687   0.435   9.022 -0.5843  0.4067  0.4188
 2083SOL     OW17884   2.627   4.299  13.606 -0.4256 -0.5009  0.0370
 2083SOL    HW117885   2.566   4.233  13.639 -3.1472  2.0724  0.1771
 2083SOL    HW217886   2.714   4.261  13.615  0.5584  1.1237 -2.6536
 2084SOL     OW17887   0.464   1.397  11.703 -0.1139  0.3245 -0.0773
 2084SOL    HW117888   0.504   1.440  11.628 -0.7142 -1.7112 -1.5803
 2084SOL    HW217889   0.510   1.313  11.703  0.5689  0.6937 -0.8135
 2085SOL     OW17890   3.105   3.431   5.379  0.5844 -0.3458 -0.0465
 2085SOL    HW117891   3.125   3.525   5.377  0.8823 -0.2970  3.7458
 2085SOL    HW217892   3.159   3.396   5.309 -2.4888 -0.4838 -2.3362
 2086SOL     OW17893   4.535   2.317  14.242  0.5239  0.0173 -0.6923
 2086SOL    HW117894   4.545   2.324  14.337  0.3794 -3.2605 -0.4436
 2086SOL    HW217895   4.548   2.408  14.217  0.1565  0.3336  0.3017
 2087SOL     OW17896   4.297   1.028   9.960 -0.4269 -0.1509 -0.1794
 2087SOL    HW117897   4.387   1.001   9.942  0.1929  1.3661  0.6564
 2087SOL    HW217898   4.262   1.027   9.871 -0.5038  2.6005 -0.1956
 2088SOL     OW17899   1.798   2.142  16.194  0.4762 -0.0208  0.5554
 2088SOL    HW117900   1.795   2.047  16.209  0.1452 -0.3230 -1.4457
 2088SOL    HW217901   1.891   2.157  16.180  0.8656 -2.9432  0.0038
 2089SOL     OW17902   2.241   0.103   3.614  0.4226 -0.4717 -0.1336
 2089SOL    HW117903   2.316   0.071   3.564  0.2078 -0.9625 -0.1374
 2089SOL    HW217904   2.281   0.172   3.667 -1.2758 -0.0588  0.6186
 2090SOL     OW17905   1.915   2.763   9.418 -0.0507 -0.1582  0.9651
 2090SOL    HW117906   2.006   2.768   9.447  0.0000  1.2516  0.5724
 2090SOL    HW217907   1.886   2.698   9.482 -2.8475  0.2673  0.1343
 2091SOL     OW17908   2.538   1.909   4.118 -0.9232 -0.5598  0.2534
 2091SOL    HW117909   2.629   1.930   4.141 -1.4898 -0.3602  2.2979
 2091SOL    HW217910   2.545   1.895   4.023  0.2640 -0.1031  0.2750
 2092SOL     OW17911   4.587   3.902   8.639  0.2962 -0.5052  0.2169
 2092SOL    HW117912   4.520   3.964   8.609  1.4092  0.1331 -0.9383
 2092SOL    HW217913   4.531   3.835   8.678 -1.5458  1.3386  0.7742
 2093SOL     OW17914   3.672   0.951   5.634  0.4715  0.4719 -0.9314
 2093SOL    HW117915   3.758   0.992   5.626 -0.8673  3.3454 -0.6859
 2093SOL    HW217916   3.618   1.029   5.643  0.3012  0.0899  1.2963
 2094SOL     OW17917   1.767   0.839  16.811  0.1477  0.6152  0.1200
 2094SOL    HW117918   1.739   0.888  16.734  0.7248 -0.9476 -1.0697
 2094SOL    HW217919   1.690   0.786  16.829 -0.4302  2.2314  2.4987
 2095SOL     OW17920   4.234   1.702  14.347  0.4001  0.1824  0.6598
 2095SOL    HW117921   4.303   1.763  14.321  0.3868 -0.3770 -0.6709
 2095SOL    HW217922   4.162   1.739  14.296  1.1127  2.7874  1.5396
 2096SOL     OW17923   0.204   0.824   8.149  0.0782 -0.3531 -0.1573
 2096SOL    HW117924   0.251   0.907   8.161  0.9043 -1.0341  1.2177
 2096SOL    HW217925   0.163   0.811   8.063  1.1292 -0.2636 -0.6737
 2097SOL     OW17926   2.057   2.044   7.966 -0.2303 -0.2890 -0.0194
 2097SOL    HW117927   2.055   1.973   7.902  2.4126 -0.3632 -0.0523
 2097SOL    HW217928   2.114   2.003   8.032  1.8647  0.6171 -1.2410
 2098SOL     OW17929   0.382   0.128   9.111 -0.3281 -0.5173 -0.0862
 2098SOL    HW117930   0.299   0.135   9.065 -0.7760 -3.1175  0.3446
 2098SOL    HW217931   0.427   0.191   9.054  1.9945  0.1493  2.4477
 2099SOL     OW17932   1.092   3.623   8.794 -0.0965 -0.1368  0.4056
 2099SOL    HW117933   1.011   3.635   8.844 -1.0218  0.2275 -1.1510
 2099SOL    HW217934   1.108   3.707   8.751 -1.4471  0.1915  0.5458
 2100SOL     OW17935   3.251   2.393   8.856  0.3212  0.0133  0.4163
 2100SOL    HW117936   3.237   2.463   8.792 -1.1360  0.0319  0.7548
 2100SOL    HW217937   3.303   2.324   8.815 -0.6743 -0.3237 -0.2749
 2101SOL     OW17938   1.974   3.978  12.859  0.1185 -0.1458 -0.1358
 2101SOL    HW117939   1.914   3.973  12.785 -2.1434  0.5515  1.6297
 2101SOL    HW217940   1.915   3.943  12.927  0.5305 -1.4167 -0.4403
 2102SOL     OW17941   0.663   0.845   8.525 -0.3356  0.1218  0.4928
 2102SOL    HW117942   0.710   0.762   8.523  2.8294  1.9205 -0.7716
 2102SOL    HW217943   0.735   0.908   8.519  0.7719 -1.2515 -0.5423
 2103SOL     OW17944   2.033   2.444   5.282  0.2455 -0.1622 -0.5840
 2103SOL    HW117945   1.998   2.476   5.365 -0.1377 -1.0090 -0.4132
 2103SOL    HW217946   1.988   2.360   5.271 -1.1936  0.5471 -0.0630
 2104SOL     OW17947   4.731   1.437   9.371  0.5811  0.3299 -0.5252
 2104SOL    HW117948   0.026   1.381   9.300  4.4080 -0.0613  1.4814
 2104SOL    HW217949   0.073   1.487   9.393  0.0283  1.7304 -1.6917
 2105SOL     OW17950   3.734   1.413   0.084  0.0292  0.1697  0.1882
 2105SOL    HW117951   3.757   1.394   0.175  0.6915  3.0312  0.6195
 2105SOL    HW217952   3.680   1.492   0.087 -0.2166  0.0152 -0.1981
 2106SOL     OW17953   2.354   2.984   0.620  0.4151 -0.5593 -0.1699
 2106SOL    HW117954   2.317   2.908   0.665 -0.0974  0.0332  0.4036
 2106SOL    HW217955   2.401   3.038   0.684 -4.2754  0.9481  1.9576
 2107SOL     OW17956   4.570   3.810   9.070 -0.2765 -0.5952  0.0714
 2107SOL    HW117957   4.590   3.757   8.992 -0.9688 -0.2387 -0.3415
 2107SOL    HW217958   4.612   3.761   9.140 -0.1877  0.8697  1.0382
 2108SOL     OW17959   2.320   4.450   4.353 -0.1882 -0.5361 -0.4299
 2108SOL    HW117960   2.272   4.509   4.295 -0.8500  0.2363  0.9259
 2108SOL    HW217961   2.254   4.427   4.418 -0.2935  0.7972 -0.0668
 2109SOL     OW17962   4.280   3.850  14.916 -0.4210  0.0790  0.2728
 2109SOL    HW117963   4.226   3.843  14.995 -1.1100  3.2355  0.1142
 2109SOL    HW217964   4.317   3.763  14.920  1.4092  0.8856  0.8065
 2110SOL     OW17965   3.877   3.064   8.120 -0.7921 -0.3558  0.0785
 2110SOL    HW117966   3.932   3.047   8.196  1.7473  1.3165 -1.4067
 2110SOL    HW217967   3.942   3.070   8.050 -0.1536 -0.4071  0.6675
 2111SOL     OW17968   1.079   4.226   4.173 -0.4175  0.0395 -0.0487
 2111SOL    HW117969   1.013   4.250   4.238 -0.9416 -0.0453 -0.5559
 2111SOL    HW217970   1.142   4.201   4.241  0.7524  0.6306 -0.9235
 2112SOL     OW17971   4.393   2.331  14.821  0.1956  0.5177 -0.1633
 2112SOL    HW117972   4.455   2.360  14.888  0.1121  0.5133 -0.0837
 2112SOL    HW217973   4.448   2.279  14.763 -1.3578 -0.9639 -0.3260
 2113SOL     OW17974   3.189   1.406  11.220 -0.6975 -0.7139 -0.2154
 2113SOL    HW117975   3.248   1.481  11.211 -0.3481 -1.0342 -0.5644
 2113SOL    HW217976   3.193   1.383  11.313 -0.1369 -0.6466 -0.2253
 2114SOL     OW17977   3.515   3.765   7.098  0.5979 -0.0743 -0.8994
 2114SOL    HW117978   3.438   3.739   7.148  1.3538 -0.9660 -0.2077
 2114SOL    HW217979   3.544   3.830   7.163 -0.3581  1.1978 -1.7299
 2115SOL     OW17980   4.588   0.517   2.836  0.2467 -0.2592 -0.1201
 2115SOL    HW117981   4.594   0.577   2.910  1.7617  0.9532 -1.2311
 2115SOL    HW217982   4.650   0.551   2.772 -1.9359  0.2409 -1.9548
 2116SOL     OW17983   1.444   4.447   7.601  0.4241 -0.3540 -0.0503
 2116SOL    HW117984   1.406   4.489   7.678 -1.8060  1.1223 -1.9603
 2116SOL    HW217985   1.536   4.472   7.614 -0.6688  2.5397  2.1148
 2117SOL     OW17986   3.874   0.436   8.286 -0.1514 -0.1762 -0.5916
 2117SOL    HW117987   3.908   0.374   8.221  4.6081  2.7104 -0.8865
 2117SOL    HW217988   3.778   0.438   8.286 -0.2230 -3.0115 -0.0475
 2118SOL     OW17989   0.457   4.153   2.475  0.4501 -0.0167  0.3078
 2118SOL    HW117990   0.422   4.242   2.467  0.9672 -0.0408 -2.2089
 2118SOL    HW217991   0.451   4.130   2.568 -1.5523  1.3365  0.5299
 2119SOL     OW17992   4.587   2.162  14.702  0.1111  0.0931  0.4064
 2119SOL    HW117993   4.570   2.100  14.631  2.5346 -0.8603  0.6450
 2119SOL    HW217994   4.677   2.136  14.722 -0.2103 -2.3997 -1.4732
 2120SOL     OW17995   0.737   3.049   7.114 -0.2225 -1.1123 -0.1135
 2120SOL    HW117996   0.766   3.108   7.184  0.4643 -0.7069 -0.7475
 2120SOL    HW217997   0.646   3.081   7.111  0.4964  1.0526  0.8775
 2121SOL     OW17998   2.173   2.681   7.650 -0.3285  0.5397 -0.3486
 2121SOL    HW117999   2.240   2.746   7.668 -0.1153  0.1083  0.4280
 2121SOL    HW218000   2.186   2.674   7.556 -0.2468  1.2385 -0.3895
 2122SOL     OW18001   3.025   3.050  13.250 -0.5934 -0.1208  0.1737
 2122SOL    HW118002   2.983   3.136  13.251  1.1562  0.7325  0.7309
 2122SOL    HW218003   3.005   3.007  13.167  1.8650  1.3505 -1.1976
 2123SOL     OW18004   4.557   3.720  16.667 -0.1184  0.2799 -0.0441
 2123SOL    HW118005   4.502   3.788  16.705 -1.2029  0.0613 -1.2107
 2123SOL    HW218006   4.491   3.687  16.606  1.5826  0.0464 -1.7784
 2124SOL     OW18007   1.969   1.025  15.932  0.2042  0.2758 -0.0533
 2124SOL    HW118008   1.923   1.012  15.849  0.5225  1.5381 -0.4324
 2124SOL    HW218009   2.062   1.028  15.910 -0.3017  0.4210 -2.1461
 2125SOL     OW18010   2.148   3.214  12.705 -0.3638  0.6091 -0.2678
 2125SOL    HW118011   2.144   3.144  12.770 -0.2180  0.1126 -0.7895
 2125SOL    HW218012   2.240   3.214  12.677 -0.2813 -0.9507  0.0460
 2126SOL     OW18013   0.625   3.712   5.573  0.4716  0.1986  0.2690
 2126SOL    HW118014   0.708   3.723   5.620 -0.1549  3.8925  0.5068
 2126SOL    HW218015   0.582   3.789   5.611  0.0604 -0.2358  0.6971
 2127SOL     OW18016   2.661   2.146   4.397 -0.0483  0.3069 -0.1270
 2127SOL    HW118017   2.716   2.224   4.389 -0.6431  0.7927  0.5079
 2127SOL    HW218018   2.694   2.104   4.476  0.9410  0.4303 -0.4731
 2128SOL     OW18019   1.666   4.095   7.441 -0.2806  0.2830 -0.0349
 2128SOL    HW118020   1.700   4.180   7.414 -0.2146  0.4840  0.6832
 2128SOL    HW218021   1.706   4.035   7.378 -1.1463 -1.8829  1.4561
 2129SOL     OW18022   1.297   4.617  12.497  0.1891 -0.3615 -0.5101
 2129SOL    HW118023   1.213   4.610  12.452  1.2626  2.5693 -3.0110
 2129SOL    HW218024   1.295   4.705  12.536 -1.1891 -0.1561 -1.0460
 2130SOL     OW18025   0.841   2.213  15.006 -0.0868 -0.3190  0.1058
 2130SOL    HW118026   0.812   2.145  14.946 -0.8051 -0.7684  0.9592
 2130SOL    HW218027   0.790   2.288  14.975 -1.3271 -1.0299  0.4139
 2131SOL     OW18028   3.987   4.477   1.932 -0.1887  0.3727 -0.3827
 2131SOL    HW118029   3.938   4.559   1.931  3.7674  2.7450  1.1817
 2131SOL    HW218030   4.049   4.499   2.002 -4.0193 -1.3894  3.6397
 2132SOL     OW18031   1.098   2.530   6.286 -0.6388  0.0102 -0.6329
 2132SOL    HW118032   1.108   2.625   6.295 -1.1125  0.1430 -1.4901
 2132SOL    HW218033   1.124   2.504   6.374 -0.5008  0.5554 -0.5139
 2133SOL     OW18034   0.647   0.898   8.794 -0.2155  0.4516 -0.3459
 2133SOL    HW118035   0.630   0.862   8.707  1.5127  3.0940 -1.7981
 2133SOL    HW218036   0.732   0.856   8.804 -0.2938 -0.1230 -2.1819
 2134SOL     OW18037   4.419   0.162   6.211  0.0822  0.2608 -0.3435
 2134SOL    HW118038   4.413   0.255   6.192 -0.2878  0.5001  0.9373
 2134SOL    HW218039   4.509   0.147   6.239 -0.2659  0.0116  0.6511
 2135SOL     OW18040   4.290   3.752   5.353 -0.1664  0.3470  0.0446
 2135SOL    HW118041   4.378   3.790   5.363 -0.1747 -0.0314  1.5327
 2135SOL    HW218042   4.246   3.799   5.424 -0.1326 -1.1165  1.0462
 2136SOL     OW18043   3.475   1.101   5.167  0.1495 -0.0240  0.1479
 2136SOL    HW118044   3.481   1.055   5.251  0.4281 -1.9279 -0.9088
 2136SOL    HW218045   3.382   1.117   5.154 -0.4373 -2.5939  1.1074
 2137SOL     OW18046   4.723   1.994  10.608  0.5216  0.8539 -0.1399
 2137SOL    HW118047   4.699   2.078  10.568  3.9486  2.0858  0.3551
 2137SOL    HW218048   0.070   1.981  10.564 -0.3126 -0.8945 -1.1874
 2138SOL     OW18049   1.470   0.725  15.510  0.0223  0.3414 -0.1935
 2138SOL    HW118050   1.535   0.720  15.440  0.7459  1.8033  0.3829
 2138SOL    HW218051   1.394   0.754  15.460  1.7637 -0.9241 -3.5640
 2139SOL     OW18052   1.531   3.018   7.816 -0.3921 -0.1146  0.2486
 2139SOL    HW118053   1.467   3.022   7.746 -0.5143  1.3573  0.4443
 2139SOL    HW218054   1.493   2.944   7.863 -2.0441 -0.3427 -1.4464
 2140SOL     OW18055   2.720   3.424  12.254  0.2617 -1.0208  0.1038
 2140SOL    HW118056   2.644   3.470  12.216  0.9053 -0.1504 -0.1328
 2140SOL    HW218057   2.770   3.385  12.182 -0.3854 -0.5346 -0.6190
 2141SOL     OW18058   1.739   2.087   6.771 -0.3057  0.2648 -0.1923
 2141SOL    HW118059   1.718   2.068   6.863 -1.3772 -2.7423 -1.0397
 2141SOL    HW218060   1.694   2.170   6.753 -1.3761 -0.0563  0.9533
 2142SOL     OW18061   0.415   1.917   5.829  0.6079  0.1573 -0.5543
 2142SOL    HW118062   0.349   1.915   5.898 -1.3323  2.3098 -2.3961
 2142SOL    HW218063   0.479   1.980   5.864  2.0541 -2.9007  2.3626
 2143SOL     OW18064   1.491   0.655   7.538 -0.0588 -0.0896  0.0360
 2143SOL    HW118065   1.554   0.625   7.472 -0.2746 -2.1858  0.7846
 2143SOL    HW218066   1.442   0.719   7.487  0.0272 -0.9995 -1.1800
 2144SOL     OW18067   0.349   3.445   4.339  0.3766 -0.1524 -0.2632
 2144SOL    HW118068   0.359   3.360   4.382  1.5598 -0.0908 -0.4331
 2144SOL    HW218069   0.441   3.466   4.324  0.7581 -2.5546 -1.2690
 2145SOL     OW18070   0.998   4.551   3.593  0.0067 -0.0986  0.2017
 2145SOL    HW118071   0.980   4.493   3.519 -0.1491  1.2187 -0.8108
 2145SOL    HW218072   0.909   4.571   3.621  0.3041  1.1735  0.2691
 2146SOL     OW18073   3.449   2.542   3.829  0.3134 -0.5060 -0.1044
 2146SOL    HW118074   3.485   2.499   3.906 -0.4456 -1.7994 -0.4573
 2146SOL    HW218075   3.361   2.572   3.853  0.1151 -1.3153  0.1664
 2147SOL     OW18076   0.882   2.816   8.272 -0.1124  0.8717  0.1517
 2147SOL    HW118077   0.797   2.821   8.228 -2.0584  0.7803  3.8696
 2147SOL    HW218078   0.856   2.791   8.361 -1.1592 -0.9156 -0.6497
 2148SOL     OW18079   2.037   1.526  15.664 -0.8264 -0.2902  0.6029
 2148SOL    HW118080   2.132   1.532  15.654 -0.7004 -2.4310  0.5547
 2148SOL    HW218081   2.019   1.444  15.618 -3.0080  0.5131  0.0511
 2149SOL     OW18082   1.354   0.806   7.370  0.1041  0.1917 -0.0708
 2149SOL    HW118083   1.386   0.896   7.361  1.2691 -0.3434 -1.2168
 2149SOL    HW218084   1.335   0.793   7.277  1.9501 -1.2295 -0.2412
 2150SOL     OW18085   1.578   0.732   2.085 -0.1373  0.5091  0.5293
 2150SOL    HW118086   1.541   0.735   1.997  0.4202  0.2134  0.2837
 2150SOL    HW218087   1.515   0.670   2.120 -0.1405  0.6211  0.7221
 2151SOL     OW18088   2.679   1.482   5.472 -0.3451  0.4465 -0.4921
 2151SOL    HW118089   2.762   1.442   5.447  0.3744  2.4746 -1.2668
 2151SOL    HW218090   2.655   1.435   5.552 -0.5457  0.9967 -0.2297
 2152SOL     OW18091   0.564   3.684   3.042 -0.1425 -0.1207  0.0983
 2152SOL    HW118092   0.491   3.651   3.094  2.3251 -1.5636  2.6963
 2152SOL    HW218093   0.545   3.656   2.953  0.9285  2.6184 -1.0162
 2153SOL     OW18094   0.147   4.335   8.135  0.0135 -0.1104 -0.0247
 2153SOL    HW118095   0.207   4.262   8.120 -0.1371 -0.9979  3.4759
 2153SOL    HW218096   0.202   4.410   8.158  0.5741 -0.7664  0.8115
 2154SOL     OW18097   2.158   1.142  17.128 -0.6684 -0.5543  0.1016
 2154SOL    HW118098   2.250   1.135  17.153 -1.0177  1.3075  1.8772
 2154SOL    HW218099   2.138   1.192  17.207 -1.7036 -0.4391 -0.2385
 2155SOL     OW18100   1.830   2.653  11.415  0.3774  0.3445  0.0987
 2155SOL    HW118101   1.891   2.673  11.343  0.7426 -2.4869 -0.3721
 2155SOL    HW218102   1.767   2.718  11.383  0.8855  1.2074  0.8584
 2156SOL     OW18103   1.030   2.861  14.887  0.8909 -0.2624 -0.0390
 2156SOL    HW118104   0.958   2.830  14.833 -0.5231 -0.1959  1.8200
 2156SOL    HW218105   1.097   2.843  14.821  0.9262  0.2767 -0.1529
 2157SOL     OW18106   4.716   2.419   7.248 -0.3326 -0.2739  0.1013
 2157SOL    HW118107   0.057   2.462   7.281  0.5039 -0.7455 -1.2763
 2157SOL    HW218108   0.020   2.358   7.187  0.2018 -1.8683  2.1004
 2158SOL     OW18109   4.331   1.547   6.555  0.1013  0.5358  0.0492
 2158SOL    HW118110   4.371   1.471   6.512  2.8422  0.7304  2.2758
 2158SOL    HW218111   4.251   1.504   6.587  0.8136 -1.4298 -0.8066
 2159SOL     OW18112   2.054   2.330  14.721 -0.4274  0.2386 -0.0148
 2159SOL    HW118113   2.027   2.420  14.739  2.1374  0.6184  1.8777
 2159SOL    HW218114   2.085   2.302  14.807 -1.2795 -0.4878  0.0541
 2160SOL     OW18115   1.284   2.865   2.539 -0.6435  0.0818  0.0009
 2160SOL    HW118116   1.361   2.850   2.483 -0.6647 -0.3921  0.1001
 2160SOL    HW218117   1.306   2.951   2.576  0.3140 -0.2077  0.0982
 2161SOL     OW18118   1.576   2.771   3.161 -0.1218  0.0834  0.3051
 2161SOL    HW118119   1.609   2.774   3.251 -0.3607 -1.9946  0.4595
 2161SOL    HW218120   1.598   2.679   3.147 -2.0917 -0.3732  0.2201
 2162SOL     OW18121   1.249   0.806   0.953 -0.0944 -0.2972  0.7419
 2162SOL    HW118122   1.319   0.864   0.984  0.2303  0.8018 -2.0646
 2162SOL    HW218123   1.218   0.756   1.029 -0.3297  1.4609  1.8005
 2163SOL     OW18124   0.818   4.581  10.327 -0.0404  0.2920 -0.1707
 2163SOL    HW118125   0.829   4.508  10.388 -1.6395 -1.2109 -1.6713
 2163SOL    HW218126   0.738   4.613  10.368 -0.0504 -1.3195  1.0804
 2164SOL     OW18127   1.997   1.955   3.265  1.3346 -0.3127 -0.4488
 2164SOL    HW118128   1.931   2.022   3.245 -0.0954 -1.2880  0.9938
 2164SOL    HW218129   1.996   1.908   3.181 -0.6329 -0.3493 -0.4046
 2165SOL     OW18130   1.081   3.853   8.621  0.0070  0.6780  0.0175
 2165SOL    HW118131   1.063   3.885   8.533 -1.7520 -3.0348 -0.9439
 2165SOL    HW218132   0.996   3.847   8.664  1.3276 -0.7517  2.4471
 2166SOL     OW18133   4.428   0.413   6.122 -1.0257 -0.0905  0.4267
 2166SOL    HW118134   4.477   0.447   6.047  1.0870 -3.4906  0.2785
 2166SOL    HW218135   4.380   0.493   6.142 -0.7536 -0.0247  0.7959
 2167SOL     OW18136   0.137   1.541   5.650  0.6176  0.4320  0.0096
 2167SOL    HW118137   0.062   1.507   5.600  1.2406  0.2446 -0.8035
 2167SOL    HW218138   0.138   1.631   5.618  1.0851  0.6275  0.5790
 2168SOL     OW18139   2.056   4.028   8.897 -0.2191  0.0135  0.3639
 2168SOL    HW118140   2.044   3.933   8.902  1.9780 -0.1851  2.0941
 2168SOL    HW218141   2.102   4.039   8.814  0.8473 -1.3287  0.7729
 2169SOL     OW18142   2.492   1.131   2.921  0.6211  0.1589 -0.3775
 2169SOL    HW118143   2.511   1.071   2.993 -1.0863  1.2963  1.0465
 2169SOL    HW218144   2.479   1.214   2.967 -2.2700  0.5910 -1.9734
 2170SOL     OW18145   0.406   2.181   7.977  0.1043  0.4998  0.0864
 2170SOL    HW118146   0.370   2.201   8.063  0.5699 -0.1222  0.4311
 2170SOL    HW218147   0.499   2.166   7.994  0.4078  0.9565 -1.1534
 2171SOL     OW18148   0.039   0.664   2.717 -0.1294  0.0858  0.0060
 2171SOL    HW118149   0.106   0.692   2.655 -0.3771 -1.9534 -1.1863
 2171SOL    HW218150   0.096   0.641   2.790  1.8739  2.5986 -0.7697
 2172SOL     OW18151   1.829   3.806   8.999  0.2591  0.6394  0.1897
 2172SOL    HW118152   1.898   3.770   8.943 -0.7755  1.2026 -1.4192
 2172SOL    HW218153   1.883   3.811   9.078  1.3473 -0.2281 -0.4990
 2173SOL     OW18154   0.339   1.324   7.063  0.6232 -0.2740  0.7447
 2173SOL    HW118155   0.381   1.291   6.984 -0.7454  0.9657 -0.4822
 2173SOL    HW218156   0.246   1.317   7.044  0.7594  1.1936 -0.4686
 2174SOL     OW18157   4.091   2.310  14.232 -0.1892 -0.9430  0.2998
 2174SOL    HW118158   4.171   2.286  14.279  0.8944  0.7384 -0.6932
 2174SOL    HW218159   4.037   2.232  14.242 -0.0426 -1.0239  0.4527
 2175SOL     OW18160   1.925   2.665  17.302  0.7784  0.0366  0.4378
 2175SOL    HW118161   1.902   2.579  17.266  0.1904  1.2999 -2.2061
 2175SOL    HW218162   2.007   2.646  17.347 -0.2706 -1.4871  1.7376
 2176SOL     OW18163   0.474   0.606  15.823  0.1186 -0.4511 -0.4726
 2176SOL    HW118164   0.453   0.540  15.890  1.6851  0.0522  0.5074
 2176SOL    HW218165   0.569   0.611  15.830  0.1617  0.6943 -1.9152
 2177SOL     OW18166   2.868   3.807   0.338 -0.1718  0.2692 -0.1824
 2177SOL    HW118167   2.885   3.732   0.282  1.1916  0.1097  0.4544
 2177SOL    HW218168   2.956   3.822   0.372  0.2966  1.5320 -1.9813
 2178SOL     OW18169   0.956   1.094   5.934 -0.4117 -0.5924 -0.5445
 2178SOL    HW118170   0.875   1.102   5.884 -1.5027 -2.8756  0.8194
 2178SOL    HW218171   0.919   1.055   6.014  2.6093 -0.3354  0.9941
 2179SOL     OW18172   3.894   1.128   7.436  0.1834 -0.5651  0.2550
 2179SOL    HW118173   3.921   1.036   7.426  1.1447 -0.4187  1.6001
 2179SOL    HW218174   3.888   1.146   7.529  1.0512  0.7338  0.0601
 2180SOL     OW18175   3.803   2.682   8.270 -0.1108 -0.1067  0.3164
 2180SOL    HW118176   3.888   2.700   8.228 -0.0483  0.3574  0.6490
 2180SOL    HW218177   3.814   2.587   8.283  0.0919 -0.0817  0.3330
 2181SOL     OW18178   1.626   0.154   0.057 -0.0584  0.2172 -0.4453
 2181SOL    HW118179   1.715   0.150   0.022  0.2249  1.9137  0.0973
 2181SOL    HW218180   1.631   0.078   0.114 -0.0859 -0.0192 -0.7585
 2182SOL     OW18181   0.931   3.778   8.978  0.3097 -0.4358 -0.1660
 2182SOL    HW118182   1.020   3.812   8.988 -0.0169 -0.2861  2.1695
 2182SOL    HW218183   0.910   3.741   9.064  0.5268 -0.5084 -0.1447
 2183SOL     OW18184   2.617   0.008   1.653  0.3462  0.0877  0.1488
 2183SOL    HW118185   2.567   4.671   1.620  1.4070 -0.3890 -0.3823
 2183SOL    HW218186   2.653   4.712   1.735 -0.4020 -2.6037 -0.6314
 2184SOL     OW18187   4.387   2.381   8.055 -0.2675 -0.7666  0.0090
 2184SOL    HW118188   4.425   2.355   7.971  0.8545 -0.7943  0.5148
 2184SOL    HW218189   4.438   2.459   8.077 -2.2034  1.1341 -2.2319
 2185SOL     OW18190   0.404   4.324   8.416 -0.5404  0.1640 -0.1234
 2185SOL    HW118191   0.366   4.256   8.471  4.3516 -2.2078  0.3460
 2185SOL    HW218192   0.492   4.335   8.454  0.4829 -0.8187 -2.1970
 2186SOL     OW18193   2.635   1.489   4.423  0.2032  0.9211 -0.1587
 2186SOL    HW118194   2.672   1.543   4.492 -0.9043 -1.0848  2.0025
 2186SOL    HW218195   2.627   1.545   4.345 -1.4333  0.6805 -0.1777
 2187SOL     OW18196   4.611   3.730  16.264 -0.5371 -0.2072  0.0114
 2187SOL    HW118197   4.634   3.823  16.265 -3.2071  0.4662 -0.8679
 2187SOL    HW218198   4.557   3.712  16.187  0.8363 -0.7141 -0.8477
 2188SOL     OW18199   2.521   2.660   2.683 -0.1636 -0.3281  0.1646
 2188SOL    HW118200   2.492   2.576   2.648 -0.4289  0.4716 -1.5092
 2188SOL    HW218201   2.568   2.701   2.611  0.4421  1.4107  1.5615
 2189SOL     OW18202   4.311   3.656   3.921 -0.1376 -0.1560 -0.2382
 2189SOL    HW118203   4.275   3.739   3.890 -0.2331  0.2360  0.8897
 2189SOL    HW218204   4.402   3.682   3.938 -0.4366 -0.3233  1.6386
 2190SOL     OW18205   2.578   4.347   1.640  0.0285  0.4026  0.3760
 2190SOL    HW118206   2.549   4.259   1.664  0.3485 -0.2767 -1.6902
 2190SOL    HW218207   2.639   4.381   1.706  0.6207  2.4017 -1.2147
 2191SOL     OW18208   1.691   0.131  12.902 -0.0883  0.1360  0.3182
 2191SOL    HW118209   1.655   0.097  12.820 -1.3904  4.4461 -0.8776
 2191SOL    HW218210   1.631   0.085  12.960 -0.8636  0.2043 -0.4312
 2192SOL     OW18211   2.709   2.932   0.688 -0.2281  0.5672 -0.0793
 2192SOL    HW118212   2.651   2.961   0.759 -2.1759  0.6883 -1.7283
 2192SOL    HW218213   2.796   2.959   0.715 -1.0703  1.8883  1.3365
 2193SOL     OW18214   4.717   2.154   3.925  0.1426 -0.6353 -0.4803
 2193SOL    HW118215   0.003   2.233   3.973 -0.8730  1.3190 -3.1894
 2193SOL    HW218216   4.727   2.192   3.838  2.3909  0.1740  0.1460
 2194SOL     OW18217   3.372   0.240   7.483 -0.0627 -0.3416  0.5876
 2194SOL    HW118218   3.311   0.297   7.530 -1.1118 -0.5008 -0.6028
 2194SOL    HW218219   3.361   0.282   7.398  0.1220 -0.9280  0.2719
 2195SOL     OW18220   2.805   0.018   1.458  0.1707  0.1790  0.0510
 2195SOL    HW118221   2.872   0.068   1.504  2.8896  0.5356 -4.3386
 2195SOL    HW218222   2.732   0.022   1.519 -0.5141 -1.0769 -0.6813
 2196SOL     OW18223   3.660   0.017   3.991  0.4265 -0.0063  0.4912
 2196SOL    HW118224   3.568   0.040   3.981  0.2994 -0.3870  0.7731
 2196SOL    HW218225   3.707   0.087   3.945 -0.4181 -0.5512 -1.1919
 2197SOL     OW18226   0.396   0.658   8.931  0.1899 -0.2840 -0.1467
 2197SOL    HW118227   0.486   0.629   8.949  0.4792  0.6603 -0.0664
 2197SOL    HW218228   0.408   0.680   8.838 -0.8970  1.5420  0.1651
 2198SOL     OW18229   1.408   0.060   3.485  0.5468 -0.7743 -0.2008
 2198SOL    HW118230   1.439   0.150   3.497 -2.4359  0.0934  1.0563
 2198SOL    HW218231   1.313   0.070   3.494  0.8035  1.2955  0.2463
 2199SOL     OW18232   2.516   1.180   6.819 -0.4418 -0.1953  0.1892
 2199SOL    HW118233   2.429   1.188   6.859  0.3088 -0.2280  1.8420
 2199SOL    HW218234   2.528   1.086   6.830  0.2409 -0.1806 -0.3826
 2200SOL     OW18235   4.083   4.642   8.343 -0.3732 -0.6780  0.0300
 2200SOL    HW118236   3.990   4.652   8.365 -0.2006  1.0887 -0.0708
 2200SOL    HW218237   4.092   4.654   8.248  0.6573  1.9110  0.4483
 2201SOL     OW18238   2.840   2.013   7.497  0.0263  0.6683  0.1964
 2201SOL    HW118239   2.761   1.983   7.540 -0.2201  1.0474  0.0030
 2201SOL    HW218240   2.815   2.105   7.488 -0.3640  0.6451  1.1022
 2202SOL     OW18241   0.538   4.219   5.338  0.0526  0.3327 -0.0160
 2202SOL    HW118242   0.557   4.240   5.246 -0.8147  0.5091 -0.1538
 2202SOL    HW218243   0.608   4.270   5.380  0.3490  0.4218 -0.6042
 2203SOL     OW18244   4.485   1.076  15.318  0.3445  0.4225  0.0577
 2203SOL    HW118245   4.457   1.012  15.253 -0.0732  2.7599 -2.0789
 2203SOL    HW218246   4.530   1.141  15.263 -1.8638  1.4747 -0.4762
 2204SOL     OW18247   2.595   3.910   7.239 -0.1573 -0.2780  0.2590
 2204SOL    HW118248   2.524   3.933   7.299 -0.2626 -1.9731  0.7721
 2204SOL    HW218249   2.562   3.830   7.199 -2.6135  0.6507  0.4227
 2205SOL     OW18250   0.164   0.096   8.215 -0.0651  0.5161 -0.2226
 2205SOL    HW118251   0.128   0.021   8.263  0.4457  1.6288  1.8642
 2205SOL    HW218252   0.259   0.083   8.219 -0.4119 -1.9897  0.1814
 2206SOL     OW18253   1.028   0.055  12.529  0.2303 -0.0572 -0.2787
 2206SOL    HW118254   0.973   4.718  12.504  0.6732 -0.2479 -0.7073
 2206SOL    HW218255   1.022   0.109  12.451  0.2483  0.4909  0.0958
 2207SOL     OW18256   0.020   2.115   8.570  0.4000 -0.3484  0.2875
 2207SOL    HW118257   4.667   2.094   8.597  0.0005 -0.5034 -1.1772
 2207SOL    HW218258   0.035   2.055   8.497  1.5353  0.1796  0.0851
 2208SOL     OW18259   0.215   0.084   5.192  0.1857  0.5138 -0.1170
 2208SOL    HW118260   0.235   0.129   5.110  0.3059 -0.8505 -0.8437
 2208SOL    HW218261   0.295   0.034   5.210  2.1694  2.4945 -3.2830
 2209SOL     OW18262   4.438   3.199   3.638 -0.2055 -0.3731 -0.0736
 2209SOL    HW118263   4.490   3.256   3.581  1.1299 -1.1110  0.4022
 2209SOL    HW218264   4.491   3.122   3.658  0.7027 -0.3989 -2.6375
 2210SOL     OW18265   2.321   1.678   8.842  0.3024 -0.1330  0.3342
 2210SOL    HW118266   2.281   1.651   8.759  1.2406 -0.3014 -0.0659
 2210SOL    HW218267   2.256   1.740   8.875  1.1757  0.4565  0.9130
 2211SOL     OW18268   0.093   3.439   2.476 -0.4114  0.7967  0.2795
 2211SOL    HW118269   0.172   3.446   2.530  0.4129  2.3209 -1.1429
 2211SOL    HW218270   0.025   3.434   2.543 -1.0876 -2.3135 -0.6065
 2212SOL     OW18271   3.142   3.431   0.043 -0.2113 -0.4509  0.2252
 2212SOL    HW118272   3.061   3.400   0.083 -0.2544 -2.0024 -1.0476
 2212SOL    HW218273   3.172   3.504   0.097 -0.2203 -1.5372  1.7116
 2213SOL     OW18274   2.941   1.071  14.029 -0.8110 -0.4482 -0.3005
 2213SOL    HW118275   3.025   1.115  14.015 -0.4239 -1.1438 -0.2231
 2213SOL    HW218276   2.899   1.137  14.083  0.6179  0.2782 -0.0737
 2214SOL     OW18277   2.653   0.968   7.516  0.5365  0.0885 -0.5142
 2214SOL    HW118278   2.682   0.900   7.455  0.3443  0.8015 -1.4107
 2214SOL    HW218279   2.589   1.012   7.460 -1.1796 -2.3629 -0.4943
 2215SOL     OW18280   1.113   1.436   8.247  0.1901  0.3757 -0.0923
 2215SOL    HW118281   1.136   1.508   8.307 -1.7199  0.6721  0.2980
 2215SOL    HW218282   1.046   1.490   8.204 -0.7177  1.0193  2.0933
 2216SOL     OW18283   0.716   2.850  12.030 -0.5073 -0.0326 -0.2951
 2216SOL    HW118284   0.790   2.910  12.021 -1.4301  1.0743 -0.6264
 2216SOL    HW218285   0.660   2.903  12.087 -0.5580 -1.5441  1.0489
 2217SOL     OW18286   1.895   3.364   2.592 -0.4659  0.6073  0.1165
 2217SOL    HW118287   1.824   3.426   2.608 -1.4307 -0.5280  0.2087
 2217SOL    HW218288   1.837   3.288   2.596  0.2513  0.1202  1.3354
 2218SOL     OW18289   1.924   2.621   8.000  0.3777  0.2611 -0.1967
 2218SOL    HW118290   1.893   2.639   7.911 -2.3375 -0.3316  0.6389
 2218SOL    HW218291   1.842   2.580   8.026  0.6825  1.0682  1.9802
 2219SOL     OW18292   1.155   3.795   5.089  0.4049  0.0870  0.8061
 2219SOL    HW118293   1.138   3.889   5.079  0.4934  0.0141 -0.0950
 2219SOL    HW218294   1.094   3.779   5.160 -0.4124 -0.6682 -0.0568
 2220SOL     OW18295   1.208   3.242   7.582  0.2763  0.6935  0.4291
 2220SOL    HW118296   1.151   3.273   7.511 -0.4977  2.0098  1.6323
 2220SOL    HW218297   1.241   3.158   7.549  0.6185 -0.7740  4.6060
 2221SOL     OW18298   0.515   1.782   7.719  0.4802  0.2250  0.2714
 2221SOL    HW118299   0.464   1.704   7.699 -0.5940  0.5079  1.9225
 2221SOL    HW218300   0.470   1.815   7.797  0.0261  0.2236  0.0101
 2222SOL     OW18301   1.218   1.914  16.603  0.3615  0.2898 -0.4613
 2222SOL    HW118302   1.183   1.915  16.514 -1.9684  0.1701  0.4521
 2222SOL    HW218303   1.250   1.824  16.601 -0.7265 -0.1225  0.3835
 2223SOL     OW18304   4.371   2.097   6.008 -0.4897 -0.1159 -0.4476
 2223SOL    HW118305   4.440   2.039   6.042 -0.8219  0.3099  0.9565
 2223SOL    HW218306   4.300   2.036   5.990  0.1362 -0.4921 -1.6434
 2224SOL     OW18307   0.626   0.177   2.281 -0.5037  0.0769 -0.0927
 2224SOL    HW118308   0.617   0.261   2.237 -2.2685 -0.3662 -0.5620
 2224SOL    HW218309   0.535   0.151   2.267 -0.9693  1.0505  1.1174
 2225SOL     OW18310   0.855   2.516  17.214  0.5559 -0.1007 -0.7052
 2225SOL    HW118311   0.947   2.525  17.238  0.9498 -0.1527 -2.1908
 2225SOL    HW218312   0.838   2.441  17.271  0.2537  1.1659  0.8884
 2226SOL     OW18313   1.001   4.496   1.225  0.1104  0.2630  0.3733
 2226SOL    HW118314   0.948   4.575   1.233 -0.3792 -0.0380  0.0851
 2226SOL    HW218315   1.082   4.534   1.261 -0.0540 -0.6487  1.7249
 2227SOL     OW18316   3.746   4.253   5.666 -0.4116 -0.6171 -0.3052
 2227SOL    HW118317   3.755   4.330   5.609  0.8204  0.6277  1.5787
 2227SOL    HW218318   3.834   4.237   5.700 -0.3125 -2.3833 -1.3728
 2228SOL     OW18319   3.521   2.741   2.948 -0.1587 -0.8021 -0.3317
 2228SOL    HW118320   3.530   2.779   2.860 -0.9616  0.7977  0.2882
 2228SOL    HW218321   3.427   2.750   2.964 -0.2313 -0.4284 -0.9481
 2229SOL     OW18322   2.314   3.041   0.972 -0.2456  0.0128 -0.1053
 2229SOL    HW118323   2.252   3.086   0.914  0.5967  0.8334 -0.3764
 2229SOL    HW218324   2.319   3.110   1.038  0.8211 -0.3613  0.2075
 2230SOL     OW18325   4.029   0.001   5.860 -0.0943 -0.5061  0.2972
 2230SOL    HW118326   4.098   4.727   5.926  1.4845 -2.0311 -1.6389
 2230SOL    HW218327   4.072   0.064   5.803  0.6706 -1.2210  0.0868
 2231SOL     OW18328   2.534   2.577   8.146  0.1468  0.2663  0.2661
 2231SOL    HW118329   2.529   2.673   8.142  3.0249  0.4996  1.9806
 2231SOL    HW218330   2.529   2.560   8.052 -0.3680  2.8511 -0.1809
 2232SOL     OW18331   3.683   1.505  11.519  0.1534 -0.1391 -0.4947
 2232SOL    HW118332   3.648   1.536  11.436 -1.0086 -1.1221 -0.3759
 2232SOL    HW218333   3.771   1.542  11.522  0.7575 -1.7315  1.4742
 2233SOL     OW18334   4.285   4.619   3.033 -0.8769 -0.0135 -0.1113
 2233SOL    HW118335   4.226   4.693   3.021  1.6093  1.8945 -0.3928
 2233SOL    HW218336   4.346   4.659   3.095 -0.2243  0.5691 -1.1281
 2234SOL     OW18337   2.812   2.308   6.820  0.1299  0.1767  0.3507
 2234SOL    HW118338   2.763   2.263   6.751  1.2822 -0.9545  0.2699
 2234SOL    HW218339   2.807   2.396   6.783 -0.5323  0.3792  0.9235
 2235SOL     OW18340   2.351   0.019  13.642 -0.6237 -0.0926  0.0752
 2235SOL    HW118341   2.276   4.723  13.592  1.0279  0.7515 -2.9739
 2235SOL    HW218342   2.406   4.678  13.634 -0.4627  0.1539 -1.2453
 2236SOL     OW18343   4.437   2.550  17.242  0.1237  0.3297 -0.2794
 2236SOL    HW118344   4.515   2.568  17.294 -0.9844  0.0312  1.4706
 2236SOL    HW218345   4.383   2.492  17.295 -2.1362  0.8044 -2.0548
 2237SOL     OW18346   3.203   0.272  13.046  0.9992  0.7521 -0.3319
 2237SOL    HW118347   3.234   0.340  12.986  0.0737 -0.6442 -2.3917
 2237SOL    HW218348   3.290   0.245  13.073  0.5874  1.4556  1.7874
 2238SOL     OW18349   1.104   3.806  14.955  0.2082 -0.3154 -0.4083
 2238SOL    HW118350   1.062   3.721  14.944 -0.8402 -0.2198  3.0667
 2238SOL    HW218351   1.081   3.845  14.871 -1.0379 -0.1442  0.0158
 2239SOL     OW18352   3.825   0.089   3.102 -0.4813 -0.3246 -0.4957
 2239SOL    HW118353   3.831   0.110   3.195 -1.3970 -0.8489 -0.3199
 2239SOL    HW218354   3.750   0.144   3.081 -0.6417 -0.5925 -0.6244
 2240SOL     OW18355   1.746   4.175   4.052  0.3046  0.0502 -0.2586
 2240SOL    HW118356   1.750   4.080   4.069  0.2745 -0.1449 -1.3924
 2240SOL    HW218357   1.837   4.195   4.028 -0.0588  0.5036 -1.2211
 2241SOL     OW18358   3.447   0.023   2.931 -0.3886  0.6743  0.3311
 2241SOL    HW118359   3.366   4.720   2.899  0.5239  1.4895 -2.9805
 2241SOL    HW218360   3.494   0.037   2.849  0.3830 -0.0380  0.6549
 2242SOL     OW18361   1.282   3.298   0.864  0.0041  0.1374 -0.8660
 2242SOL    HW118362   1.217   3.363   0.889 -2.1129 -1.4715 -2.1355
 2242SOL    HW218363   1.232   3.226   0.902  0.3861  0.6809  0.6353
 2243SOL     OW18364   3.483   0.094  11.493 -0.3473  1.1693  0.4229
 2243SOL    HW118365   3.570   0.056  11.506 -0.0763  0.8499 -2.3484
 2243SOL    HW218366   3.450   0.031  11.430  0.0312  1.3531  0.0383
 2244SOL     OW18367   0.070   0.289   3.378 -0.1161  0.2137  0.5005
 2244SOL    HW118368   0.131   0.318   3.446 -0.0439 -0.3829  0.6950
 2244SOL    HW218369   0.117   0.310   3.298 -0.7232  0.3120  0.1687
 2245SOL     OW18370   0.357   1.150   7.649 -0.0057 -0.0188  0.3868
 2245SOL    HW118371   0.370   1.095   7.726 -0.1292  0.1010  0.4948
 2245SOL    HW218372   0.368   1.084   7.581  1.0734 -2.1661  2.6364
 2246SOL     OW18373   3.734   3.781  10.180 -0.0837  0.2287 -0.6560
 2246SOL    HW118374   3.699   3.829  10.255  0.3167  0.7209 -0.7917
 2246SOL    HW218375   3.665   3.722  10.148  0.1345  0.0666 -0.8309
 2247SOL     OW18376   1.430   2.064  16.717  0.3240  0.1034 -0.2106
 2247SOL    HW118377   1.347   2.026  16.687 -0.4571  2.4468 -0.9945
 2247SOL    HW218378   1.445   2.126  16.646  1.6605 -0.1117 -0.1231
 2248SOL     OW18379   2.692   1.084  11.940 -0.2463  0.2469  0.5239
 2248SOL    HW118380   2.668   1.158  11.885  0.2427  0.7596  1.0116
 2248SOL    HW218381   2.610   1.062  11.985  1.0839 -0.8461  2.4065
 2249SOL     OW18382   3.937   0.941  10.070  0.3890 -0.2936  0.0010
 2249SOL    HW118383   3.926   0.990   9.988  2.8910 -1.2697 -0.9110
 2249SOL    HW218384   3.873   0.872  10.051  1.7751 -0.7290 -3.0930
 2250SOL     OW18385   2.511   2.145   2.606  0.1572 -0.1111  0.5533
 2250SOL    HW118386   2.556   2.060   2.610  0.0488 -0.2655 -1.6213
 2250SOL    HW218387   2.486   2.157   2.514  2.0829  1.3625  0.2330
 2251SOL     OW18388   1.623   0.342   3.863  0.1986  0.3440 -0.1558
 2251SOL    HW118389   1.651   0.409   3.800  3.1913  0.1289  0.9556
 2251SOL    HW218390   1.667   0.372   3.943 -1.8733  0.4597  0.9358
 2252SOL     OW18391   3.175   0.339  10.978  0.0607 -0.4653  0.0145
 2252SOL    HW118392   3.091   0.302  11.006  1.0624 -0.3661  3.2282
 2252SOL    HW218393   3.210   0.269  10.923  1.5663 -0.1300  0.5493
 2253SOL     OW18394   1.741   2.755   4.265 -0.8219  0.1140  0.3562
 2253SOL    HW118395   1.671   2.690   4.272 -0.7287  0.3503  3.3692
 2253SOL    HW218396   1.805   2.704   4.314  0.2674 -0.5143 -1.7283
 2254SOL     OW18397   1.566   3.183   0.886 -0.1981 -0.0974  0.3648
 2254SOL    HW118398   1.474   3.200   0.909 -0.5239 -1.9649  0.4914
 2254SOL    HW218399   1.584   3.099   0.929 -0.1344 -1.4987 -2.3842
 2255SOL     OW18400   0.139   4.149   1.692  0.4924 -0.0160  0.3141
 2255SOL    HW118401   0.219   4.185   1.729  0.1035 -0.9691  2.1051
 2255SOL    HW218402   0.165   4.062   1.662 -0.5366 -0.0953 -0.3336
 2256SOL     OW18403   2.548   1.792   8.365  0.2046  0.1825  0.3014
 2256SOL    HW118404   2.630   1.767   8.408  0.4848 -1.7966 -1.3642
 2256SOL    HW218405   2.545   1.724   8.297 -0.6713  1.4416 -0.9143
 2257SOL     OW18406   2.644   2.225   4.044  0.1271 -0.0033  0.1298
 2257SOL    HW118407   2.608   2.274   4.117 -1.3936 -1.4017  0.3086
 2257SOL    HW218408   2.705   2.169   4.093 -0.7886 -1.3864 -0.3209
 2258SOL     OW18409   2.506   3.447   1.590 -0.3949  0.1718 -0.4128
 2258SOL    HW118410   2.480   3.469   1.680 -1.6531 -0.1746 -0.6915
 2258SOL    HW218411   2.565   3.519   1.569 -0.1283  0.0058 -0.2277
 2259SOL     OW18412   0.025   2.471  14.570  0.1629 -0.2243 -0.7558
 2259SOL    HW118413   0.083   2.499  14.499 -0.3530 -0.4502 -1.2669
 2259SOL    HW218414   0.014   2.553  14.619  0.8715  0.7396 -2.1897
 2260SOL     OW18415   2.308   4.501   8.828  0.2752  0.1921 -0.0366
 2260SOL    HW118416   2.218   4.512   8.796 -0.2932 -1.4784  0.9699
 2260SOL    HW218417   2.307   4.547   8.912  0.4874 -1.8264  1.0813
 2261SOL     OW18418   2.741   3.016   0.356 -0.9160  0.0741  0.0558
 2261SOL    HW118419   2.671   3.082   0.362 -2.2213 -1.3560  0.5939
 2261SOL    HW218420   2.701   2.932   0.379 -2.0169 -0.4505 -3.7138
 2262SOL     OW18421   3.819   2.850   9.612  0.1249  0.7913  0.1918
 2262SOL    HW118422   3.787   2.847   9.702  0.2934  1.7873  0.2919
 2262SOL    HW218423   3.884   2.920   9.608  1.1570 -0.1679  0.2182
 2263SOL     OW18424   3.556   3.472  15.864  0.6991  1.0819 -0.6775
 2263SOL    HW118425   3.491   3.402  15.868  0.4672  1.2102 -2.0618
 2263SOL    HW218426   3.557   3.486  15.769 -1.1113 -1.5796 -1.1007
 2264SOL     OW18427   1.024   0.798   4.309  0.1395  0.4321  0.1797
 2264SOL    HW118428   0.990   0.708   4.311 -0.8010  0.8142  1.1954
 2264SOL    HW218429   0.957   0.850   4.353 -1.5448 -2.4773  1.0838
 2265SOL     OW18430   1.668   1.947   8.935 -0.3399 -0.1808 -0.3943
 2265SOL    HW118431   1.578   1.948   8.903 -0.2694  0.2945 -0.5864
 2265SOL    HW218432   1.699   1.873   8.883 -0.7550 -0.6486  0.0240
 2266SOL     OW18433   3.498   2.115  10.949 -0.0198 -0.0640  0.3306
 2266SOL    HW118434   3.558   2.065  11.005  0.7783  1.0119  0.4282
 2266SOL    HW218435   3.419   2.062  10.951  0.1533 -0.3226  0.3159
 2267SOL     OW18436   2.864   3.795   3.183  0.2385 -0.0952  0.4083
 2267SOL    HW118437   2.957   3.805   3.199 -0.4394  3.4265  2.1723
 2267SOL    HW218438   2.826   3.852   3.249  0.9441  0.4146  0.3707
 2268SOL     OW18439   3.334   3.494   4.501 -0.7898  0.3244  0.1445
 2268SOL    HW118440   3.422   3.523   4.480 -2.6653  3.3882 -3.5462
 2268SOL    HW218441   3.289   3.518   4.419  1.2118  1.5545 -0.5929
 2269SOL     OW18442   2.121   2.714   7.151 -0.0672 -0.0894  0.3178
 2269SOL    HW118443   2.131   2.688   7.060  2.3599  1.6915  0.0774
 2269SOL    HW218444   2.104   2.805   7.125  0.0206  0.1232  0.9890
 2270SOL     OW18445   3.731   3.134  16.601 -0.2523  0.0575 -0.4912
 2270SOL    HW118446   3.645   3.094  16.593  0.1258 -0.9068  0.3080
 2270SOL    HW218447   3.709   3.227  16.611  0.5466  0.3643 -1.5619
 2271SOL     OW18448   2.820   0.442   8.271 -0.7011  0.2527  0.4093
 2271SOL    HW118449   2.887   0.499   8.309 -1.4935  2.6909 -1.8409
 2271SOL    HW218450   2.740   0.479   8.308 -0.2469  0.0632  1.5742
 2272SOL     OW18451   1.728   1.006   0.283  0.3338  0.2177  0.2213
 2272SOL    HW118452   1.747   0.914   0.264 -0.8099 -0.2626  1.4449
 2272SOL    HW218453   1.770   1.037   0.203 -0.2947 -0.9096 -0.5371
 2273SOL     OW18454   2.795   2.942   3.322  0.3224 -0.3811 -0.1506
 2273SOL    HW118455   2.855   2.869   3.340  1.6542  0.7971  0.1467
 2273SOL    HW218456   2.781   2.923   3.230  1.8315  1.2585 -0.7080
 2274SOL     OW18457   1.803   1.546   3.438 -0.4093  0.2613  0.2456
 2274SOL    HW118458   1.780   1.611   3.373 -1.6990 -0.8389 -0.4037
 2274SOL    HW218459   1.793   1.472   3.379  1.2832 -0.5649  0.9751
 2275SOL     OW18460   2.680   0.768   2.342  0.0814  0.9215  0.3539
 2275SOL    HW118461   2.683   0.836   2.275 -0.3982  1.2584  0.6784
 2275SOL    HW218462   2.764   0.780   2.386  0.0726 -0.6790  0.8189
 2276SOL     OW18463   0.765   1.094  12.540  0.3062 -0.1555 -0.1895
 2276SOL    HW118464   0.835   1.135  12.487 -2.0158  1.8044 -1.7439
 2276SOL    HW218465   0.788   1.001  12.538  0.7984 -0.0079 -1.4045
 2277SOL     OW18466   3.760   3.640   6.370 -0.2924  0.2364 -0.1301
 2277SOL    HW118467   3.667   3.645   6.348 -0.0917  1.5181 -0.6880
 2277SOL    HW218468   3.766   3.654   6.464  1.6884 -0.5698 -0.1353
 2278SOL     OW18469   3.126   3.196   8.802  0.0849 -0.2535 -0.2370
 2278SOL    HW118470   3.182   3.141   8.747 -0.0172 -0.4371 -0.1588
 2278SOL    HW218471   3.061   3.130   8.826 -1.3177  0.1999 -2.8170
 2279SOL     OW18472   1.238   3.750   6.804 -0.0367 -0.5412  0.7519
 2279SOL    HW118473   1.216   3.796   6.885 -0.0658  0.2973  0.2642
 2279SOL    HW218474   1.154   3.758   6.760 -0.1821 -1.9198  0.7739
 2280SOL     OW18475   2.343   3.928  15.879  0.4258 -0.0626  0.2756
 2280SOL    HW118476   2.414   3.865  15.871 -2.1536 -3.0140  0.7661
 2280SOL    HW218477   2.279   3.886  15.821 -1.7693  1.7336  1.3980
 2281SOL     OW18478   0.255   2.017   4.081 -0.4000 -0.0395  0.0183
 2281SOL    HW118479   0.229   1.981   4.165  0.9901 -1.0575  0.0099
 2281SOL    HW218480   0.169   2.016   4.039  0.8055 -1.8045 -2.4380
 2282SOL     OW18481   2.240   0.643  14.403  0.4970  0.6673  0.4585
 2282SOL    HW118482   2.286   0.713  14.356 -0.6018  1.6474  0.8141
 2282SOL    HW218483   2.162   0.640  14.347 -1.0404  2.2439  2.5176
 2283SOL     OW18484   2.433   3.732   4.800  0.0295 -0.1232 -0.2200
 2283SOL    HW118485   2.390   3.653   4.766  0.3527 -1.4911  2.5456
 2283SOL    HW218486   2.521   3.697   4.809 -0.0109 -0.3985 -0.9155
 2284SOL     OW18487   1.865   1.707  15.554 -0.0980 -0.0992 -0.5480
 2284SOL    HW118488   1.925   1.663  15.614 -0.1148 -0.5526 -0.8716
 2284SOL    HW218489   1.924   1.771  15.513 -0.1155  3.2622  4.6273
 2285SOL     OW18490   2.829   4.381   4.167  0.5598  0.0979 -0.1744
 2285SOL    HW118491   2.819   4.322   4.092 -2.3003  0.6249 -0.2402
 2285SOL    HW218492   2.774   4.457   4.146  0.9598  0.6123  0.6868
 2286SOL     OW18493   4.651   3.025   7.385  0.7659  0.1653 -0.6790
 2286SOL    HW118494   4.700   2.970   7.447 -1.6584 -0.5755  0.5742
 2286SOL    HW218495   4.723   3.052   7.329 -0.3352 -0.6388 -2.4809
 2287SOL     OW18496   2.454   0.102   8.707  0.1845  0.5079  0.2829
 2287SOL    HW118497   2.454   0.045   8.631 -0.6521 -1.1329  1.5030
 2287SOL    HW218498   2.523   0.066   8.762  2.5501  1.9728 -1.7561
 2288SOL     OW18499   3.798   2.530   8.869 -0.4587 -0.5755  0.9105
 2288SOL    HW118500   3.739   2.482   8.811  2.0521  0.5792 -2.6024
 2288SOL    HW218501   3.733   2.554   8.935 -1.6176  1.3550 -0.9413
 2289SOL     OW18502   4.342   0.731   9.231 -0.6600  0.0378 -0.6031
 2289SOL    HW118503   4.331   0.819   9.266  1.6443  0.0229  0.1598
 2289SOL    HW218504   4.323   0.740   9.138  1.6169 -1.8123 -1.2659
 2290SOL     OW18505   4.657   1.169   4.841 -0.4502  0.0716 -0.6165
 2290SOL    HW118506   4.638   1.133   4.928  2.8073  1.2286  0.5727
 2290SOL    HW218507   4.729   1.109   4.823 -0.6878 -0.6683  0.9185
 2291SOL     OW18508   2.227   0.722   7.958 -0.7287  0.0507  0.0060
 2291SOL    HW118509   2.265   0.683   7.880 -0.7759 -0.8190  0.4087
 2291SOL    HW218510   2.189   0.808   7.940  0.5970  0.3384 -1.3419
 2292SOL     OW18511   2.322   3.190   1.808  0.0028  0.5012 -0.1758
 2292SOL    HW118512   2.232   3.222   1.804 -0.8471 -1.5953  1.8043
 2292SOL    HW218513   2.312   3.117   1.747  0.9477  1.0650 -1.0009
 2293SOL     OW18514   1.628   4.715   5.560  0.4702 -0.6557  0.1601
 2293SOL    HW118515   1.689   0.039   5.519  0.0766 -0.4201 -0.0644
 2293SOL    HW218516   1.618   4.647   5.493 -0.0574 -1.3180  0.8993
 2294SOL     OW18517   0.649   1.772   8.748  0.0229  0.4583 -1.0260
 2294SOL    HW118518   0.644   1.677   8.757 -0.2370  0.2902 -3.0367
 2294SOL    HW218519   0.581   1.794   8.811  0.1701 -0.4818 -0.5251
 2295SOL     OW18520   2.921   2.857   4.490  0.3961  0.3337  0.1677
 2295SOL    HW118521   3.003   2.831   4.533  0.9000 -0.2461 -1.1300
 2295SOL    HW218522   2.947   2.915   4.418 -1.3344  0.2247 -0.5425
 2296SOL     OW18523   4.677   4.718  15.721 -0.1365  0.5593 -0.3398
 2296SOL    HW118524   4.677   0.040  15.796 -0.7941  1.3434 -0.9693
 2296SOL    HW218525   4.597   4.668  15.737  0.8158 -1.3163 -1.4245
 2297SOL     OW18526   4.473   0.330   0.844 -0.4392  0.5001  0.3574
 2297SOL    HW118527   4.493   0.423   0.858  0.8937  0.4446 -1.2603
 2297SOL    HW218528   4.378   0.341   0.833 -0.5224  0.5507  1.0760
 2298SOL     OW18529   2.880   1.583   4.999 -0.2121  0.1681  0.3380
 2298SOL    HW118530   2.932   1.511   5.034  1.3927  1.1050 -0.1518
 2298SOL    HW218531   2.894   1.645   5.070  1.2918  2.2175 -1.7835
 2299SOL     OW18532   2.667   1.517  16.880 -0.1710  0.1974  0.5242
 2299SOL    HW118533   2.755   1.522  16.919 -0.4460 -0.0765  1.1794
 2299SOL    HW218534   2.665   1.598  16.830 -0.4505  0.6306  1.2406
 2300SOL     OW18535   2.779   0.270   6.540 -0.1292 -0.1787 -0.2121
 2300SOL    HW118536   2.808   0.195   6.488 -0.1254  1.5151 -2.6573
 2300SOL    HW218537   2.751   0.225   6.619 -0.4046 -0.3243 -0.3931
 2301SOL     OW18538   4.226   0.493   9.279 -0.6158 -0.4375  0.0124
 2301SOL    HW118539   4.219   0.439   9.200  0.9581  0.0669 -0.4772
 2301SOL    HW218540   4.285   0.563   9.251 -0.5818 -0.6705 -0.4905
 2302SOL     OW18541   3.934   4.374  10.825 -0.4730 -0.5917 -0.5733
 2302SOL    HW118542   3.954   4.455  10.871 -0.1710  0.1117 -1.9487
 2302SOL    HW218543   3.839   4.382  10.831 -0.5034 -1.1696 -0.2436
 2303SOL     OW18544   3.270   0.054  10.507 -0.1014 -0.2415 -0.1555
 2303SOL    HW118545   3.269   0.011  10.421  0.2377 -0.5693  0.0028
 2303SOL    HW218546   3.346   0.111  10.495 -1.6341  1.6434 -0.9630
 2304SOL     OW18547   4.273   0.933  14.495 -0.5709  0.1537  0.0693
 2304SOL    HW118548   4.302   0.896  14.578 -0.2910 -1.1607 -0.6249
 2304SOL    HW218549   4.203   0.873  14.470 -0.2643  0.4476 -1.4412
 2305SOL     OW18550   2.512   0.191   3.043 -0.1768 -0.5876 -0.1465
 2305SOL    HW118551   2.502   0.102   3.078 -2.1601 -0.6688 -0.9390
 2305SOL    HW218552   2.424   0.226   3.053  0.0175 -0.1359  0.0037
 2306SOL     OW18553   0.619   0.255   9.417  0.5991 -0.7250 -0.1872
 2306SOL    HW118554   0.610   0.166   9.452 -1.7477 -0.2360  0.4864
 2306SOL    HW218555   0.655   0.304   9.491  2.9694 -2.3984 -0.2484
 2307SOL     OW18556   4.245   1.085   5.820 -0.0978 -0.1149 -0.4324
 2307SOL    HW118557   4.241   1.052   5.730  1.5668  1.4043 -1.0695
 2307SOL    HW218558   4.338   1.106   5.824 -0.3067  0.7272  0.0620
 2308SOL     OW18559   1.555   0.489  10.710  0.1968 -0.3765 -0.2549
 2308SOL    HW118560   1.588   0.576  10.690 -1.8022  0.3786 -0.2719
 2308SOL    HW218561   1.467   0.489  10.674  0.6173 -0.1535 -1.2746
 2309SOL     OW18562   1.270   0.730   4.427 -0.2220  0.3109 -0.6030
 2309SOL    HW118563   1.316   0.691   4.353  1.9731  1.4116  0.1726
 2309SOL    HW218564   1.178   0.741   4.401 -0.3784  0.7324  0.1352
 2310SOL     OW18565   0.222   4.646  15.742 -0.4153 -0.9657  0.7489
 2310SOL    HW118566   0.243   4.561  15.701 -1.1388 -0.2479 -1.1047
 2310SOL    HW218567   0.133   4.662  15.711  0.1594  1.2625  0.2914
 2311SOL     OW18568   1.028   0.502   3.042  0.1950 -0.3637 -0.2053
 2311SOL    HW118569   1.008   0.517   2.950  3.5772  1.0041 -0.6855
 2311SOL    HW218570   1.101   0.441   3.037  1.1642  0.9703 -2.0480
 2312SOL     OW18571   2.206   0.729   5.242 -0.2506 -0.7785  0.1358
 2312SOL    HW118572   2.188   0.807   5.190 -1.5761  0.0344  1.8101
 2312SOL    HW218573   2.268   0.754   5.310 -0.4196 -0.3689  0.1363
 2313SOL     OW18574   2.398   3.401   0.405 -0.2232 -0.4372 -0.0474
 2313SOL    HW118575   2.412   3.487   0.364 -1.8112  0.4839  1.3547
 2313SOL    HW218576   2.308   3.418   0.433 -0.2917  0.2630 -0.6668
 2314SOL     OW18577   4.122   2.495   2.240  0.2666 -0.3453  0.3216
 2314SOL    HW118578   4.158   2.569   2.191 -0.0010 -0.4365 -0.0198
 2314SOL    HW218579   4.032   2.525   2.227 -0.0018 -1.5086 -0.5487
 2315SOL     OW18580   0.318   4.050   5.571  0.4476 -0.1644 -0.5890
 2315SOL    HW118581   0.240   4.003   5.600 -0.6921  1.8932 -0.2858
 2315SOL    HW218582   0.364   4.043   5.654 -1.4560  2.8078  0.6801
 2316SOL     OW18583   1.044   1.012   2.565  0.2733  0.0415  0.0144
 2316SOL    HW118584   1.113   1.053   2.513  0.8021  0.2797  0.9157
 2316SOL    HW218585   1.071   0.921   2.579 -0.2748 -0.1277 -0.0074
 2317SOL     OW18586   1.957   1.028   2.015  0.3078 -0.0682 -0.6338
 2317SOL    HW118587   1.945   0.936   1.989  0.4979 -0.7515  1.6517
 2317SOL    HW218588   2.048   1.048   1.996  0.9348  0.1776  2.5543
 2318SOL     OW18589   0.756   4.420   5.637  0.3052  0.4945  0.1048
 2318SOL    HW118590   0.760   4.382   5.549  0.9677  0.1779  0.2668
 2318SOL    HW218591   0.672   4.465   5.635 -0.1954 -0.4134  0.9788
 2319SOL     OW18592   4.566   3.435   9.652  0.1035 -0.4464  0.2673
 2319SOL    HW118593   4.479   3.462   9.621  0.7479  0.5072 -0.7269
 2319SOL    HW218594   4.570   3.481   9.736 -0.3923  2.2935 -1.1871
 2320SOL     OW18595   4.107   1.592   2.744  0.5024 -0.0766 -0.3842
 2320SOL    HW118596   4.198   1.588   2.715  1.0086  1.0859  1.0685
 2320SOL    HW218597   4.063   1.650   2.682 -0.4312  0.2112  0.5284
 2321SOL     OW18598   1.699   2.227   8.908  0.0216  0.0828  0.4428
 2321SOL    HW118599   1.689   2.132   8.907  1.3127 -0.0168 -1.9370
 2321SOL    HW218600   1.781   2.241   8.860 -1.3531  2.1980 -1.2441
 2322SOL     OW18601   4.148   0.379   2.995 -0.3806  0.3878  0.2198
 2322SOL    HW118602   4.236   0.373   3.031 -1.1562 -2.7229  1.6219
 2322SOL    HW218603   4.172   0.388   2.903 -1.2876  0.4730 -0.0064
 2323SOL     OW18604   3.954   0.153   6.727 -1.0481 -0.1418  0.1980
 2323SOL    HW118605   3.969   0.244   6.699 -0.6104 -0.1625  0.3632
 2323SOL    HW218606   3.954   0.159   6.823  0.1437 -3.8084  0.4276
 2324SOL     OW18607   2.015   1.766   7.222 -0.0868  0.0595 -0.4342
 2324SOL    HW118608   1.961   1.733   7.151  0.5713 -0.1335 -0.8493
 2324SOL    HW218609   1.947   1.799   7.281  0.5947  1.7355 -0.5752
 2325SOL     OW18610   3.696   3.606   5.272 -0.1038  0.9659  0.3197
 2325SOL    HW118611   3.748   3.582   5.349  0.5271  1.1980 -0.0365
 2325SOL    HW218612   3.619   3.650   5.308 -0.1176 -0.4738  2.0293
 2326SOL     OW18613   4.623   1.196   4.336 -0.3174  0.2386  0.0872
 2326SOL    HW118614   4.571   1.223   4.260 -0.4111 -2.0827 -0.6924
 2326SOL    HW218615   4.633   1.101   4.329 -1.0859  0.0618  1.2588
 2327SOL     OW18616   2.027   2.737   5.324 -0.4019  0.3809 -0.2202
 2327SOL    HW118617   1.933   2.720   5.319 -0.6108  1.8286 -1.4064
 2327SOL    HW218618   2.064   2.679   5.257  1.4445  1.9138 -0.5155
 2328SOL     OW18619   0.170   4.184  11.900 -0.1099 -0.1418 -0.1823
 2328SOL    HW118620   0.218   4.102  11.915  1.6440  1.0997  1.0464
 2328SOL    HW218621   0.216   4.250  11.952 -1.5501  1.7990 -1.3964
 2329SOL     OW18622   0.552   0.441   9.796  0.1271  0.6300  0.1238
 2329SOL    HW118623   0.560   0.536   9.794  0.6133  0.6115  1.5484
 2329SOL    HW218624   0.620   0.422   9.731 -0.9296  1.7215 -1.3080
 2330SOL     OW18625   2.640   3.389   4.049 -0.0353 -0.3222  0.1714
 2330SOL    HW118626   2.653   3.296   4.031  0.9127 -0.1254 -0.1594
 2330SOL    HW218627   2.731   3.415   4.035 -0.9149  2.2054 -0.7884
 2331SOL     OW18628   4.186   1.144   4.190 -0.3878  0.2315 -0.1170
 2331SOL    HW118629   4.125   1.075   4.165  0.0235 -0.3094  0.3551
 2331SOL    HW218630   4.230   1.123   4.273  0.6074 -2.4676 -1.3492
 2332SOL     OW18631   1.283   3.954   4.424  0.2642  0.3844 -0.4184
 2332SOL    HW118632   1.189   3.973   4.414  0.2872 -1.9920 -4.8002
 2332SOL    HW218633   1.273   3.859   4.427  1.7023  0.1552 -2.9090
 2333SOL     OW18634   3.385   1.353   9.435  0.2523  0.1274  0.1159
 2333SOL    HW118635   3.386   1.387   9.525  1.2720  0.3068  0.0401
 2333SOL    HW218636   3.416   1.263   9.445  0.4646  0.0755 -0.9732
 2334SOL     OW18637   4.232   1.302   2.727  0.2346  0.6447  0.0375
 2334SOL    HW118638   4.208   1.379   2.780  1.3134  0.2636  1.0968
 2334SOL    HW218639   4.173   1.308   2.652 -0.0484  0.2257  0.2287
 2335SOL     OW18640   4.110   1.825   4.050  0.0821  0.0135  0.3997
 2335SOL    HW118641   4.036   1.769   4.024  1.6917 -1.1773 -1.6311
 2335SOL    HW218642   4.118   1.873   3.968  2.1435  0.9159  1.1481
 2336SOL     OW18643   3.892   0.716   9.013  0.3186 -0.2834 -0.0279
 2336SOL    HW118644   3.910   0.750   9.100 -2.2306  0.5851  0.1483
 2336SOL    HW218645   3.845   0.637   9.041 -2.2706  1.0251 -0.6984
 2337SOL     OW18646   3.010   3.029  11.040 -0.1481  0.3355  0.4534
 2337SOL    HW118647   3.084   2.986  11.082  0.4080  1.2249  0.3643
 2337SOL    HW218648   3.050   3.108  11.004 -2.5837  0.1336 -2.7917
 2338SOL     OW18649   4.111   1.585   3.406  0.0150 -0.1013 -0.0823
 2338SOL    HW118650   4.134   1.663   3.357 -2.2336 -1.1102 -2.7292
 2338SOL    HW218651   4.196   1.563   3.445 -0.6319 -2.4553 -0.0005
 2339SOL     OW18652   1.240   4.632   5.165 -0.2993  0.1879  0.5784
 2339SOL    HW118653   1.259   4.539   5.150 -0.6880  0.3382 -0.8081
 2339SOL    HW218654   1.329   4.667   5.154  0.7863 -2.1635  1.8142
 2340SOL     OW18655   4.268   4.525   5.010  0.2700  0.0196  0.3383
 2340SOL    HW118656   4.335   4.470   5.050  1.2972  0.9088 -0.1435
 2340SOL    HW218657   4.263   4.597   5.074  0.7456  0.7042 -0.3861
 2341SOL     OW18658   2.505   1.131   4.993 -0.0412  0.2346  0.3295
 2341SOL    HW118659   2.585   1.124   5.045 -0.4657  3.7326  1.4747
 2341SOL    HW218660   2.453   1.195   5.041  1.5360  1.5469  0.3133
 2342SOL     OW18661   3.719   2.764   6.449 -0.1777 -0.2775 -0.0424
 2342SOL    HW118662   3.723   2.678   6.491 -0.8565  0.1517  0.9173
 2342SOL    HW218663   3.808   2.797   6.459 -0.1784  0.1680 -1.5102
 2343SOL     OW18664   3.996   4.115   4.522 -0.0471 -0.3620  0.0885
 2343SOL    HW118665   3.928   4.053   4.547  0.6198 -1.2904 -0.3908
 2343SOL    HW218666   3.945   4.162   4.456 -0.2795  0.1410  0.6237
 2344SOL     OW18667   2.928   4.631  14.849 -0.0564 -0.4188  0.6625
 2344SOL    HW118668   2.871   4.672  14.914  0.1701 -1.1084  1.2936
 2344SOL    HW218669   2.893   4.543  14.838  1.8354 -0.8463 -1.9893
 2345SOL     OW18670   0.648   1.176   6.371 -0.1371  0.4436 -0.0021
 2345SOL    HW118671   0.638   1.243   6.438 -0.6722 -0.6796  1.0228
 2345SOL    HW218672   0.572   1.193   6.316  0.1887 -0.4953 -0.7438
 2346SOL     OW18673   0.621   1.662   9.093  0.2549 -0.3221 -0.3672
 2346SOL    HW118674   0.675   1.589   9.063 -0.2168 -0.8171 -0.0147
 2346SOL    HW218675   0.543   1.625   9.135  1.5237 -0.8624  1.5037
 2347SOL     OW18676   3.563   1.724  14.570  0.3708  0.1569 -0.2646
 2347SOL    HW118677   3.484   1.773  14.546  0.1544 -0.2924 -0.4859
 2347SOL    HW218678   3.574   1.754  14.660 -1.6675  0.4093 -0.0948
 2348SOL     OW18679   1.019   3.443   4.857 -0.4044  0.0324 -0.4954
 2348SOL    HW118680   1.038   3.399   4.774  0.3652 -0.7573  0.1074
 2348SOL    HW218681   1.065   3.527   4.850 -0.8436  0.2651 -0.5748
 2349SOL     OW18682   4.205   1.598   6.889  0.0720 -0.1540  0.1974
 2349SOL    HW118683   4.272   1.535   6.860  1.6167  1.2097  0.7883
 2349SOL    HW218684   4.265   1.672   6.902  0.9431 -0.3462 -2.6736
 2350SOL     OW18685   1.516   4.359   0.551 -0.2994  0.0812 -0.3551
 2350SOL    HW118686   1.595   4.412   0.550 -0.9132  1.0144  0.9535
 2350SOL    HW218687   1.540   4.290   0.489  1.2263 -0.6087  1.0190
 2351SOL     OW18688   4.490   2.940   4.345  0.0594  0.4046  0.5480
 2351SOL    HW118689   4.562   2.954   4.407  1.0919  2.7093 -1.1532
 2351SOL    HW218690   4.479   3.030   4.315 -1.3268  0.4464  1.2100
 2352SOL     OW18691   1.723   4.602   6.566  0.8197 -0.2323  0.2543
 2352SOL    HW118692   1.769   4.685   6.554  0.9248 -0.6860 -2.5509
 2352SOL    HW218693   1.670   4.602   6.486  3.3275 -0.4352 -1.3949
 2353SOL     OW18694   3.517   2.314   6.167  0.5177 -0.5160  0.0968
 2353SOL    HW118695   3.564   2.398   6.170  1.1753 -0.9161  0.7403
 2353SOL    HW218696   3.453   2.333   6.098 -0.5773  1.5368  1.6908
 2354SOL     OW18697   1.646   1.718   6.894 -0.2915 -0.5809  0.0403
 2354SOL    HW118698   1.605   1.676   6.969 -0.9841  0.8551  0.4646
 2354SOL    HW218699   1.594   1.668   6.832 -0.8324  0.0021  0.0275
 2355SOL     OW18700   0.903   2.876   0.883 -0.5211  0.0821 -0.3705
 2355SOL    HW118701   0.882   2.824   0.806 -1.9504 -1.3514  0.9882
 2355SOL    HW218702   0.852   2.955   0.862 -0.8475  0.0358  0.2395
 2356SOL     OW18703   3.116   3.327   7.318 -0.0113 -0.0817  0.5814
 2356SOL    HW118704   3.172   3.258   7.283 -0.6386  0.1414 -0.8498
 2356SOL    HW218705   3.075   3.270   7.383 -0.9203 -0.1924 -0.1002
 2357SOL     OW18706   0.611   2.045   2.676  0.7825 -0.1620 -0.9486
 2357SOL    HW118707   0.535   2.063   2.621  0.6319 -1.5774 -1.1847
 2357SOL    HW218708   0.642   1.959   2.647 -1.1369 -0.5936 -1.6845
 2358SOL     OW18709   0.675   0.736   6.855  0.4618 -0.2922 -0.3176
 2358SOL    HW118710   0.688   0.803   6.921 -0.9762  0.8767 -1.2235
 2358SOL    HW218711   0.724   0.658   6.880  2.5899  1.2190  0.2207
 2359SOL     OW18712   3.350   0.197  14.911 -0.0387 -0.3930  0.2859
 2359SOL    HW118713   3.398   0.216  14.992  0.1244  0.5157 -0.0312
 2359SOL    HW218714   3.382   0.273  14.864 -0.5683 -0.9416 -0.9595
 2360SOL     OW18715   0.092   0.539  15.906  0.2406 -0.2204  0.2149
 2360SOL    HW118716   0.083   0.584  15.822  0.2847  0.5986  0.6461
 2360SOL    HW218717   0.122   0.454  15.876 -2.6633 -1.9632  2.2428
 2361SOL     OW18718   1.036   1.917   5.515 -0.2288  0.2334 -0.1145
 2361SOL    HW118719   0.965   1.853   5.514  0.0336 -0.0666  0.2120
 2361SOL    HW218720   0.988   1.999   5.501 -2.5299 -0.9014  1.1526
 2362SOL     OW18721   0.004   0.474   4.839  0.0471  0.0443 -0.0446
 2362SOL    HW118722   0.049   0.399   4.800 -1.9403 -0.7092 -0.8988
 2362SOL    HW218723   4.675   0.492   4.772 -1.2286 -2.5798  0.4943
 2363SOL     OW18724   3.428   4.328   5.591  0.3759  0.7581 -0.2094
 2363SOL    HW118725   3.492   4.295   5.528  1.0167 -0.5026  1.0947
 2363SOL    HW218726   3.439   4.422   5.575  0.2338  0.7660 -0.2590
 2364SOL     OW18727   1.036   2.957  14.011  0.1499 -0.4030 -0.1460
 2364SOL    HW118728   1.009   3.032  13.958  0.8324 -0.6453 -0.8392
 2364SOL    HW218729   1.097   2.915  13.950 -2.4856 -4.4099 -0.0015
 2365SOL     OW18730   3.853   4.026  10.956  0.3519 -0.3915 -0.3650
 2365SOL    HW118731   3.822   4.063  10.873 -0.0374 -0.6373 -0.3314
 2365SOL    HW218732   3.913   3.954  10.937  2.2903  1.0426  0.3267
 2366SOL     OW18733   2.129   1.947   1.545 -0.0331 -0.1524  0.4703
 2366SOL    HW118734   2.034   1.949   1.538  0.0295  0.1544 -0.4172
 2366SOL    HW218735   2.134   1.927   1.638  3.9410 -1.9771 -0.1441
 2367SOL     OW18736   4.502   3.540   6.412 -1.1306 -0.1613 -0.8797
 2367SOL    HW118737   4.458   3.625   6.407 -0.8511 -0.0025 -0.6721
 2367SOL    HW218738   4.434   3.477   6.437 -0.2684 -0.7101  0.0469
 2368SOL     OW18739   3.414   1.601   1.804 -0.1216  0.4040 -0.7385
 2368SOL    HW118740   3.344   1.572   1.747 -1.0194 -1.7595  1.5056
 2368SOL    HW218741   3.462   1.519   1.817 -0.0350  0.5212 -0.2871
 2369SOL     OW18742   0.810   2.979   3.955 -0.3130 -0.0467  0.1410
 2369SOL    HW118743   0.899   2.945   3.948  0.2756  1.4405  0.4583
 2369SOL    HW218744   0.813   3.049   3.890 -0.1533 -0.4864 -0.3189
 2370SOL     OW18745   1.543   3.461   2.337 -0.2181 -0.3306 -0.0746
 2370SOL    HW118746   1.514   3.506   2.258  1.3480  1.6883  0.4945
 2370SOL    HW218747   1.524   3.367   2.333 -0.6550 -0.3121  1.5114
 2371SOL     OW18748   3.464   2.365   7.524 -0.0774 -0.0297 -0.4211
 2371SOL    HW118749   3.494   2.342   7.613 -1.6953 -0.7904 -0.0798
 2371SOL    HW218750   3.463   2.281   7.480 -1.2783 -0.4542  0.4258
 2372SOL     OW18751   2.871   3.282  16.079  0.2805  0.0537  0.3780
 2372SOL    HW118752   2.857   3.333  15.999  1.1591 -0.7179 -0.2505
 2372SOL    HW218753   2.807   3.325  16.137 -2.8846 -0.6424 -2.6118
 2373SOL     OW18754   2.188   3.731   1.547  0.0295  0.0803 -0.3170
 2373SOL    HW118755   2.094   3.713   1.536  0.4538 -1.4285 -1.5215
 2373SOL    HW218756   2.209   3.671   1.618  0.5245 -1.9026 -2.1381
 2374SOL     OW18757   4.154   1.883  13.818  0.5893  0.0723  0.5617
 2374SOL    HW118758   4.103   1.899  13.739 -0.5545 -1.0160  1.0778
 2374SOL    HW218759   4.189   1.970  13.838  2.0617 -0.7024  1.3754
 2375SOL     OW18760   1.000   3.268  12.326 -0.4791 -0.0780 -0.4270
 2375SOL    HW118761   0.979   3.340  12.385  1.1541  0.4709 -0.5078
 2375SOL    HW218762   1.026   3.197  12.385  2.0196  1.5026  0.3571
 2376SOL     OW18763   0.953   0.840   1.312 -0.1472 -0.4707 -0.6125
 2376SOL    HW118764   1.046   0.819   1.304  0.2798  1.3981 -0.5207
 2376SOL    HW218765   0.907   0.757   1.319  2.4490 -1.7520  1.4188
 2377SOL     OW18766   4.681   2.281   3.318 -0.3253  0.9264 -0.7469
 2377SOL    HW118767   4.696   2.189   3.296  1.4817  0.3697  2.7448
 2377SOL    HW218768   0.028   2.293   3.362 -0.5384 -0.2124 -0.0317
 2378SOL     OW18769   3.038   1.563   3.596 -0.6767  0.9423  0.3261
 2378SOL    HW118770   3.117   1.541   3.546  0.1753  1.5506  1.4096
 2378SOL    HW218771   3.059   1.516   3.677  1.5766 -0.5051 -1.0968
 2379SOL     OW18772   3.236   1.875   9.084 -0.6587 -0.9071  0.0843
 2379SOL    HW118773   3.307   1.817   9.055 -1.5738 -2.1590  0.3621
 2379SOL    HW218774   3.217   1.835   9.169 -2.2476  1.1875  0.6961
 2380SOL     OW18775   4.216   0.081   7.339 -0.2675 -0.4205 -0.0647
 2380SOL    HW118776   4.160   0.112   7.268 -0.5885  0.7019  0.6583
 2380SOL    HW218777   4.300   0.108   7.302 -0.8258  1.9261  0.3236
 2381SOL     OW18778   2.018   1.527   1.594 -0.1620  0.1956  0.0500
 2381SOL    HW118779   1.931   1.538   1.633  1.3668  3.3554  2.5332
 2381SOL    HW218780   1.997   1.460   1.529  1.0204  0.1560 -0.2918
 2382SOL     OW18781   1.002   2.202   7.591  1.1530  0.1731 -0.4209
 2382SOL    HW118782   1.083   2.165   7.555  1.6595  0.3814  0.4880
 2382SOL    HW218783   1.019   2.225   7.683  1.0014 -3.2170  0.4273
 2383SOL     OW18784   2.950   0.885   1.587  0.5889 -0.2723  0.3562
 2383SOL    HW118785   2.860   0.915   1.597  0.7584  0.3841 -0.0581
 2383SOL    HW218786   2.939   0.794   1.558  1.5900  0.0241 -0.9639
 2384SOL     OW18787   1.733   2.205   5.020  0.4428 -0.1959 -0.1061
 2384SOL    HW118788   1.743   2.139   5.089  0.3838 -1.0561 -0.9114
 2384SOL    HW218789   1.779   2.279   5.059 -1.5009  0.7886  0.3252
 2385SOL     OW18790   1.234   3.941   9.306  0.3806  0.1281  0.1762
 2385SOL    HW118791   1.158   3.884   9.290 -0.6662  1.7460 -0.5755
 2385SOL    HW218792   1.267   3.945   9.217  1.4866 -2.3964  0.4578
 2386SOL     OW18793   2.237   0.632  11.500 -0.6140 -0.1234 -0.2092
 2386SOL    HW118794   2.316   0.684  11.483 -0.5210 -0.5547 -1.1064
 2386SOL    HW218795   2.170   0.700  11.498 -0.1112  0.3317 -1.2760
 2387SOL     OW18796   2.520   0.746  11.471 -0.3060 -0.3679  0.2778
 2387SOL    HW118797   2.612   0.750  11.443  0.5346 -0.9093  2.9818
 2387SOL    HW218798   2.484   0.694  11.399 -2.3699 -0.4095  1.3544
 2388SOL     OW18799   4.175   2.355  15.176  0.6143  0.6105  0.5006
 2388SOL    HW118800   4.144   2.266  15.158 -1.0017  1.1979  0.3672
 2388SOL    HW218801   4.223   2.329  15.255 -0.5968 -0.0064  1.0258
 2389SOL     OW18802   0.994   0.977   3.898  0.2674  0.2783  0.1717
 2389SOL    HW118803   0.959   1.029   3.826  3.6968  2.4135  0.0300
 2389SOL    HW218804   1.082   0.952   3.869  0.1875 -2.8115  2.5227
 2390SOL     OW18805   4.073   2.693  11.726 -0.0559 -0.5792  0.3053
 2390SOL    HW118806   4.106   2.639  11.797  0.0748 -0.1936  0.5356
 2390SOL    HW218807   4.032   2.764  11.775  0.3740  0.8738 -1.4261
 2391SOL     OW18808   3.797   0.068   6.055 -0.7525  0.4139  0.1417
 2391SOL    HW118809   3.756   0.069   5.968 -2.8339 -0.0214  1.1130
 2391SOL    HW218810   3.761   4.724   6.091  0.8776  0.0219  0.8908
 2392SOL     OW18811   2.077   0.977  13.273  0.0368  0.1896 -0.2630
 2392SOL    HW118812   2.094   1.056  13.324  1.4472 -1.1804  1.3960
 2392SOL    HW218813   1.992   0.945  13.306  0.2089  0.3336  0.3290
 2393SOL     OW18814   0.622   0.578   3.581 -0.0690  0.4869  0.5506
 2393SOL    HW118815   0.596   0.593   3.672  0.8889 -2.0183  1.2252
 2393SOL    HW218816   0.635   0.483   3.587 -1.6530  0.4366  2.9016
 2394SOL     OW18817   4.317   4.349   7.219 -0.1615 -0.3244 -0.4259
 2394SOL    HW118818   4.263   4.361   7.141  0.6366  1.5599 -0.6752
 2394SOL    HW218819   4.393   4.402   7.194 -0.2959  0.1139  0.1216
 2395SOL     OW18820   2.741   0.690   5.691  0.6428  0.3943 -0.3830
 2395SOL    HW118821   2.765   0.744   5.766 -1.4966  0.7274  0.0539
 2395SOL    HW218822   2.744   0.761   5.626  1.3685  0.5485 -0.1900
 2396SOL     OW18823   4.516   2.310   7.835 -0.3450 -0.1096  0.2508
 2396SOL    HW118824   4.446   2.308   7.770 -0.5932  0.3689  0.5034
 2396SOL    HW218825   4.594   2.276   7.791 -1.3631 -2.9060  0.5659
 2397SOL     OW18826   3.896   0.042   7.032 -0.0624 -0.0760  0.0174
 2397SOL    HW118827   3.902   0.044   7.127 -1.5969 -1.2591  0.1290
 2397SOL    HW218828   3.930   4.692   7.009 -0.5551  0.5762 -3.2624
 2398SOL     OW18829   2.716   3.338   2.302  0.4058  0.6309  0.4533
 2398SOL    HW118830   2.631   3.344   2.345  2.0514 -0.3017  3.8632
 2398SOL    HW218831   2.766   3.292   2.369 -0.5471  0.1949  0.8582
 2399SOL     OW18832   0.086   2.410   5.682 -0.0420  0.5913  0.3442
 2399SOL    HW118833   0.099   2.483   5.742  0.7555  0.1415  0.7230
 2399SOL    HW218834   0.002   2.376   5.712 -0.0318  0.9433  0.7578
 2400SOL     OW18835   4.048   1.574  17.591  0.2519  0.1427 -0.2735
 2400SOL    HW118836   3.988   1.502  17.576  0.3701  0.2283 -1.1640
 2400SOL    HW218837   4.034   1.628  17.513 -1.2028  0.0574 -0.0632
 2401SOL     OW18838   2.981   4.384   8.427 -0.0985 -0.1605  0.3697
 2401SOL    HW118839   2.903   4.358   8.477 -1.4419 -0.0850 -1.6983
 2401SOL    HW218840   3.001   4.467   8.469  1.0144 -0.5439  0.6059
 2402SOL     OW18841   1.480   3.976   2.830  0.2129 -0.2870  0.2402
 2402SOL    HW118842   1.515   4.046   2.885  0.3456 -0.0040 -0.2048
 2402SOL    HW218843   1.545   3.980   2.760 -0.8221  0.2064 -0.6969
 2403SOL     OW18844   0.704   1.094   5.835  0.9084  0.5144 -0.2809
 2403SOL    HW118845   0.705   1.053   5.749 -2.2922  0.7293 -0.4155
 2403SOL    HW218846   0.614   1.127   5.833  0.0953 -1.7724 -0.8195
 2404SOL     OW18847   2.229   0.921   6.464 -0.1306  0.4151 -0.5510
 2404SOL    HW118848   2.314   0.941   6.423  0.4145  1.4572  1.0837
 2404SOL    HW218849   2.265   0.904   6.552 -1.1733  0.7383 -0.0659
 2405SOL     OW18850   1.742   1.530  12.048  0.4231  0.7127 -0.2711
 2405SOL    HW118851   1.836   1.548  12.049  0.0476  2.5765  0.7766
 2405SOL    HW218852   1.710   1.602  11.994  1.1335  0.0197 -1.6456
 2406SOL     OW18853   0.656   4.332   6.262  0.2104 -0.4668 -0.3043
 2406SOL    HW118854   0.592   4.273   6.303 -2.4210  1.5612 -1.5137
 2406SOL    HW218855   0.596   4.402   6.236  0.3221 -0.6495 -1.0569
 2407SOL     OW18856   2.380   1.927   4.566 -0.3824  0.1006 -0.4020
 2407SOL    HW118857   2.388   1.988   4.492 -1.2312  0.2321 -0.3859
 2407SOL    HW218858   2.372   1.841   4.525 -0.5261  0.5129 -1.2444
 2408SOL     OW18859   4.585   3.264  14.025  0.3570 -0.1637  0.0609
 2408SOL    HW118860   4.602   3.235  14.114  0.4826 -1.7326 -0.4726
 2408SOL    HW218861   4.562   3.357  14.032  2.6436  0.5833 -2.1728
 2409SOL     OW18862   3.385   3.227   3.969  0.1930  0.0455  0.7440
 2409SOL    HW118863   3.449   3.274   4.023 -1.1007  1.3716  1.1072
 2409SOL    HW218864   3.388   3.273   3.885  2.7901 -2.0002 -0.2771
 2410SOL     OW18865   0.196   3.230   4.577 -0.6196  0.6951 -0.1966
 2410SOL    HW118866   0.271   3.254   4.631 -0.5309 -0.5308  0.2245
 2410SOL    HW218867   0.127   3.292   4.598 -1.6097 -0.8568  1.1031
 2411SOL     OW18868   3.911   1.102  14.295 -0.4035 -0.6158 -0.5939
 2411SOL    HW118869   3.982   1.134  14.350 -1.5896 -1.0939  1.2052
 2411SOL    HW218870   3.947   1.016  14.271 -2.5781 -1.9243  0.8539
 2412SOL     OW18871   2.832   1.205   8.319 -0.1078  0.1039 -0.0759
 2412SOL    HW118872   2.885   1.284   8.335 -0.7974  0.8071 -1.2829
 2412SOL    HW218873   2.743   1.241   8.325  0.5307  1.4109  2.0440
 2413SOL     OW18874   2.795   2.055   5.258 -0.5867 -0.4781 -0.5714
 2413SOL    HW118875   2.887   2.040   5.237 -0.5363 -1.9443  0.7509
 2413SOL    HW218876   2.748   1.979   5.224 -0.3606 -0.6393 -0.5220
 2414SOL     OW18877   1.081   4.653  15.339  0.6413  0.2819  0.1387
 2414SOL    HW118878   1.135   4.685  15.266 -0.1521 -0.7380 -0.8722
 2414SOL    HW218879   1.128   4.699  15.410 -2.3907 -0.6753  2.7438
 2415SOL     OW18880   1.158   0.348  11.732  0.4922 -0.0496  0.4132
 2415SOL    HW118881   1.196   0.425  11.776 -0.8372  0.5548  0.4944
 2415SOL    HW218882   1.089   0.323  11.794  0.7019 -1.2163  0.1707
 2416SOL     OW18883   2.895   2.679   3.862 -0.3692  0.1460 -0.4136
 2416SOL    HW118884   2.885   2.630   3.780 -2.0017  1.1916 -0.8699
 2416SOL    HW218885   2.811   2.658   3.902 -1.3812 -1.0063 -3.1135
 2417SOL     OW18886   3.575   4.011  13.033 -0.6637 -0.5237  0.5931
 2417SOL    HW118887   3.576   4.073  13.106  1.0235 -0.9096  0.8918
 2417SOL    HW218888   3.583   3.924  13.072 -0.0160 -1.0317 -0.6727
 2418SOL     OW18889   4.112   4.670  12.785  0.1433  0.2403  0.1029
 2418SOL    HW118890   4.107   4.582  12.823 -0.0427  0.1801 -0.0596
 2418SOL    HW218891   4.139   4.643  12.697  1.6273 -0.0629  0.6575
 2419SOL     OW18892   2.089   1.054   6.995 -0.0902  0.0915 -0.5855
 2419SOL    HW118893   2.083   0.958   6.998  0.1704  0.1332  1.5960
 2419SOL    HW218894   2.007   1.076   7.038 -0.0602 -0.9589  0.0152
 2420SOL     OW18895   1.671   0.549   4.078  0.6004 -0.0436  0.2947
 2420SOL    HW118896   1.659   0.589   3.992  2.6156 -1.0086 -0.4443
 2420SOL    HW218897   1.745   0.594   4.119  1.4123 -0.2663 -0.9404
 2421SOL     OW18898   3.764   1.759  12.203  0.0001  0.2807  0.0166
 2421SOL    HW118899   3.687   1.716  12.166 -0.7390  0.4435  1.3567
 2421SOL    HW218900   3.760   1.847  12.164 -0.0877 -0.2836 -1.2558
 2422SOL     OW18901   0.910   0.848   7.199 -0.3833  0.3483 -0.3374
 2422SOL    HW118902   0.884   0.929   7.242  2.0375  0.0483  1.6953
 2422SOL    HW218903   0.955   0.886   7.124  0.0770  1.3228  0.4310
 2423SOL     OW18904   2.663   0.933   4.281  0.0034  0.3780  0.1202
 2423SOL    HW118905   2.655   0.845   4.319  0.6046  1.2492  2.2776
 2423SOL    HW218906   2.646   0.982   4.361 -3.1524 -1.4221  0.5451
 2424SOL     OW18907   3.511   1.650  12.116  0.4297  0.0842 -0.1421
 2424SOL    HW118908   3.513   1.556  12.133 -1.0833 -0.2030 -1.4969
 2424SOL    HW218909   3.440   1.687  12.170  0.3551 -2.1363  1.2339
 2425SOL     OW18910   1.924   1.962   6.043 -0.1619  0.2473  0.4750
 2425SOL    HW118911   2.014   1.939   6.020  0.1317  0.5254  1.3499
 2425SOL    HW218912   1.898   1.891   6.102  3.6168 -0.6152  1.1015
 2426SOL     OW18913   4.193   0.841   5.262  0.4042 -0.5179  0.2860
 2426SOL    HW118914   4.205   0.783   5.337  2.3541 -0.4835  0.0196
 2426SOL    HW218915   4.120   0.797   5.219  1.0727 -1.4381  0.1010
 2427SOL     OW18916   4.730   2.661  12.849 -0.0087 -0.3403 -0.9157
 2427SOL    HW118917   4.670   2.736  12.846 -1.1641 -1.2904 -1.3145
 2427SOL    HW218918   0.076   2.709  12.854 -0.0222 -0.6749  2.5140
 2428SOL     OW18919   1.757   2.402  16.161  0.0957 -0.3355  0.1545
 2428SOL    HW118920   1.778   2.310  16.175 -2.6365 -1.1170 -0.7525
 2428SOL    HW218921   1.755   2.437  16.250 -1.5512  0.9883 -0.3892
 2429SOL     OW18922   1.162   3.088  11.156  0.1659 -0.0007  0.0686
 2429SOL    HW118923   1.100   3.136  11.101 -1.7935 -1.0376  1.3619
 2429SOL    HW218924   1.093   3.041  11.204  2.4412  0.4124  3.7247
 2430SOL     OW18925   4.696   2.862   8.709  0.0460  0.4060 -0.2830
 2430SOL    HW118926   4.642   2.799   8.757 -1.3402  1.0845 -0.9451
 2430SOL    HW218927   4.643   2.858   8.630 -0.4275  0.9823  0.0083
 2431SOL     OW18928   2.971   1.525  10.339 -0.4059 -0.1151 -0.2852
 2431SOL    HW118929   3.045   1.465  10.327  0.6030  0.9469  0.5684
 2431SOL    HW218930   2.996   1.578  10.415 -2.0114  1.5296 -0.9105
 2432SOL     OW18931   1.484   1.732   5.442 -0.3782  1.0400  0.0903
 2432SOL    HW118932   1.430   1.658   5.470  0.1463  0.9249  0.8000
 2432SOL    HW218933   1.474   1.713   5.349  0.1851  0.9014  0.0585
 2433SOL     OW18934   4.536   4.271   5.625  0.4166  0.1621 -0.5297
 2433SOL    HW118935   4.615   4.240   5.668  0.8439  1.1830 -0.5743
 2433SOL    HW218936   4.552   4.365   5.630  1.8969 -0.0309 -1.3516
 2434SOL     OW18937   2.152   0.641   7.314 -0.3966 -0.2517 -0.5182
 2434SOL    HW118938   2.153   0.674   7.404  0.4590 -0.9434 -0.2878
 2434SOL    HW218939   2.111   0.559   7.339 -1.1572  0.2400 -0.1414
 2435SOL     OW18940   3.262   4.657   1.804 -0.2252 -0.0392 -0.1284
 2435SOL    HW118941   3.299   4.678   1.889 -1.7820  1.9118  0.0487
 2435SOL    HW218942   3.231   0.000   1.762  1.4947  0.9710  0.5393
 2436SOL     OW18943   2.524   0.124  10.599 -0.3653 -0.1121  0.2165
 2436SOL    HW118944   2.600   0.121  10.540 -0.8952  0.8552 -0.5082
 2436SOL    HW218945   2.457   0.166  10.546 -0.1641 -0.5636 -0.4074
 2437SOL     OW18946   1.458   0.972   6.181  0.0448 -0.1870 -0.8569
 2437SOL    HW118947   1.394   0.919   6.228  1.2601 -0.4452  0.5113
 2437SOL    HW218948   1.506   0.906   6.129 -0.2274 -3.1129  2.6156
 2438SOL     OW18949   0.751   2.624   0.231 -0.0952  0.6615  0.2090
 2438SOL    HW118950   0.719   2.545   0.188  1.5058  0.2811 -0.2649
 2438SOL    HW218951   0.797   2.662   0.156  2.6354  2.3306  2.7765
 2439SOL     OW18952   2.366   0.309  10.442  0.0852  0.3423 -0.0559
 2439SOL    HW118953   2.291   0.366  10.458 -1.6418 -1.6399 -1.1210
 2439SOL    HW218954   2.430   0.367  10.484  2.1430 -0.6592 -1.8517
 2440SOL     OW18955   3.716   3.919   3.506  0.3677 -0.8365 -0.2660
 2440SOL    HW118956   3.624   3.941   3.493  0.5136 -1.4524 -2.3325
 2440SOL    HW218957   3.745   3.890   3.420  0.5895 -0.2360 -0.3857
 2441SOL     OW18958   0.348   0.152   2.218 -0.1156 -0.3578 -0.1447
 2441SOL    HW118959   0.288   0.213   2.261  0.6172 -0.6501  1.2855
 2441SOL    HW218960   0.334   0.177   2.127 -0.9134  0.3697  0.1697
 2442SOL     OW18961   1.179   4.692  14.767 -0.3202  0.4900 -0.7310
 2442SOL    HW118962   1.131   4.618  14.730  1.9479 -1.0536 -0.6116
 2442SOL    HW218963   1.215   4.645  14.843 -0.3958  0.3600 -0.7750
 2443SOL     OW18964   2.391   3.115   2.835  0.3056 -0.2165 -0.7692
 2443SOL    HW118965   2.374   3.039   2.890 -2.8189  0.9493 -0.1120
 2443SOL    HW218966   2.343   3.188   2.876  1.3780 -0.9376  1.7728
 2444SOL     OW18967   1.549   0.271  12.035  0.3652  0.3675 -0.5069
 2444SOL    HW118968   1.565   0.228  12.119  0.0334  0.1809 -0.5356
 2444SOL    HW218969   1.596   0.228  11.964  1.0420 -1.2024  0.8991
 2445SOL     OW18970   3.492   2.381   4.036  0.4384  0.0231 -0.0617
 2445SOL    HW118971   3.457   2.384   4.125  0.8835  3.6520 -0.0163
 2445SOL    HW218972   3.571   2.331   4.055 -0.1516 -0.8148  0.1998
 2446SOL     OW18973   0.745   1.895   5.988 -0.0684 -0.0043 -0.3053
 2446SOL    HW118974   0.770   1.807   6.015  4.0501  0.9454 -1.0659
 2446SOL    HW218975   0.806   1.910   5.916 -0.9985 -0.8670 -1.2821
 2447SOL     OW18976   1.412   0.719   1.617 -0.3919 -0.0481  0.6628
 2447SOL    HW118977   1.379   0.798   1.661  0.8303  1.1931 -0.6398
 2447SOL    HW218978   1.338   0.663   1.641  0.4036 -0.3457  2.3822
 2448SOL     OW18979   1.561   1.488   9.353 -0.4256  0.0603  0.1939
 2448SOL    HW118980   1.506   1.539   9.293  0.7598  2.2238  0.9298
 2448SOL    HW218981   1.521   1.493   9.440  2.0991  0.3732  1.3327
 2449SOL     OW18982   2.420   1.511   2.142 -0.5521  0.4059  0.6435
 2449SOL    HW118983   2.507   1.530   2.106 -1.3595  1.0462 -0.9347
 2449SOL    HW218984   2.363   1.520   2.066  1.1574  0.1416 -0.6518
 2450SOL     OW18985   0.324   2.143  16.495 -0.1561  0.4300  0.2207
 2450SOL    HW118986   0.321   2.053  16.461 -0.7650  1.1836 -1.6864
 2450SOL    HW218987   0.290   2.193  16.421 -1.7801 -0.0561  0.6358
 2451SOL     OW18988   1.520   1.724   8.802  0.0167  0.1228 -0.5092
 2451SOL    HW118989   1.433   1.762   8.790 -0.1283  0.3735  1.3290
 2451SOL    HW218990   1.572   1.778   8.743 -0.3060  0.4503 -0.4878
 2452SOL     OW18991   1.342   3.186  10.501  0.0600  0.2826  0.4042
 2452SOL    HW118992   1.393   3.177  10.420 -0.3320  1.2371  0.0617
 2452SOL    HW218993   1.403   3.240  10.551 -0.6864  0.6537  0.8998
 2453SOL     OW18994   0.637   4.158   9.388  0.1862 -0.0763 -0.8769
 2453SOL    HW118995   0.679   4.199   9.463  0.5001 -2.9641  0.5317
 2453SOL    HW218996   0.568   4.115   9.439  1.2117  0.4827  0.9721
 2454SOL     OW18997   1.418   2.578   2.250  0.0600 -0.4203 -0.6092
 2454SOL    HW118998   1.383   2.528   2.324 -0.9368  0.0153 -0.7964
 2454SOL    HW218999   1.369   2.540   2.177 -2.2402  0.4862  0.4525
 2455SOL     OW19000   1.209   4.287  13.601  0.1803  0.0990 -0.3433
 2455SOL    HW119001   1.236   4.379  13.604  2.5701 -0.6540  1.3656
 2455SOL    HW219002   1.118   4.301  13.626  0.7474 -0.2084  1.8889
 2456SOL     OW19003   2.380   3.491  14.162 -0.4096  0.2392 -0.2593
 2456SOL    HW119004   2.330   3.415  14.134 -0.3786  0.3434 -0.5994
 2456SOL    HW219005   2.308   3.552  14.179  0.8375  1.1960  1.6209
 2457SOL     OW19006   0.557   3.052   7.504  0.6135  0.4634  0.1519
 2457SOL    HW119007   0.546   3.106   7.583  1.3272 -0.5926  0.9650
 2457SOL    HW219008   0.492   3.090   7.445  0.2113  0.9527  0.9091
 2458SOL     OW19009   0.676   0.495   2.950 -0.0623  0.7590  0.1199
 2458SOL    HW119010   0.665   0.554   3.025 -1.7740  0.7406 -0.1207
 2458SOL    HW219011   0.686   0.409   2.990  1.8962  1.5795  1.3930
 2459SOL     OW19012   0.938   2.429   3.444 -0.6279  0.4597 -0.4038
 2459SOL    HW119013   0.973   2.388   3.523  2.6426  0.9427 -1.5990
 2459SOL    HW219014   0.845   2.427   3.469 -0.2801 -1.0181  0.8151
 2460SOL     OW19015   3.168   0.131  13.547  0.0155  0.7194 -0.2018
 2460SOL    HW119016   3.079   0.138  13.579  0.0305  1.2304 -0.2676
 2460SOL    HW219017   3.164   0.167  13.458 -0.7916  0.5876 -0.2108
 2461SOL     OW19018   4.015   4.553   4.454  0.2558  0.0822  0.0376
 2461SOL    HW119019   4.091   4.558   4.512  0.7751 -0.5170 -0.5944
 2461SOL    HW219020   4.056   4.492   4.393 -0.4542  1.0599 -1.3933
 2462SOL     OW19021   2.277   3.566   4.644  0.7114 -0.0079 -0.2702
 2462SOL    HW119022   2.215   3.499   4.614  1.0067  1.0277 -3.2586
 2462SOL    HW219023   2.356   3.512   4.636 -0.9822 -2.5956  0.3047
 2463SOL     OW19024   0.107   4.701   8.717  1.0407 -0.1915  0.0090
 2463SOL    HW119025   0.050   4.700   8.793  0.0480 -1.9636 -0.7796
 2463SOL    HW219026   0.076   0.042   8.671  0.6252 -0.3140  0.0822
 2464SOL     OW19027   1.605   3.229   5.206  0.0423  0.3611 -0.0685
 2464SOL    HW119028   1.548   3.171   5.257  1.2850  0.0775  1.0298
 2464SOL    HW219029   1.623   3.303   5.263  1.1863  0.3359 -0.3914
 2465SOL     OW19030   0.499   2.843   6.978 -0.1822  0.1718 -0.0558
 2465SOL    HW119031   0.411   2.863   6.947 -0.7741 -0.1786  1.3845
 2465SOL    HW219032   0.484   2.850   7.073 -0.2972 -1.0749  0.0257
 2466SOL     OW19033   0.047   1.874   9.453 -0.2191 -0.0412 -0.1031
 2466SOL    HW119034   0.036   1.944   9.517 -0.7185  0.3861 -0.6519
 2466SOL    HW219035   0.001   1.908   9.376  0.1029 -0.8298 -0.6461
 2467SOL     OW19036   1.346   3.795   8.484 -0.2903  0.7070  0.5452
 2467SOL    HW119037   1.252   3.793   8.466 -0.4817  1.5476  1.4262
 2467SOL    HW219038   1.372   3.864   8.423 -2.0963  0.3216 -0.6585
 2468SOL     OW19039   1.218   0.465   0.583  0.2798  0.4161  0.5093
 2468SOL    HW119040   1.187   0.387   0.536  0.2409  1.3631 -1.0341
 2468SOL    HW219041   1.274   0.506   0.518 -1.9504  0.9811 -1.0354
 2469SOL     OW19042   1.223   3.355   9.066  0.1190 -0.4074  0.1480
 2469SOL    HW119043   1.296   3.400   9.024  0.2219 -0.7576 -0.0558
 2469SOL    HW219044   1.240   3.375   9.158  1.9775 -1.2404 -0.0060
 2470SOL     OW19045   0.843   2.515  13.059 -0.1216  0.3998  0.0899
 2470SOL    HW119046   0.750   2.493  13.065 -0.8990  2.6910 -3.6550
 2470SOL    HW219047   0.874   2.432  13.021  0.8748  0.5359  0.6059
 2471SOL     OW19048   2.639   1.030   7.077 -0.5582 -0.4073 -0.5526
 2471SOL    HW119049   2.730   1.017   7.105 -1.2436  3.5820  3.4977
 2471SOL    HW219050   2.658   1.012   6.985  2.3679 -0.6580  0.0918
 2472SOL     OW19051   0.472   0.365   7.248  0.3161  0.1661  0.3170
 2472SOL    HW119052   0.490   0.295   7.186  2.0359  0.3099  0.6548
 2472SOL    HW219053   0.555   0.395   7.285  0.0175 -0.0908  1.1978
 2473SOL     OW19054   0.258   0.721   0.571 -0.9576  0.4400 -0.2688
 2473SOL    HW119055   0.291   0.748   0.657  2.6313  1.4690 -1.9769
 2473SOL    HW219056   0.292   0.799   0.527 -0.7040  2.0870  2.8562
 2474SOL     OW19057   3.887   0.562   1.288 -0.5014  0.2453  0.3917
 2474SOL    HW119058   3.979   0.565   1.314 -0.0356 -1.1018 -1.0191
 2474SOL    HW219059   3.908   0.533   1.199  2.1217  0.5261  0.9100
 2475SOL     OW19060   3.096   2.754   5.078  0.0302 -0.2981 -0.1359
 2475SOL    HW119061   3.168   2.760   5.140  1.3549 -2.1877 -1.5109
 2475SOL    HW219062   3.060   2.843   5.082 -1.2286 -0.7261 -1.7366
 2476SOL     OW19063   3.682   2.253   1.877  0.1457 -0.7581  0.4782
 2476SOL    HW119064   3.604   2.200   1.894  0.2065 -1.0049  0.0024
 2476SOL    HW219065   3.738   2.227   1.950 -0.4215 -0.8526  0.8798
 2477SOL     OW19066   2.031   2.678   9.938 -0.2945  0.2456 -0.0695
 2477SOL    HW119067   2.049   2.584   9.945 -1.3898  0.1450  1.3601
 2477SOL    HW219068   2.058   2.700  10.027 -2.5978 -2.5052  1.2912
 2478SOL     OW19069   3.791   4.687   0.454  0.6053  0.1404 -0.4406
 2478SOL    HW119070   3.748   0.035   0.452 -1.4905 -0.9260 -0.6676
 2478SOL    HW219071   3.723   4.629   0.421  0.6501  0.4106 -1.0016
 2479SOL     OW19072   0.510   1.437   0.514 -0.2140  0.3779 -0.1013
 2479SOL    HW119073   0.514   1.517   0.461 -0.3996  1.0328  0.8660
 2479SOL    HW219074   0.601   1.438   0.542 -0.6336  2.2473  1.2419
 2480SOL     OW19075   0.984   3.352   9.812 -0.0247  0.1556  0.3809
 2480SOL    HW119076   0.899   3.307   9.811 -0.0086  0.1215  0.5550
 2480SOL    HW219077   1.002   3.377   9.903  0.5405  0.4463  0.1860
 2481SOL     OW19078   0.161   4.500   6.470  0.0773  0.7499  0.5351
 2481SOL    HW119079   0.072   4.466   6.468  0.5477 -0.4503  0.3642
 2481SOL    HW219080   0.210   4.429   6.511 -2.0791  0.4213  2.5349
 2482SOL     OW19081   4.668   0.768   9.053 -0.0565 -0.6564  0.4946
 2482SOL    HW119082   4.701   0.833   9.115  0.8191 -0.3786 -0.2557
 2482SOL    HW219083   4.677   0.690   9.107 -0.5482 -0.7130  0.4925
 2483SOL     OW19084   2.011   1.231   7.450  0.0775  0.1885  0.0319
 2483SOL    HW119085   2.068   1.274   7.515  0.3707 -1.3359  0.7690
 2483SOL    HW219086   1.989   1.309   7.399 -1.5572 -0.0999  0.2864
 2484SOL     OW19087   3.232   0.795   2.936 -0.1828 -0.2935  0.1994
 2484SOL    HW119088   3.182   0.876   2.943 -0.5500 -0.4265 -0.8550
 2484SOL    HW219089   3.174   0.739   2.884  0.1032 -0.4084  0.0037
 2485SOL     OW19090   4.704   4.170  11.695 -0.4602 -0.5339  0.2808
 2485SOL    HW119091   0.005   4.190  11.781 -0.2495  1.7749 -0.3530
 2485SOL    HW219092   4.663   4.085  11.709  0.5585 -1.5522 -2.9569
 2486SOL     OW19093   2.603   0.530   2.470 -0.2684  0.4187 -0.4324
 2486SOL    HW119094   2.626   0.506   2.380  1.3343 -2.3927  0.7058
 2486SOL    HW219095   2.637   0.619   2.465 -0.4780  0.4050 -2.0239
 2487SOL     OW19096   3.791   1.907   4.765 -0.0287  0.4739  0.1319
 2487SOL    HW119097   3.817   1.829   4.715 -1.4490 -0.1913  0.4122
 2487SOL    HW219098   3.825   1.878   4.850  0.8773 -1.8443 -1.0252
 2488SOL     OW19099   2.117   0.723   5.971  0.2905 -0.3274 -0.2995
 2488SOL    HW119100   2.118   0.755   6.061  2.9507 -2.4787  0.4293
 2488SOL    HW219101   2.079   0.639   5.999  1.5433 -1.2551 -1.4307
 2489SOL     OW19102   2.668   4.082   2.590  0.0992  0.1443  0.2062
 2489SOL    HW119103   2.684   4.029   2.668  1.1316  0.8224  0.4490
 2489SOL    HW219104   2.674   4.024   2.514 -0.4585 -1.4102  1.3545
 2490SOL     OW19105   0.803   0.150   3.891  0.4326 -0.0565  0.1480
 2490SOL    HW119106   0.776   0.089   3.822  0.6123 -0.1327  0.1450
 2490SOL    HW219107   0.871   0.206   3.855 -2.1787  2.9646 -0.1100
 2491SOL     OW19108   1.227   1.276   5.363  0.4222  0.0140  0.5088
 2491SOL    HW119109   1.155   1.275   5.299  0.0051  0.2737  0.9724
 2491SOL    HW219110   1.189   1.233   5.439 -0.0079  0.0626  0.3231
 2492SOL     OW19111   2.402   2.220   6.556  0.0299 -0.1792 -0.6252
 2492SOL    HW119112   2.420   2.127   6.544 -1.7770 -0.4463 -1.2319
 2492SOL    HW219113   2.306   2.216   6.556 -0.0236  0.9972  1.5508
 2493SOL     OW19114   4.417   2.004  14.414  0.4410 -0.1311  0.0778
 2493SOL    HW119115   4.443   2.039  14.329  0.6605  0.5039  0.4050
 2493SOL    HW219116   4.360   2.073  14.447  0.3668  0.3635 -1.0860
 2494SOL     OW19117   3.448   4.023  12.026  0.1984  0.1426 -0.0383
 2494SOL    HW119118   3.386   4.090  11.998  0.8195  0.6085 -0.2766
 2494SOL    HW219119   3.500   4.013  11.947  1.5071 -0.5769  0.9146
 2495SOL     OW19120   4.179   0.992   3.820 -0.0681 -0.3152  1.0092
 2495SOL    HW119121   4.185   0.998   3.725  0.7768  1.0200  1.1318
 2495SOL    HW219122   4.136   1.075   3.840  1.2724  1.0110 -1.5524
 2496SOL     OW19123   1.721   3.107   5.578 -0.0706 -0.0268 -0.2477
 2496SOL    HW119124   1.761   3.033   5.624 -2.3670 -1.4520 -0.5535
 2496SOL    HW219125   1.630   3.097   5.604 -0.0750  0.9101  0.0916
 2497SOL     OW19126   1.455   0.315   2.197  0.0830 -0.0400  0.8464
 2497SOL    HW119127   1.428   0.261   2.271 -2.5096 -1.6529 -1.2730
 2497SOL    HW219128   1.445   0.258   2.121  0.4841  1.3951 -0.2858
 2498SOL     OW19129   4.395   0.344   8.525 -0.1989 -0.1441 -0.0425
 2498SOL    HW119130   4.376   0.420   8.470  1.7678  0.4499  0.1008
 2498SOL    HW219131   4.490   0.349   8.533 -0.3698  0.1686  1.8404
 2499SOL     OW19132   1.864   0.509  14.267 -0.0113  0.2671  0.4531
 2499SOL    HW119133   1.792   0.467  14.314  0.4670  0.8417  1.7112
 2499SOL    HW219134   1.884   0.444  14.200  0.3921  0.7618  0.0964
 2500SOL     OW19135   3.234   1.421   2.585  0.2932 -0.2273  0.5453
 2500SOL    HW119136   3.232   1.373   2.502 -2.5901 -1.9793  1.6636
 2500SOL    HW219137   3.165   1.475   2.547  2.1380 -1.1377 -4.1800
 2501SOL     OW19138   0.087   0.545   5.623  0.0648  0.1891 -0.1685
 2501SOL    HW119139   0.180   0.535   5.604  0.6281  3.3779  0.8781
 2501SOL    HW219140   0.049   0.462   5.595  0.3194  1.0295 -3.0517
 2502SOL     OW19141   2.776   0.828   6.182 -0.2364 -1.0051  0.1686
 2502SOL    HW119142   2.869   0.805   6.184 -0.1095 -0.4892  0.2281
 2502SOL    HW219143   2.785   0.908   6.130  2.1557 -0.5335  1.2968
 2503SOL     OW19144   2.173   1.980   1.022 -0.7540  0.1593 -0.1906
 2503SOL    HW119145   2.240   2.031   1.066 -1.1353  0.8177 -0.3714
 2503SOL    HW219146   2.111   1.956   1.090  0.3195 -1.8651  0.0648
 2504SOL     OW19147   1.862   0.159   8.720  0.7299 -0.5103 -0.4000
 2504SOL    HW119148   1.885   0.077   8.764 -1.1591  0.0089  1.5526
 2504SOL    HW219149   1.919   0.157   8.643  0.7947 -0.7697 -0.3459
 2505SOL     OW19150   2.193   0.494  14.804  0.1126  1.0427  0.0346
 2505SOL    HW119151   2.248   0.471  14.878 -1.1170  3.1051  1.6065
 2505SOL    HW219152   2.254   0.470  14.735 -0.0311 -0.3605  0.4031
 2506SOL     OW19153   2.315   4.674   5.535 -0.8678  0.0406  0.1157
 2506SOL    HW119154   2.318   4.694   5.629 -0.6760 -3.3634  0.8513
 2506SOL    HW219155   2.386   4.722   5.494 -0.9683 -0.3822 -0.5470
 2507SOL     OW19156   1.616   0.351   1.248  0.1396  0.1108  0.2943
 2507SOL    HW119157   1.689   0.398   1.288 -0.2321  0.3254  0.7219
 2507SOL    HW219158   1.565   0.306   1.315 -1.6222  0.3274 -0.8978
 2508SOL     OW19159   3.268   1.544   8.780  0.0975  0.6840 -0.0298
 2508SOL    HW119160   3.363   1.532   8.789  0.1532 -0.1098 -1.6323
 2508SOL    HW219161   3.245   1.540   8.873 -1.2162 -1.1011 -0.4313
 2509SOL     OW19162   1.225   0.103   8.316  0.4400 -0.0433 -0.0668
 2509SOL    HW119163   1.236   0.180   8.373  1.1505 -0.4481  0.3498
 2509SOL    HW219164   1.235   0.132   8.226 -1.4030 -0.9528 -0.5659
 2510SOL     OW19165   2.597   0.996  10.437 -0.1057  0.0840 -1.1296
 2510SOL    HW119166   2.554   0.941  10.371  0.0050 -0.7325 -0.5197
 2510SOL    HW219167   2.670   0.937  10.456  1.0693  1.5028 -1.3009
 2511SOL     OW19168   4.537   3.494  14.771  0.9088  0.1434 -0.6079
 2511SOL    HW119169   4.481   3.546  14.829  0.9405  1.4055 -1.7304
 2511SOL    HW219170   4.521   3.404  14.799  0.3594  0.6824  0.8399
 2512SOL     OW19171   1.181   1.197   4.305 -0.6430 -0.1661  0.0236
 2512SOL    HW119172   1.170   1.151   4.387 -2.7023  0.8701  0.3262
 2512SOL    HW219173   1.124   1.157   4.239  1.6604 -1.8599 -0.9509
 2513SOL     OW19174   0.281   2.289  17.573  1.1251 -0.3246 -0.6220
 2513SOL    HW119175   0.202   2.315  17.525  0.3100  0.0153  0.9323
 2513SOL    HW219176   0.287   2.364  17.632  0.5917 -1.4829  0.8853
 2514SOL     OW19177   4.126   0.074   7.602  0.4348  0.1199  0.0907
 2514SOL    HW119178   4.143   0.087   7.509 -0.2418 -1.1035 -0.2003
 2514SOL    HW219179   4.067   0.147   7.623 -0.6554 -1.5680  2.9585
 2515SOL     OW19180   1.272   4.605   2.391  0.2666  0.0997  0.5427
 2515SOL    HW119181   1.212   4.567   2.327 -0.5844 -0.3106  1.6018
 2515SOL    HW219182   1.212   4.593   2.464 -0.8657 -0.7597 -0.5431
 2516SOL     OW19183   0.609   2.186   4.702  0.2760 -0.3461 -0.0532
 2516SOL    HW119184   0.551   2.111   4.695 -1.4281  0.7668  2.3848
 2516SOL    HW219185   0.569   2.258   4.654 -3.6022 -1.4668  1.5334
 2517SOL     OW19186   3.223   2.852   7.876 -0.2394  0.1546  0.3234
 2517SOL    HW119187   3.276   2.789   7.924  0.1181 -1.0616 -1.6827
 2517SOL    HW219188   3.291   2.860   7.810  1.1125  0.6989  1.7794
 2518SOL     OW19189   2.039   2.550   2.229 -0.0781 -0.6638 -0.1182
 2518SOL    HW119190   2.020   2.494   2.305 -0.4674 -2.0193 -1.2157
 2518SOL    HW219191   2.024   2.483   2.163  1.8016 -0.7605 -0.4668
 2519SOL     OW19192   1.092   2.373   8.669 -0.1660 -0.2509  0.1574
 2519SOL    HW119193   1.026   2.311   8.699 -1.7812  1.3114 -0.2041
 2519SOL    HW219194   1.062   2.388   8.580  2.1969 -1.0566 -0.7878
 2520SOL     OW19195   4.286   1.857  15.547  0.3760  0.4896 -0.2820
 2520SOL    HW119196   4.235   1.777  15.543 -1.2072  1.5318 -0.8782
 2520SOL    HW219197   4.323   1.852  15.635 -2.0962 -1.8597  0.6061
 2521SOL     OW19198   1.956   2.596   4.979 -0.4225 -0.6968 -0.4184
 2521SOL    HW119199   1.978   2.561   4.893 -1.1514  0.8921 -1.2342
 2521SOL    HW219200   1.909   2.523   5.020  0.6678  0.1199  2.2709
 2522SOL     OW19201   0.467   3.178   5.468 -0.4164  0.0320  0.2491
 2522SOL    HW119202   0.557   3.162   5.496 -1.4465 -0.7124  3.2004
 2522SOL    HW219203   0.433   3.094   5.500 -1.6818 -0.4294 -2.2747
 2523SOL     OW19204   0.661   2.652   7.420  0.0062 -0.2777 -0.3327
 2523SOL    HW119205   0.618   2.568   7.434  0.2274 -0.4192 -0.4922
 2523SOL    HW219206   0.748   2.630   7.453  0.1781  0.4263 -0.3168
 2524SOL     OW19207   0.541   2.843   7.670  0.5936 -0.7709  0.7129
 2524SOL    HW119208   0.555   2.923   7.619 -1.1411 -2.2096 -2.0085
 2524SOL    HW219209   0.619   2.841   7.726  0.1560 -0.9013  1.3235
 2525SOL     OW19210   0.635   4.004   4.262 -0.3987 -1.0814  0.2739
 2525SOL    HW119211   0.679   3.932   4.308 -1.3475 -2.0282 -0.2875
 2525SOL    HW219212   0.611   4.069   4.328 -1.4590 -0.3741 -0.7867
 2526SOL     OW19213   2.265   0.425   0.868  0.1403  0.5109  0.0277
 2526SOL    HW119214   2.190   0.444   0.924 -1.2129 -0.4792 -1.4282
 2526SOL    HW219215   2.302   0.346   0.907 -0.2852  1.0069  1.4181
 2527SOL     OW19216   0.033   4.308   7.031  0.4997 -0.1885 -0.3444
 2527SOL    HW119217   0.097   4.324   7.100 -2.3642 -0.2955  2.3337
 2527SOL    HW219218   4.718   4.247   7.084 -0.0825  1.3881  0.8927
 2528SOL     OW19219   1.884   4.607   2.833 -0.2052 -0.1354  0.5480
 2528SOL    HW119220   1.877   4.518   2.797  1.5397 -0.9686  2.2501
 2528SOL    HW219221   1.795   4.640   2.819  0.7939  2.1099 -0.4798
 2529SOL     OW19222   2.623   2.988   1.303  0.0245  0.2257  0.3137
 2529SOL    HW119223   2.630   3.078   1.335  2.2261  0.2821 -0.3325
 2529SOL    HW219224   2.536   2.962   1.334  0.3701 -0.2303  0.8969
 2530SOL     OW19225   3.350   3.192   8.063  0.3480  0.0931  0.3056
 2530SOL    HW119226   3.382   3.129   7.998 -0.8595 -0.6007  0.3983
 2530SOL    HW219227   3.400   3.160   8.138 -0.5219  0.4970  1.0511
 2531SOL     OW19228   0.073   0.048  10.816  0.3251  0.0496  0.1712
 2531SOL    HW119229   0.110   0.114  10.876  1.1999  0.9353 -1.3621
 2531SOL    HW219230   4.719   0.043  10.847 -0.2562  2.0057 -1.2123
 2532SOL     OW19231   2.812   0.853  11.830 -0.0532  0.1293 -0.1820
 2532SOL    HW119232   2.777   0.921  11.887 -0.1906  0.4670 -0.6688
 2532SOL    HW219233   2.732   0.801  11.825  2.3823 -3.8095  1.2360
 2533SOL     OW19234   0.507   4.154  16.233 -0.2562 -0.2253 -0.2802
 2533SOL    HW119235   0.490   4.079  16.176  1.5693 -0.8050 -0.0813
 2533SOL    HW219236   0.425   4.202  16.229  0.1157  0.4570  0.2017
 2534SOL     OW19237   1.915   1.567   9.108  0.0655 -0.1461  0.3986
 2534SOL    HW119238   2.010   1.583   9.109 -0.0040  0.2514  0.6231
 2534SOL    HW219239   1.888   1.589   9.198 -2.8622  0.1431 -0.5662
 2535SOL     OW19240   3.726   1.715   5.281  0.0745 -0.1876 -0.4772
 2535SOL    HW119241   3.664   1.776   5.320  0.5055 -0.2881  0.3559
 2535SOL    HW219242   3.716   1.730   5.187  0.1623 -0.5255 -0.5403
 2536SOL     OW19243   1.831   2.878   5.717  0.1000 -0.0154  0.9306
 2536SOL    HW119244   1.902   2.909   5.773  1.8015 -0.2966 -1.0812
 2536SOL    HW219245   1.829   2.786   5.742  2.6586 -0.4297 -0.4246
 2537SOL     OW19246   1.152   3.099   6.639  0.8102  0.2630  0.0659
 2537SOL    HW119247   1.098   3.104   6.717  1.5037 -1.5668  0.6567
 2537SOL    HW219248   1.121   3.013   6.608  1.5395  0.0787 -0.1484
 2538SOL     OW19249   0.821   1.244   4.821 -0.1374  0.3122  0.0334
 2538SOL    HW119250   0.756   1.210   4.760  0.7519 -0.6556 -0.3727
 2538SOL    HW219251   0.780   1.329   4.839  0.2772  0.4910  0.1405
 2539SOL     OW19252   3.147   2.361   5.485  0.0921  0.1298 -0.1434
 2539SOL    HW119253   3.189   2.318   5.411 -2.1024 -1.1861 -0.6452
 2539SOL    HW219254   3.091   2.418   5.432 -0.5975 -0.0141  0.4341
 2540SOL     OW19255   4.658   0.249   2.029  0.0293  0.2852 -0.2500
 2540SOL    HW119256   4.696   0.161   2.039 -1.4467 -0.2348  0.9868
 2540SOL    HW219257   4.728   0.313   2.022  0.7495 -0.3127  1.5293
 2541SOL     OW19258   0.157   3.537   4.891 -0.0111  0.8996  0.9094
 2541SOL    HW119259   0.207   3.593   4.831 -0.3391 -0.2056 -0.3926
 2541SOL    HW219260   0.096   3.597   4.933 -1.4519  0.3106 -0.3314
 2542SOL     OW19261   1.238   4.268   7.478 -0.6154 -0.0027  0.0235
 2542SOL    HW119262   1.288   4.186   7.471  2.6886  2.0112  0.1211
 2542SOL    HW219263   1.305   4.332   7.501 -2.9570  2.3962  0.1470
 2543SOL     OW19264   1.632   0.683  13.703  0.8137 -0.4307  0.8307
 2543SOL    HW119265   1.676   0.692  13.788 -1.6254 -0.7771  2.1376
 2543SOL    HW219266   1.678   0.615  13.654  0.7294  0.4682 -0.5062
 2544SOL     OW19267   2.742   3.063   5.393  0.1434 -0.3946 -0.1913
 2544SOL    HW119268   2.722   3.144   5.347 -0.8305 -0.3017  0.3937
 2544SOL    HW219269   2.673   3.001   5.366 -0.7075  0.1894  0.6550
 2545SOL     OW19270   0.504   2.561   5.249  0.0730 -0.6573 -0.3804
 2545SOL    HW119271   0.504   2.656   5.245  1.1665 -0.5585  1.6122
 2545SOL    HW219272   0.570   2.550   5.180 -1.7167  0.0274 -2.1917
 2546SOL     OW19273   1.122   4.603  10.344  0.2733  0.6181  0.2362
 2546SOL    HW119274   1.038   4.647  10.343 -1.3101 -2.4441 -0.3817
 2546SOL    HW219275   1.100   4.514  10.317 -1.0067  0.4133  1.9831
 2547SOL     OW19276   2.256   3.978   7.651 -0.4664  0.4552  0.5014
 2547SOL    HW119277   2.163   3.959   7.637 -0.8181  3.2968 -1.0805
 2547SOL    HW219278   2.248   4.074   7.656 -3.3853  0.2416 -0.3410
 2548SOL     OW19279   1.249   3.325   6.495  0.0450  0.1700 -0.0224
 2548SOL    HW119280   1.223   3.238   6.526  3.3020 -1.2291 -1.2825
 2548SOL    HW219281   1.164   3.367   6.509 -0.0336  0.5717 -1.6332
 2549SOL     OW19282   0.821   2.174  16.802 -0.5531  0.9591 -0.2855
 2549SOL    HW119283   0.902   2.126  16.787 -2.7330 -1.8752 -3.0136
 2549SOL    HW219284   0.854   2.263  16.819 -1.8699  1.0898  1.5753
 2550SOL     OW19285   2.792   1.544   4.056  0.1329 -0.8241 -0.7925
 2550SOL    HW119286   2.846   1.511   4.128  4.5924  4.0201 -1.8923
 2550SOL    HW219287   2.705   1.515   4.081  0.3663  0.9387  2.1089
 2551SOL     OW19288   0.951   3.909   3.216  0.2352 -0.0311  0.4332
 2551SOL    HW119289   0.859   3.922   3.192  0.6361  1.4011 -0.3269
 2551SOL    HW219290   0.964   3.985   3.274 -1.2204  0.2665  0.3757
 2552SOL     OW19291   4.285   3.621  15.576 -0.0899  0.4936  0.6986
 2552SOL    HW119292   4.243   3.613  15.490 -2.1354  0.2430  1.7382
 2552SOL    HW219293   4.303   3.528  15.590 -3.0579 -0.2178 -0.1545
 2553SOL     OW19294   0.407   2.626  17.321  0.0015  0.2064 -0.1915
 2553SOL    HW119295   0.427   2.543  17.278  1.7147  0.9493 -0.8416
 2553SOL    HW219296   0.491   2.664  17.349  0.2677 -0.2986 -0.2974
 2554SOL     OW19297   3.856   4.566   6.370  0.3079  0.0467 -0.3908
 2554SOL    HW119298   3.924   4.622   6.331  0.7639 -0.8825 -0.9380
 2554SOL    HW219299   3.773   4.586   6.327  0.5531 -2.1911 -1.8771
 2555SOL     OW19300   4.025   0.893   5.792 -0.4365 -0.1432 -0.2717
 2555SOL    HW119301   4.119   0.891   5.776 -0.5658 -0.3531 -0.9759
 2555SOL    HW219302   4.002   0.968   5.738  0.6528 -1.1336 -2.1267
 2556SOL     OW19303   4.350   1.888   4.473  0.6183  0.1042 -0.2202
 2556SOL    HW119304   4.409   1.932   4.534 -0.7076 -0.8487  1.7389
 2556SOL    HW219305   4.279   1.878   4.537  0.3513  1.1056 -0.3640
 2557SOL     OW19306   3.958   3.115   8.665 -0.1015  0.2701 -0.1557
 2557SOL    HW119307   3.939   3.021   8.670 -0.5678  0.3787  0.0632
 2557SOL    HW219308   3.952   3.139   8.757 -0.6546 -2.6109  0.5524
 2558SOL     OW19309   2.845   0.334   5.165  0.3093 -0.0046 -0.2246
 2558SOL    HW119310   2.937   0.336   5.190  0.8478 -1.4693 -2.0545
 2558SOL    HW219311   2.853   0.390   5.088  0.1003 -1.2046 -1.1143
 2559SOL     OW19312   1.674   2.475   1.682 -0.0977 -0.2059 -0.0638
 2559SOL    HW119313   1.711   2.397   1.723 -1.0096 -1.0319 -0.8083
 2559SOL    HW219314   1.580   2.457   1.686 -0.1797  0.4439  0.8024
 2560SOL     OW19315   1.452   0.020   9.642  0.4155  0.0876  0.6088
 2560SOL    HW119316   1.449   4.688   9.709  3.0705  0.0670  0.7100
 2560SOL    HW219317   1.515   0.081   9.678 -0.0010  0.6263  0.4312
 2561SOL     OW19318   3.793   1.350   6.151 -0.1881 -1.0234 -0.3198
 2561SOL    HW119319   3.828   1.344   6.062  1.5431  0.7755  0.2513
 2561SOL    HW219320   3.867   1.303   6.189  1.0993  3.5169  2.7506
 2562SOL     OW19321   0.527   4.482   4.565 -0.3866 -0.1619  0.1824
 2562SOL    HW119322   0.518   4.446   4.653  1.6806 -0.4455  0.2923
 2562SOL    HW219323   0.622   4.498   4.563 -0.3196 -0.6572 -0.4696
 2563SOL     OW19324   4.188   3.375   7.880  0.2712  0.8525 -0.5718
 2563SOL    HW119325   4.133   3.404   7.952  2.1410 -0.0809  1.2148
 2563SOL    HW219326   4.275   3.395   7.913 -0.1996  1.0340  0.5615
 2564SOL     OW19327   1.154   4.662   5.412  0.8128 -0.0525  0.0681
 2564SOL    HW119328   1.212   4.735   5.433 -0.3548  0.7191  0.6721
 2564SOL    HW219329   1.184   4.650   5.322 -1.0729 -0.8143 -0.4745
 2565SOL     OW19330   0.825   1.356   5.769  0.0089 -0.6051 -0.1027
 2565SOL    HW119331   0.763   1.307   5.821 -1.5541  0.0958 -1.3057
 2565SOL    HW219332   0.833   1.294   5.696 -2.7042 -1.7032  0.5636
 2566SOL     OW19333   0.480   2.711  16.484 -0.1918  0.4988  0.0745
 2566SOL    HW119334   0.518   2.624  16.472 -1.2546  0.2488 -1.5075
 2566SOL    HW219335   0.393   2.694  16.447 -0.6764  1.0942  0.9499
 2567SOL     OW19336   2.231   3.861  11.715  0.0679 -0.4603 -0.4149
 2567SOL    HW119337   2.218   3.811  11.795  0.8840  1.5694  1.0079
 2567SOL    HW219338   2.281   3.930  11.759 -1.2091  0.3530 -0.2528
 2568SOL     OW19339   2.779   3.793  14.341  0.2241  0.5631  0.1292
 2568SOL    HW119340   2.727   3.730  14.291 -0.3761  0.8508  0.3962
 2568SOL    HW219341   2.750   3.776  14.430 -0.1553  0.2748 -0.0507
 2569SOL     OW19342   3.079   3.879   5.421 -0.5172 -0.0751  0.5096
 2569SOL    HW119343   2.998   3.832   5.443  0.0301 -1.6913 -0.8894
 2569SOL    HW219344   3.043   3.962   5.390  0.6048  0.0965 -0.3091
 2570SOL     OW19345   3.731   1.029   1.377  0.5801  0.3207  0.0016
 2570SOL    HW119346   3.711   0.941   1.408  1.2398  0.4979  0.9218
 2570SOL    HW219347   3.825   1.031   1.397  0.2868 -0.6473  1.4827
 2571SOL     OW19348   1.558   1.297  14.470 -0.7866 -0.2218  0.0035
 2571SOL    HW119349   1.568   1.330  14.380  0.2374  0.0439  0.2145
 2571SOL    HW219350   1.532   1.206  14.458 -0.0323 -0.8272  2.9956
 2572SOL     OW19351   3.345   2.605   7.679 -0.2824 -0.6826  0.3415
 2572SOL    HW119352   3.313   2.615   7.589 -0.1331  0.2253  0.3879
 2572SOL    HW219353   3.429   2.650   7.672 -0.7518  0.3838  1.6261
 2573SOL     OW19354   2.309   0.398  11.441  0.2713 -0.0137 -0.4641
 2573SOL    HW119355   2.265   0.362  11.518  0.0089 -0.1127 -0.6620
 2573SOL    HW219356   2.286   0.491  11.444  0.1008 -0.0487 -0.6886
 2574SOL     OW19357   3.920   1.315   3.093 -0.3860 -0.8927  0.0044
 2574SOL    HW119358   3.824   1.323   3.093 -0.2034  1.2896  0.3045
 2574SOL    HW219359   3.937   1.235   3.044 -1.5326 -1.9765  1.4044
 2575SOL     OW19360   1.022   1.558   2.546  0.2824  0.5114  0.2333
 2575SOL    HW119361   0.997   1.635   2.597  1.9945  1.3435 -0.1696
 2575SOL    HW219362   0.982   1.580   2.462 -0.5306 -1.5095  0.1098
 2576SOL     OW19363   2.655   3.945   1.906  0.7898  0.3903 -0.7172
 2576SOL    HW119364   2.726   3.917   1.849 -0.5670 -0.6067 -1.9277
 2576SOL    HW219365   2.622   3.861   1.939 -0.5571  0.7742 -1.0857
 2577SOL     OW19366   1.964   3.653   1.471 -0.0984  0.2563 -0.2447
 2577SOL    HW119367   1.984   3.572   1.424  0.9947  0.8328 -0.7860
 2577SOL    HW219368   1.900   3.689   1.410 -0.6518  0.5714  0.5288
 2578SOL     OW19369   0.823   0.874   9.822 -0.1204 -0.3218 -0.8840
 2578SOL    HW119370   0.763   0.949   9.819 -0.9812 -0.9906 -0.2684
 2578SOL    HW219371   0.836   0.876   9.917 -1.5903  1.4018 -0.7164
 2579SOL     OW19372   2.799   4.387   3.217  0.2091 -0.2547 -0.1648
 2579SOL    HW119373   2.744   4.386   3.139  1.2816 -0.0799 -0.9269
 2579SOL    HW219374   2.874   4.440   3.189  1.1272 -0.0999  2.4982
 2580SOL     OW19375   3.248   4.324   2.400 -0.5979 -0.1032 -0.1775
 2580SOL    HW119376   3.256   4.386   2.472 -0.8142 -3.4747  2.7891
 2580SOL    HW219377   3.331   4.276   2.409 -0.6421 -0.4310 -1.5512
 2581SOL     OW19378   4.487   2.505   2.765 -0.0673 -0.2285  0.3216
 2581SOL    HW119379   4.523   2.449   2.697 -1.5490  0.8820 -1.3851
 2581SOL    HW219380   4.465   2.442   2.834 -0.2702 -1.1990 -0.6385
 2582SOL     OW19381   0.045   4.578   4.305  0.0854 -0.7262 -0.2225
 2582SOL    HW119382   0.058   4.490   4.271 -2.0948 -0.8772 -0.6366
 2582SOL    HW219383   0.135   4.606   4.327 -0.7020  0.9110  0.9622
 2583SOL     OW19384   1.204   4.266   3.004  0.1952 -0.4190 -0.4759
 2583SOL    HW119385   1.291   4.298   2.982 -0.2180  0.8781 -0.2095
 2583SOL    HW219386   1.184   4.210   2.928 -2.9098  0.5123 -0.3627
 2584SOL     OW19387   0.214   2.704   3.761 -0.1780 -0.1039 -0.1857
 2584SOL    HW119388   0.275   2.653   3.708 -1.4186 -0.7411 -1.0050
 2584SOL    HW219389   0.262   2.779   3.797 -0.3450  0.6473 -1.5405
 2585SOL     OW19390   0.576   1.479   8.754  0.0793  0.5295 -0.1381
 2585SOL    HW119391   0.622   1.438   8.828 -0.6322  0.2043  0.1256
 2585SOL    HW219392   0.568   1.408   8.690  0.0850  0.9798 -0.6393
 2586SOL     OW19393   1.139   3.233   4.286 -0.6242  0.0759  0.0638
 2586SOL    HW119394   1.090   3.152   4.269  0.5278 -0.9974  1.7969
 2586SOL    HW219395   1.096   3.306   4.242 -1.5858  0.2683  1.3345
 2587SOL     OW19396   2.592   1.111  16.931 -0.0338 -0.0582  0.2402
 2587SOL    HW119397   2.563   1.171  16.862  0.7000 -0.7412 -0.6586
 2587SOL    HW219398   2.549   1.138  17.012  2.3090 -0.2881  1.5804
 2588SOL     OW19399   1.067   2.275  17.439 -0.4598 -0.6843 -0.5329
 2588SOL    HW119400   1.009   2.199  17.433 -1.1671 -0.3112  1.5898
 2588SOL    HW219401   1.122   2.261  17.362  0.5769 -1.1996  0.3023
 2589SOL     OW19402   3.931   3.238  17.581 -0.6127  0.5218  0.5875
 2589SOL    HW119403   3.999   3.203  17.523 -1.2882 -0.6557  0.4916
 2589SOL    HW219404   3.858   3.199  17.532 -0.6029 -1.2423  1.9693
 2590SOL     OW19405   3.339   0.599  10.111 -0.2725 -0.5125  0.5712
 2590SOL    HW119406   3.405   0.533  10.131  1.6038  1.7636  1.9193
 2590SOL    HW219407   3.391   0.660  10.058 -0.8133 -2.7136 -2.5364
 2591SOL     OW19408   2.798   0.105   6.083  0.0370  0.5089 -0.0024
 2591SOL    HW119409   2.771   0.175   6.142  0.4014  0.6081  0.0433
 2591SOL    HW219410   2.891   0.097   6.104  0.2796 -0.1422 -1.3108
 2592SOL     OW19411   0.946   0.213   2.874  0.0962 -0.5776 -0.8178
 2592SOL    HW119412   0.926   0.293   2.826 -0.9689 -0.4875 -0.2265
 2592SOL    HW219413   0.894   0.220   2.954  1.6121 -0.5095  0.1568
 2593SOL     OW19414   2.592   1.432   5.243 -0.5271  0.7920  0.0226
 2593SOL    HW119415   2.597   1.452   5.336 -2.5188 -1.1201  0.5449
 2593SOL    HW219416   2.661   1.365   5.239 -0.6742  0.6839 -0.8050
 2594SOL     OW19417   4.463   3.055   8.548  0.1724  0.6743 -0.5594
 2594SOL    HW119418   4.526   3.084   8.614 -0.3126 -1.1671  0.7380
 2594SOL    HW219419   4.425   3.139   8.523  1.6551  1.3464 -0.5147
 2595SOL     OW19420   3.380   0.730   3.143 -0.7935 -0.0936  0.4988
 2595SOL    HW119421   3.303   0.710   3.196 -0.3218  0.3459  1.3526
 2595SOL    HW219422   3.321   0.761   3.075  0.5745  2.2169  0.3717
 2596SOL     OW19423   3.944   1.828   5.813 -0.0432 -0.1155  0.0051
 2596SOL    HW119424   3.925   1.899   5.752 -0.5356 -1.0338 -0.9117
 2596SOL    HW219425   3.905   1.756   5.764 -0.7645  0.9734 -1.0027
 2597SOL     OW19426   0.357   2.063   8.446 -0.0103 -0.3487 -0.3537
 2597SOL    HW119427   0.437   2.105   8.478 -1.7037  2.1667  0.4531
 2597SOL    HW219428   0.309   2.053   8.527  1.5999  3.1681  1.0328
 2598SOL     OW19429   2.081   1.077   1.029 -0.7093  0.3345 -0.1351
 2598SOL    HW119430   2.115   1.013   0.967 -0.3878  0.5828 -0.2172
 2598SOL    HW219431   2.163   1.113   1.064 -0.1650 -0.9362 -0.1181
 2599SOL     OW19432   3.434   1.865   8.198  0.2607  0.2998 -0.2423
 2599SOL    HW119433   3.373   1.923   8.153 -0.6720 -0.7851 -0.3759
 2599SOL    HW219434   3.472   1.912   8.272 -0.6106  0.2113  0.2657
 2600SOL     OW19435   0.884   4.569  12.488 -0.0792 -0.0929 -0.5269
 2600SOL    HW119436   0.897   4.534  12.576 -0.5293 -2.3044 -1.3378
 2600SOL    HW219437   0.845   4.498  12.437 -0.1584 -1.1811  1.0504
 2601SOL     OW19438   1.084   0.427   2.635 -0.0672 -0.0529 -0.2762
 2601SOL    HW119439   1.076   0.376   2.554  3.9578 -0.3336 -0.4754
 2601SOL    HW219440   0.998   0.405   2.671 -0.3724  0.8993 -0.4364
 2602SOL     OW19441   0.665   0.619   8.179 -0.6462 -0.4564  0.6070
 2602SOL    HW119442   0.626   0.704   8.200 -2.3667 -1.3400  1.0179
 2602SOL    HW219443   0.586   0.570   8.155 -1.5247  1.3046 -0.0962
 2603SOL     OW19444   2.429   2.948  16.737 -0.0767 -0.2023 -0.3408
 2603SOL    HW119445   2.353   2.991  16.777  0.3452 -1.7687  2.1539
 2603SOL    HW219446   2.499   2.989  16.789 -0.0532  0.7170 -1.0968
 2604SOL     OW19447   0.029   0.960   6.836 -0.6068  0.1721  0.1396
 2604SOL    HW119448   4.732   0.994   6.919  0.9798 -1.2185  1.3692
 2604SOL    HW219449   0.091   1.024   6.802 -0.9399  1.1044  1.3031
 2605SOL     OW19450   1.306   0.395   8.628 -0.1127 -0.0345  0.5346
 2605SOL    HW119451   1.249   0.326   8.662 -1.0075 -0.1964 -1.2798
 2605SOL    HW219452   1.319   0.446   8.708  2.4530 -0.0452  0.1272
 2606SOL     OW19453   2.513   2.354   2.277  0.4697  0.1943  0.0574
 2606SOL    HW119454   2.501   2.433   2.224  2.3740  1.5207  1.6331
 2606SOL    HW219455   2.590   2.321   2.231  0.6850  1.7935 -0.7296
 2607SOL     OW19456   0.535   2.314  14.037  0.5378 -0.7315  0.3669
 2607SOL    HW119457   0.494   2.384  14.088 -1.3750 -1.3596 -0.3104
 2607SOL    HW219458   0.625   2.311  14.070  0.5738 -0.6815  0.2730
 2608SOL     OW19459   4.035   2.430   3.675 -0.1796 -0.4851  0.3002
 2608SOL    HW119460   4.013   2.477   3.594  1.3861 -1.6905 -0.8415
 2608SOL    HW219461   4.121   2.466   3.700  0.2173 -1.9911  1.0801
 2609SOL     OW19462   3.026   0.922   2.733  0.6941 -0.5529 -0.3906
 2609SOL    HW119463   2.947   0.947   2.686  0.9495 -0.7523 -0.9335
 2609SOL    HW219464   3.052   0.830   2.726  1.5510 -0.2945 -0.6926
 2610SOL     OW19465   4.179   0.773   7.365 -0.1981  0.0233 -0.3793
 2610SOL    HW119466   4.244   0.737   7.425  1.4795  1.7748 -1.1388
 2610SOL    HW219467   4.241   0.830   7.321  0.1292  1.1340  1.5460
 2611SOL     OW19468   1.300   3.717   1.172 -0.2145  0.7279 -0.5775
 2611SOL    HW119469   1.206   3.708   1.188 -0.2603  0.9672 -0.6969
 2611SOL    HW219470   1.299   3.806   1.137 -1.7053  0.6822 -0.6567
 2612SOL     OW19471   1.840   1.534   9.573  0.0269  0.2279  0.5571
 2612SOL    HW119472   1.934   1.516   9.583  0.2100  1.9584  2.0113
 2612SOL    HW219473   1.837   1.569   9.484  2.1756 -2.9692 -0.7503
 2613SOL     OW19474   2.150   0.931   5.052 -0.3860 -0.0918 -0.6330
 2613SOL    HW119475   2.121   0.987   5.124  0.8170 -1.5790  1.0297
 2613SOL    HW219476   2.172   0.989   4.980  1.1339  0.2687  0.1309
 2614SOL     OW19477   2.460   2.643   6.425 -0.2936  0.3216  0.5840
 2614SOL    HW119478   2.552   2.657   6.446 -0.5853  0.8494  1.5251
 2614SOL    HW219479   2.428   2.733   6.430  2.2643  1.2333  0.3353
 2615SOL     OW19480   0.234   0.192   6.885 -0.0669  0.0442 -0.3888
 2615SOL    HW119481   0.189   0.191   6.969 -1.1577 -0.0235 -0.9751
 2615SOL    HW219482   0.189   0.253   6.827  0.8834 -0.2447 -1.4414
 2616SOL     OW19483   2.585   0.034   8.944  0.0615 -0.8869  0.6023
 2616SOL    HW119484   2.660   0.090   8.926  0.3763 -0.8336  2.1224
 2616SOL    HW219485   2.617   4.682   8.958  3.5635  0.2317 -0.2509
 2617SOL     OW19486   3.829   4.012   7.891 -0.3358  0.6002  0.9335
 2617SOL    HW119487   3.756   3.966   7.849 -0.5613  0.6446  1.2821
 2617SOL    HW219488   3.808   4.097   7.851  2.6737  1.0957  0.3874
 2618SOL     OW19489   1.934   3.476  16.395 -0.3599  0.3991 -0.1378
 2618SOL    HW119490   1.844   3.467  16.429 -0.4181  0.8025 -0.1790
 2618SOL    HW219491   1.928   3.546  16.330 -0.0171  2.6429  2.2167
 2619SOL     OW19492   4.557   4.530   4.989  0.1449  0.0863  0.2133
 2619SOL    HW119493   4.643   4.488   4.998  0.4865  0.4542 -1.3211
 2619SOL    HW219494   4.515   4.484   4.916  2.8188 -0.3012 -1.0925
 2620SOL     OW19495   1.721   3.767  16.820  0.3021  0.1648  0.3662
 2620SOL    HW119496   1.757   3.803  16.901  2.3857 -1.0687 -0.0248
 2620SOL    HW219497   1.805   3.758  16.776  0.7618 -1.8299  1.6757
 2621SOL     OW19498   3.688   1.824   3.475  0.1740 -0.4522 -0.2466
 2621SOL    HW119499   3.700   1.911   3.514  0.5799 -1.1610  1.2426
 2621SOL    HW219500   3.617   1.837   3.412 -0.5629  1.9174  1.0663
 2622SOL     OW19501   1.061   2.067   3.186  0.8032 -0.0919 -0.0720
 2622SOL    HW119502   1.112   2.080   3.266 -0.1241  0.1890  0.4755
 2622SOL    HW219503   0.986   2.014   3.210  1.9671 -1.5871  0.2253
 2623SOL     OW19504   4.146   3.451   8.148 -0.5546  0.4881 -0.1711
 2623SOL    HW119505   4.085   3.425   8.217  0.1502  1.4571  0.8323
 2623SOL    HW219506   4.212   3.383   8.160 -0.1576  1.0154  0.6784
 2624SOL     OW19507   4.410   1.768  12.326 -0.3422 -0.2127 -0.2940
 2624SOL    HW119508   4.375   1.847  12.367  2.3274  0.5304  0.5227
 2624SOL    HW219509   4.332   1.719  12.301 -1.4391  1.6221 -0.5150
 2625SOL     OW19510   2.099   0.986   4.453  0.5173  0.1574  0.2093
 2625SOL    HW119511   2.163   0.933   4.500  0.5716 -0.2950 -0.3705
 2625SOL    HW219512   2.153   1.062   4.431 -1.1024  0.7253 -1.8582
 2626SOL     OW19513   1.749   1.382   1.995  0.0782  0.0298  0.1215
 2626SOL    HW119514   1.708   1.467   2.012 -0.0480  0.0110 -0.0907
 2626SOL    HW219515   1.737   1.348   2.084 -3.7266 -1.5010 -0.9821
 2627SOL     OW19516   2.662   3.623   6.526 -0.0938 -0.0244  0.4087
 2627SOL    HW119517   2.730   3.686   6.551  0.8233 -0.0966 -1.8662
 2627SOL    HW219518   2.649   3.651   6.435 -0.0599 -1.1978  0.0389
 2628SOL     OW19519   1.192   3.785   6.285  0.3761  0.0606 -0.2804
 2628SOL    HW119520   1.249   3.733   6.342 -1.1601  0.3409  1.5129
 2628SOL    HW219521   1.110   3.739   6.271 -0.3837  0.5716  2.5680
 2629SOL     OW19522   2.469   3.072   5.842  0.4145 -0.6906  0.0155
 2629SOL    HW119523   2.506   3.005   5.785  1.0680 -0.0491 -0.3230
 2629SOL    HW219524   2.385   3.083   5.797  0.6707  2.5013  0.3479
 2630SOL     OW19525   1.041   4.594   9.936 -0.3319  0.0277 -1.0031
 2630SOL    HW119526   0.958   4.573   9.978 -0.1562  0.1762 -0.5811
 2630SOL    HW219527   1.106   4.561   9.998 -0.2607 -0.3002 -1.2466
 2631SOL     OW19528   0.936   0.980   9.145  0.2563  0.2588  0.5281
 2631SOL    HW119529   0.924   1.017   9.057 -4.5759 -1.6122  0.3945
 2631SOL    HW219530   0.853   0.933   9.156 -0.2042  1.2001  1.0365
 2632SOL     OW19531   3.094   0.562   6.742 -0.3142  0.1367 -0.1053
 2632SOL    HW119532   3.143   0.519   6.673 -1.8585 -0.9278 -0.5241
 2632SOL    HW219533   3.085   0.491   6.805  1.1413 -0.3668 -0.4608
 2633SOL     OW19534   0.134   3.119   8.903  0.1914  0.4825  0.5561
 2633SOL    HW119535   0.094   3.197   8.941  1.7694  0.4246  2.2848
 2633SOL    HW219536   0.171   3.151   8.821 -1.1825  2.1036  0.5808
 2634SOL     OW19537   4.088   3.185  15.597 -0.0646  0.4478  0.0339
 2634SOL    HW119538   4.169   3.236  15.594  0.4652 -0.4278 -0.9891
 2634SOL    HW219539   4.023   3.250  15.570  0.9274  1.2453 -0.4423
 2635SOL     OW19540   3.124   4.462  10.003 -0.3574  0.1863  0.3808
 2635SOL    HW119541   3.041   4.479  10.046  0.9813 -0.4557  3.1944
 2635SOL    HW219542   3.186   4.466  10.076 -2.0566 -0.9941  1.8797
 2636SOL     OW19543   1.581   4.536   1.623 -0.1253  0.2764  0.6036
 2636SOL    HW119544   1.605   4.594   1.551 -1.2274 -0.2853 -0.1959
 2636SOL    HW219545   1.512   4.486   1.582  0.1290 -0.6663  1.3183
 2637SOL     OW19546   3.330   2.208   3.858  0.0668  0.7014 -0.0730
 2637SOL    HW119547   3.387   2.279   3.887 -1.7658  2.3922 -0.6325
 2637SOL    HW219548   3.245   2.250   3.852 -1.8801 -3.0367  1.5132
 2638SOL     OW19549   3.999   3.193   4.782 -0.0098  0.3351 -0.4972
 2638SOL    HW119550   3.926   3.253   4.789 -1.5142 -1.8076  2.2506
 2638SOL    HW219551   4.080   3.244   4.778  0.5297 -0.5069 -0.3935
 2639SOL     OW19552   0.598   0.776   7.201 -0.5846 -0.3006  0.4485
 2639SOL    HW119553   0.692   0.785   7.189 -0.7762  0.6341 -0.3277
 2639SOL    HW219554   0.599   0.730   7.286 -3.1606 -2.2396 -0.5634
 2640SOL     OW19555   2.354   2.252   8.116  0.3686  0.2843 -0.2024
 2640SOL    HW119556   2.280   2.311   8.130  2.9071  3.6260 -0.7611
 2640SOL    HW219557   2.397   2.265   8.200 -0.1995  0.8536  0.0006
 2641SOL     OW19558   3.977   1.601  14.835  0.1135  0.3535 -0.6712
 2641SOL    HW119559   4.004   1.624  14.746  1.4314 -0.5872 -0.5133
 2641SOL    HW219560   4.006   1.675  14.888 -1.2843  0.9596 -0.7657
 2642SOL     OW19561   2.502   3.625   0.305  0.7140 -0.0330  0.2475
 2642SOL    HW119562   2.547   3.706   0.328  2.6433 -0.9139 -0.4323
 2642SOL    HW219563   2.567   3.563   0.273  0.7563  0.4086 -0.5224
 2643SOL     OW19564   4.601   0.772  11.502 -0.2039 -0.2902 -0.2029
 2643SOL    HW119565   4.676   0.764  11.561 -0.6548  0.5952  0.5005
 2643SOL    HW219566   4.616   0.849  11.447  0.3394 -0.6528 -0.5540
 2644SOL     OW19567   3.378   2.519   5.124 -0.1949  0.1644  0.4403
 2644SOL    HW119568   3.371   2.479   5.037  0.0911 -0.2157  0.5938
 2644SOL    HW219569   3.364   2.444   5.182  2.2393  1.1677  2.3485
 2645SOL     OW19570   4.470   3.273  13.684  0.6922  0.2094  0.7082
 2645SOL    HW119571   4.564   3.291  13.693  0.9658  0.2546 -2.1773
 2645SOL    HW219572   4.468   3.178  13.691  1.4339  0.0812 -0.7922
 2646SOL     OW19573   2.040   0.883   5.603  0.1039 -0.2144 -0.0961
 2646SOL    HW119574   2.016   0.916   5.689 -2.5544 -1.2869 -0.4212
 2646SOL    HW219575   2.102   0.948   5.569  2.4626 -2.6243 -0.3777
 2647SOL     OW19576   0.018   0.850  16.655 -0.3466  0.1254  0.0131
 2647SOL    HW119577   0.085   0.908  16.618  0.0924 -0.3568  0.0446
 2647SOL    HW219578   0.073   0.775  16.680  0.4337  0.1501 -1.6408
 2648SOL     OW19579   4.194   3.413   4.421 -0.1459 -0.0721  0.0185
 2648SOL    HW119580   4.116   3.461   4.446 -0.6177 -0.0488 -1.5256
 2648SOL    HW219581   4.231   3.372   4.499  0.8174  0.4007 -0.1807
 2649SOL     OW19582   4.673   0.496  12.942 -0.4357  0.4078 -0.0022
 2649SOL    HW119583   4.610   0.462  13.005  0.7554 -1.4821  0.1831
 2649SOL    HW219584   4.611   0.505  12.869 -1.7046  2.9066  1.4010
 2650SOL     OW19585   3.433   0.352   2.411 -0.0950  0.6628 -0.0949
 2650SOL    HW119586   3.389   0.386   2.333 -1.4996 -0.9998 -0.0380
 2650SOL    HW219587   3.387   0.269   2.425 -1.1190  1.6101  2.2723
 2651SOL     OW19588   0.507   0.720   3.150 -0.5111  0.2757  0.2837
 2651SOL    HW119589   0.510   0.723   3.245  1.0161 -1.0315  0.2891
 2651SOL    HW219590   0.424   0.766   3.136 -1.6677 -1.7812  0.3899
 2652SOL     OW19591   0.568   0.469   6.702  0.3607 -0.0723 -0.2722
 2652SOL    HW119592   0.619   0.406   6.650  3.3639  2.6477 -0.6178
 2652SOL    HW219593   0.633   0.504   6.763 -0.5016 -0.3487  0.8251
 2653SOL     OW19594   2.028   1.998   6.936 -0.7299  0.7233 -0.1330
 2653SOL    HW119595   1.954   1.942   6.916 -0.0449 -0.7390  1.4111
 2653SOL    HW219596   2.077   1.939   6.994 -0.3558 -0.0749 -1.2670
 2654SOL     OW19597   2.223   0.224   5.215  0.3149 -0.2197  0.9153
 2654SOL    HW119598   2.197   0.301   5.264  0.6891 -0.5632  1.6476
 2654SOL    HW219599   2.306   0.207   5.259  0.0381  2.7422  2.5820
 2655SOL     OW19600   2.474   4.461   5.465  0.0692  0.0477 -0.1104
 2655SOL    HW119601   2.402   4.523   5.470 -0.1695 -0.0830 -1.8549
 2655SOL    HW219602   2.431   4.382   5.499 -0.2804  0.1921 -0.2218
 2656SOL     OW19603   1.349   2.448   5.702  0.4487  0.3956  0.1550
 2656SOL    HW119604   1.307   2.531   5.728  0.9058  1.0494 -1.1832
 2656SOL    HW219605   1.279   2.402   5.657 -1.4577 -0.1107  3.6016
 2657SOL     OW19606   0.494   3.295   8.958  0.5343 -0.3568 -0.1194
 2657SOL    HW119607   0.471   3.294   9.051 -0.7371  0.5395 -0.4168
 2657SOL    HW219608   0.486   3.390   8.951 -0.0811 -0.6380 -3.3185
 2658SOL     OW19609   2.269   2.210   8.606 -0.1942 -0.1061 -0.2484
 2658SOL    HW119610   2.222   2.280   8.651  0.4789  0.7010 -0.8092
 2658SOL    HW219611   2.208   2.142   8.635  0.1839 -0.2940  0.1144
 2659SOL     OW19612   0.585   1.627   6.157 -0.3071 -0.0572 -0.0689
 2659SOL    HW119613   0.514   1.691   6.148  1.3702  1.5110 -2.0385
 2659SOL    HW219614   0.602   1.607   6.065  0.2956  0.8711 -0.1520
 2660SOL     OW19615   2.749   4.280  15.046  0.0954 -0.3438 -0.8278
 2660SOL    HW119616   2.806   4.336  14.993  1.7939  0.1848  1.5307
 2660SOL    HW219617   2.672   4.337  15.053  0.6841  0.2256  1.2479
 2661SOL     OW19618   0.078   2.287   6.535 -0.4544 -0.5802  0.1230
 2661SOL    HW119619   0.136   2.307   6.462  0.1985 -0.4134  0.6981
 2661SOL    HW219620   0.034   2.372   6.544  0.8895 -0.1612  2.7401
 2662SOL     OW19621   2.039   2.966   5.898 -0.0442  0.3448 -0.1087
 2662SOL    HW119622   2.112   2.904   5.909 -1.3831 -0.9568  1.5632
 2662SOL    HW219623   2.075   3.032   5.956 -2.3374  0.9776  0.5975
 2663SOL     OW19624   3.444   3.931   2.637  0.3702 -0.1447  0.1823
 2663SOL    HW119625   3.530   3.948   2.599 -0.0626 -1.7901 -1.5584
 2663SOL    HW219626   3.413   4.015   2.671 -1.8998 -0.5869 -0.7987
 2664SOL     OW19627   0.341   1.160   9.135 -0.2949 -0.0876 -0.2939
 2664SOL    HW119628   0.318   1.068   9.141  2.3816 -0.7062  0.6966
 2664SOL    HW219629   0.328   1.173   9.041  0.2586  0.4465 -0.2974
 2665SOL     OW19630   1.435   2.739  14.762 -0.5877  0.1533 -0.3664
 2665SOL    HW119631   1.376   2.802  14.721  0.3145  1.8414  0.8944
 2665SOL    HW219632   1.373   2.668  14.746  0.9521 -1.0301 -1.0929
 2666SOL     OW19633   0.032   2.018   6.475 -0.2395  0.3727 -0.1404
 2666SOL    HW119634   0.060   2.109   6.478  1.9833 -0.3812  2.2652
 2666SOL    HW219635   0.119   1.981   6.462 -0.2312 -0.1369  1.3546
 2667SOL     OW19636   3.166   3.382   3.127 -0.1659  0.4356 -0.1027
 2667SOL    HW119637   3.199   3.344   3.045  1.5389 -1.1335  1.2903
 2667SOL    HW219638   3.204   3.333   3.200 -1.4328  1.2900  1.1100
 2668SOL     OW19639   0.250   2.473  14.087  0.0106  0.5490 -0.0518
 2668SOL    HW119640   0.309   2.488  14.160  1.2551  1.5606 -1.2751
 2668SOL    HW219641   0.253   2.558  14.043  0.5162  1.0412  0.9390
 2669SOL     OW19642   1.851   3.648   4.111 -0.0012 -0.2862 -0.1957
 2669SOL    HW119643   1.896   3.715   4.163 -1.2106 -0.0616  0.5795
 2669SOL    HW219644   1.897   3.650   4.028  0.8311 -1.0685  0.2522
 2670SOL     OW19645   2.079   1.417   7.252 -0.1010 -0.7320 -0.5954
 2670SOL    HW119646   2.101   1.326   7.272  0.0689 -0.5980 -0.1667
 2670SOL    HW219647   2.164   1.460   7.258 -0.1548 -0.9360  1.6282
 2671SOL     OW19648   2.187   0.117   0.647  0.1740  0.4353  0.2040
 2671SOL    HW119649   2.256   0.156   0.594 -1.8907  1.4218 -1.7661
 2671SOL    HW219650   2.247   0.065   0.701  0.5796 -0.8629 -1.4680
 2672SOL     OW19651   1.375   0.410  13.155  0.1887 -0.0996  0.3188
 2672SOL    HW119652   1.320   0.485  13.177 -0.7618 -0.9297  0.7586
 2672SOL    HW219653   1.323   0.330  13.164  1.9485 -1.3578 -0.4947
 2673SOL     OW19654   3.092   2.912   3.956  0.0531  0.2614  0.7518
 2673SOL    HW119655   3.147   2.936   4.031  1.8648 -1.6937  0.0320
 2673SOL    HW219656   3.116   2.986   3.900 -0.1838  0.9716  1.5916
 2674SOL     OW19657   1.263   3.702  15.484 -0.1807 -0.2728  0.0757
 2674SOL    HW119658   1.336   3.646  15.458  0.3678  0.0455  0.9122
 2674SOL    HW219659   1.236   3.663  15.567 -0.6516 -0.0721  0.0162
 2675SOL     OW19660   1.662   2.177   1.782  0.1562 -0.4578  0.6029
 2675SOL    HW119661   1.584   2.153   1.732  2.5704 -0.0953 -3.2809
 2675SOL    HW219662   1.679   2.092   1.822 -0.8362 -1.0890 -0.3121
 2676SOL     OW19663   1.945   3.958   7.691  0.2167 -0.9681 -0.6719
 2676SOL    HW119664   1.868   4.011   7.667  1.4944  0.5918 -1.3534
 2676SOL    HW219665   1.969   3.996   7.776 -0.2386 -1.6990 -0.2210
 2677SOL     OW19666   3.379   0.933  15.783  0.4336 -0.5458  0.1891
 2677SOL    HW119667   3.367   1.010  15.727 -0.9373  1.6274  3.4768
 2677SOL    HW219668   3.350   0.962  15.870  1.1040 -1.7694  0.8279
 2678SOL     OW19669   1.551   2.701   7.087 -0.2957  0.1794  0.2002
 2678SOL    HW119670   1.535   2.778   7.033 -3.2516  0.5222  1.5440
 2678SOL    HW219671   1.527   2.628   7.031  1.5709 -0.6897  0.5560
 2679SOL     OW19672   3.865   1.692   2.025  0.4437  0.1123  0.0091
 2679SOL    HW119673   3.832   1.746   1.953  1.0105  0.6830  0.1755
 2679SOL    HW219674   3.866   1.605   1.986 -0.6377  0.5620 -1.0261
 2680SOL     OW19675   2.275   1.185   3.359 -0.0145 -0.1466  0.3195
 2680SOL    HW119676   2.343   1.159   3.422  2.4137 -1.9355 -3.0465
 2680SOL    HW219677   2.294   1.278   3.346 -1.0142  0.2996  1.9630
 2681SOL     OW19678   4.203   0.097  13.298 -0.2857  0.5937  0.2150
 2681SOL    HW119679   4.110   0.078  13.310  0.6411 -2.8656  1.8623
 2681SOL    HW219680   4.226   0.056  13.215 -1.0465  1.6245 -0.5141
 2682SOL     OW19681   3.342   4.457   8.889  0.6470  0.3768 -0.1441
 2682SOL    HW119682   3.340   4.526   8.823  3.6472 -0.7532 -1.4343
 2682SOL    HW219683   3.267   4.398   8.878 -1.1609  2.2799  2.1139
 2683SOL     OW19684   4.102   0.906  13.468 -0.0072  0.0609  0.0055
 2683SOL    HW119685   4.068   0.984  13.425 -0.6120 -1.3079 -2.0553
 2683SOL    HW219686   4.022   0.858  13.490 -0.4301  1.2438  0.9746
 2684SOL     OW19687   3.480   0.514  13.425  0.0452 -0.0481  0.0897
 2684SOL    HW119688   3.461   0.421  13.439  1.5595 -0.2057  1.1334
 2684SOL    HW219689   3.565   0.496  13.384 -0.4273 -0.5393 -0.6863
 2685SOL     OW19690   2.360   1.584   5.337  0.4494  0.0172  0.1555
 2685SOL    HW119691   2.418   1.518   5.298  0.3148  1.4384 -2.4448
 2685SOL    HW219692   2.286   1.534   5.370 -0.8680 -0.4596 -3.5798
 2686SOL     OW19693   3.959   0.858   1.749 -0.4918 -0.0607 -0.1336
 2686SOL    HW119694   3.866   0.834   1.752 -0.5834  0.0785 -2.2235
 2686SOL    HW219695   3.955   0.953   1.746  0.3646 -0.0024  0.5938
 2687SOL     OW19696   0.162   3.361  13.926  0.1684  0.6076 -0.1225
 2687SOL    HW119697   0.121   3.280  13.896 -0.6158  0.9938 -0.0964
 2687SOL    HW219698   0.196   3.390  13.841 -1.5518  0.5563 -0.8177
 2688SOL     OW19699   4.422   1.509   5.774  0.2657 -0.3612  0.0868
 2688SOL    HW119700   4.493   1.474   5.827 -0.6002 -2.0252  0.1553
 2688SOL    HW219701   4.348   1.519   5.834 -1.0347 -0.3741 -1.5066
 2689SOL     OW19702   0.203   3.041   1.557 -0.3882 -0.4501 -0.1855
 2689SOL    HW119703   0.146   3.076   1.625 -0.5878 -1.3221  0.0957
 2689SOL    HW219704   0.250   3.118   1.524 -0.5258 -0.9233 -1.4954
 2690SOL     OW19705   1.985   0.212   7.583  0.4937 -0.5583 -0.2813
 2690SOL    HW119706   1.971   0.118   7.600 -0.4217 -0.4842 -0.6196
 2690SOL    HW219707   2.076   0.221   7.611  1.3303 -1.4430 -2.7104
 2691SOL     OW19708   2.999   2.255  11.465 -0.7768 -0.1211 -0.5453
 2691SOL    HW119709   2.908   2.276  11.446 -1.0597 -1.5171 -0.6963
 2691SOL    HW219710   3.001   2.160  11.477  1.8535  0.3457  2.8211
 2692SOL     OW19711   2.838   1.706   8.600 -0.4096 -0.2179 -0.3316
 2692SOL    HW119712   2.921   1.688   8.644 -1.3478 -0.9195  1.1447
 2692SOL    HW219713   2.843   1.800   8.584  1.3534 -0.3301 -0.4111
 2693SOL     OW19714   2.723   0.450   5.853  0.1013 -0.1940 -0.1853
 2693SOL    HW119715   2.714   0.535   5.810  1.4560  0.0916  0.0793
 2693SOL    HW219716   2.634   0.416   5.864 -0.0296  0.0532 -0.5057
 2694SOL     OW19717   4.110   0.515   9.534 -0.4528 -0.4417 -0.2621
 2694SOL    HW119718   4.152   0.521   9.449 -0.4461  2.5063 -0.0435
 2694SOL    HW219719   4.184   0.511   9.595 -1.1591 -0.0806  0.6120
 2695SOL     OW19720   0.912   2.971  13.094 -0.2272  0.3677 -0.0252
 2695SOL    HW119721   0.855   3.039  13.057  1.2819  0.8345 -1.4435
 2695SOL    HW219722   0.874   2.971  13.182  1.1768  1.3015  0.5716
 2696SOL     OW19723   2.911   4.227  17.219 -1.0385 -0.2694  0.0858
 2696SOL    HW119724   3.006   4.217  17.206 -0.4760  3.4227  1.1644
 2696SOL    HW219725   2.903   4.171  17.295 -1.0542 -0.0709  0.2313
 2697SOL     OW19726   0.669   0.106   6.876 -0.3287  0.1252  0.2270
 2697SOL    HW119727   0.763   0.095   6.894 -0.9007  0.2059  3.2205
 2697SOL    HW219728   0.654   0.136   6.786 -1.3476 -2.4364 -0.4545
 2698SOL     OW19729   1.098   0.297  17.133  0.2977 -0.0010  0.7009
 2698SOL    HW119730   1.019   0.306  17.080 -0.4461 -3.9290  1.1255
 2698SOL    HW219731   1.069   0.342  17.212 -0.9846  1.1773 -0.4516
 2699SOL     OW19732   1.065   0.154   3.262 -0.2408  0.1147  1.0181
 2699SOL    HW119733   1.146   0.177   3.307  1.1446  0.0098 -1.4340
 2699SOL    HW219734   1.007   0.228   3.282  3.5174  1.8917  5.4294
 2700SOL     OW19735   2.978   0.656   5.198  0.7847 -0.2371 -0.5988
 2700SOL    HW119736   2.938   0.681   5.281 -0.7772 -0.3707 -1.3144
 2700SOL    HW219737   3.042   0.728   5.189  1.5822 -0.6989  1.4750
 2701SOL     OW19738   0.857   2.492   5.646 -0.1862 -0.3814 -0.4035
 2701SOL    HW119739   0.784   2.480   5.585 -0.5244  2.4294 -0.5797
 2701SOL    HW219740   0.818   2.461   5.727  1.6998 -0.2060  0.5638
 2702SOL     OW19741   3.794   3.594   6.821 -0.2229 -0.8382 -0.3303
 2702SOL    HW119742   3.835   3.672   6.861 -1.0573 -0.1609 -0.7982
 2702SOL    HW219743   3.705   3.628   6.814  0.7727  1.8305 -0.0733
 2703SOL     OW19744   0.151   3.933   5.761 -0.1745 -0.5237  0.3262
 2703SOL    HW119745   0.074   3.900   5.806  0.7210 -1.2220  1.3548
 2703SOL    HW219746   0.223   3.874   5.786 -0.6135 -0.2348  2.2725
 2704SOL     OW19747   4.684   4.517   6.888  0.0992 -0.0710  0.2630
 2704SOL    HW119748   4.700   4.440   6.942 -2.7124  0.1963  1.4730
 2704SOL    HW219749   0.030   4.555   6.916  1.2422 -2.7304  0.5561
 2705SOL     OW19750   1.153   3.371   6.217  0.1981 -0.0473  0.2519
 2705SOL    HW119751   1.208   3.437   6.176 -1.7711  1.8243  0.5991
 2705SOL    HW219752   1.193   3.377   6.304  1.3323 -1.0310 -0.1938
 2706SOL     OW19753   2.561   2.243   9.210  0.2526 -0.3344  0.0344
 2706SOL    HW119754   2.495   2.310   9.191  0.9752 -0.0231 -1.3691
 2706SOL    HW219755   2.526   2.220   9.297 -0.5987  0.4804 -0.0922
 2707SOL     OW19756   2.553   0.747  11.763  0.3743  0.4817 -0.2867
 2707SOL    HW119757   2.558   0.759  11.668  2.0758  1.1187 -0.1178
 2707SOL    HW219758   2.477   0.803  11.780  0.0951 -0.6881  2.2777
 2708SOL     OW19759   1.672   1.141  13.638 -0.1741 -0.3610 -0.8239
 2708SOL    HW119760   1.665   1.236  13.637  1.6897 -0.1996  0.8716
 2708SOL    HW219761   1.738   1.123  13.706  0.9118  1.1021 -1.4967
 2709SOL     OW19762   1.191   2.238   4.341  0.3962 -0.8357 -0.5312
 2709SOL    HW119763   1.247   2.201   4.272 -0.3742  0.5096 -1.8654
 2709SOL    HW219764   1.176   2.165   4.402  0.3676 -1.0018 -0.7346
 2710SOL     OW19765   4.039   3.784  17.274 -0.0631  0.7587 -0.4194
 2710SOL    HW119766   3.978   3.851  17.304 -1.7915 -0.3184 -1.5583
 2710SOL    HW219767   4.101   3.832  17.219 -1.4860 -0.4666 -3.1014
 2711SOL     OW19768   3.351   4.498   8.492 -0.1217 -0.1700  0.7770
 2711SOL    HW119769   3.366   4.587   8.524 -0.8629 -0.1739  1.1348
 2711SOL    HW219770   3.259   4.500   8.466  0.4519 -1.3079 -1.3781
 2712SOL     OW19771   2.303   1.409   8.264 -0.5884 -0.3526 -0.0915
 2712SOL    HW119772   2.249   1.365   8.199  2.4258 -2.1781 -1.3722
 2712SOL    HW219773   2.325   1.347   8.334  0.4815  0.2093  0.0602
 2713SOL     OW19774   2.127   3.161   0.782 -0.7572  0.1420 -0.6638
 2713SOL    HW119775   2.147   3.176   0.690 -1.9163  1.2224 -0.7428
 2713SOL    HW219776   2.038   3.197   0.775 -0.5258  0.9162  0.4108
 2714SOL     OW19777   0.795   2.667   6.635  0.4073 -0.1560 -0.0490
 2714SOL    HW119778   0.750   2.718   6.702 -0.2545  1.1279 -1.4497
 2714SOL    HW219779   0.800   2.584   6.682  1.4571  0.3473  0.7172
 2715SOL     OW19780   4.465   2.088  14.144  0.0668 -0.4399 -0.1606
 2715SOL    HW119781   4.469   2.176  14.181  0.9030  0.5527 -2.5928
 2715SOL    HW219782   4.457   2.111  14.051 -0.8933  0.8999  0.2462
 2716SOL     OW19783   0.021   3.429   0.074  0.1261  0.1304 -0.5791
 2716SOL    HW119784   4.686   3.370   0.054  1.1835 -0.2089 -3.2846
 2716SOL    HW219785   4.724   3.518   0.076 -0.8390 -0.2277 -0.9820
 2717SOL     OW19786   2.137   3.828   3.376  0.0287  0.7464 -0.2359
 2717SOL    HW119787   2.194   3.777   3.319 -1.2054 -2.4372  1.4268
 2717SOL    HW219788   2.079   3.864   3.308 -1.8259 -1.3254  0.2488
 2718SOL     OW19789   0.849   2.036  14.111 -0.4233  0.1023 -0.2862
 2718SOL    HW119790   0.884   2.069  14.028 -1.4804 -0.5903 -0.9949
 2718SOL    HW219791   0.866   2.114  14.164 -1.9925  0.8158 -0.8351
 2719SOL     OW19792   2.029   2.373   8.285  0.1282 -0.4926  0.0711
 2719SOL    HW119793   1.964   2.442   8.296 -0.0124  0.2078 -5.2211
 2719SOL    HW219794   2.101   2.425   8.250 -0.7668  0.2884 -0.5958
 2720SOL     OW19795   1.513   3.352   3.862  0.2804  0.0062  0.3279
 2720SOL    HW119796   1.482   3.416   3.798 -0.5983 -0.9274 -0.1632
 2720SOL    HW219797   1.428   3.333   3.900 -0.0118  0.3921 -0.1344
 2721SOL     OW19798   2.362   2.852   0.372 -0.0087 -0.1084  0.1738
 2721SOL    HW119799   2.383   2.906   0.449  0.1727  2.6374 -1.7828
 2721SOL    HW219800   2.438   2.796   0.385 -1.4527 -1.6941  1.8266
 2722SOL     OW19801   1.300   3.551   5.094 -0.4388 -0.2365 -0.2671
 2722SOL    HW119802   1.279   3.644   5.100  0.3274  0.0477 -1.9758
 2722SOL    HW219803   1.337   3.542   5.182  2.2545 -2.9146 -1.6967
 2723SOL     OW19804   4.386   2.418   2.066 -0.0125 -0.6245  0.1392
 2723SOL    HW119805   4.333   2.341   2.049  0.0106 -0.5029 -0.4875
 2723SOL    HW219806   4.418   2.448   1.981 -2.9677 -0.8508 -1.0665
 2724SOL     OW19807   3.863   4.491   8.983 -0.2292 -0.0601 -0.0553
 2724SOL    HW119808   3.935   4.432   9.006  0.3065  0.7810  0.4210
 2724SOL    HW219809   3.892   4.527   8.899  0.4845  0.6959  0.5097
 2725SOL     OW19810   4.239   0.395   1.523 -0.4613 -0.1619 -0.9076
 2725SOL    HW119811   4.162   0.436   1.563  0.5741  1.2781 -0.4067
 2725SOL    HW219812   4.307   0.460   1.541 -0.1148 -1.3669  2.2059
 2726SOL     OW19813   4.735   3.417  11.598  0.5235 -0.1919  0.4592
 2726SOL    HW119814   4.715   3.344  11.540 -0.4956  0.1341  0.3969
 2726SOL    HW219815   0.089   3.401  11.622  0.4939 -0.1419  0.6076
 2727SOL     OW19816   1.467   2.285   4.408  0.1125  0.4185  0.1409
 2727SOL    HW119817   1.486   2.279   4.501 -1.8937  1.7090  0.6328
 2727SOL    HW219818   1.446   2.194   4.386 -0.1231 -0.0537  2.2943
 2728SOL     OW19819   4.483   0.943   3.859  0.5905  0.1955 -0.0969
 2728SOL    HW119820   4.504   0.934   3.766 -2.2266 -2.9430 -0.4061
 2728SOL    HW219821   4.388   0.941   3.858  0.5957  0.1875 -0.6780
 2729SOL     OW19822   2.694   1.154  14.383  0.2390  0.8531 -0.1797
 2729SOL    HW119823   2.667   1.189  14.298  0.6808 -1.1330 -1.1359
 2729SOL    HW219824   2.631   1.085  14.402  1.8717 -0.4324  0.5942
 2730SOL     OW19825   0.127   1.562  15.333  0.1302 -0.3880  0.0892
 2730SOL    HW119826   0.137   1.553  15.428  0.4437 -2.0694 -0.1169
 2730SOL    HW219827   0.042   1.519  15.333 -0.3684  0.5816 -3.1946
 2731SOL     OW19828   1.533   4.243   2.779 -1.1997 -0.0862  0.3899
 2731SOL    HW119829   1.626   4.253   2.761 -0.7748 -1.4079  1.7560
 2731SOL    HW219830   1.537   4.245   2.875 -4.1902  1.1397  0.4951
 2732SOL     OW19831   3.447   2.519  12.633 -0.4778  0.4072  0.4975
 2732SOL    HW119832   3.453   2.522  12.538 -0.2739 -0.2213  0.4863
 2732SOL    HW219833   3.512   2.452  12.656  0.7441  0.8465 -1.6642
 2733SOL     OW19834   2.953   0.356   1.896  0.6082  0.3679 -0.5610
 2733SOL    HW119835   3.047   0.343   1.909  0.5626  2.0917  1.4654
 2733SOL    HW219836   2.911   0.409   1.964 -0.5396 -2.1404  0.6858
 2734SOL     OW19837   1.761   4.058   1.380  0.1405 -0.4087 -0.4082
 2734SOL    HW119838   1.796   4.089   1.297  1.3167  0.6760  0.4896
 2734SOL    HW219839   1.768   4.139   1.431  0.5691 -0.9817  0.4412
 2735SOL     OW19840   3.009   3.026   4.292 -0.5258  0.0870 -0.0963
 2735SOL    HW119841   2.960   3.105   4.316  0.4122  1.2804 -2.1204
 2735SOL    HW219842   3.070   3.043   4.221  0.5964 -1.3897  0.5096
 2736SOL     OW19843   3.331   3.342   2.881  0.0862 -0.6413 -0.3898
 2736SOL    HW119844   3.423   3.344   2.853  0.4254 -0.7079  0.7011
 2736SOL    HW219845   3.297   3.391   2.807  2.4390  0.2754 -0.8839
 2737SOL     OW19846   3.982   0.516  15.934 -0.3521 -0.3694  0.2730
 2737SOL    HW119847   3.906   0.531  15.878  0.3560  0.6846 -0.3818
 2737SOL    HW219848   4.040   0.470  15.873 -1.1054 -0.3640 -0.4512
 2738SOL     OW19849   3.597   3.481  17.646 -0.6046 -0.1700 -0.2347
 2738SOL    HW119850   3.505   3.465  17.621 -0.2194 -0.5095 -1.4263
 2738SOL    HW219851   3.599   3.408  17.708 -1.4080 -1.2144 -1.4333
 2739SOL     OW19852   0.185   4.357   1.424 -0.2897  0.0801  0.6092
 2739SOL    HW119853   0.190   4.424   1.356  0.1792 -0.0309  0.5395
 2739SOL    HW219854   0.135   4.282   1.391 -1.5639  0.7566  0.9736
 2740SOL     OW19855   2.052   4.284   4.828 -0.0520 -0.4231  0.6421
 2740SOL    HW119856   2.107   4.214   4.864  0.7982 -0.0458  0.0809
 2740SOL    HW219857   2.090   4.310   4.744 -2.3778  4.0542  0.9729
 2741SOL     OW19858   1.517   3.486   6.580 -0.2129  0.1764  1.2419
 2741SOL    HW119859   1.465   3.409   6.561  0.7916  0.0167 -0.8065
 2741SOL    HW219860   1.599   3.450   6.546  1.4756  2.7430  2.5400
 2742SOL     OW19861   4.257   1.865   4.740  0.0582 -0.7219 -0.8232
 2742SOL    HW119862   4.240   1.878   4.833  0.2784  0.8017 -0.9919
 2742SOL    HW219863   4.294   1.776   4.737 -0.7454 -1.0728 -0.3422
 2743SOL     OW19864   0.273   1.360   9.302 -0.7713  0.0429 -0.9730
 2743SOL    HW119865   0.358   1.348   9.343 -1.3512  4.2384  1.4342
 2743SOL    HW219866   0.281   1.281   9.248 -2.5305  0.3231 -1.6649
 2744SOL     OW19867   3.781   1.548   9.550 -0.0745 -0.8319 -0.4983
 2744SOL    HW119868   3.840   1.619   9.573 -3.1444  1.4845  0.1652
 2744SOL    HW219869   3.705   1.599   9.523  0.8865  1.5179  1.2825
 2745SOL     OW19870   0.636   4.333   8.589 -0.4710  0.2709 -0.5383
 2745SOL    HW119871   0.639   4.276   8.666  1.8769 -0.9947 -1.5763
 2745SOL    HW219872   0.716   4.309   8.544 -0.7006 -0.4361 -0.5603
 2746SOL     OW19873   0.649   0.274   8.771 -0.1020 -0.6684  0.1866
 2746SOL    HW119874   0.670   0.183   8.790  0.2169 -0.8196 -0.8662
 2746SOL    HW219875   0.610   0.311   8.850 -1.9141  2.2156 -2.0643
 2747SOL     OW19876   3.546   0.141   0.676 -0.2485 -0.0061  0.1080
 2747SOL    HW119877   3.586   0.196   0.609  1.9110  0.8474  2.0988
 2747SOL    HW219878   3.602   0.153   0.753  0.9335 -2.9089 -0.3024
 2748SOL     OW19879   1.623   1.459   9.938  0.2460  0.2787 -0.0542
 2748SOL    HW119880   1.641   1.420   9.852  1.5255  0.3025  0.2086
 2748SOL    HW219881   1.640   1.553   9.929  0.7892  0.3667  2.1028
 2749SOL     OW19882   2.874   1.653   2.428  0.4256 -0.6646 -0.3966
 2749SOL    HW119883   2.810   1.592   2.392  0.1346  1.2513 -3.1424
 2749SOL    HW219884   2.955   1.610   2.401  1.6981  2.8069 -2.1514
 2750SOL     OW19885   1.222   0.277   4.063 -0.2056 -0.0896 -0.0940
 2750SOL    HW119886   1.166   0.353   4.076  0.1202  0.0600  0.4502
 2750SOL    HW219887   1.255   0.301   3.977 -1.0860 -0.6996 -0.5938
 2751SOL     OW19888   0.067   0.245   4.264 -0.9544 -0.0147  0.1059
 2751SOL    HW119889   0.082   0.214   4.353 -0.1262 -0.3701 -0.1545
 2751SOL    HW219890   0.132   0.190   4.220  1.7366  3.8201 -0.6824
 2752SOL     OW19891   4.701   3.848   4.614  0.2193  0.4665 -0.3552
 2752SOL    HW119892   4.672   3.922   4.667  0.7604  0.2169  0.2942
 2752SOL    HW219893   0.041   3.820   4.664  1.2063  0.9739 -1.5782
 2753SOL     OW19894   0.295   4.650   3.163 -0.1097 -0.3172 -0.5167
 2753SOL    HW119895   0.325   4.564   3.133  1.7730  0.0894  0.1572
 2753SOL    HW219896   0.348   4.655   3.242  1.6681  0.5302 -1.7452
 2754SOL     OW19897   2.616   2.860   2.495 -0.7476 -0.2835 -0.1787
 2754SOL    HW119898   2.576   2.907   2.568  1.2694  1.5534 -0.2738
 2754SOL    HW219899   2.547   2.869   2.429 -1.1412 -1.4228  0.0621
 2755SOL     OW19900   2.537   3.445   3.789 -0.0525 -0.1361  0.4230
 2755SOL    HW119901   2.585   3.363   3.775 -1.7202 -0.8962 -0.7570
 2755SOL    HW219902   2.558   3.448   3.883  0.0308 -0.5527  0.4205
 2756SOL     OW19903   0.686   0.766   6.574 -0.4267 -0.0726 -0.3135
 2756SOL    HW119904   0.758   0.828   6.580  0.5452 -1.2450  0.2387
 2756SOL    HW219905   0.669   0.727   6.660 -0.0976  1.2108  0.3255
 2757SOL     OW19906   4.669   1.740  12.261 -0.1309  0.7274 -0.4384
 2757SOL    HW119907   4.695   1.829  12.285 -1.4304  1.0598 -0.2768
 2757SOL    HW219908   4.582   1.731  12.300  0.6885 -0.0581  1.2030
 2758SOL     OW19909   1.788   0.801  17.605  0.0320 -0.0470  0.2823
 2758SOL    HW119910   1.712   0.843  17.565  1.5995  1.1933 -1.3917
 2758SOL    HW219911   1.850   0.873  17.590  1.1979 -0.9647  0.6483
 2759SOL     OW19912   3.956   0.316   9.072  1.0597 -0.2803  0.1303
 2759SOL    HW119913   3.937   0.224   9.092 -0.0341 -0.1391 -0.2708
 2759SOL    HW219914   4.043   0.316   9.112  1.7285  1.0573 -1.3388
 2760SOL     OW19915   1.399   1.037   2.665  0.2990  0.4943 -0.4206
 2760SOL    HW119916   1.349   1.078   2.737  3.3474  0.3329  1.7778
 2760SOL    HW219917   1.421   1.115   2.615 -1.6406  0.6550 -1.0503
 2761SOL     OW19918   3.483   3.315  13.728 -0.5414  0.3689 -0.3764
 2761SOL    HW119919   3.499   3.228  13.692  0.7705  1.2063 -1.8295
 2761SOL    HW219920   3.413   3.299  13.791  1.2733 -2.4468  0.9344
 2762SOL     OW19921   4.439   2.219   3.688  0.3210  0.6597 -0.1311
 2762SOL    HW119922   4.385   2.239   3.765  0.8476  0.9775  0.1560
 2762SOL    HW219923   4.385   2.246   3.615 -0.0558 -1.1866 -0.5514
 2763SOL     OW19924   1.733   4.496  12.578  0.6490 -0.1538  0.0709
 2763SOL    HW119925   1.764   4.567  12.522  0.3953 -0.2250 -0.1595
 2763SOL    HW219926   1.736   4.420  12.519 -3.3417 -0.0238 -0.3051
 2764SOL     OW19927   4.145   4.626   4.790  0.1372 -0.3832 -0.1483
 2764SOL    HW119928   4.201   4.578   4.851 -0.2709 -0.3846  0.2297
 2764SOL    HW219929   4.204   4.612   4.716 -2.3151 -0.0059 -2.1714
 2765SOL     OW19930   2.997   4.344  11.565 -0.1259  0.2027 -0.5262
 2765SOL    HW119931   2.918   4.298  11.536  0.0386 -0.2514 -0.2452
 2765SOL    HW219932   3.050   4.306  11.494 -0.1753 -1.8842  0.5524
 2766SOL     OW19933   2.516   3.550  12.103  0.4111  0.4548  0.7660
 2766SOL    HW119934   2.426   3.527  12.126  0.7166 -2.8530 -1.3443
 2766SOL    HW219935   2.514   3.594  12.018 -2.3391 -1.0243  0.0513
 2767SOL     OW19936   4.018   0.084   2.073  0.0756  0.5868  0.2643
 2767SOL    HW119937   4.050   0.135   1.999  1.7634 -0.6993  0.0816
 2767SOL    HW219938   4.097   0.034   2.095  0.8378  0.6366 -2.3157
 2768SOL     OW19939   4.385   1.560   4.264  0.0823 -0.1275  0.0807
 2768SOL    HW119940   4.360   1.508   4.187  0.3767  0.0379 -0.1284
 2768SOL    HW219941   4.349   1.644   4.235  1.0211  0.3629  0.3650
 2769SOL     OW19942   4.724   3.933   7.457  0.2304 -0.6752 -0.2297
 2769SOL    HW119943   4.704   3.927   7.550  2.3151  0.0142  0.2493
 2769SOL    HW219944   0.055   4.000   7.448 -1.3807  1.0745  0.4810
 2770SOL     OW19945   1.640   3.894   6.151 -0.2659 -0.0721 -0.0218
 2770SOL    HW119946   1.600   3.911   6.236 -0.8366 -1.0948 -0.0991
 2770SOL    HW219947   1.647   3.982   6.113 -2.3495  1.7522  3.8922
 2771SOL     OW19948   3.133   3.433   7.071  0.1002 -0.0098 -0.6955
 2771SOL    HW119949   3.090   3.518   7.069 -1.1016 -0.5675  1.3210
 2771SOL    HW219950   3.112   3.402   7.159 -2.4273 -0.5124 -1.4810
 2772SOL     OW19951   1.942   1.473   1.074 -0.7794  0.3987  0.0523
 2772SOL    HW119952   2.024   1.438   1.108 -1.4386  0.5865  1.8011
 2772SOL    HW219953   1.881   1.400   1.088 -0.0390 -0.4320 -1.0192
 2773SOL     OW19954   0.735   3.691   7.475  0.4836  0.0515  0.3768
 2773SOL    HW119955   0.764   3.694   7.384 -0.1471  1.4801  0.2293
 2773SOL    HW219956   0.792   3.758   7.512  2.9314 -1.3202 -0.9557
 2774SOL     OW19957   3.620   3.191   6.551  0.3313  0.2965 -0.4759
 2774SOL    HW119958   3.709   3.165   6.576 -0.1514 -2.3661 -1.5026
 2774SOL    HW219959   3.598   3.228   6.637  1.3737  0.2743 -0.2004
 2775SOL     OW19960   2.691   3.172   2.106  0.2440  0.3836 -0.1124
 2775SOL    HW119961   2.721   3.236   2.042 -1.2119  1.5346  0.3681
 2775SOL    HW219962   2.709   3.224   2.185  3.2463 -3.5208  1.7886
 2776SOL     OW19963   1.335   4.268  12.055  0.3092 -0.1457  0.3601
 2776SOL    HW119964   1.424   4.304  12.050  0.9435 -1.6565  0.3931
 2776SOL    HW219965   1.304   4.329  11.988  0.9302 -2.1373 -1.7488
 2777SOL     OW19966   3.147   3.928   2.030 -0.2569 -0.0876 -0.2113
 2777SOL    HW119967   3.078   3.993   2.040  0.3597  0.4736  0.4506
 2777SOL    HW219968   3.211   3.956   1.964  0.0277  0.2571  0.2084
 2778SOL     OW19969   3.573   2.368   2.407  0.2708 -0.1810 -0.2628
 2778SOL    HW119970   3.547   2.309   2.477  0.0850 -0.4622 -0.5695
 2778SOL    HW219971   3.666   2.385   2.423 -0.3122  0.9500  1.8667
 2779SOL     OW19972   0.769   3.923   9.690 -0.6258  0.3897  0.3938
 2779SOL    HW119973   0.763   3.828   9.684 -1.4060  0.3714  1.5739
 2779SOL    HW219974   0.861   3.944   9.706  0.4283 -3.4722 -0.6263
 2780SOL     OW19975   0.505   0.273   4.608 -0.3051  0.3817  0.6196
 2780SOL    HW119976   0.505   0.196   4.550  1.9254  1.9414 -1.4206
 2780SOL    HW219977   0.597   0.298   4.606 -0.2785  0.3491  1.6141
 2781SOL     OW19978   1.403   3.448  15.403  0.1006 -0.2200 -0.2816
 2781SOL    HW119979   1.411   3.377  15.467 -1.9415  2.3101  2.7999
 2781SOL    HW219980   1.452   3.428  15.323  2.0238 -1.4713  1.2031
 2782SOL     OW19981   3.748   1.883   6.460  0.5837 -0.4373 -0.3010
 2782SOL    HW119982   3.694   1.805   6.448 -0.9885  0.6934 -0.5284
 2782SOL    HW219983   3.788   1.874   6.547 -0.7015  0.2114  0.3593
 2783SOL     OW19984   2.493   0.471  11.707  0.1892  0.2791  0.5085
 2783SOL    HW119985   2.398   0.460  11.706  0.2346 -0.0969  0.2933
 2783SOL    HW219986   2.511   0.561  11.734 -0.1137  0.1289  1.2153
 2784SOL     OW19987   4.074   4.402   0.980 -0.0005  0.5915  0.1940
 2784SOL    HW119988   4.080   4.430   0.889  1.8788 -0.4004  0.0182
 2784SOL    HW219989   4.082   4.307   0.982  1.8754  0.7104 -2.8260
 2785SOL     OW19990   0.125   0.382   3.960  0.6171  0.3646 -0.0252
 2785SOL    HW119991   0.034   0.373   3.932  1.1114 -3.4208 -0.4677
 2785SOL    HW219992   0.117   0.445   4.031 -0.1865  0.9704 -0.6542
 2786SOL     OW19993   0.967   1.231   9.226  0.0978  0.3395 -0.2510
 2786SOL    HW119994   0.971   1.146   9.182 -2.0168  0.6894 -1.1088
 2786SOL    HW219995   0.999   1.282   9.151  0.3333 -0.3621 -0.6251
 2787SOL     OW19996   4.306   0.655   0.696 -0.4497  0.3457  0.3296
 2787SOL    HW119997   4.260   0.617   0.771  1.6434  0.5462  1.7176
 2787SOL    HW219998   4.395   0.624   0.714  0.0328  1.2993 -0.4366
 2788SOL     OW19999   0.146   3.679   3.937 -0.3542  0.0800  0.0315
 2788SOL    HW120000   0.192   3.670   4.020  1.1175 -1.3585 -0.9403
 2788SOL    HW220001   0.093   3.758   3.946  1.4782  1.0838  1.9518
 2789SOL     OW20002   4.516   4.058   9.160 -0.5046  0.6121  0.2817
 2789SOL    HW120003   4.528   3.972   9.119  1.5664  0.6527  0.7821
 2789SOL    HW220004   4.607   4.066   9.189 -0.5533  1.4320  0.2145
 2790SOL     OW20005   0.867   1.287   3.288 -0.2510  0.0832  0.0533
 2790SOL    HW120006   0.822   1.256   3.209 -1.1865 -1.8162  1.3446
 2790SOL    HW220007   0.917   1.208   3.305  1.4907  0.8215 -1.5701
 2791SOL     OW20008   0.888   4.732   1.290  0.7440 -0.2137 -0.2511
 2791SOL    HW120009   0.938   4.716   1.370  1.1841  1.5477 -0.1597
 2791SOL    HW220010   0.949   0.043   1.233 -2.3592  0.7850 -2.7067
 2792SOL     OW20011   1.028   1.893   4.284  0.0519 -0.0378 -0.0793
 2792SOL    HW120012   1.066   1.867   4.201  0.3878  1.0866 -0.2781
 2792SOL    HW220013   1.001   1.803   4.305 -0.1249  0.5634  2.2871
 2793SOL     OW20014   4.650   0.466  14.175 -0.6277 -0.2413  0.3915
 2793SOL    HW120015   4.564   0.503  14.155 -1.5306 -2.2120  0.5850
 2793SOL    HW220016   4.689   0.509  14.099 -0.3743 -1.4281 -0.1466
 2794SOL     OW20017   1.621   1.824   4.058  0.2483  0.1021  0.0456
 2794SOL    HW120018   1.543   1.768   4.061 -1.4836  2.5735  0.8840
 2794SOL    HW220019   1.682   1.771   4.108 -0.1213 -0.2896  0.0863
 2795SOL     OW20020   3.559   2.149   5.368 -0.0729  0.0129  0.1277
 2795SOL    HW120021   3.551   2.068   5.319  2.5227 -0.1287 -0.0941
 2795SOL    HW220022   3.553   2.104   5.452 -0.0340  0.2830  0.2781
 2796SOL     OW20023   0.797   1.900   6.576  0.2761 -0.3064  0.4750
 2796SOL    HW120024   0.769   1.905   6.485 -1.0473 -1.7152  0.7968
 2796SOL    HW220025   0.892   1.906   6.567  0.0253  0.3858 -1.7584
 2797SOL     OW20026   2.850   1.477   8.362  0.1977  0.1714 -0.3589
 2797SOL    HW120027   2.779   1.506   8.420  0.9606 -0.0436  0.6646
 2797SOL    HW220028   2.931   1.492   8.409 -0.3342  0.2569  0.5246
 2798SOL     OW20029   1.969   0.736   9.196 -0.0536 -0.3274 -0.0495
 2798SOL    HW120030   1.907   0.664   9.192  0.6956 -0.9481 -0.6265
 2798SOL    HW220031   1.975   0.748   9.291  1.6913  2.4650 -0.4828
 2799SOL     OW20032   0.985   4.670   4.071  0.3894  0.1131 -0.0033
 2799SOL    HW120033   0.944   4.614   4.005  2.2157 -1.4996  0.2468
 2799SOL    HW220034   0.910   4.725   4.093 -0.7877 -0.7702 -1.7550
 2800SOL     OW20035   0.301   4.387   5.543 -0.2101 -0.2724 -0.4420
 2800SOL    HW120036   0.294   4.291   5.542  0.9730 -0.3575 -0.8681
 2800SOL    HW220037   0.211   4.418   5.539 -0.3996 -0.7566 -0.0057
 2801SOL     OW20038   1.452   1.366   1.442 -0.0034 -0.2242 -0.1459
 2801SOL    HW120039   1.535   1.324   1.420  0.0068 -0.0497 -0.4296
 2801SOL    HW220040   1.434   1.403   1.356 -0.2265  0.9642  0.4260
 2802SOL     OW20041   1.221   1.815   4.089 -0.1116  0.4377  0.2120
 2802SOL    HW120042   1.215   1.770   4.004 -0.4546  1.0039 -0.0697
 2802SOL    HW220043   1.279   1.764   4.144 -2.4359  0.2038  2.4269
 2803SOL     OW20044   0.701   2.473   7.028 -0.5226 -0.1108 -0.3097
 2803SOL    HW120045   0.645   2.547   7.052 -0.1144 -0.4513  1.6889
 2803SOL    HW220046   0.716   2.428   7.111 -1.1800 -0.4277 -0.3579
 2804SOL     OW20047   0.337   3.608   3.190 -0.0708  0.0312 -0.2972
 2804SOL    HW120048   0.348   3.674   3.258 -2.0972 -1.1222  1.1320
 2804SOL    HW220049   0.364   3.527   3.232  3.4309 -0.2057 -3.0259
 2805SOL     OW20050   0.209   4.215   9.472  0.1258 -0.5245 -0.0353
 2805SOL    HW120051   0.179   4.137   9.426 -2.0229  0.3068 -0.0586
 2805SOL    HW220052   0.264   4.249   9.401 -0.6534 -1.3083 -1.0216
 2806SOL     OW20053   2.810   4.687   3.819  0.1235  0.3275  0.0315
 2806SOL    HW120054   2.720   4.678   3.851 -0.5466 -0.2734 -2.0104
 2806SOL    HW220055   2.795   4.657   3.730  0.4658  1.0314 -0.2613
 2807SOL     OW20056   2.599   2.771   5.805 -0.4829 -0.0156 -0.1241
 2807SOL    HW120057   2.646   2.804   5.882 -0.7145 -0.9115  0.3903
 2807SOL    HW220058   2.669   2.790   5.743 -2.2237  2.2540 -1.4028
 2808SOL     OW20059   0.309   3.887   2.993  0.1199  0.6737  0.3376
 2808SOL    HW120060   0.394   3.843   3.000  1.2185  3.0373  1.9951
 2808SOL    HW220061   0.264   3.828   2.933 -0.0487  0.5811  0.5553
 2809SOL     OW20062   4.719   2.868   5.429  0.6175  0.6573 -0.4100
 2809SOL    HW120063   4.736   2.946   5.378 -1.3571  0.9381 -0.6228
 2809SOL    HW220064   0.006   2.793   5.374  0.5271  1.6630 -1.8157
 2810SOL     OW20065   2.961   4.232   4.353 -0.1615 -0.2983 -0.3311
 2810SOL    HW120066   2.897   4.292   4.313  0.0105  0.3891  0.4298
 2810SOL    HW220067   2.897   4.162   4.366 -0.6830 -0.1625 -2.1882
 2811SOL     OW20068   0.351   0.059   8.633 -0.4743  0.1057  0.8462
 2811SOL    HW120069   0.381   0.005   8.560  0.7602  2.0146 -0.0326
 2811SOL    HW220070   0.269   0.012   8.650  0.2243 -1.0604  1.0702
 2812SOL     OW20071   2.588   1.281  16.723 -0.6354 -0.2159  0.1204
 2812SOL    HW120072   2.520   1.346  16.704 -0.2464  0.1923  0.1250
 2812SOL    HW220073   2.623   1.346  16.784  1.7052 -2.2431  0.9501
 2813SOL     OW20074   0.595   4.627   8.713  1.0191  0.6484 -0.3818
 2813SOL    HW120075   0.509   4.665   8.731  0.9687  0.9997 -1.3414
 2813SOL    HW220076   0.563   4.537   8.716  0.0806  0.9968  0.2228
 2814SOL     OW20077   3.740   2.345  13.647  0.2439 -0.2679  0.5442
 2814SOL    HW120078   3.693   2.404  13.705  0.3104 -0.7994  1.1419
 2814SOL    HW220079   3.728   2.260  13.689  1.6206 -1.0072 -0.5430
 2815SOL     OW20080   0.691   0.783  11.666  0.1866  0.7607  0.0732
 2815SOL    HW120081   0.713   0.798  11.758  1.6362  1.8054 -0.4347
 2815SOL    HW220082   0.722   0.692  11.664  1.0075  1.0510 -0.7486
 2816SOL     OW20083   1.956   4.673   8.894 -0.0435 -0.3287 -0.2224
 2816SOL    HW120084   2.024   0.002   8.884  1.0227 -1.6717 -2.0282
 2816SOL    HW220085   1.991   4.606   8.835  0.8482 -0.6585  0.6670
 2817SOL     OW20086   0.915   2.582  14.308  0.1871 -0.1204  0.1774
 2817SOL    HW120087   0.980   2.520  14.274  0.8652  0.3098  0.7039
 2817SOL    HW220088   0.888   2.620  14.224  1.9540 -2.7590 -1.5676
 2818SOL     OW20089   2.602   3.659   0.779 -0.4695 -0.0140  0.5070
 2818SOL    HW120090   2.529   3.599   0.794  0.8057 -1.6335  0.2107
 2818SOL    HW220091   2.586   3.684   0.688 -0.6618 -1.0750  0.2456
 2819SOL     OW20092   3.381   4.273  15.841  0.2232 -0.5918  0.5925
 2819SOL    HW120093   3.327   4.251  15.766 -0.2951 -0.0622  0.8090
 2819SOL    HW220094   3.414   4.186  15.861 -2.0413 -2.0487 -2.1096
 2820SOL     OW20095   1.189   2.928   1.363 -0.1555 -0.0122 -0.1391
 2820SOL    HW120096   1.206   3.002   1.304 -0.5764 -1.4612 -2.0775
 2820SOL    HW220097   1.261   2.936   1.426  0.9482 -1.4746 -1.2213
 2821SOL     OW20098   1.608   2.550   3.997  0.2815  0.0446  0.0181
 2821SOL    HW120099   1.648   2.587   3.918  0.7301  0.1836  0.3121
 2821SOL    HW220100   1.686   2.506   4.033 -0.5589 -0.9063  0.6610
 2822SOL     OW20101   0.782   1.636   5.095  0.1480 -0.7264 -0.5582
 2822SOL    HW120102   0.777   1.710   5.156 -1.4654 -0.3155 -1.1890
 2822SOL    HW220103   0.802   1.561   5.151  0.4480  1.2576  1.9985
 2823SOL     OW20104   2.074   3.570   2.151  0.0602 -0.2447 -0.0492
 2823SOL    HW120105   2.001   3.516   2.178 -0.1652 -0.4006 -0.9815
 2823SOL    HW220106   2.056   3.659   2.181  1.7021  0.9958 -2.6277
 2824SOL     OW20107   2.581   1.332   8.300 -0.5019  0.4333  0.4558
 2824SOL    HW120108   2.592   1.401   8.366  0.5604  0.0135  0.7235
 2824SOL    HW220109   2.535   1.387   8.237  0.0264  0.8952  0.4652
 2825SOL     OW20110   2.671   3.470   7.412  0.1635  0.2144  0.5443
 2825SOL    HW120111   2.591   3.444   7.365  1.6102  1.0787 -2.3950
 2825SOL    HW220112   2.637   3.545   7.461  0.1104  0.5507 -0.0002
 2826SOL     OW20113   2.062   4.172  16.026  0.5488 -0.5043 -0.0141
 2826SOL    HW120114   2.008   4.246  16.000 -1.5451 -1.5348  1.4209
 2826SOL    HW220115   2.097   4.146  15.941 -1.7412 -0.0490 -1.0889
 2827SOL     OW20116   4.108   2.182  16.864  0.2210 -0.1216 -0.0481
 2827SOL    HW120117   4.048   2.171  16.938  1.3359 -0.4486  0.8146
 2827SOL    HW220118   4.086   2.110  16.805  0.1327  0.1711 -0.3747
 2828SOL     OW20119   3.151   1.057   8.953 -1.0054  0.1656 -0.4756
 2828SOL    HW120120   3.213   1.057   9.026 -0.5504 -0.0525 -0.8572
 2828SOL    HW220121   3.099   1.134   8.975 -0.6528 -0.3326  2.1665
 2829SOL     OW20122   1.905   2.909   7.842  0.1182  0.3425  0.4790
 2829SOL    HW120123   1.872   2.916   7.752 -0.7727 -2.0866  0.6101
 2829SOL    HW220124   1.880   2.817   7.852  2.0527 -0.1119  0.9512
 2830SOL     OW20125   0.762   2.508  14.767  0.1808 -0.2238  0.4183
 2830SOL    HW120126   0.757   2.497  14.862  1.1958  2.5270  0.8038
 2830SOL    HW220127   0.668   2.513  14.749  0.1337  0.1882  0.7825
 2831SOL     OW20128   4.632   3.228   4.113  0.1217  0.1425  0.1340
 2831SOL    HW120129   4.569   3.227   4.186  0.7364 -0.5264  0.6676
 2831SOL    HW220130   4.702   3.282   4.150 -0.4763  0.5326  0.6872
 2832SOL     OW20131   0.506   2.960   3.434 -0.2190 -0.1523  0.7312
 2832SOL    HW120132   0.447   3.014   3.381 -1.9897 -1.5392  1.2885
 2832SOL    HW220133   0.594   2.993   3.419 -0.1823 -0.5362  0.0759
 2833SOL     OW20134   1.478   2.009   4.846  0.1625 -0.0337 -0.4996
 2833SOL    HW120135   1.502   1.928   4.892 -2.6420 -0.3941  0.3310
 2833SOL    HW220136   1.502   1.985   4.756  0.4477  1.5337 -0.8358
 2834SOL     OW20137   4.524   1.902   6.130 -0.2612  0.9816  0.3558
 2834SOL    HW120138   4.446   1.852   6.155  0.7485 -0.3204  0.9190
 2834SOL    HW220139   4.579   1.843   6.078  1.4384  0.7326  2.4199
 2835SOL     OW20140   0.898   3.734   5.193  0.0287  0.0795 -0.2300
 2835SOL    HW120141   0.853   3.777   5.265  1.0232  1.1760 -0.2730
 2835SOL    HW220142   0.866   3.644   5.199 -2.8591  1.1595  0.4464
 2836SOL     OW20143   0.214   1.481  11.794  0.3297 -0.2663  0.1773
 2836SOL    HW120144   0.206   1.472  11.699 -2.2254 -1.4297  0.5030
 2836SOL    HW220145   0.298   1.441  11.813 -0.4814 -2.2023 -0.3015
 2837SOL     OW20146   3.157   3.722   2.853  0.1430 -0.8027  0.0190
 2837SOL    HW120147   3.154   3.698   2.761  3.1707  0.3777 -0.3668
 2837SOL    HW220148   3.073   3.687   2.884 -1.3542  0.6549 -2.3393
 2838SOL     OW20149   2.166   1.888   5.996  0.2771 -0.4895 -0.6326
 2838SOL    HW120150   2.226   1.885   6.070 -0.8181 -0.8215  0.2454
 2838SOL    HW220151   2.193   1.808   5.951 -1.7576  0.2957 -3.2721
 2839SOL     OW20152   4.694   1.921   0.676  0.4510  0.7836 -0.2674
 2839SOL    HW120153   4.646   1.849   0.635  1.0545  0.2570 -0.0362
 2839SOL    HW220154   4.619   1.955   0.725  0.3758  0.6559 -0.2928
 2840SOL     OW20155   3.117   2.450   4.772  0.0586 -0.4187 -0.6580
 2840SOL    HW120156   3.021   2.446   4.772  0.0109  0.8322 -0.3823
 2840SOL    HW220157   3.145   2.382   4.834  0.8030  0.4771 -0.0163
 2841SOL     OW20158   2.401   1.584   3.552  0.5716 -0.3437  0.1167
 2841SOL    HW120159   2.472   1.624   3.501 -1.4917  1.4995 -1.2806
 2841SOL    HW220160   2.320   1.621   3.518 -0.8412 -1.0730  2.7451
 2842SOL     OW20161   0.580   4.249   4.408  0.3784 -0.1312 -0.6791
 2842SOL    HW120162   0.585   4.200   4.490 -3.1390  0.4890 -0.0825
 2842SOL    HW220163   0.527   4.322   4.440 -0.2924 -1.5887  1.4982
 2843SOL     OW20164   2.563   1.158   8.670 -0.6446 -0.5739  0.0644
 2843SOL    HW120165   2.590   1.101   8.742  0.6523 -1.6836 -1.3062
 2843SOL    HW220166   2.485   1.204   8.701 -0.0146  1.7034 -1.7719
 2844SOL     OW20167   2.360   2.885   4.503  0.1201  0.4005 -0.2441
 2844SOL    HW120168   2.381   2.913   4.414  2.1780 -1.0061 -0.1948
 2844SOL    HW220169   2.445   2.904   4.543 -1.6103 -0.0061  3.6093
 2845SOL     OW20170   4.036   3.521   6.698  0.3056 -0.3734  0.6157
 2845SOL    HW120171   3.947   3.497   6.725  0.5951  0.4927  2.3244
 2845SOL    HW220172   4.052   3.589   6.763 -0.0682 -0.7693  1.1195
 2846SOL     OW20173   3.414   2.340  10.796 -0.1179 -0.3145 -0.1913
 2846SOL    HW120174   3.455   2.259  10.827  0.1053 -0.7738 -1.6429
 2846SOL    HW220175   3.416   2.400  10.870  4.7640 -0.7119  0.0227
 2847SOL     OW20176   0.054   3.374   2.200 -0.0909  0.0373  0.4903
 2847SOL    HW120177   0.106   3.454   2.188 -0.9985  0.3405 -1.3798
 2847SOL    HW220178   0.058   3.365   2.295 -0.6517 -0.4675  0.4649
 2848SOL     OW20179   0.794   0.979   2.499 -0.6167  0.1851 -0.1718
 2848SOL    HW120180   0.869   1.021   2.540 -1.1478 -0.0349  1.0425
 2848SOL    HW220181   0.829   0.949   2.415 -0.1164  4.2299 -1.4156
 2849SOL     OW20182   4.719   3.498   6.582  0.0366 -0.8092  0.3780
 2849SOL    HW120183   4.641   3.520   6.531 -0.3851 -0.6758  1.0834
 2849SOL    HW220184   0.024   3.582   6.599 -1.5713  0.2483 -0.8104
 2850SOL     OW20185   2.044   4.663   3.450  0.1223  0.4243 -0.2904
 2850SOL    HW120186   1.990   0.000   3.476 -0.0602  1.3667 -3.3824
 2850SOL    HW220187   2.109   4.669   3.520 -0.0052 -0.8107 -0.0583
 2851SOL     OW20188   2.260   1.204  16.634 -0.0468 -0.1036  0.5547
 2851SOL    HW120189   2.282   1.121  16.591 -0.0220 -0.4846  1.2999
 2851SOL    HW220190   2.181   1.182  16.684 -1.2460  1.2675 -0.7361
 2852SOL     OW20191   1.909   1.386  16.595 -0.0116  0.4455  0.3901
 2852SOL    HW120192   1.964   1.458  16.566  2.4265 -1.2135  0.9392
 2852SOL    HW220193   1.870   1.361  16.511 -1.1577  0.7178  0.8374
 2853SOL     OW20194   1.620   2.610  15.767  0.7010 -0.2989 -0.3707
 2853SOL    HW120195   1.595   2.693  15.808 -1.4585 -1.7343  1.2359
 2853SOL    HW220196   1.586   2.621  15.678 -0.3153 -0.6750 -0.0350
 2854SOL     OW20197   3.939   2.468   1.101 -0.0256 -0.2309 -0.1879
 2854SOL    HW120198   4.007   2.497   1.162  0.8683  0.2882 -1.4402
 2854SOL    HW220199   3.887   2.548   1.106 -1.0117 -0.9653  1.1970
 2855SOL     OW20200   1.076   0.916   7.753 -0.6165 -0.5859 -0.3246
 2855SOL    HW120201   1.018   0.975   7.705 -0.3330  1.1751  1.5202
 2855SOL    HW220202   1.097   0.845   7.692  0.4483 -0.2382 -0.3606
 2856SOL     OW20203   2.762   4.559   5.297  0.0025  0.4147  0.0168
 2856SOL    HW120204   2.743   4.616   5.372  1.7440  0.6693  0.2717
 2856SOL    HW220205   2.837   4.604   5.258 -0.5134  2.8465  1.8028
 2857SOL     OW20206   0.247   2.080   8.873 -0.0421 -0.1047  0.3214
 2857SOL    HW120207   0.328   2.076   8.924 -0.6043 -1.2619  1.1225
 2857SOL    HW220208   0.253   2.170   8.840  1.5314 -0.5250 -0.5170
 2858SOL     OW20209   2.941   2.768   4.151  0.5958  0.0605  0.0228
 2858SOL    HW120210   2.899   2.853   4.160 -2.0079 -1.2215 -0.0313
 2858SOL    HW220211   2.959   2.764   4.057  2.0319 -1.4249  0.3472
 2859SOL     OW20212   4.571   3.648  11.603  0.1062  0.2886 -0.3709
 2859SOL    HW120213   4.484   3.631  11.568  0.0983 -0.9903  0.2589
 2859SOL    HW220214   4.600   3.557  11.615 -0.5415  0.2133  0.6643
 2860SOL     OW20215   4.068   1.812  14.979 -0.1590  0.4492  0.0379
 2860SOL    HW120216   4.058   1.908  14.981  1.5984  0.5899  1.6010
 2860SOL    HW220217   4.160   1.792  14.962  0.8693  4.8646  0.2915
 2861SOL     OW20218   2.310   4.494   1.329 -0.1132  0.0187  0.4712
 2861SOL    HW120219   2.308   4.411   1.280 -1.2958  1.7029 -2.3552
 2861SOL    HW220220   2.258   4.551   1.272 -0.7036 -0.7280  0.2632
 2862SOL     OW20221   1.184   3.367   8.755  0.2485  0.1399 -0.2242
 2862SOL    HW120222   1.238   3.373   8.834  0.4643  1.1505 -0.4486
 2862SOL    HW220223   1.163   3.460   8.745 -2.2351 -0.4634 -0.4648
 2863SOL     OW20224   1.248   4.624   5.685 -0.3106  0.1376 -0.2066
 2863SOL    HW120225   1.250   4.688   5.614 -2.6299 -1.1008 -1.3573
 2863SOL    HW220226   1.323   4.568   5.667 -1.3028 -0.6653 -1.8099
 2864SOL     OW20227   2.200   2.744   6.608  0.1712  0.3273 -0.3388
 2864SOL    HW120228   2.271   2.784   6.558  1.0101 -1.9897 -1.0199
 2864SOL    HW220229   2.141   2.819   6.617  0.4033  0.0133  3.5959
 2865SOL     OW20230   2.410   3.260   8.344  0.1875  0.3916 -0.0327
 2865SOL    HW120231   2.317   3.239   8.335  0.0162  0.2025  2.3296
 2865SOL    HW220232   2.430   3.286   8.253 -2.3792  1.1706 -0.3852
 2866SOL     OW20233   1.808   2.712   7.198 -0.2196  0.1691  0.2477
 2866SOL    HW120234   1.843   2.627   7.226 -0.2912  0.0055 -0.1657
 2866SOL    HW220235   1.715   2.697   7.178  0.2697 -2.0664 -0.2645
 2867SOL     OW20236   1.252   4.091   2.693  0.9476 -0.4108  0.5207
 2867SOL    HW120237   1.321   4.090   2.759 -0.2185 -0.8362  1.7318
 2867SOL    HW220238   1.306   4.083   2.614 -0.5855 -0.0269 -0.5622
 2868SOL     OW20239   2.736   2.547   7.387 -1.1192  0.0915  0.0326
 2868SOL    HW120240   2.640   2.552   7.384 -1.1819 -1.3526 -0.3465
 2868SOL    HW220241   2.754   2.638   7.361  4.7441 -1.1774 -0.3726
 2869SOL     OW20242   0.731   3.969  11.335  0.3080  0.0228 -0.1938
 2869SOL    HW120243   0.768   3.967  11.424 -0.6117  1.0979  0.2248
 2869SOL    HW220244   0.760   3.889  11.293  0.6697  0.1421 -0.1688
 2870SOL     OW20245   1.473   3.201   8.576 -0.3920  0.1076  0.2496
 2870SOL    HW120246   1.489   3.233   8.664 -1.7499  0.4021  0.3790
 2870SOL    HW220247   1.466   3.105   8.579  0.0193  0.0879  0.5858
 2871SOL     OW20248   2.332   3.590   2.428 -0.0154 -0.0485 -0.1017
 2871SOL    HW120249   2.282   3.622   2.353  1.0637 -0.2381 -0.8972
 2871SOL    HW220250   2.257   3.541   2.461  0.1300  1.3541  2.3231
 2872SOL     OW20251   4.713   3.812   7.194  0.1606  0.4067 -0.0938
 2872SOL    HW120252   0.056   3.818   7.245  1.0191 -2.5458 -1.0825
 2872SOL    HW220253   4.659   3.868   7.249 -0.5566  2.4884 -2.8692
 2873SOL     OW20254   3.171   1.984   9.382  0.2561  0.8399 -0.1345
 2873SOL    HW120255   3.168   1.889   9.396  0.5647  0.6609 -1.2225
 2873SOL    HW220256   3.193   2.013   9.470  1.6077  2.5182 -1.0261
 2874SOL     OW20257   4.580   2.875   2.411 -0.0184  0.1431  0.6746
 2874SOL    HW120258   4.646   2.916   2.467  1.4564  0.8188 -1.5631
 2874SOL    HW220259   4.640   2.817   2.364  0.4588  1.5864 -0.4751
 2875SOL     OW20260   3.304   2.949   7.619 -0.6676 -0.0286  0.0688
 2875SOL    HW120261   3.319   3.043   7.624  0.6074 -0.2731  0.7284
 2875SOL    HW220262   3.390   2.906   7.614 -2.1792 -3.0454 -0.2394
 2876SOL     OW20263   3.378   3.935   3.458 -0.7882 -0.6501  0.2448
 2876SOL    HW120264   3.371   3.877   3.533 -0.6212 -1.3825 -0.2971
 2876SOL    HW220265   3.378   4.023   3.497  0.3355  1.2148 -3.9112
 2877SOL     OW20266   2.759   2.281   9.024  0.0405 -0.0386  0.0999
 2877SOL    HW120267   2.840   2.285   9.075  0.5066 -0.0460 -0.6462
 2877SOL    HW220268   2.697   2.257   9.093  0.6762  0.4348  0.8514
 2878SOL     OW20269   2.311   3.834   7.132  0.3301 -0.2252  0.4651
 2878SOL    HW120270   2.243   3.892   7.099  1.0297  0.8119  0.8506
 2878SOL    HW220271   2.266   3.779   7.197 -3.0430  1.5496 -0.4336
 2879SOL     OW20272   3.935   0.604   8.608 -0.2350  0.0877 -0.2091
 2879SOL    HW120273   3.855   0.629   8.653 -0.3561 -0.5482 -0.0701
 2879SOL    HW220274   3.980   0.554   8.677 -1.1849 -0.2590  0.1516
 2880SOL     OW20275   3.084   0.800   8.073 -0.2424  0.0499  0.5773
 2880SOL    HW120276   3.123   0.884   8.047 -1.8065  0.7000  0.3306
 2880SOL    HW220277   3.025   0.831   8.142  0.3046  0.1252  1.0129
 2881SOL     OW20278   4.083   4.299   5.570 -0.5754 -0.6266  0.0475
 2881SOL    HW120279   4.178   4.312   5.570 -0.5600 -0.7657  0.7143
 2881SOL    HW220280   4.070   4.217   5.617 -0.2139 -1.7727 -1.8482
 2882SOL     OW20281   4.672   2.992   7.844 -0.3149  0.3943  0.2041
 2882SOL    HW120282   4.646   2.910   7.887  0.5906 -0.2911 -0.5612
 2882SOL    HW220283   4.640   3.060   7.903 -2.7073 -0.7477  0.2413
 2883SOL     OW20284   0.147   0.284   3.690  0.9091 -0.0015 -0.0251
 2883SOL    HW120285   0.070   0.232   3.712  1.2248  0.4969  2.2731
 2883SOL    HW220286   0.155   0.345   3.764 -0.6651 -1.9692  1.7586
 2884SOL     OW20287   1.493   4.446   5.722 -0.1813 -0.1102  0.3764
 2884SOL    HW120288   1.560   4.510   5.747  1.4403 -0.7002 -2.5033
 2884SOL    HW220289   1.485   4.391   5.800  2.2935 -1.7671 -0.5398
 2885SOL     OW20290   3.066   0.754  15.403  0.2090 -0.0219  0.0940
 2885SOL    HW120291   2.974   0.780  15.404  0.2359  0.1751 -3.2043
 2885SOL    HW220292   3.055   0.660  15.417 -0.0815 -0.0165 -0.1023
 2886SOL     OW20293   3.752   4.470   5.986 -0.4185  0.3415 -0.3111
 2886SOL    HW120294   3.762   4.375   5.983 -2.8098  0.0568  0.4094
 2886SOL    HW220295   3.838   4.498   5.955 -0.2661  0.3558  0.1313
 2887SOL     OW20296   3.725   2.923   7.504  0.3990  0.4088  0.1495
 2887SOL    HW120297   3.664   2.961   7.440  1.7922  0.6089 -1.0687
 2887SOL    HW220298   3.770   3.004   7.527 -0.0276  0.4681  0.7709
 2888SOL     OW20299   0.344   4.696   9.765 -0.3639 -0.0969 -0.5624
 2888SOL    HW120300   0.358   0.028   9.701  2.2728 -0.9277 -0.8565
 2888SOL    HW220301   0.290   4.642   9.707 -0.5665 -0.3908 -0.1042
 2889SOL     OW20302   3.858   1.344  10.378 -0.0772  0.7643  0.6724
 2889SOL    HW120303   3.876   1.437  10.363  1.0490  0.4964  0.3609
 2889SOL    HW220304   3.927   1.307  10.323  0.0144 -1.2810  2.1607
 2890SOL     OW20305   4.099   2.672   2.579  0.1109  0.1350  0.2484
 2890SOL    HW120306   4.146   2.594   2.550  1.7968  1.2525  0.0202
 2890SOL    HW220307   4.166   2.706   2.639 -0.3537 -1.3126  1.5954
 2891SOL     OW20308   2.286   1.784   6.455 -0.3133  0.4547  0.5879
 2891SOL    HW120309   2.314   1.698   6.426  0.6138  1.4472 -1.4600
 2891SOL    HW220310   2.194   1.764   6.471 -0.5481  0.6944 -0.4432
 2892SOL     OW20311   3.908   0.842  17.357  0.4445 -0.1751 -0.0918
 2892SOL    HW120312   3.874   0.898  17.426 -0.4168  0.3500 -0.9410
 2892SOL    HW220313   3.879   0.756  17.384  1.4628 -1.8335 -4.1544
 2893SOL     OW20314   1.295   2.908  14.166 -0.2385  0.2320 -0.0570
 2893SOL    HW120315   1.289   3.001  14.189  1.6097  0.3167  0.1023
 2893SOL    HW220316   1.278   2.915  14.073 -0.5782  2.9442  0.1995
 2894SOL     OW20317   4.555   0.781   4.773  0.6159  0.4355  0.3439
 2894SOL    HW120318   4.504   0.861   4.774 -1.4014 -0.7838 -4.3466
 2894SOL    HW220319   4.578   0.775   4.866 -0.7561 -1.7992  0.5273
 2895SOL     OW20320   3.915   3.628   1.457 -0.2474  0.7537  0.7519
 2895SOL    HW120321   3.829   3.662   1.480  0.0717  2.0060  0.1226
 2895SOL    HW220322   3.898   3.535   1.467  0.8890  0.3026 -1.3683
 2896SOL     OW20323   2.819   0.253  12.933  0.6418  0.1887  0.2797
 2896SOL    HW120324   2.777   0.283  13.013 -2.3473 -0.6125 -0.9990
 2896SOL    HW220325   2.768   0.181  12.897  0.7880  0.6608 -0.8903
 2897SOL     OW20326   3.516   4.388   7.216  0.3700  0.4616  0.1379
 2897SOL    HW120327   3.580   4.369   7.285  1.6742 -0.6074 -1.3695
 2897SOL    HW220328   3.483   4.299   7.204  0.7150  0.2149  1.0595
 2898SOL     OW20329   0.105   0.916   3.466 -0.1625 -0.5584  0.0081
 2898SOL    HW120330   0.121   0.941   3.375 -1.4995 -1.2146 -0.4152
 2898SOL    HW220331   0.189   0.933   3.509  0.3309  1.4236 -1.7187
 2899SOL     OW20332   2.480   4.037   3.165  0.0013 -0.6910 -0.3338
 2899SOL    HW120333   2.455   3.970   3.229  0.3563 -0.6744 -0.1812
 2899SOL    HW220334   2.452   3.994   3.084 -0.3604  1.1424 -1.1840
 2900SOL     OW20335   0.070   1.499  12.169 -0.1788 -0.1614  0.1088
 2900SOL    HW120336   0.014   1.465  12.098  1.6147 -2.7006 -0.0841
 2900SOL    HW220337   0.021   1.580  12.179  0.7573  0.1712  1.9351
 2901SOL     OW20338   4.032   0.843  15.806 -0.1776  0.1712  0.0307
 2901SOL    HW120339   3.989   0.826  15.722 -3.5051 -0.0855  1.7759
 2901SOL    HW220340   4.034   0.752  15.837  1.1834  0.2430  0.1554
 2902SOL     OW20341   0.494   4.591   7.977  0.7324  0.0523  0.4117
 2902SOL    HW120342   0.509   4.501   8.007 -0.4578 -0.1571  0.3819
 2902SOL    HW220343   0.554   4.644   8.030  2.0009 -1.6550  0.6869
 2903SOL     OW20344   4.202   4.215  10.029  0.0784  0.1310  0.5469
 2903SOL    HW120345   4.113   4.191  10.003  0.4798  0.2018 -0.8568
 2903SOL    HW220346   4.230   4.248   9.944 -0.7546  1.8904  0.9671
 2904SOL     OW20347   0.201   2.800   8.804  0.2418 -0.2243 -0.2227
 2904SOL    HW120348   0.170   2.754   8.882  0.4357 -0.1994 -0.1323
 2904SOL    HW220349   0.119   2.838   8.772  1.3374  0.2152 -2.4867
 2905SOL     OW20350   2.218   0.708   5.729 -0.1862  0.2038 -0.4490
 2905SOL    HW120351   2.157   0.749   5.667 -1.3862  0.0261  0.6083
 2905SOL    HW220352   2.182   0.717   5.818  0.3565  1.2007 -0.3248
 2906SOL     OW20353   3.996   4.527   5.273 -0.2023 -0.3905 -0.0788
 2906SOL    HW120354   4.032   4.451   5.227  1.1514 -0.5995  1.3189
 2906SOL    HW220355   4.012   4.603   5.216 -2.9878 -1.2633 -1.9990
 2907SOL     OW20356   3.795   2.322  14.392  0.5885  0.8327  0.1318
 2907SOL    HW120357   3.765   2.410  14.412 -1.7167  0.2942 -0.9695
 2907SOL    HW220358   3.827   2.330  14.302 -0.5911  1.7519 -0.1973
 2908SOL     OW20359   0.012   2.017  14.983  0.0762  0.4177  0.2727
 2908SOL    HW120360   4.735   2.111  14.970  0.6135  0.6589  1.4069
 2908SOL    HW220361   0.048   1.995  14.897 -3.0816 -1.1482 -0.6452
 2909SOL     OW20362   4.374   2.458   7.557  0.1473  0.2163 -0.3643
 2909SOL    HW120363   4.336   2.488   7.474 -0.1501  0.8932  0.0166
 2909SOL    HW220364   4.414   2.377   7.526 -0.3169  0.5983 -1.9692
 2910SOL     OW20365   1.201   3.600   0.903  0.6455  0.0707 -0.0794
 2910SOL    HW120366   1.134   3.607   0.971 -1.0852  0.7293 -1.8484
 2910SOL    HW220367   1.242   3.684   0.923 -1.1538  0.8160  0.5278
 2911SOL     OW20368   0.090   0.748   7.911 -0.4027  0.6171  0.1430
 2911SOL    HW120369   0.079   0.656   7.935  0.6707  0.1378 -1.1568
 2911SOL    HW220370   0.010   0.756   7.860 -0.3697  0.0175 -0.0001
 2912SOL     OW20371   0.729   1.610   8.402  0.6179 -0.5042 -0.8922
 2912SOL    HW120372   0.786   1.537   8.428  0.1603 -0.9308 -1.0923
 2912SOL    HW220373   0.765   1.686   8.447 -1.0819 -0.1761 -0.0977
 2913SOL     OW20374   1.481   2.160  11.914  0.1712 -0.6512 -0.1293
 2913SOL    HW120375   1.557   2.116  11.875  0.8910 -1.6584  2.4121
 2913SOL    HW220376   1.410   2.100  11.891  0.3644 -1.4719  1.4611
 2914SOL     OW20377   3.823   1.222   2.340 -0.0080 -0.3572 -0.1992
 2914SOL    HW120378   3.727   1.219   2.348  0.0434  0.7271  0.8470
 2914SOL    HW220379   3.853   1.197   2.427 -0.7572 -1.1469 -0.1674
 2915SOL     OW20380   3.344   0.297   7.838 -0.5805  0.3244  0.1953
 2915SOL    HW120381   3.352   0.360   7.766  2.2883 -0.1309  0.1340
 2915SOL    HW220382   3.388   0.334   7.914 -2.4197  1.6231  0.6488
 2916SOL     OW20383   0.410   2.012   4.628  0.2097 -0.4290  0.6756
 2916SOL    HW120384   0.394   2.075   4.557  0.2374 -0.1070  0.9573
 2916SOL    HW220385   0.347   2.040   4.695 -0.3151  0.4215 -0.1691
 2917SOL     OW20386   3.891   3.114   7.570 -0.4973  0.2943 -0.4134
 2917SOL    HW120387   3.889   3.185   7.634  1.8616 -1.3232  1.4658
 2917SOL    HW220388   3.957   3.152   7.512  0.3019  0.8441  0.8395
 2918SOL     OW20389   0.095   1.208   7.707 -0.4347  0.8997 -0.3092
 2918SOL    HW120390   0.188   1.187   7.693 -1.1006 -0.6564 -2.3766
 2918SOL    HW220391   0.058   1.126   7.737 -0.9473  1.4838  0.6501
 2919SOL     OW20392   2.069   1.095   5.255  0.0817  0.9154  0.0770
 2919SOL    HW120393   1.991   1.150   5.244 -0.1355 -0.0073 -3.1593
 2919SOL    HW220394   2.121   1.149   5.313  1.1439  1.4022 -1.3390
 2920SOL     OW20395   4.179   3.366  14.636  0.5001 -0.0820  0.2895
 2920SOL    HW120396   4.103   3.324  14.678  0.7967  0.7402  1.6195
 2920SOL    HW220397   4.255   3.313  14.658 -0.4255 -1.9025 -0.8303
 2921SOL     OW20398   2.531   4.622  11.002 -0.2349 -0.4498 -0.0718
 2921SOL    HW120399   2.569   4.541  11.035 -1.6971 -1.2814 -0.4647
 2921SOL    HW220400   2.495   4.654  11.085 -3.4514 -1.7566 -0.9647
 2922SOL     OW20401   3.888   2.435   4.858 -0.3070 -0.1391 -0.3827
 2922SOL    HW120402   3.973   2.478   4.847  1.6980 -3.7597  0.9154
 2922SOL    HW220403   3.831   2.511   4.863  0.3529  0.2756  0.9037
 2923SOL     OW20404   2.449   2.665   3.161  0.0977 -0.7940  0.0818
 2923SOL    HW120405   2.422   2.665   3.253  1.3082  1.7902  0.4499
 2923SOL    HW220406   2.428   2.578   3.129 -1.5105 -0.5756  0.5486
 2924SOL     OW20407   3.382   1.288   9.177 -0.3991 -0.2170 -0.0813
 2924SOL    HW120408   3.469   1.286   9.137 -0.2575  0.8406  0.1574
 2924SOL    HW220409   3.399   1.337   9.257 -0.2121 -1.9466  0.9320
 2925SOL     OW20410   1.062   1.819  12.579  0.0574  0.3470  0.2489
 2925SOL    HW120411   0.968   1.798  12.578 -0.6415  3.4953 -1.9446
 2925SOL    HW220412   1.098   1.751  12.635 -0.2618 -0.4470 -0.5246
 2926SOL     OW20413   2.431   1.186   1.753  1.0346 -0.1302  0.5532
 2926SOL    HW120414   2.377   1.262   1.771 -1.5263 -2.3036  2.0928
 2926SOL    HW220415   2.497   1.236   1.705  0.8512 -3.7486 -3.4865
 2927SOL     OW20416   3.878   0.514   4.379 -0.3383 -0.1100 -0.2095
 2927SOL    HW120417   3.805   0.509   4.440  0.6017 -2.6046  0.7316
 2927SOL    HW220418   3.925   0.578   4.433  1.8178 -0.0518 -2.1386
 2928SOL     OW20419   2.731   3.672   4.130 -0.3289 -0.2400  0.9082
 2928SOL    HW120420   2.652   3.660   4.078 -2.7944 -0.0468  4.6328
 2928SOL    HW220421   2.779   3.598   4.092 -1.9306 -0.1245 -1.2906
 2929SOL     OW20422   0.785   3.897   5.387 -0.3984  0.3807  0.1070
 2929SOL    HW120423   0.690   3.891   5.385 -0.2169 -2.7985  1.6558
 2929SOL    HW220424   0.791   3.906   5.482 -0.6475 -2.8232  0.4441
 2930SOL     OW20425   0.416   0.216   1.701 -0.1524  0.1699 -0.8294
 2930SOL    HW120426   0.429   0.284   1.635 -1.3147 -0.8634 -2.1295
 2930SOL    HW220427   0.342   0.169   1.663 -0.0444 -0.0755 -0.7401
 2931SOL     OW20428   1.403   3.651   7.116 -0.2206  0.1787 -0.0883
 2931SOL    HW120429   1.460   3.579   7.142 -1.3184 -0.6352  0.0858
 2931SOL    HW220430   1.396   3.642   7.021  2.0716 -0.7455 -0.1770
 2932SOL     OW20431   0.752   2.419   8.625 -0.3338 -0.2360  0.2694
 2932SOL    HW120432   0.764   2.348   8.687  1.9324  0.3857  0.5616
 2932SOL    HW220433   0.728   2.495   8.678  2.3973 -0.9076  2.5006
 2933SOL     OW20434   1.867   1.233   8.242 -0.0312  0.0976 -0.3021
 2933SOL    HW120435   1.861   1.220   8.337 -1.3281 -0.8128 -0.5175
 2933SOL    HW220436   1.799   1.174   8.212 -0.5803  1.3430 -1.5049
 2934SOL     OW20437   1.463   1.201  15.321 -0.0049  1.0318  0.5849
 2934SOL    HW120438   1.556   1.179  15.320 -0.1321  0.5274  0.1095
 2934SOL    HW220439   1.472   1.278  15.264  1.2942  1.0504  0.8019
 2935SOL     OW20440   4.460   0.486   1.629  0.2269  0.2074 -0.0206
 2935SOL    HW120441   4.466   0.515   1.720 -2.2219  0.7696 -0.0429
 2935SOL    HW220442   4.549   0.510   1.602  1.4853 -1.1837  2.8735
 2936SOL     OW20443   0.742   4.685   8.512  0.4214 -0.1575  0.5108
 2936SOL    HW120444   0.682   4.659   8.582 -0.2043 -2.1962 -0.7784
 2936SOL    HW220445   0.812   4.621   8.514  1.2826  0.8027  1.2402
 2937SOL     OW20446   0.050   0.355   2.999  0.3998 -0.1776 -0.0965
 2937SOL    HW120447   4.721   0.413   2.960  0.3647 -0.9880 -1.2426
 2937SOL    HW220448   0.078   0.308   2.921  0.8277 -0.2641  0.1103
 2938SOL     OW20449   2.078   0.359   6.450 -0.0412 -0.7125 -0.1221
 2938SOL    HW120450   2.010   0.378   6.514  0.5729 -0.1552  0.3657
 2938SOL    HW220451   2.041   0.405   6.375 -0.1568  0.6759  0.7938
 2939SOL     OW20452   1.790   2.686  13.695  0.0639 -0.2917  1.0736
 2939SOL    HW120453   1.853   2.746  13.736 -0.2749 -0.1006  1.3251
 2939SOL    HW220454   1.854   2.628  13.654  0.5505  1.5866 -0.8380
 2940SOL     OW20455   4.372   3.842   4.670  0.2347  0.3502 -0.4906
 2940SOL    HW120456   4.426   3.913   4.637 -0.6165  2.0593  1.7829
 2940SOL    HW220457   4.317   3.810   4.598 -0.7786 -0.1215  0.4762
 2941SOL     OW20458   3.852   3.011   4.454 -0.0122  0.1757 -0.2524
 2941SOL    HW120459   3.792   3.085   4.457  0.6516  0.6770  0.6083
 2941SOL    HW220460   3.823   2.961   4.531 -0.1722 -1.2297 -1.2173
 2942SOL     OW20461   3.538   0.293   3.715  0.1895  0.3677 -0.0031
 2942SOL    HW120462   3.510   0.212   3.672 -1.7181  2.0514 -1.8691
 2942SOL    HW220463   3.489   0.351   3.658 -2.3594  0.8668  2.6724
 2943SOL     OW20464   3.119   2.636   1.716 -0.3658 -0.2168 -0.3338
 2943SOL    HW120465   3.062   2.582   1.771  0.8079 -0.5544  0.5583
 2943SOL    HW220466   3.205   2.612   1.751 -0.1388 -0.7202 -1.2525
 2944SOL     OW20467   1.965   2.936   0.606  0.3962 -0.1004  0.1782
 2944SOL    HW120468   2.037   2.884   0.572 -0.2593 -1.4697  0.8661
 2944SOL    HW220469   1.986   2.937   0.699 -0.3294 -1.5143  0.3596
 2945SOL     OW20470   4.703   3.523   9.937 -0.3481 -0.7343 -0.5122
 2945SOL    HW120471   0.027   3.595   9.950  0.9381 -2.1814  1.3774
 2945SOL    HW220472   4.673   3.510  10.027  0.7811  0.5742  0.0492
 2946SOL     OW20473   0.146   4.581   8.307 -0.2240  0.2073  0.4023
 2946SOL    HW120474   0.089   4.574   8.231 -0.7351 -0.4695  0.8516
 2946SOL    HW220475   0.087   4.546   8.374 -0.8020  0.2051 -0.1095
 2947SOL     OW20476   4.007   1.184   8.802 -0.1488 -0.0936  0.1014
 2947SOL    HW120477   4.029   1.139   8.720 -1.4722 -0.6826  0.0533
 2947SOL    HW220478   3.913   1.192   8.782 -0.2178 -1.8684 -0.3455
 2948SOL     OW20479   4.329   1.435  15.356  0.4705 -0.1774  0.2733
 2948SOL    HW120480   4.293   1.465  15.273  3.0777  0.7148 -0.5270
 2948SOL    HW220481   4.286   1.350  15.370  0.0620  0.3526  2.3446
 2949SOL     OW20482   3.952   2.148  14.525  0.6425 -0.1331 -0.1182
 2949SOL    HW120483   3.908   2.190  14.451  0.9958  1.0153  0.3283
 2949SOL    HW220484   3.894   2.181  14.593 -1.1788 -0.4995 -1.5004
 2950SOL     OW20485   0.643   1.983   7.981  0.1220 -0.1906  0.6880
 2950SOL    HW120486   0.563   1.935   8.003 -0.6277  1.2803  1.1333
 2950SOL    HW220487   0.664   2.030   8.061  1.9783  2.0792 -1.1540
 2951SOL     OW20488   1.618   4.058  15.831 -0.1121  0.4909  0.7451
 2951SOL    HW120489   1.547   4.015  15.783 -0.3533  0.6491  0.9640
 2951SOL    HW220490   1.689   3.995  15.822 -0.2675  0.0013  3.0401
 2952SOL     OW20491   3.097   2.260   2.648  0.2363 -0.4136  0.3649
 2952SOL    HW120492   3.038   2.194   2.684  0.1543 -1.4170 -1.5843
 2952SOL    HW220493   3.044   2.336   2.673 -1.0761 -1.0075 -0.6145
 2953SOL     OW20494   1.208   1.372   7.819  0.2143  0.5517 -0.5144
 2953SOL    HW120495   1.127   1.360   7.868  0.5173 -1.7827 -0.5758
 2953SOL    HW220496   1.194   1.447   7.761  3.4151  0.4140 -1.4521
 2954SOL     OW20497   1.744   0.936   7.810 -0.8619  0.0805 -0.1496
 2954SOL    HW120498   1.763   0.886   7.890 -1.5884 -1.0683 -0.6945
 2954SOL    HW220499   1.654   0.904   7.799 -0.7082 -0.2854 -0.3514
 2955SOL     OW20500   3.889   4.662   4.866 -0.4722 -0.3337 -0.5069
 2955SOL    HW120501   3.977   4.666   4.829 -0.6570 -1.4475 -1.0622
 2955SOL    HW220502   3.835   4.627   4.795 -1.0862 -0.2195 -0.0947
 2956SOL     OW20503   4.458   0.468   4.744  0.1197  0.0037  0.3704
 2956SOL    HW120504   4.371   0.506   4.726  1.0981  1.7513 -0.6540
 2956SOL    HW220505   4.484   0.450   4.654  1.1923  0.3620  0.6160
 2957SOL     OW20506   3.223   0.771  14.675 -0.4717 -0.0299  0.0983
 2957SOL    HW120507   3.177   0.855  14.681 -0.9414 -0.3580  1.1534
 2957SOL    HW220508   3.310   0.803  14.702 -0.3326  0.1793 -0.6036
 2958SOL     OW20509   0.668   4.701   5.070  0.1434 -0.1060  0.0295
 2958SOL    HW120510   0.658   0.039   5.012  1.3969  1.3622  1.7382
 2958SOL    HW220511   0.762   4.685   5.063  0.4968  1.3255  1.5880
 2959SOL     OW20512   3.920   2.227   7.755 -0.2927  0.0819  0.5094
 2959SOL    HW120513   3.866   2.150   7.773  2.1575 -2.0228 -1.1138
 2959SOL    HW220514   4.009   2.190   7.757 -0.4158 -0.3512 -1.6014
 2960SOL     OW20515   0.634   3.743  11.522  0.3083 -0.5081 -0.1759
 2960SOL    HW120516   0.666   3.815  11.577  1.4930 -0.6389 -0.6934
 2960SOL    HW220517   0.541   3.764  11.529  0.2233 -1.3538  1.2535
 2961SOL     OW20518   0.103   4.329   4.194  0.0371  0.5583 -0.4358
 2961SOL    HW120519   0.037   4.329   4.125  0.3044  0.5830 -0.6932
 2961SOL    HW220520   0.127   4.237   4.182  0.3741  0.3052  2.1415
 2962SOL     OW20521   0.287   0.346   5.260  0.1758 -0.3065  0.2175
 2962SOL    HW120522   0.280   0.393   5.343  0.9347  0.8830 -0.3795
 2962SOL    HW220523   0.229   0.270   5.256 -1.5066  0.9928 -0.1007
 2963SOL     OW20524   3.979   4.187   8.680 -0.4323 -0.6773  0.5498
 2963SOL    HW120525   3.914   4.256   8.666 -0.9480 -1.1022  0.8075
 2963SOL    HW220526   3.952   4.128   8.610 -0.3311 -3.3009  2.6940
 2964SOL     OW20527   0.567   3.213   8.510 -0.5016 -0.3472  0.2952
 2964SOL    HW120528   0.502   3.200   8.442  1.7537 -1.4794 -1.6399
 2964SOL    HW220529   0.516   3.268   8.569  1.2022 -0.4291  1.8565
 2965SOL     OW20530   0.386   1.432   5.734  0.1979  0.4176  0.0656
 2965SOL    HW120531   0.420   1.403   5.649  2.8194  0.9436  0.9429
 2965SOL    HW220532   0.297   1.458   5.707 -0.4425 -2.8754 -1.0307
 2966SOL     OW20533   0.240   0.105  15.530  0.1492 -0.6789  0.5768
 2966SOL    HW120534   0.275   0.186  15.491 -1.5464 -0.3386 -0.2551
 2966SOL    HW220535   0.282   0.110  15.615 -0.6351  1.5958  0.8367
 2967SOL     OW20536   3.852   3.716  17.052 -0.3057 -0.2178  0.6557
 2967SOL    HW120537   3.894   3.715  17.138  0.4236 -1.0004  0.2913
 2967SOL    HW220538   3.805   3.799  17.065  1.4984  1.2171 -2.0431
 2968SOL     OW20539   0.383   2.986   8.690 -0.1242 -0.7640  0.0889
 2968SOL    HW120540   0.349   2.939   8.766  0.7683 -0.7165  0.5051
 2968SOL    HW220541   0.299   3.016   8.653  0.1615 -0.7777 -0.5804
 2969SOL     OW20542   1.696   3.946   9.532 -0.2707  0.0506 -0.3749
 2969SOL    HW120543   1.603   3.940   9.553 -0.3267 -1.2093 -0.9596
 2969SOL    HW220544   1.703   4.037   9.505 -1.0774  0.1218 -0.3359
 2970SOL     OW20545   2.377   4.303   1.916 -0.1655 -0.0610  0.1329
 2970SOL    HW120546   2.327   4.358   1.856 -0.0712 -0.3208 -0.1770
 2970SOL    HW220547   2.419   4.242   1.856  0.9870 -1.1311  2.0304
 2971SOL     OW20548   0.214   2.153   7.790  0.2457 -0.6998  0.0919
 2971SOL    HW120549   0.208   2.249   7.797  0.9510 -0.6715  0.3110
 2971SOL    HW220550   0.286   2.144   7.853 -0.8309 -0.5709  1.3518
 2972SOL     OW20551   2.813   1.232   8.615  0.1025  0.2100 -0.2886
 2972SOL    HW120552   2.840   1.191   8.533 -2.9331 -2.6387  0.1176
 2972SOL    HW220553   2.718   1.219   8.619  0.3041 -0.7255  1.4807
 2973SOL     OW20554   1.442   1.025   5.320  0.3512  0.3550 -0.1275
 2973SOL    HW120555   1.392   1.102   5.293  1.0504  0.6142 -0.6949
 2973SOL    HW220556   1.503   0.997   5.252  1.9215 -1.2248  1.9424
 2974SOL     OW20557   2.009   2.160  10.185 -0.1868  0.9654 -0.3716
 2974SOL    HW120558   2.077   2.163  10.118 -1.5041 -1.2127 -1.8140
 2974SOL    HW220559   1.994   2.065  10.190 -1.4177  1.1151 -1.3879
 2975SOL     OW20560   2.201   4.496   6.058 -0.4403 -0.0197 -0.1679
 2975SOL    HW120561   2.264   4.537   6.118  0.3890 -1.7362  0.1535
 2975SOL    HW220562   2.122   4.493   6.111  0.4115  1.0787  1.1696
 2976SOL     OW20563   1.648   3.368  11.559 -0.0154  0.2970  0.5788
 2976SOL    HW120564   1.598   3.293  11.528 -0.5116  0.5023  0.8849
 2976SOL    HW220565   1.630   3.362  11.653 -4.6859  0.0549 -0.3465
 2977SOL     OW20566   0.202   4.108   2.336 -0.4120  0.2592 -0.1954
 2977SOL    HW120567   0.297   4.118   2.337 -0.1125 -2.6554  0.7550
 2977SOL    HW220568   0.182   4.018   2.363 -1.7164  0.3167 -0.9335
 2978SOL     OW20569   2.728   0.872   0.339  0.3883 -0.1336  0.0420
 2978SOL    HW120570   2.791   0.868   0.267 -2.0333 -0.0077 -2.1354
 2978SOL    HW220571   2.731   0.963   0.366  0.9741 -0.6583  1.7220
 2979SOL     OW20572   4.228   1.931   2.549 -0.3600 -0.3679  0.0262
 2979SOL    HW120573   4.279   2.006   2.580 -0.0859 -0.5733  0.0668
 2979SOL    HW220574   4.276   1.861   2.592  0.5051 -0.6160 -1.3228
 2980SOL     OW20575   1.791   0.570   0.437  0.0317  0.0466 -0.2350
 2980SOL    HW120576   1.729   0.622   0.385 -1.2663 -0.6033  0.6423
 2980SOL    HW220577   1.742   0.488   0.447 -1.2669  0.8450  0.0203
 2981SOL     OW20578   3.742   2.447   1.338  0.0060  0.1440 -0.4212
 2981SOL    HW120579   3.799   2.501   1.284  0.7236  2.8509  3.0039
 2981SOL    HW220580   3.723   2.373   1.280  1.7036 -1.8208  1.5220
 2982SOL     OW20581   2.558   0.922   5.949  0.2116 -0.1393  0.2402
 2982SOL    HW120582   2.638   0.871   5.937 -1.2759 -2.5185  0.3282
 2982SOL    HW220583   2.527   0.921   5.859  0.0124  2.8945  0.2938
 2983SOL     OW20584   2.004   2.964   4.397 -0.4723  0.3958 -0.1164
 2983SOL    HW120585   2.029   2.975   4.489  2.0659  1.8515 -0.9654
 2983SOL    HW220586   2.059   3.026   4.349  0.9727 -1.2680 -0.6563
 2984SOL     OW20587   4.714   2.429   8.273 -0.1608  0.0028 -0.3961
 2984SOL    HW120588   0.010   2.424   8.184  0.4621 -0.0025 -0.1688
 2984SOL    HW220589   4.681   2.340   8.286 -0.4778  0.7245  3.9232
 2985SOL     OW20590   2.493   3.566  10.065  0.5733 -0.0819  0.2487
 2985SOL    HW120591   2.452   3.481  10.074 -0.6208  0.5124  0.3532
 2985SOL    HW220592   2.478   3.607  10.150  0.9541  0.8471 -0.1193
 2986SOL     OW20593   3.746   1.049   6.032  0.0499  0.0611  0.0742
 2986SOL    HW120594   3.819   1.024   6.089 -0.8180 -2.3615  0.1339
 2986SOL    HW220595   3.784   1.116   5.975 -2.2114  3.2400  2.3230
 2987SOL     OW20596   0.372   2.412   9.916  0.0694 -0.2609  0.0488
 2987SOL    HW120597   0.439   2.411   9.848  0.2375 -1.7165  0.2328
 2987SOL    HW220598   0.392   2.490   9.968 -1.2780  0.0745  0.0620
 2988SOL     OW20599   4.598   1.260   6.713 -0.2478  0.1119 -0.1031
 2988SOL    HW120600   4.544   1.330   6.750 -1.3096 -0.2997 -0.8626
 2988SOL    HW220601   4.547   1.182   6.733  1.0455 -1.3276 -2.5030
 2989SOL     OW20602   1.925   1.027   4.022  0.2288 -0.6721 -0.6390
 2989SOL    HW120603   1.865   0.997   4.090  0.0662 -1.2181 -1.0277
 2989SOL    HW220604   1.867   1.074   3.963 -0.4515 -0.9630 -0.1985
 2990SOL     OW20605   3.875   2.485   0.230  0.2192  0.1220  0.5664
 2990SOL    HW120606   3.840   2.572   0.214  1.1991  0.0279 -1.9874
 2990SOL    HW220607   3.792   2.438   0.241 -0.4860  1.2719  0.0474
 2991SOL     OW20608   0.386   3.778  16.894  0.0359  0.0171 -0.2984
 2991SOL    HW120609   0.411   3.767  16.986  0.9130 -0.9184 -0.6514
 2991SOL    HW220610   0.318   3.712  16.882 -2.0943  2.3032 -0.9913
 2992SOL     OW20611   3.117   4.177   3.455 -0.0451  0.1608  0.0777
 2992SOL    HW120612   3.164   4.173   3.372 -1.0024 -0.6751 -0.4323
 2992SOL    HW220613   3.187   4.182   3.519 -1.3910  2.2069  1.4033
 2993SOL     OW20614   2.684   3.071  14.432 -0.1259  0.5187 -0.2097
 2993SOL    HW120615   2.655   3.161  14.441  0.9285  0.9939 -1.5501
 2993SOL    HW220616   2.779   3.071  14.417  0.0888  1.9238  1.1620
 2994SOL     OW20617   2.047   1.899   7.750 -0.0989  0.7960 -0.0980
 2994SOL    HW120618   1.974   1.847   7.784 -0.1854 -1.7571 -4.1909
 2994SOL    HW220619   1.991   1.968   7.715  0.1337 -0.0730 -2.1364
 2995SOL     OW20620   0.781   3.154  16.223  0.0135  0.0982 -0.1423
 2995SOL    HW120621   0.689   3.163  16.201  0.0337  1.0132  0.1675
 2995SOL    HW220622   0.796   3.217  16.293 -0.6150 -0.9096  0.8890
 2996SOL     OW20623   4.088   4.404   8.494 -0.2501 -0.1343  0.0882
 2996SOL    HW120624   4.121   4.491   8.470 -1.0632  0.0683 -0.3040
 2996SOL    HW220625   4.053   4.378   8.409 -1.7210  0.0795  0.6333
 2997SOL     OW20626   2.698   0.023   7.744 -0.1059  0.0983  0.3161
 2997SOL    HW120627   2.705   4.665   7.740 -0.6239  0.0507  0.4584
 2997SOL    HW220628   2.753   0.033   7.822  2.3300  1.1998 -1.5408
 2998SOL     OW20629   3.474   4.096  15.516  0.1733 -1.0260  0.2188
 2998SOL    HW120630   3.426   4.121  15.595 -1.7445  0.0683 -1.3089
 2998SOL    HW220631   3.463   4.170  15.457  2.5413 -0.2809  0.7170
 2999SOL     OW20632   4.244   1.374   5.145  0.2806 -0.2277 -0.3113
 2999SOL    HW120633   4.262   1.351   5.053  1.0749 -1.4559  0.1540
 2999SOL    HW220634   4.177   1.307   5.162  0.0670  0.2552  0.6894
 3000SOL     OW20635   3.373   3.318   2.081 -0.4713 -0.1275 -0.0407
 3000SOL    HW120636   3.413   3.303   2.167 -0.8311 -1.2898 -0.0631
 3000SOL    HW220637   3.316   3.241   2.072 -0.0270 -0.6696  1.7348
 3001SOL     OW20638   4.044   3.951   0.230  0.2909 -0.1455 -0.7476
 3001SOL    HW120639   4.061   3.861   0.201  1.1220 -0.6983  1.4507
 3001SOL    HW220640   3.968   3.973   0.177 -1.4139 -1.3519  1.1744
 3002SOL     OW20641   0.326   1.332   8.154 -0.1006  0.0495  0.2096
 3002SOL    HW120642   0.387   1.358   8.222  0.3169 -1.5932  0.4645
 3002SOL    HW220643   0.270   1.409   8.149  0.3918  0.4978  1.6191
 3003SOL     OW20644   1.516   2.143  10.110  0.5214  0.9751  0.2651
 3003SOL    HW120645   1.536   2.167  10.200 -0.4729  0.1205  0.7151
 3003SOL    HW220646   1.530   2.228  10.068 -1.3663  0.3210 -1.6915
 3004SOL     OW20647   1.886   0.492  16.641 -0.0417 -0.0383  0.2195
 3004SOL    HW120648   1.817   0.433  16.674 -1.0547 -0.0457 -1.9106
 3004SOL    HW220649   1.930   0.522  16.721  1.4396 -0.1442 -0.5477
 3005SOL     OW20650   2.580   4.551   8.348  0.1847  0.0318 -0.3613
 3005SOL    HW120651   2.491   4.541   8.383  0.2118  1.6850  0.1918
 3005SOL    HW220652   2.560   4.613   8.279  2.3763 -0.9675 -1.8828
 3006SOL     OW20653   2.730   0.526   2.929 -0.3518 -0.1114 -0.5155
 3006SOL    HW120654   2.729   0.490   2.840  3.0749  0.0830 -0.6387
 3006SOL    HW220655   2.822   0.551   2.939 -0.3376 -1.0346  1.6308
 3007SOL     OW20656   3.922   0.451   6.663  0.1756  0.1094  0.0791
 3007SOL    HW120657   4.016   0.472   6.657 -0.0383  1.2853  0.8842
 3007SOL    HW220658   3.885   0.509   6.597  0.6317  0.1003 -0.1889
 3008SOL     OW20659   1.926   3.576   5.953  0.0818 -0.6852 -0.7086
 3008SOL    HW120660   1.860   3.629   5.997  1.5998  0.4918  0.1525
 3008SOL    HW220661   1.944   3.515   6.024 -0.4770 -0.1392 -0.1002
 3009SOL     OW20662   0.814   4.217  15.905  0.5243  0.4452 -0.3179
 3009SOL    HW120663   0.838   4.299  15.863  0.7445  0.9432  0.7584
 3009SOL    HW220664   0.901   4.179  15.918 -0.3686 -0.4374  3.1069
 3010SOL     OW20665   3.468   0.990   9.687  0.3320 -0.2048  0.2525
 3010SOL    HW120666   3.514   1.056   9.739 -1.3129  0.6102  0.6715
 3010SOL    HW220667   3.481   1.026   9.599 -3.0578 -2.6285 -1.2469
 3011SOL     OW20668   3.090   1.332   7.395 -0.5076 -0.6402 -0.0621
 3011SOL    HW120669   3.045   1.325   7.479  0.1360 -1.0916  0.2510
 3011SOL    HW220670   3.053   1.255   7.353  0.9441 -0.7386 -1.1782
 3012SOL     OW20671   3.131   0.607   1.957 -0.1547 -0.7014 -0.3034
 3012SOL    HW120672   3.151   0.567   1.872 -0.4289 -2.2183  0.3460
 3012SOL    HW220673   3.053   0.657   1.933 -0.6499 -1.1623  0.3457
 3013SOL     OW20674   2.362   1.356  11.111 -0.4643  0.0731  0.3772
 3013SOL    HW120675   2.411   1.435  11.087 -2.6159  0.8608 -1.4667
 3013SOL    HW220676   2.428   1.309  11.162  0.0321 -0.0257 -0.3615
 3014SOL     OW20677   4.350   0.834   7.931 -0.3303  0.4001  0.6191
 3014SOL    HW120678   4.323   0.893   8.001 -0.7718  1.4407 -0.4429
 3014SOL    HW220679   4.274   0.842   7.874  0.2849  0.6609 -0.1677
 3015SOL     OW20680   4.031   2.499   5.497  0.0454 -0.0091  0.2675
 3015SOL    HW120681   4.107   2.540   5.457  0.1288  0.1135  0.5508
 3015SOL    HW220682   4.077   2.423   5.532 -2.1565 -0.4622  2.2073
 3016SOL     OW20683   1.287   0.274  11.968  0.3135 -0.2496  0.3440
 3016SOL    HW120684   1.376   0.260  12.000  0.8068  0.1564 -0.8662
 3016SOL    HW220685   1.278   0.369  11.973 -0.6166 -0.3345  0.2951
 3017SOL     OW20686   2.256   2.822  14.228  0.0278 -0.3208  0.5017
 3017SOL    HW120687   2.245   2.912  14.259 -0.7863 -0.9790  2.0789
 3017SOL    HW220688   2.184   2.774  14.268 -0.1709 -0.8988 -0.5559
 3018SOL     OW20689   2.507   2.168   7.893 -0.5217 -0.1792  0.8104
 3018SOL    HW120690   2.518   2.241   7.954  0.6344 -1.3196  1.9723
 3018SOL    HW220691   2.413   2.151   7.905 -0.9721  2.8894  1.7485
 3019SOL     OW20692   0.511   3.902   5.723  0.2701 -0.0781 -0.0977
 3019SOL    HW120693   0.595   3.949   5.729 -0.0054  0.5245 -0.9874
 3019SOL    HW220694   0.484   3.899   5.815 -0.2045 -1.9828 -0.3015
 3020SOL     OW20695   1.044   2.010   1.787  0.3303 -0.2266 -0.2590
 3020SOL    HW120696   1.075   2.011   1.696  0.1227  1.0436 -0.3166
 3020SOL    HW220697   0.954   2.041   1.778 -0.6010 -2.3004  2.2486
 3021SOL     OW20698   1.162   2.881   5.372  0.1534  0.7209 -0.0230
 3021SOL    HW120699   1.221   2.805   5.371 -1.4940 -0.5762  0.1876
 3021SOL    HW220700   1.074   2.844   5.382  1.2532 -1.8565  0.1639
 3022SOL     OW20701   2.167   4.409  16.469  0.2366  0.1909 -0.4069
 3022SOL    HW120702   2.132   4.497  16.462 -0.9520 -0.3581 -1.4165
 3022SOL    HW220703   2.084   4.362  16.465  0.8243 -1.0487  1.8979
 3023SOL     OW20704   1.345   3.731   2.628  1.0654  0.5442 -0.0119
 3023SOL    HW120705   1.422   3.783   2.605  0.9941 -0.4007 -2.4237
 3023SOL    HW220706   1.386   3.656   2.671 -0.9660  0.0926  1.1180
 3024SOL     OW20707   4.505   4.310   8.506 -0.4721  0.3515  0.5790
 3024SOL    HW120708   4.428   4.277   8.552 -0.2234 -1.2275 -0.1531
 3024SOL    HW220709   4.475   4.400   8.488  0.8095  0.7001  0.2220
 3025SOL     OW20710   1.390   2.275   8.194  0.5623 -0.6093  0.2555
 3025SOL    HW120711   1.410   2.320   8.276 -0.2796 -1.0720  0.7082
 3025SOL    HW220712   1.473   2.228   8.179 -0.0276 -1.6204  0.1719
 3026SOL     OW20713   3.676   0.193   7.450 -0.1139 -0.0531  0.1716
 3026SOL    HW120714   3.584   0.195   7.478 -0.0744  1.9075  0.1393
 3026SOL    HW220715   3.704   0.105   7.475  1.4927  0.8620  1.5881
 3027SOL     OW20716   3.154   3.690   5.244 -0.6120 -0.3393  0.3994
 3027SOL    HW120717   3.141   3.767   5.299 -0.3745  0.9135 -1.3008
 3027SOL    HW220718   3.165   3.730   5.158 -0.8900 -0.7010  0.1977
 3028SOL     OW20719   2.130   1.991  17.155  0.7890 -0.1645 -0.4125
 3028SOL    HW120720   2.169   1.966  17.239  2.2563 -0.7351 -1.2663
 3028SOL    HW220721   2.195   1.953  17.096 -0.4572 -0.6297 -1.4874
 3029SOL     OW20722   4.737   0.676   1.990  0.1647 -0.2300 -0.5780
 3029SOL    HW120723   0.014   0.769   2.008  0.5190  0.1746 -3.0381
 3029SOL    HW220724   4.645   0.665   2.014 -0.0294  1.0479 -0.7730
 3030SOL     OW20725   4.353   0.615   7.016  0.0542 -0.3050 -0.5929
 3030SOL    HW120726   4.412   0.678   7.058 -1.3262  0.8415 -0.3889
 3030SOL    HW220727   4.406   0.586   6.942  0.9502  1.2580 -0.5420
 3031SOL     OW20728   1.683   2.719  17.147 -0.4495 -0.1094  0.1310
 3031SOL    HW120729   1.653   2.809  17.131  0.5947  0.3472  0.7240
 3031SOL    HW220730   1.757   2.736  17.204 -0.5234 -1.2782  0.5606
 3032SOL     OW20731   1.756   3.184   4.950 -0.1698  0.2048  0.0628
 3032SOL    HW120732   1.841   3.197   4.991 -0.7692  2.6167  0.5277
 3032SOL    HW220733   1.710   3.255   4.995 -0.9345 -1.1334  1.4047
 3033SOL     OW20734   3.840   3.798   3.697  0.2665 -0.3524  0.7137
 3033SOL    HW120735   3.906   3.863   3.721  0.9817 -0.1109 -1.8932
 3033SOL    HW220736   3.797   3.843   3.625  2.0275  2.8045  1.6344
 3034SOL     OW20737   1.748   4.252   6.227 -0.2686 -0.5948  0.0519
 3034SOL    HW120738   1.698   4.198   6.167  1.6930 -0.4158 -1.7199
 3034SOL    HW220739   1.686   4.321   6.249  0.5816  0.7523 -1.7990
 3035SOL     OW20740   2.328   1.225   1.096 -0.3674 -0.3960  0.2819
 3035SOL    HW120741   2.287   1.283   1.161  0.7633 -0.9496  1.4782
 3035SOL    HW220742   2.411   1.215   1.142  0.3156 -2.3546 -1.3566
 3036SOL     OW20743   4.479   3.013   1.543 -0.2264  0.0013  0.2355
 3036SOL    HW120744   4.464   2.969   1.627 -0.1622  0.1021  0.2993
 3036SOL    HW220745   4.572   3.035   1.540 -1.3188  4.7631  1.0991
 3037SOL     OW20746   1.611   0.756  10.610 -0.6751  0.5824 -0.5599
 3037SOL    HW120747   1.613   0.819  10.683 -0.8629 -0.3454  0.2395
 3037SOL    HW220748   1.553   0.802  10.549  0.0582  1.2761 -0.7484
 3038SOL     OW20749   4.089   3.582   2.488  0.6120  0.0849  0.2525
 3038SOL    HW120750   4.059   3.671   2.505 -0.8337 -0.5089  0.8074
 3038SOL    HW220751   4.024   3.521   2.525  1.7030 -2.4537 -2.0143
 3039SOL     OW20752   1.083   3.330   5.616  0.1858  0.1225  0.0150
 3039SOL    HW120753   1.094   3.382   5.536 -2.3077  0.3616 -0.1741
 3039SOL    HW220754   0.989   3.332   5.634  0.0718 -0.7033 -0.4674
 3040SOL     OW20755   0.241   1.333   2.375 -0.1440 -0.2847 -0.7666
 3040SOL    HW120756   0.170   1.397   2.370 -1.6614 -1.9134  0.0716
 3040SOL    HW220757   0.307   1.368   2.315  0.6881  1.0859  0.9642
 3041SOL     OW20758   1.234   0.266  12.863  0.0075  0.3793 -0.4093
 3041SOL    HW120759   1.255   0.255  12.956 -0.0447  0.3305 -0.4034
 3041SOL    HW220760   1.147   0.305  12.855 -0.6458 -0.1756  3.8553
 3042SOL     OW20761   3.768   2.158  17.716  0.2378  0.1277 -0.2279
 3042SOL    HW120762   3.736   2.096  17.651  4.0997 -1.6217 -0.4894
 3042SOL    HW220763   3.838   2.102   0.005  0.9828  1.1053 -0.1605
 3043SOL     OW20764   3.414   4.578   4.915 -0.0917 -0.1055  0.0816
 3043SOL    HW120765   3.493   4.631   4.907  1.7686 -2.8835 -0.0507
 3043SOL    HW220766   3.417   4.524   4.836  0.5720  0.3344 -0.1944
 3044SOL     OW20767   2.135   3.770   4.478  0.1326 -0.3265  1.1327
 3044SOL    HW120768   2.169   3.751   4.565  2.0215 -0.9509  0.2588
 3044SOL    HW220769   2.210   3.761   4.419 -1.0343 -0.4701 -0.3516
 3045SOL     OW20770   3.490   0.323  11.346  0.2495  0.2246  0.1508
 3045SOL    HW120771   3.397   0.342  11.331  0.2787  0.6989  0.6028
 3045SOL    HW220772   3.495   0.258  11.415 -2.1168 -0.1291  0.0109
 3046SOL     OW20773   1.747   0.755   4.651 -0.0285  0.1268  0.2569
 3046SOL    HW120774   1.662   0.710   4.651 -0.0729  0.2146  0.0513
 3046SOL    HW220775   1.724   0.843   4.620 -0.0516 -0.9090 -2.5864
 3047SOL     OW20776   1.322   1.538   8.033  0.1845  0.3428  0.5857
 3047SOL    HW120777   1.335   1.474   7.964 -0.6468  1.3020 -0.4588
 3047SOL    HW220778   1.242   1.513   8.080 -0.4841  2.0322  0.3537
 3048SOL     OW20779   4.421   2.074   5.198  0.4973 -0.1330  0.2053
 3048SOL    HW120780   4.465   2.066   5.282  0.4988 -0.2223  0.1958
 3048SOL    HW220781   4.356   2.139   5.224  1.0663  0.4341  0.2201
 3049SOL     OW20782   4.199   1.853   5.012  0.1341 -0.4265  0.5269
 3049SOL    HW120783   4.135   1.894   5.070 -2.9707 -1.8194 -1.9678
 3049SOL    HW220784   4.234   1.790   5.076 -1.0595 -1.2867  0.3228
 3050SOL     OW20785   0.002   4.631  17.624  0.7205  0.3116 -0.0239
 3050SOL    HW120786   0.021   4.548  17.667  1.8039  0.4278 -0.2979
 3050SOL    HW220787   0.067   4.611  17.556  0.0421  2.3163 -1.2781
 3051SOL     OW20788   0.396   0.452   6.001  0.4627 -0.1208  0.0564
 3051SOL    HW120789   0.462   0.504   5.955  0.0398  0.7225  0.3913
 3051SOL    HW220790   0.352   0.530   6.036 -2.5181 -1.5171 -0.5377
 3052SOL     OW20791   2.329   2.309  14.359 -0.4390 -0.7280 -0.3011
 3052SOL    HW120792   2.358   2.223  14.329  0.7231 -0.5658  0.3474
 3052SOL    HW220793   2.263   2.283  14.423  0.7930  0.4389  1.4839
 3053SOL     OW20794   3.755   2.003  11.119 -0.5861  0.0271 -0.2330
 3053SOL    HW120795   3.840   2.009  11.073  0.5668  0.2566  1.9390
 3053SOL    HW220796   3.789   2.015  11.207 -2.2282 -0.7399  0.5036
 3054SOL     OW20797   0.279   0.968   2.448  0.5654  0.0211  0.0081
 3054SOL    HW120798   0.340   0.927   2.510 -2.5495 -1.7447  1.9142
 3054SOL    HW220799   0.232   1.031   2.503  1.2733  0.1275  0.5013
 3055SOL     OW20800   4.428   3.935  11.563  0.1173 -0.1663  0.6299
 3055SOL    HW120801   4.474   3.938  11.647  1.4829 -1.7148 -0.0568
 3055SOL    HW220802   4.502   3.922  11.504  0.3012  0.5679  0.6990
 3056SOL     OW20803   1.041   0.718   8.953 -0.3423 -0.2002 -0.0891
 3056SOL    HW120804   1.062   0.792   9.010  0.2675 -1.0729  0.8274
 3056SOL    HW220805   1.036   0.643   9.013 -1.7244  0.4487  0.6042
 3057SOL     OW20806   3.970   0.289   9.673 -0.5315 -0.2473  0.3997
 3057SOL    HW120807   4.052   0.271   9.718 -0.8184  1.0338  1.4080
 3057SOL    HW220808   3.995   0.341   9.597  0.2234 -0.7648  0.2921
 3058SOL     OW20809   1.438   0.233   7.263  0.1736 -0.2957 -0.4035
 3058SOL    HW120810   1.435   0.170   7.336  1.3721  0.8648  0.6351
 3058SOL    HW220811   1.438   0.169   7.192 -0.7897  0.2131 -0.8590
 3059SOL     OW20812   3.771   2.924   4.050  0.1452  0.0605  0.0180
 3059SOL    HW120813   3.733   2.952   3.967  2.0378  0.3012 -0.7814
 3059SOL    HW220814   3.862   2.955   4.047 -0.8874  3.3349  2.7978
 3060SOL     OW20815   0.266   2.469   4.620 -0.4469 -0.3241 -0.3507
 3060SOL    HW120816   0.339   2.482   4.681 -0.6864 -0.2639 -0.0815
 3060SOL    HW220817   0.280   2.546   4.564 -1.1305 -1.1487 -1.6438
 3061SOL     OW20818   3.728   0.722   8.755 -0.5527 -0.3386  0.1491
 3061SOL    HW120819   3.753   0.814   8.756 -0.8056 -0.2749  1.2053
 3061SOL    HW220820   3.756   0.694   8.842 -1.7592 -1.6865  0.1151
 3062SOL     OW20821   2.874   3.806  13.528  0.4397 -0.0260 -0.2963
 3062SOL    HW120822   2.833   3.798  13.442 -0.5242 -0.0629  0.1560
 3062SOL    HW220823   2.888   3.712  13.539  0.5618  0.0397  0.1393
 3063SOL     OW20824   3.846   1.282   5.915 -0.2953 -0.1836  0.4692
 3063SOL    HW120825   3.783   1.330   5.861  0.6392 -2.0931 -2.3623
 3063SOL    HW220826   3.926   1.280   5.863  0.0271 -1.9731  1.0359
 3064SOL     OW20827   3.713   3.908   8.805  0.2144  0.2080 -0.0003
 3064SOL    HW120828   3.709   3.984   8.863  0.1139  0.2145 -0.0157
 3064SOL    HW220829   3.653   3.932   8.734  0.8393 -2.8573 -1.5731
 3065SOL     OW20830   0.690   3.049   6.105  0.0003 -0.1133 -0.0370
 3065SOL    HW120831   0.697   3.062   6.200  1.6506  0.1023 -0.1823
 3065SOL    HW220832   0.715   2.957   6.101 -1.7359 -0.5921 -0.0238
 3066SOL     OW20833   3.056   1.999   6.288  0.3439 -0.1400 -0.0172
 3066SOL    HW120834   3.098   1.963   6.210 -2.2177 -1.2630 -0.8686
 3066SOL    HW220835   3.132   2.023   6.340  0.3601 -2.0688  0.8405
 3067SOL     OW20836   4.228   2.639  15.002  0.9192 -0.1099  0.1786
 3067SOL    HW120837   4.246   2.557  15.047 -1.9237 -1.6122 -1.4215
 3067SOL    HW220838   4.145   2.666  15.041  0.8531  0.1205 -0.1176
 3068SOL     OW20839   2.593   3.993  13.774  0.4477  0.8705  0.0343
 3068SOL    HW120840   2.619   3.983  13.866 -0.4043 -3.0146 -0.1675
 3068SOL    HW220841   2.507   3.954  13.788  1.0263 -1.0088 -1.7293
 3069SOL     OW20842   3.045   4.530   4.376  0.4187  0.2480 -0.0615
 3069SOL    HW120843   3.085   4.455   4.332 -1.0799  0.9446 -2.5748
 3069SOL    HW220844   2.974   4.551   4.316  1.0984  2.7013 -0.0211
 3070SOL     OW20845   3.496   0.066   7.778 -0.6534  0.0813 -0.1067
 3070SOL    HW120846   3.574   0.102   7.822  0.3486 -0.5932 -1.3180
 3070SOL    HW220847   3.437   0.138   7.799  0.7706  0.7065  1.8631
 3071SOL     OW20848   3.282   4.186   6.308  0.3046  0.6510  0.2795
 3071SOL    HW120849   3.258   4.118   6.370 -2.8538  1.1306 -0.4193
 3071SOL    HW220850   3.332   4.245   6.365 -0.6893 -0.1943  2.0457
 3072SOL     OW20851   1.032   3.777   1.103  0.4098 -0.5237 -0.3857
 3072SOL    HW120852   0.980   3.777   1.023 -1.5061  1.5194  0.8776
 3072SOL    HW220853   1.004   3.863   1.134  0.9371 -1.3096  2.2863
 3073SOL     OW20854   3.738   1.950   2.627  0.5184 -0.6659 -0.4238
 3073SOL    HW120855   3.691   1.897   2.692  1.2828  0.4260  1.0014
 3073SOL    HW220856   3.701   2.034   2.655  1.7382  0.6254 -2.7500
 3074SOL     OW20857   2.525   2.922   3.783  0.3421 -0.2855 -0.2530
 3074SOL    HW120858   2.531   2.939   3.689  2.0302  4.2461  0.7075
 3074SOL    HW220859   2.572   2.838   3.792 -0.5122 -0.7079  0.2798
 3075SOL     OW20860   4.388   0.972  15.075 -0.5988 -0.2889  0.2720
 3075SOL    HW120861   4.462   1.031  15.058 -1.3417  1.4100  2.8091
 3075SOL    HW220862   4.316   1.003  15.021 -0.1640  1.7287  0.8378
 3076SOL     OW20863   3.774   1.262   8.686 -0.1779  1.6171 -0.0896
 3076SOL    HW120864   3.685   1.271   8.652 -0.6230  2.1447  1.2126
 3076SOL    HW220865   3.782   1.342   8.738 -0.4588  2.3317 -1.1314
 3077SOL     OW20866   0.011   1.455   5.246  0.0357 -0.2017 -0.1648
 3077SOL    HW120867   4.658   1.425   5.232  0.4108 -1.5963  0.3554
 3077SOL    HW220868   0.045   1.471   5.158 -0.4616 -0.1925 -0.3519
 3078SOL     OW20869   3.684   1.361  10.685  0.4568 -0.0586  0.1693
 3078SOL    HW120870   3.614   1.388  10.744 -0.9663 -0.1987 -1.4538
 3078SOL    HW220871   3.685   1.265  10.684  0.8055 -0.0525 -0.0683
 3079SOL     OW20872   0.577   2.501   7.919 -0.0752  0.0449 -0.1959
 3079SOL    HW120873   0.638   2.440   7.880  1.7123  1.3542  0.5692
 3079SOL    HW220874   0.599   2.586   7.881 -0.3493  0.2640  0.1278
 3080SOL     OW20875   1.041   3.867   8.030  0.0103 -0.0622  0.0100
 3080SOL    HW120876   1.076   3.839   7.945 -0.6540  0.3566 -0.3967
 3080SOL    HW220877   0.984   3.940   8.008 -2.3088 -1.6045  0.8386
 3081SOL     OW20878   2.721   2.425   1.761  0.2331  0.4346 -0.4638
 3081SOL    HW120879   2.790   2.476   1.719 -0.3162 -0.3241 -2.2925
 3081SOL    HW220880   2.742   2.335   1.735 -1.8473  0.0397 -0.8012
 3082SOL     OW20881   2.211   1.710   5.819 -0.0489  0.4353 -0.1109
 3082SOL    HW120882   2.118   1.707   5.796  0.3733 -1.3386 -1.5936
 3082SOL    HW220883   2.260   1.682   5.742  2.8646 -0.7590  2.1780
 3083SOL     OW20884   3.274   1.266   2.877  0.1068  0.0548 -0.2747
 3083SOL    HW120885   3.369   1.266   2.867 -0.1121  1.3416 -2.2895
 3083SOL    HW220886   3.241   1.235   2.793 -1.4248  1.8482 -0.3350
 3084SOL     OW20887   0.162   1.028   3.218 -0.2084  0.2244 -0.4841
 3084SOL    HW120888   0.250   1.057   3.242  0.4419  0.1489 -2.7178
 3084SOL    HW220889   0.121   1.114   3.216  0.0159  0.2885 -2.6911
 3085SOL     OW20890   2.932   2.437   6.244 -0.6477  0.0561  0.1233
 3085SOL    HW120891   2.909   2.530   6.247 -0.9277 -0.0257  0.5044
 3085SOL    HW220892   3.028   2.437   6.245 -0.6475 -0.5082 -0.1917
 3086SOL     OW20893   0.637   3.340   0.734  0.2898  0.6279 -0.0405
 3086SOL    HW120894   0.560   3.397   0.736 -1.2308 -1.4036 -1.3355
 3086SOL    HW220895   0.633   3.317   0.641 -0.4803 -0.0920  0.1783
 3087SOL     OW20896   2.937   2.124   4.903 -0.3244  0.5015  0.2918
 3087SOL    HW120897   2.923   2.193   4.839  0.1500 -1.4629 -1.9192
 3087SOL    HW220898   2.883   2.158   4.975 -1.0350  0.9570 -0.4668
 3088SOL     OW20899   0.240   3.790   5.268  0.7539  0.3114 -0.3892
 3088SOL    HW120900   0.224   3.824   5.180  1.0481  0.8933 -0.2149
 3088SOL    HW220901   0.151   3.796   5.302  0.1869  2.2242 -2.2251
 3089SOL     OW20902   2.911   2.369  13.985  0.0658  0.4541 -0.1375
 3089SOL    HW120903   2.901   2.284  14.028  1.8563  0.2017 -0.2296
 3089SOL    HW220904   3.004   2.368  13.965  0.4548 -2.3538  1.9870
 3090SOL     OW20905   3.399   1.091   3.321 -0.2716  0.5509  0.1309
 3090SOL    HW120906   3.352   1.122   3.244 -0.5792 -1.4829 -0.4826
 3090SOL    HW220907   3.414   1.173   3.369 -1.4909  1.7817 -1.5840
 3091SOL     OW20908   2.213   3.056   2.486  0.3364  0.3986 -0.5484
 3091SOL    HW120909   2.176   3.017   2.565  1.9516 -1.4919 -0.7266
 3091SOL    HW220910   2.264   2.981   2.455 -0.9344 -0.7685  0.1415
 3092SOL     OW20911   1.988   2.151   6.561 -0.4615 -0.3734  0.2085
 3092SOL    HW120912   1.916   2.113   6.610 -1.4152 -1.0098 -1.7022
 3092SOL    HW220913   2.059   2.154   6.625 -0.3708  1.8443  0.0253
 3093SOL     OW20914   3.849   2.396   6.331 -0.0760  0.4592  0.3759
 3093SOL    HW120915   3.928   2.348   6.307 -0.5935 -0.3083  0.1965
 3093SOL    HW220916   3.794   2.320   6.352 -0.4160  0.7860  0.6731
 3094SOL     OW20917   0.719   1.016   2.078 -0.7130 -0.4538  0.5983
 3094SOL    HW120918   0.795   1.068   2.053 -1.2364  0.2501  0.4638
 3094SOL    HW220919   0.654   1.044   2.014 -1.0969  0.6549  1.4575
 3095SOL     OW20920   1.157   3.521  11.508  0.1509 -0.4005  0.1135
 3095SOL    HW120921   1.094   3.530  11.436  0.9966  0.9917 -0.4448
 3095SOL    HW220922   1.194   3.609  11.503  1.9037 -1.1920 -0.5991
 3096SOL     OW20923   3.208   0.838  10.986  0.6042 -0.2338 -0.0415
 3096SOL    HW120924   3.189   0.912  10.929 -1.1160 -0.6456 -0.0155
 3096SOL    HW220925   3.175   0.766  10.931 -1.9063  1.9700 -1.4004
 3097SOL     OW20926   0.476   3.234   4.658 -0.1310  0.3271  0.5563
 3097SOL    HW120927   0.559   3.233   4.611 -1.0122 -1.9180 -0.9437
 3097SOL    HW220928   0.512   3.253   4.745  2.0734  0.1560 -0.3236
 3098SOL     OW20929   1.562   2.908   4.550 -0.0025  0.2130  0.2030
 3098SOL    HW120930   1.475   2.940   4.571  1.7010  3.8771  1.7461
 3098SOL    HW220931   1.591   2.935   4.637  0.4883  3.6251 -1.0357
 3099SOL     OW20932   1.704   1.314   1.365  0.1985 -0.2024  0.2056
 3099SOL    HW120933   1.710   1.405   1.335 -0.7389  0.1240  1.0082
 3099SOL    HW220934   1.766   1.271   1.306  1.4256 -0.1652  1.4823
 3100SOL     OW20935   0.914   0.505   8.608  0.3847 -0.6293  0.1298
 3100SOL    HW120936   0.829   0.506   8.564  0.0506 -3.2531  0.7169
 3100SOL    HW220937   0.922   0.415   8.639  2.4877 -0.3693  0.2933
 3101SOL     OW20938   1.700   1.896   3.419  0.1503  0.3891  1.1364
 3101SOL    HW120939   1.793   1.886   3.435 -0.0318  1.5726  2.8936
 3101SOL    HW220940   1.692   1.809   3.378  0.1313  1.3278 -0.8286
 3102SOL     OW20941   2.661   0.409  16.376  0.7167 -0.3344  0.2554
 3102SOL    HW120942   2.692   0.444  16.293 -1.1355  0.3378 -0.1386
 3102SOL    HW220943   2.739   0.412  16.432 -0.7525 -1.7624  2.4028
 3103SOL     OW20944   4.403   3.633  14.299  0.5167 -0.2120  0.1740
 3103SOL    HW120945   4.418   3.586  14.217  0.1153  0.0176 -0.0310
 3103SOL    HW220946   4.472   3.594  14.352  0.9302  0.8907  0.4607
 3104SOL     OW20947   2.795   3.334   8.903 -0.2512  0.0707  1.1797
 3104SOL    HW120948   2.783   3.239   8.907  0.2578 -0.0809 -0.6498
 3104SOL    HW220949   2.801   3.343   8.998  0.0075  0.3041  1.1374
 3105SOL     OW20950   1.286   3.357  13.836 -0.0573 -0.1479 -0.6272
 3105SOL    HW120951   1.293   3.412  13.758  0.9542  0.9007  0.1873
 3105SOL    HW220952   1.192   3.360  13.854  0.1237 -2.1962  0.6755
 3106SOL     OW20953   3.853   2.312   7.262 -0.2008 -0.1208 -0.6552
 3106SOL    HW120954   3.804   2.278   7.337  1.0007 -2.6755 -1.0056
 3106SOL    HW220955   3.824   2.402   7.276 -0.3750 -0.3298  0.3446
 3107SOL     OW20956   1.580   2.379   6.410 -0.2254  0.2513  0.1088
 3107SOL    HW120957   1.675   2.369   6.421 -0.1546 -1.3091 -2.0784
 3107SOL    HW220958   1.582   2.355   6.317 -0.6364 -1.6204  0.5697
 3108SOL     OW20959   3.107   4.015   2.448  0.0745  0.1761  0.1264
 3108SOL    HW120960   3.046   3.949   2.479  1.5009 -1.3156 -0.1996
 3108SOL    HW220961   3.187   3.978   2.411  0.1200 -2.1066  2.5326
 3109SOL     OW20962   0.239   3.011   2.143 -0.2040  0.7066  0.2780
 3109SOL    HW120963   0.274   3.091   2.184 -0.4818 -0.4947  2.8619
 3109SOL    HW220964   0.180   3.046   2.076  0.4222  2.4531  0.6215
 3110SOL     OW20965   2.119   3.314   2.720  0.4203  0.0896 -0.1111
 3110SOL    HW120966   2.029   3.335   2.693 -0.4018  0.2847  2.7642
 3110SOL    HW220967   2.154   3.334   2.634  0.2212 -2.0923 -0.7065
 3111SOL     OW20968   4.181   4.031   8.773 -0.1541  0.1866 -0.8071
 3111SOL    HW120969   4.161   3.981   8.852  1.3858 -1.6557 -1.5832
 3111SOL    HW220970   4.096   4.074   8.760 -0.6349 -0.9122 -1.2891
 3112SOL     OW20971   0.037   1.242   5.705 -0.0606  1.2699  0.3394
 3112SOL    HW120972   0.057   1.249   5.798 -0.5547  0.0179  0.5377
 3112SOL    HW220973   0.098   1.170   5.686 -1.5281  0.0915  0.0796
 3113SOL     OW20974   1.123   1.266   4.002  0.4991  0.1060  0.3371
 3113SOL    HW120975   1.057   1.211   4.045 -1.2720  1.4533 -0.6915
 3113SOL    HW220976   1.154   1.213   3.929 -0.9025 -0.4347  0.1306
 3114SOL     OW20977   3.292   4.727  10.240  0.5979  0.2183 -0.7995
 3114SOL    HW120978   3.323   4.638  10.226 -0.1443 -0.1091 -0.3575
 3114SOL    HW220979   3.240   0.005  10.162 -1.1644  0.1553  0.3573
 3115SOL     OW20980   2.669   3.207   3.077  0.7593 -0.3860 -0.3609
 3115SOL    HW120981   2.686   3.119   3.042 -2.0594  0.4082 -3.7099
 3115SOL    HW220982   2.714   3.262   3.014  0.0980  2.1972  1.4321
 3116SOL     OW20983   0.065   1.543   6.648 -0.2324  0.4773  0.3999
 3116SOL    HW120984   4.733   1.515   6.709  1.2294  0.5165  2.0749
 3116SOL    HW220985   0.013   1.546   6.568  0.7851 -1.1086 -0.3143
 3117SOL     OW20986   2.290   3.508  17.520 -0.0951 -0.1936 -0.2599
 3117SOL    HW120987   2.332   3.528  17.604 -0.3236 -0.8307  0.0111
 3117SOL    HW220988   2.217   3.570  17.524 -0.7940 -0.9917 -0.4213
 3118SOL     OW20989   1.737   0.054   9.828  0.1171  0.4750  0.1328
 3118SOL    HW120990   1.739   4.725   9.897 -0.8032  1.4257  1.0744
 3118SOL    HW220991   1.676   0.120   9.862  0.4851  1.4626 -1.1059
 3119SOL     OW20992   2.902   3.509   8.674 -0.4495 -0.5613  0.0612
 3119SOL    HW120993   2.916   3.425   8.631  0.7221  0.1728 -0.9918
 3119SOL    HW220994   2.842   3.480   8.743 -1.3501 -1.0458 -0.9396
 3120SOL     OW20995   2.845   1.234  14.602 -0.5106  0.3594 -0.4587
 3120SOL    HW120996   2.926   1.209  14.557  0.4722  0.6478  1.1741
 3120SOL    HW220997   2.777   1.218  14.536 -1.5152  1.5479  0.2736
 3121SOL     OW20998   4.107   0.483  15.552 -0.2232  0.2124 -0.0224
 3121SOL    HW120999   4.162   0.499  15.628 -0.2794  0.8006 -0.1042
 3121SOL    HW221000   4.083   0.392  15.570  2.1894 -0.4705 -0.2408
 3122SOL     OW21001   2.575   3.223   8.739  0.7931  0.4814  0.1747
 3122SOL    HW121002   2.608   3.140   8.704 -1.0476 -0.2925  0.2466
 3122SOL    HW221003   2.644   3.272   8.783  0.1309  1.2062  0.4091
 3123SOL     OW21004   3.797   4.727  13.842  1.0852  0.1170  0.0712
 3123SOL    HW121005   3.716   0.019  13.885  1.4953  0.6154  0.5036
 3123SOL    HW221006   3.775   4.716  13.750  1.7522  0.5724 -0.1406
 3124SOL     OW21007   2.319   1.384   4.502 -0.7313 -0.2195  0.1667
 3124SOL    HW121008   2.328   1.378   4.407 -2.0970  0.5829 -0.0039
 3124SOL    HW221009   2.291   1.298   4.530 -1.2598  0.0979  0.6080
 3125SOL     OW21010   1.389   3.063  16.838 -0.3516  0.2899  0.2340
 3125SOL    HW121011   1.402   3.079  16.931  1.0820  2.9053 -0.4075
 3125SOL    HW221012   1.361   2.972  16.831 -1.7787  0.9858 -3.5875
 3126SOL     OW21013   2.081   3.887   5.266  0.4029  0.3910 -0.3135
 3126SOL    HW121014   2.132   3.966   5.246 -0.5779  1.7759  2.7549
 3126SOL    HW221015   2.001   3.938   5.276  0.9504  1.0148  0.8963
 3127SOL     OW21016   1.274   1.094   3.849 -0.3718 -0.1871  0.0822
 3127SOL    HW121017   1.349   1.063   3.900 -0.3724  0.4649  0.4736
 3127SOL    HW221018   1.305   1.059   3.765 -1.1565 -1.4641  0.3231
 3128SOL     OW21019   4.094   3.262  15.216  0.1111  0.1175  0.6887
 3128SOL    HW121020   4.168   3.227  15.265  1.3691  0.1977 -1.1734
 3128SOL    HW221021   4.032   3.280  15.287  0.7797  0.8494  1.0903
 3129SOL     OW21022   4.634   3.769   6.733  0.6478 -0.1112 -0.3886
 3129SOL    HW121023   4.707   3.758   6.671  0.3371 -1.0412 -0.5860
 3129SOL    HW221024   4.660   3.707   6.801  1.4709 -0.6574 -1.1994
 3130SOL     OW21025   1.314   0.151   6.072 -0.3124  0.2107  0.0480
 3130SOL    HW121026   1.266   0.229   6.046  1.5397  0.9354 -1.1754
 3130SOL    HW221027   1.258   0.085   6.031 -0.0822  0.2151 -0.2806
 3131SOL     OW21028   2.529   2.383   4.233  0.2312 -0.3100  0.1990
 3131SOL    HW121029   2.547   2.445   4.304 -1.6324  0.7285 -0.2154
 3131SOL    HW221030   2.435   2.399   4.220  0.1166  0.1249  1.4895
 3132SOL     OW21031   2.999   0.193   1.575 -0.7356  0.0232 -0.5519
 3132SOL    HW121032   3.047   0.252   1.518 -0.5028 -1.6406 -2.1087
 3132SOL    HW221033   3.064   0.181   1.644  1.0169  0.6195 -2.1180
 3133SOL     OW21034   2.534   3.868   1.552  0.5273  0.2870 -0.4120
 3133SOL    HW121035   2.610   3.828   1.509  0.6963 -0.5575  0.6546
 3133SOL    HW221036   2.475   3.850   1.479 -0.0098  0.0851  0.0693
 3134SOL     OW21037   3.225   1.365   8.077  0.4919 -0.7510  0.0537
 3134SOL    HW121038   3.143   1.316   8.080 -0.2964  0.6543  1.5592
 3134SOL    HW221039   3.260   1.360   7.988  0.1502 -2.1162 -0.0021
 3135SOL     OW21040   4.567   0.517   5.898 -0.2245  0.0840  0.1776
 3135SOL    HW121041   4.660   0.502   5.915 -0.5653 -0.0331  2.0094
 3135SOL    HW221042   4.560   0.611   5.914 -1.7761 -0.0169  0.1365
 3136SOL     OW21043   1.207   4.586   8.987 -0.3981  0.1375 -0.0479
 3136SOL    HW121044   1.144   4.517   8.966 -0.7774  1.0559 -1.9356
 3136SOL    HW221045   1.220   4.625   8.900  0.5249  3.1708  1.4766
 3137SOL     OW21046   0.321   2.488   2.948  0.0542  0.1441 -0.1327
 3137SOL    HW121047   0.245   2.465   3.000 -0.1067 -0.2409 -0.5339
 3137SOL    HW221048   0.385   2.504   3.018  2.0098  0.3730 -1.9471
 3138SOL     OW21049   1.171   2.381  16.743 -0.3988 -1.0536  0.3480
 3138SOL    HW121050   1.143   2.317  16.677 -0.9093 -0.2214 -0.2394
 3138SOL    HW221051   1.185   2.318  16.815 -2.7368 -0.6147  1.1664
 3139SOL     OW21052   4.154   3.049   1.129 -0.4623  0.0093 -0.2138
 3139SOL    HW121053   4.169   3.135   1.092 -1.7490 -0.4910 -1.8750
 3139SOL    HW221054   4.236   3.024   1.171  0.6228  1.1917 -1.6309
 3140SOL     OW21055   3.316   2.144   5.052  0.0827 -0.4276  0.5646
 3140SOL    HW121056   3.358   2.059   5.043 -0.7233 -0.6293 -1.2562
 3140SOL    HW221057   3.344   2.196   4.976 -0.2206 -1.9596 -0.5957
 3141SOL     OW21058   2.087   0.928   1.317 -0.1224  0.1930  0.2413
 3141SOL    HW121059   2.172   0.965   1.291 -1.0018  1.9427 -0.1528
 3141SOL    HW221060   2.094   0.836   1.294  0.6273  0.2440  0.2661
 3142SOL     OW21061   3.771   1.693  16.861 -0.3221 -0.7885  0.1064
 3142SOL    HW121062   3.706   1.760  16.885 -0.5240 -1.0698  0.3473
 3142SOL    HW221063   3.723   1.613  16.881 -0.4723 -0.4318  1.1554
 3143SOL     OW21064   0.464   0.212   2.814 -0.1694 -0.1822 -0.0048
 3143SOL    HW121065   0.501   0.197   2.727  2.5731  0.7520  1.0153
 3143SOL    HW221066   0.509   0.140   2.858  0.5665 -0.4337 -1.1813
 3144SOL     OW21067   2.116   2.016   8.767  0.2026 -0.0671  0.3957
 3144SOL    HW121068   2.093   1.938   8.717  1.2932 -0.1259 -0.0191
 3144SOL    HW221069   2.126   1.966   8.848  0.9438 -1.2267 -0.4199
 3145SOL     OW21070   0.784   0.575   5.617  0.1224  0.5196 -0.5325
 3145SOL    HW121071   0.799   0.484   5.643 -0.1017  0.6997  0.2344
 3145SOL    HW221072   0.872   0.607   5.637  0.8049 -0.8067 -1.3939
 3146SOL     OW21073   0.952   1.681   1.887  0.3087 -0.8522 -0.0094
 3146SOL    HW121074   0.896   1.641   1.821  0.8018  0.8818 -1.4667
 3146SOL    HW221075   0.900   1.759   1.907 -0.2921 -1.1597 -0.3970
 3147SOL     OW21076   2.961   2.333   7.305 -0.1091  0.6418 -0.0156
 3147SOL    HW121077   2.896   2.380   7.357  0.6128  1.0437  0.5175
 3147SOL    HW221078   2.921   2.354   7.221  1.3871  0.8525 -0.6569
 3148SOL     OW21079   0.092   2.888   2.924 -0.8977  0.5904  0.0073
 3148SOL    HW121080   0.063   2.902   2.834 -2.7964  1.7056  0.7943
 3148SOL    HW221081   0.045   2.807   2.941 -0.0814  0.1746  0.2528
 3149SOL     OW21082   2.432   0.601   7.253 -0.2254 -0.0161  0.1173
 3149SOL    HW121083   2.352   0.648   7.274  0.6684  1.5402  0.0282
 3149SOL    HW221084   2.412   0.510   7.274 -0.0988  0.5262  2.5858
 3150SOL     OW21085   2.353   1.829   2.596 -0.1020 -0.0062  0.3936
 3150SOL    HW121086   2.446   1.835   2.619 -0.3114 -0.7989  1.4094
 3150SOL    HW221087   2.312   1.822   2.682  0.3348  0.9379  0.6726
 3151SOL     OW21088   0.928   4.609   7.436 -0.0533 -0.4838 -0.0837
 3151SOL    HW121089   1.000   4.555   7.407 -0.6751 -0.0075 -2.5035
 3151SOL    HW221090   0.977   4.691   7.443  0.3148 -0.6523 -0.7708
 3152SOL     OW21091   2.609   3.044   1.652 -0.5755  0.2184  0.4796
 3152SOL    HW121092   2.607   3.044   1.747 -0.4664  1.5811  0.4764
 3152SOL    HW221093   2.531   2.994   1.630  0.1715  0.9916 -3.9927
 3153SOL     OW21094   4.310   2.019  10.184 -0.3980  0.1311  0.4419
 3153SOL    HW121095   4.215   2.018  10.197 -0.1833  2.9311  2.2936
 3153SOL    HW221096   4.307   1.974  10.100  0.9077 -2.4473  1.7504
 3154SOL     OW21097   2.163   4.539   2.389 -0.4147 -0.2115 -0.2191
 3154SOL    HW121098   2.178   4.595   2.313 -0.1722  2.1520  1.5813
 3154SOL    HW221099   2.225   4.570   2.455 -1.2086  1.7370 -0.3950
 3155SOL     OW21100   0.188   0.132   4.908  0.1868  0.1131 -0.0046
 3155SOL    HW121101   0.237   0.205   4.870 -0.2679  0.0064 -0.7923
 3155SOL    HW221102   0.097   0.160   4.915  0.1083  0.6441 -3.1818
 3156SOL     OW21103   2.771   1.740   7.169 -0.3587  0.4218  0.1018
 3156SOL    HW121104   2.697   1.799   7.159 -0.9587 -0.7227 -2.1943
 3156SOL    HW221105   2.792   1.705   7.082  1.9482  2.2638 -0.0935
 3157SOL     OW21106   3.765   0.262   7.208 -0.1390  0.6613  0.2821
 3157SOL    HW121107   3.739   0.251   7.299  3.6045  0.1294  1.3026
 3157SOL    HW221108   3.687   0.231   7.163 -0.0518 -1.6103  1.7092
 3158SOL     OW21109   0.728   3.657   6.421 -0.0476  0.1568  0.5055
 3158SOL    HW121110   0.722   3.752   6.412  3.1503 -0.0126 -3.0943
 3158SOL    HW221111   0.652   3.624   6.373 -1.0086 -0.4179  2.4258
 3159SOL     OW21112   0.934   0.083   6.978  0.3291  0.2134 -0.3568
 3159SOL    HW121113   0.911   4.728   6.993  0.1408  0.9566  3.8650
 3159SOL    HW221114   0.969   0.105   7.064  1.1997  1.2197 -0.9600
 3160SOL     OW21115   1.746   1.845   1.105  0.5545  0.0882  0.0519
 3160SOL    HW121116   1.729   1.927   1.058  0.6145 -1.1922 -2.2239
 3160SOL    HW221117   1.663   1.837   1.151  1.2598  1.4503  1.5561
 3161SOL     OW21118   2.683   1.451   2.346  0.2610 -0.0889  0.2920
 3161SOL    HW121119   2.667   1.358   2.362  0.7290 -0.0545  0.9420
 3161SOL    HW221120   2.660   1.459   2.254 -1.7630 -1.3331  0.6744
 3162SOL     OW21121   4.029   2.478   7.525  0.9029 -0.4255  0.0158
 3162SOL    HW121122   4.109   2.516   7.488  0.7705 -0.7157 -0.5521
 3162SOL    HW221123   4.052   2.390   7.556  0.9006 -0.5918 -0.4600
 3163SOL     OW21124   1.908   2.193   8.745 -0.0732 -0.4139 -0.0956
 3163SOL    HW121125   1.894   2.189   8.651  1.2841  1.9155 -0.3907
 3163SOL    HW221126   1.983   2.135   8.759  0.2361  0.8841  3.7791
 3164SOL     OW21127   1.039   2.615   1.652  0.0057 -0.0116  0.2914
 3164SOL    HW121128   0.976   2.686   1.663  0.2460  0.2080  0.2501
 3164SOL    HW221129   0.998   2.558   1.717  2.4937 -0.0252  1.8169
 3165SOL     OW21130   2.737   3.608   1.692  0.0215 -0.2298  0.5202
 3165SOL    HW121131   2.819   3.655   1.680  0.2700 -0.6100  0.7359
 3165SOL    HW221132   2.688   3.636   1.769 -2.1367 -0.4938 -0.7567
 3166SOL     OW21133   3.214   1.951   3.175  0.4526 -0.2250 -0.2228
 3166SOL    HW121134   3.171   1.892   3.237  0.0086 -0.7897 -1.0707
 3166SOL    HW221135   3.141   2.004   3.142 -1.1230 -0.3627  3.0035
 3167SOL     OW21136   0.832   0.962   9.458 -0.0316  0.7747 -0.2259
 3167SOL    HW121137   0.777   0.887   9.481  0.6461  0.9694  2.0827
 3167SOL    HW221138   0.873   0.935   9.376 -2.3432  0.0118 -1.1336
 3168SOL     OW21139   3.766   2.963   6.830 -0.5112  0.0927  0.1737
 3168SOL    HW121140   3.681   2.953   6.788  0.1479 -0.4036 -1.0279
 3168SOL    HW221141   3.805   2.878   6.812  1.2270  0.5404  1.7620
 3169SOL     OW21142   0.879   2.730   0.008  0.4861 -0.0149  0.0145
 3169SOL    HW121143   0.935   2.807   0.001 -0.3654  0.6381  0.4165
 3169SOL    HW221144   0.821   2.736  17.679 -2.0497 -3.0142  1.7059
 3170SOL     OW21145   0.530   1.921   1.827 -0.0020 -0.0496  0.0257
 3170SOL    HW121146   0.588   1.925   1.751  1.4528  1.4006  1.2047
 3170SOL    HW221147   0.467   1.855   1.798 -0.9296  1.0383 -0.4061
 3171SOL     OW21148   1.444   2.634   4.559  0.4339  0.4136 -0.1377
 3171SOL    HW121149   1.516   2.586   4.517  0.9435  1.4925 -0.4930
 3171SOL    HW221150   1.454   2.727   4.541 -0.9750  0.5959  0.0312
 3172SOL     OW21151   4.734   1.016   9.180  0.5571 -0.3571  0.4341
 3172SOL    HW121152   0.003   1.047   9.270  0.3481  1.3293 -0.1332
 3172SOL    HW221153   0.086   0.992   9.155  0.4560 -0.2197 -0.0538
 3173SOL     OW21154   3.873   3.669   9.906 -0.0235  0.4860 -0.1057
 3173SOL    HW121155   3.804   3.699   9.965 -0.3057 -0.7221  0.1881
 3173SOL    HW221156   3.840   3.705   9.824 -1.7078 -1.4637 -0.2743
 3174SOL     OW21157   1.040   4.658   8.370  0.0176  0.7452  0.1085
 3174SOL    HW121158   1.055   4.633   8.461  0.1407  1.1466  0.2010
 3174SOL    HW221159   1.113   4.718   8.355  0.6389  0.0029  0.1416
 3175SOL     OW21160   4.198   4.366   9.364  0.2028 -0.2694 -0.7929
 3175SOL    HW121161   4.274   4.414   9.397 -0.4051  0.8959 -1.0983
 3175SOL    HW221162   4.230   4.278   9.384 -0.7853 -0.6554 -0.9009
 3176SOL     OW21163   3.289   1.133   6.321  0.2340  0.4602 -0.6370
 3176SOL    HW121164   3.348   1.157   6.250  0.1265  3.4609  0.3037
 3176SOL    HW221165   3.351   1.127   6.393 -0.7559  2.5586  0.3645
 3177SOL     OW21166   4.639   1.497   3.240 -0.0073  0.1851  0.4979
 3177SOL    HW121167   4.625   1.566   3.305 -1.0002  0.9880 -0.5600
 3177SOL    HW221168   4.547   1.477   3.222  0.7230 -1.8031 -0.9964
 3178SOL     OW21169   1.444   3.062   6.623  0.3555 -0.1198  0.3313
 3178SOL    HW121170   1.349   3.055   6.631  0.1358  2.9041  0.4367
 3178SOL    HW221171   1.469   2.990   6.566 -0.7156 -0.1078 -0.1499
 3179SOL     OW21172   3.324   3.234   0.815 -0.0131 -0.1670 -0.3367
 3179SOL    HW121173   3.346   3.141   0.807 -0.8863 -0.4356  0.4284
 3179SOL    HW221174   3.279   3.240   0.899 -1.1539 -2.5790 -0.7892
 3180SOL     OW21175   1.230   4.025   4.023  0.2286  0.5315 -0.6680
 3180SOL    HW121176   1.318   4.053   3.997  0.3802  3.1570  2.6825
 3180SOL    HW221177   1.201   4.102   4.072 -2.3401  0.4696 -2.1137
 3181SOL     OW21178   1.741   2.388   8.083 -0.3841 -0.4154 -0.5970
 3181SOL    HW121179   1.782   2.301   8.078  0.7458 -0.0996  2.8130
 3181SOL    HW221180   1.754   2.400   8.177 -0.1089 -0.2649 -0.6523
 3182SOL     OW21181   4.232   0.786   1.543  1.1728 -0.4080 -0.3457
 3182SOL    HW121182   4.216   0.870   1.586  1.3643 -1.7835  2.3861
 3182SOL    HW221183   4.298   0.813   1.479  0.0602  1.8136 -0.5667
 3183SOL     OW21184   1.776   4.463   0.582 -0.3684 -0.4040 -0.6966
 3183SOL    HW121185   1.840   4.518   0.536 -1.5404  1.8605  0.3267
 3183SOL    HW221186   1.723   4.517   0.641 -0.9438 -1.3653 -0.3479
 3184SOL     OW21187   2.934   2.823   7.673 -0.1135 -0.3605 -0.1190
 3184SOL    HW121188   2.972   2.873   7.746 -1.2534  2.1922 -1.2708
 3184SOL    HW221189   2.877   2.886   7.629  0.0293  1.6044  2.4870
 3185SOL     OW21190   3.534   3.139   6.861 -0.7297  0.3193  0.0239
 3185SOL    HW121191   3.463   3.195   6.829  0.1242  1.0096 -0.6570
 3185SOL    HW221192   3.485   3.082   6.920 -1.1511  0.8510  0.1931
 3186SOL     OW21193   1.507   3.215   8.149 -0.5542 -0.0114  0.1666
 3186SOL    HW121194   1.559   3.285   8.110  1.0954 -1.3780 -0.0742
 3186SOL    HW221195   1.442   3.262   8.201  0.2835  0.0101  1.1879
 3187SOL     OW21196   0.386   0.011   7.507 -0.0877 -0.1591  0.1560
 3187SOL    HW121197   0.468   0.044   7.542 -0.0643  0.7622 -0.7752
 3187SOL    HW221198   0.367   4.691   7.582 -1.2645 -0.6517 -0.5104
 3188SOL     OW21199   1.295   1.250   8.562 -0.5354 -0.2257 -0.3419
 3188SOL    HW121200   1.352   1.269   8.488 -1.1586 -1.9997 -1.2696
 3188SOL    HW221201   1.255   1.168   8.533 -2.1664  0.3300  0.3743
 3189SOL     OW21202   0.652   2.394   0.104 -0.1610 -0.7539  0.4351
 3189SOL    HW121203   0.682   2.403   0.013 -2.1325  2.9714  0.1437
 3189SOL    HW221204   0.644   2.299   0.106 -0.8530 -0.6552  2.1885
 3190SOL     OW21205   0.171   2.799  17.747  0.5014 -0.0751  0.2740
 3190SOL    HW121206   0.125   2.845   0.070  0.1218 -2.0077  1.2776
 3190SOL    HW221207   0.192   2.874  17.690 -0.2269 -0.3099 -0.3063
 3191SOL     OW21208   2.301   1.428   3.279  0.1758  0.0746 -0.1584
 3191SOL    HW121209   2.231   1.485   3.248 -1.1579 -2.0291 -1.0470
 3191SOL    HW221210   2.341   1.473   3.353 -2.2784 -0.8467  1.7585
 3192SOL     OW21211   2.344   4.679   0.745  0.1925 -0.6202 -0.0859
 3192SOL    HW121212   2.361   4.591   0.712  0.8541  0.0556 -1.5371
 3192SOL    HW221213   2.429   4.689   0.787 -0.5185  1.1323  0.9338
 3193SOL     OW21214   3.866   1.262   7.202 -0.3283 -0.6882  0.0529
 3193SOL    HW121215   3.894   1.343   7.243 -0.0176  1.0233 -3.5367
 3193SOL    HW221216   3.872   1.201   7.276  2.6737  1.2146  1.3871
 3194SOL     OW21217   3.507   4.302   6.456 -0.0909 -0.0072 -0.1764
 3194SOL    HW121218   3.546   4.322   6.371 -0.7892 -0.1300 -0.5278
 3194SOL    HW221219   3.498   4.388   6.495 -0.2484  0.3732 -1.0552
 3195SOL     OW21220   2.738   0.989   2.202 -0.0780 -0.2999 -0.3314
 3195SOL    HW121221   2.699   1.026   2.123  0.9843  2.3109  0.3749
 3195SOL    HW221222   2.832   0.989   2.181  0.1851 -0.4320  0.8352
 3196SOL     OW21223   1.720   0.321   0.968 -0.4488  0.6165  0.0198
 3196SOL    HW121224   1.780   0.294   1.038 -1.3908  0.8171  0.9113
 3196SOL    HW221225   1.657   0.369   1.022  0.6756 -1.5598  3.3126
 3197SOL     OW21226   3.741   2.811   7.053 -0.3154  0.4841  0.3388
 3197SOL    HW121227   3.739   2.840   7.145 -0.4456 -2.3408  1.2229
 3197SOL    HW221228   3.738   2.898   7.013  2.8180  0.9194  1.0186
 3198SOL     OW21229   0.397   3.814  11.601  0.0508  0.9440 -0.3347
 3198SOL    HW121230   0.314   3.786  11.638 -0.1054  1.4570 -0.2928
 3198SOL    HW221231   0.370   3.906  11.593  1.0943  1.2542 -0.2734
 3199SOL     OW21232   0.225   3.416   8.174  0.1490 -0.1751 -0.1892
 3199SOL    HW121233   0.217   3.357   8.099  0.0563 -1.9574  1.2189
 3199SOL    HW221234   0.269   3.492   8.135 -1.2646  0.5257 -0.4228
 3200SOL     OW21235   2.702   0.797   5.059 -0.1157 -0.2113 -0.2753
 3200SOL    HW121236   2.736   0.767   4.975 -0.0965  1.6292 -0.9257
 3200SOL    HW221237   2.608   0.788   5.046 -0.1682 -3.4883  2.3528
 3201SOL     OW21238   3.665   1.987   0.337  0.1450  0.1228 -0.3795
 3201SOL    HW121239   3.706   1.908   0.302  1.0583 -0.4591  2.0577
 3201SOL    HW221240   3.620   1.949   0.412  0.7919 -2.3034 -1.2022
 3202SOL     OW21241   2.161   2.324   7.224  0.0215 -0.5895 -0.0507
 3202SOL    HW121242   2.234   2.298   7.280  0.2558 -2.6510 -1.3254
 3202SOL    HW221243   2.171   2.267   7.148 -2.4349  1.2788 -1.7484
 3203SOL     OW21244   4.626   0.352  12.375  0.1535  0.3792  0.2609
 3203SOL    HW121245   4.642   0.381  12.465 -1.5564  2.1870 -0.0076
 3203SOL    HW221246   4.672   0.268  12.375 -2.3457 -0.9943  1.7525
 3204SOL     OW21247   2.557   2.021   4.787 -0.1510 -0.2343 -0.1920
 3204SOL    HW121248   2.491   1.962   4.751  0.1956 -1.1745  0.7335
 3204SOL    HW221249   2.623   2.040   4.721  1.0030  1.8892  1.5768
 3205SOL     OW21250   1.833   2.959   3.833 -0.6983 -0.6636  0.0304
 3205SOL    HW121251   1.802   2.935   3.746 -1.0845  0.1218 -0.0438
 3205SOL    HW221252   1.799   3.048   3.842  0.2004 -0.1840 -1.4659
 3206SOL     OW21253   1.330   3.941  12.619  0.1228  0.0503  0.1818
 3206SOL    HW121254   1.309   4.004  12.550 -0.7356 -1.8955 -1.3355
 3206SOL    HW221255   1.381   3.985  12.687  0.6795 -0.2581 -0.0356
 3207SOL     OW21256   3.363   3.234   7.520 -0.4386 -0.0014 -0.2349
 3207SOL    HW121257   3.403   3.282   7.447 -0.4244 -2.1586 -1.6468
 3207SOL    HW221258   3.390   3.295   7.589  3.7400 -2.4108  0.2918
 3208SOL     OW21259   0.237   1.885   8.663  0.3636  0.1433 -0.3007
 3208SOL    HW121260   0.272   1.815   8.717  0.9456  2.0117  1.7528
 3208SOL    HW221261   0.218   1.960   8.720  0.4085 -0.9659  1.1803
 3209SOL     OW21262   0.213   0.031  15.249 -0.5173 -0.5089 -0.1344
 3209SOL    HW121263   0.238   0.061  15.337 -1.7007 -1.9461  0.6898
 3209SOL    HW221264   0.171   0.113  15.223  2.8001  1.7863  1.6659
 3210SOL     OW21265   2.888   2.109   3.794  0.2222 -0.5029 -0.1032
 3210SOL    HW121266   2.889   2.026   3.747 -1.8126  0.2413 -1.4527
 3210SOL    HW221267   2.963   2.105   3.853  1.1853 -2.5019 -1.4788
 3211SOL     OW21268   1.907   4.393  15.928  0.4968  0.4087 -0.0800
 3211SOL    HW121269   1.863   4.463  15.976  2.0739 -0.2131  2.2853
 3211SOL    HW221270   1.861   4.390  15.844  0.2928  2.1829 -0.0281
 3212SOL     OW21271   4.088   4.196  15.115 -0.0237 -0.0362  0.0241
 3212SOL    HW121272   4.137   4.146  15.049  0.0542 -1.8382  1.4672
 3212SOL    HW221273   4.003   4.194  15.072 -1.1106  2.4179  2.0619
 3213SOL     OW21274   3.761   0.276  16.933  0.4075  0.2917  0.6026
 3213SOL    HW121275   3.853   0.258  16.951  0.5559 -0.3652 -0.8393
 3213SOL    HW221276   3.752   0.369  16.956  1.3326  0.4808  0.1978
 3214SOL     OW21277   4.557   1.871  11.777  0.5017  0.1732  0.2079
 3214SOL    HW121278   4.518   1.863  11.864  2.3862  0.5515  1.1013
 3214SOL    HW221279   4.641   1.826  11.787  0.5026 -0.2922 -1.8675
 3215SOL     OW21280   1.328   4.416  10.953 -1.0934 -0.0802 -0.3678
 3215SOL    HW121281   1.302   4.476  11.023 -0.7275 -0.0230 -0.2798
 3215SOL    HW221282   1.417   4.392  10.981 -1.6657 -1.0551  0.6160
 3216SOL     OW21283   0.330   4.026   2.715 -0.3318 -0.2009 -0.2137
 3216SOL    HW121284   0.261   4.085   2.747 -0.4682  0.1289 -1.0888
 3216SOL    HW221285   0.284   3.947   2.687 -1.1073 -0.3807  1.5872
 3217SOL     OW21286   1.133   0.393  17.453  0.0296  0.1622 -0.1124
 3217SOL    HW121287   1.074   0.323  17.423 -1.2538  0.7206  1.0980
 3217SOL    HW221288   1.114   0.390  17.547 -0.8635 -0.1464 -0.3036
 3218SOL     OW21289   1.615   1.367   0.562 -0.1581  0.2415  0.3010
 3218SOL    HW121290   1.702   1.361   0.521  0.7883 -2.0698  2.6766
 3218SOL    HW221291   1.605   1.461   0.576 -4.1030  0.3498 -3.1205
 3219SOL     OW21292   1.870   0.435   6.617  0.1427 -0.2599  0.0050
 3219SOL    HW121293   1.860   0.462   6.708  1.4442  1.6106 -0.3936
 3219SOL    HW221294   1.829   0.350   6.632 -2.5384  0.8221 -1.0922
 3220SOL     OW21295   0.850   2.879  13.754  0.5899  0.0671 -0.1573
 3220SOL    HW121296   0.843   2.865  13.660 -1.3951  0.0445 -0.0068
 3220SOL    HW221297   0.906   2.804  13.776  1.5677  0.8548  0.0560
 3221SOL     OW21298   3.169   3.536   1.721 -0.5019  0.2217 -0.1825
 3221SOL    HW121299   3.207   3.613   1.678  0.4425  0.8073  1.6759
 3221SOL    HW221300   3.157   3.561   1.813 -0.0711  0.1218 -0.0944
 3222SOL     OW21301   4.335   1.019   9.311 -0.5801  0.2667  0.4318
 3222SOL    HW121302   4.275   1.000   9.238 -0.7417 -0.1002  0.6571
 3222SOL    HW221303   4.332   1.114   9.319  1.3790  0.3584 -0.0118
 3223SOL     OW21304   2.260   1.966   9.685  0.1064 -0.0095  0.7899
 3223SOL    HW121305   2.332   1.908   9.710  1.9243  2.2149  0.7470
 3223SOL    HW221306   2.259   2.028   9.758 -0.5657  3.1467 -1.8952
 3224SOL     OW21307   0.971   3.690  16.500 -0.5212 -0.1667  0.4768
 3224SOL    HW121308   0.993   3.675  16.592  1.9399 -1.7276 -0.3813
 3224SOL    HW221309   1.055   3.709  16.459 -0.5838  2.1959  1.4575
 3225SOL     OW21310   0.248   0.502   7.373  0.5040  0.2586 -0.4465
 3225SOL    HW121311   0.318   0.438   7.387 -0.4831 -0.4533  1.2962
 3225SOL    HW221312   0.234   0.489   7.280 -0.9229 -2.2603  0.1156
 3226SOL     OW21313   2.648   0.699   6.662 -0.5427  0.5019  0.1275
 3226SOL    HW121314   2.656   0.604   6.662  2.2698  0.7478 -0.8158
 3226SOL    HW221315   2.629   0.704   6.569 -0.0959  0.0788  0.0156
 3227SOL     OW21316   2.969   4.338   5.497 -0.4676 -0.1143  0.0470
 3227SOL    HW121317   2.940   4.250   5.474 -0.9531  0.3471 -1.0934
 3227SOL    HW221318   2.892   4.381   5.534  0.1576  2.4023 -1.5250
 3228SOL     OW21319   1.278   1.816   8.451  0.1335  0.2148  0.3000
 3228SOL    HW121320   1.363   1.860   8.453  0.3478 -0.1802 -0.0947
 3228SOL    HW221321   1.243   1.840   8.537 -1.0442  0.3710 -0.2298
 3229SOL     OW21322   3.105   3.234   1.019  0.2802  0.6985 -0.4865
 3229SOL    HW121323   3.118   3.278   1.103  1.3096 -0.8259  0.1744
 3229SOL    HW221324   3.073   3.148   1.045 -0.6898  1.4561  0.8036
 3230SOL     OW21325   0.318   1.125  16.557  0.0131  0.5806 -0.3118
 3230SOL    HW121326   0.340   1.139  16.465  1.4963 -1.4877 -0.2598
 3230SOL    HW221327   0.343   1.034  16.571  1.3563  1.0341  0.2525
 3231SOL     OW21328   2.932   1.597   1.842  0.0698 -0.0646  0.2829
 3231SOL    HW121329   2.838   1.599   1.824 -0.0207  0.1607  0.7843
 3231SOL    HW221330   2.931   1.607   1.937  0.7233  3.9559 -0.1508
 3232SOL     OW21331   3.179   4.236   8.321 -0.7093  0.1069 -0.5303
 3232SOL    HW121332   3.122   4.310   8.341 -1.3003 -0.1554 -1.2353
 3232SOL    HW221333   3.118   4.164   8.332  0.5298 -0.7943  0.5308
 3233SOL     OW21334   1.406   3.238   4.263 -0.0427  0.5591 -0.3834
 3233SOL    HW121335   1.312   3.256   4.262 -0.6283 -2.5036 -0.0958
 3233SOL    HW221336   1.420   3.143   4.260 -0.9357  0.3960  0.6700
 3234SOL     OW21337   0.122   3.477  14.223 -0.8211  0.3964  0.5200
 3234SOL    HW121338   0.108   3.438  14.136  0.9001  3.0675 -0.9561
 3234SOL    HW221339   0.186   3.426  14.272  0.0359  2.5717  1.6786
 3235SOL     OW21340   0.761   1.936   6.300 -0.2550 -0.0234  0.3735
 3235SOL    HW121341   0.672   1.959   6.272 -1.0847 -3.2382  0.3749
 3235SOL    HW221342   0.807   1.935   6.216  0.6505 -1.1911  0.8968
 3236SOL     OW21343   3.837   3.729   7.205 -0.1699  0.3530  0.2327
 3236SOL    HW121344   3.886   3.762   7.129 -1.1703  0.6841 -0.2584
 3236SOL    HW221345   3.830   3.634   7.199  2.8302  0.1803 -0.9630
 3237SOL     OW21346   1.435   2.122   0.814  0.3358  0.1812  0.0953
 3237SOL    HW121347   1.479   2.142   0.731  2.7735 -0.4424  1.2106
 3237SOL    HW221348   1.350   2.151   0.782 -0.3406 -1.5890  0.3000
 3238SOL     OW21349   1.854   4.545   4.196  0.2257 -0.5657  0.0304
 3238SOL    HW121350   1.843   4.532   4.102  1.5628  1.9583 -0.4683
 3238SOL    HW221351   1.784   4.485   4.222 -1.1670  1.2504  0.4341
 3239SOL     OW21352   3.005   4.563   8.824  0.1291  0.3602 -0.4147
 3239SOL    HW121353   3.041   4.475   8.835 -0.5725  0.6591  3.9879
 3239SOL    HW221354   3.076   4.613   8.863 -0.2853  0.4500  0.2147
 3240SOL     OW21355   3.173   2.883   4.597  0.2598 -0.8937 -0.3245
 3240SOL    HW121356   3.117   2.915   4.667 -0.3311  1.8526 -2.0640
 3240SOL    HW221357   3.255   2.898   4.645  0.9123  0.0744 -1.7541
 3241SOL     OW21358   1.895   1.795   8.279  0.0097  0.3701  0.7973
 3241SOL    HW121359   1.867   1.792   8.371  2.4160 -1.1220  1.4967
 3241SOL    HW221360   1.971   1.737   8.290  0.2959  0.5897 -0.0482
 3242SOL     OW21361   3.838   1.390   5.041 -0.0243 -0.1814 -0.0931
 3242SOL    HW121362   3.788   1.312   5.016 -1.3235  1.1383 -1.5630
 3242SOL    HW221363   3.881   1.412   4.958  0.7372  1.5277  0.7637
 3243SOL     OW21364   3.303   2.129  14.139 -0.8095 -0.1514  0.1958
 3243SOL    HW121365   3.246   2.185  14.086 -0.2854 -0.6725 -0.9245
 3243SOL    HW221366   3.250   2.113  14.217  0.5623 -0.0389  1.1491
 3244SOL     OW21367   3.716   1.517   8.097 -0.1337 -0.5992 -0.1861
 3244SOL    HW121368   3.790   1.575   8.077  1.0113 -2.3951 -1.1953
 3244SOL    HW221369   3.656   1.574   8.145  0.8715  1.3995 -1.2845
 3245SOL     OW21370   4.676   3.258  14.922  0.0470  0.1383  0.3121
 3245SOL    HW121371   4.615   3.187  14.943 -0.6376 -0.1269 -2.6400
 3245SOL    HW221372   4.713   3.261  15.011 -1.1378 -0.4946  0.8236
 3246SOL     OW21373   4.220   1.362   7.234 -0.2238  0.8077  0.2695
 3246SOL    HW121374   4.192   1.451   7.213  1.0831  1.1429 -0.0092
 3246SOL    HW221375   4.199   1.356   7.327 -2.4788  2.3831 -0.1236
 3247SOL     OW21376   4.496   3.563   8.508 -0.3350 -0.5309  0.5232
 3247SOL    HW121377   4.452   3.630   8.455  1.2312  1.7332  2.0963
 3247SOL    HW221378   4.576   3.548   8.459 -1.7298 -2.0298 -1.3147
 3248SOL     OW21379   0.006   4.271   4.672  0.2289 -0.1432  0.2303
 3248SOL    HW121380   0.091   4.315   4.672 -0.1088  0.5281 -1.9655
 3248SOL    HW221381   0.013   4.217   4.594  0.1283  1.0411 -0.6074
 3249SOL     OW21382   0.463   0.269  14.736  0.7726  0.1462  0.8878
 3249SOL    HW121383   0.546   0.269  14.689 -0.2196  1.3500 -0.8672
 3249SOL    HW221384   0.405   0.294  14.663 -1.8155 -0.2976  2.8027
 3250SOL     OW21385   2.289   3.218   1.209  0.0251  0.1696 -0.3117
 3250SOL    HW121386   2.255   3.296   1.164  0.5708  0.4835 -0.1742
 3250SOL    HW221387   2.357   3.260   1.261  1.5173 -0.5459 -1.6958
 3251SOL     OW21388   1.400   0.470  17.298  0.5465  0.0621 -0.0514
 3251SOL    HW121389   1.345   0.546  17.317  1.4338  0.7110 -0.0687
 3251SOL    HW221390   1.351   0.411  17.355 -1.8659  1.5147 -0.6352
 3252SOL     OW21391   0.974   1.245  12.421  0.9458  0.2852 -0.8944
 3252SOL    HW121392   1.059   1.262  12.461 -0.5089  3.5619  0.7458
 3252SOL    HW221393   0.988   1.279  12.332  0.8035 -1.0288 -1.4303
 3253SOL     OW21394   1.753   3.023   9.562  0.5703 -0.3363 -0.1278
 3253SOL    HW121395   1.802   2.946   9.534  2.0282  0.0533  1.3629
 3253SOL    HW221396   1.693   2.984   9.624  1.5091 -0.3278  0.7866
 3254SOL     OW21397   1.419   4.319  11.518 -0.0805  0.3556  0.0590
 3254SOL    HW121398   1.427   4.229  11.551  1.2604  0.6933  0.6468
 3254SOL    HW221399   1.492   4.329  11.458  1.0647  0.8288  1.5418
 3255SOL     OW21400   3.415   3.605  16.425  0.6819  0.1030  0.4833
 3255SOL    HW121401   3.380   3.516  16.420 -2.6742  1.5306 -1.2495
 3255SOL    HW221402   3.481   3.595  16.494  1.1668  0.7582  0.1189
 3256SOL     OW21403   1.649   4.106  13.549 -0.1059 -0.2070  0.5767
 3256SOL    HW121404   1.556   4.091  13.533  0.6003 -2.8350 -1.0745
 3256SOL    HW221405   1.688   4.045  13.486 -0.5298 -0.7188  0.8066
 3257SOL     OW21406   0.032   4.398   7.472 -0.0729 -0.5635 -0.1676
 3257SOL    HW121407   0.029   4.396   7.568  0.5194  0.0646 -0.1368
 3257SOL    HW221408   4.699   4.340   7.445 -0.7812 -0.8480  2.2250
 3258SOL     OW21409   3.862   2.647   5.641  0.0339  0.3227 -0.1031
 3258SOL    HW121410   3.791   2.594   5.677  0.2714 -0.0741 -0.2075
 3258SOL    HW221411   3.909   2.579   5.591 -0.9693  0.8779 -1.8138
 3259SOL     OW21412   2.205   1.482   6.723 -0.3375  0.4584  0.6571
 3259SOL    HW121413   2.115   1.453   6.737 -0.0817 -0.5794  0.1113
 3259SOL    HW221414   2.213   1.463   6.630 -0.6945  0.9163  0.5311
 3260SOL     OW21415   4.700   1.472   5.878 -0.3793  0.7258  0.0219
 3260SOL    HW121416   0.027   1.472   5.806  0.4205  0.0097  0.7254
 3260SOL    HW221417   4.736   1.403   5.934 -0.7938 -1.3085 -2.2382
 3261SOL     OW21418   2.836   1.373   4.645  0.0697 -0.0936 -0.0847
 3261SOL    HW121419   2.796   1.326   4.572  0.9303 -0.5169 -0.2831
 3261SOL    HW221420   2.854   1.453   4.596  0.4863 -0.8836 -1.2067
 3262SOL     OW21421   1.157   2.152   2.172 -0.2526  0.1830 -0.1288
 3262SOL    HW121422   1.212   2.106   2.110 -0.5031  0.8784 -0.8705
 3262SOL    HW221423   1.194   2.240   2.166 -0.8291  0.3020 -1.8988
 3263SOL     OW21424   0.226   3.686   1.828  0.5134 -0.5118 -0.2373
 3263SOL    HW121425   0.265   3.764   1.788 -2.1908  1.6176  1.2951
 3263SOL    HW221426   0.302   3.651   1.875  1.9205  0.8472 -1.4673
 3264SOL     OW21427   2.866   1.315   3.815  0.1860 -0.1245  0.3144
 3264SOL    HW121428   2.942   1.278   3.861 -0.0269 -0.8767  0.0655
 3264SOL    HW221429   2.794   1.285   3.870 -0.1451 -1.1686 -0.6903
 3265SOL     OW21430   1.648   0.572   7.312  0.2414  0.3580  0.3790
 3265SOL    HW121431   1.644   0.622   7.231  0.6496  0.4302  0.4021
 3265SOL    HW221432   1.689   0.491   7.281  0.9228  0.2073  1.6831
 3266SOL     OW21433   0.389   0.828   5.599 -0.1176 -0.2554  0.6296
 3266SOL    HW121434   0.314   0.811   5.541 -2.4691  1.9727  3.0214
 3266SOL    HW221435   0.438   0.890   5.545  0.5031 -1.0507  0.2810
 3267SOL     OW21436   0.645   4.677   6.366  0.1073 -0.0448  0.2268
 3267SOL    HW121437   0.581   4.618   6.328 -1.3299 -0.0631  2.6926
 3267SOL    HW221438   0.708   4.668   6.294  0.8545  2.1043  0.5891
 3268SOL     OW21439   4.507   4.291   2.742  0.3315 -0.0370 -0.7022
 3268SOL    HW121440   4.559   4.302   2.822 -0.8625 -1.8575  0.3085
 3268SOL    HW221441   4.486   4.198   2.751 -0.4941  0.1740 -0.5200
 3269SOL     OW21442   1.992   1.967   9.856  0.1593 -0.1276  0.6261
 3269SOL    HW121443   1.967   1.876   9.840  0.4801  0.1582 -1.4249
 3269SOL    HW221444   2.050   1.952   9.930  1.4504 -0.0562 -0.3697
 3270SOL     OW21445   3.778   1.815  11.552  0.3093  0.3747  0.6170
 3270SOL    HW121446   3.711   1.789  11.615 -1.0664 -0.2828 -1.1178
 3270SOL    HW221447   3.838   1.741  11.554 -0.4372 -0.2643 -0.9799
 3271SOL     OW21448   4.243   2.753   7.807 -0.3257  0.2373  0.2007
 3271SOL    HW121449   4.241   2.804   7.726  0.9204  0.4978  0.3380
 3271SOL    HW221450   4.151   2.727   7.804 -0.1244 -0.7866  3.0620
 3272SOL     OW21451   2.005   3.213   8.792 -0.4808  0.0253  0.1112
 3272SOL    HW121452   2.059   3.175   8.723 -0.0911 -1.2768  1.1502
 3272SOL    HW221453   1.945   3.142   8.813 -1.8977  1.5801  1.3571
 3273SOL     OW21454   1.709   1.721   4.814  0.0692  0.4517  0.6357
 3273SOL    HW121455   1.620   1.749   4.796 -0.5872 -2.2558 -0.2903
 3273SOL    HW221456   1.688   1.632   4.841 -0.3811 -0.1534 -1.6787
 3274SOL     OW21457   1.118   4.633  13.318  0.3778  0.2531 -0.5131
 3274SOL    HW121458   1.029   4.626  13.353  0.1669 -1.1161 -1.3322
 3274SOL    HW221459   1.116   4.566  13.249  0.3993 -0.7880  0.4965
 3275SOL     OW21460   1.043   1.014   7.025 -0.5525 -0.4592  0.4498
 3275SOL    HW121461   1.041   1.052   6.937 -0.0767  0.4382  0.8343
 3275SOL    HW221462   1.115   1.069   7.056 -0.5637  0.9977 -2.0738
 3276SOL     OW21463   0.272   2.190   3.610  0.5380  0.0555 -0.3885
 3276SOL    HW121464   0.320   2.216   3.531 -2.2346  0.9030 -1.7706
 3276SOL    HW221465   0.201   2.254   3.610 -0.6372 -1.2792 -0.4707
 3277SOL     OW21466   0.157   4.620  14.974 -0.4927  0.3581 -0.0098
 3277SOL    HW121467   0.133   4.676  15.048  0.6915  0.7934  0.0445
 3277SOL    HW221468   0.146   4.680  14.901  0.5506 -0.3357 -0.7311
 3278SOL     OW21469   1.255   0.086   1.611 -0.3820 -0.1581  0.0437
 3278SOL    HW121470   1.268   0.167   1.661 -1.4963 -0.3337  0.6103
 3278SOL    HW221471   1.270   0.123   1.524 -0.1506  0.6983  0.4429
 3279SOL     OW21472   3.808   2.022   7.172 -0.5693 -0.5640 -0.0359
 3279SOL    HW121473   3.850   2.107   7.186 -0.2028 -0.9240  1.0582
 3279SOL    HW221474   3.768   2.040   7.087 -2.5734  4.5454  2.0061
 3280SOL     OW21475   0.876   3.999   4.097  0.4178 -0.2613 -0.5297
 3280SOL    HW121476   0.782   4.008   4.112  0.5381 -0.2564  0.2410
 3280SOL    HW221477   0.917   4.053   4.165  1.0322  2.3594 -2.9679
 3281SOL     OW21478   2.346   0.844  14.261 -0.5688  0.0015  0.5434
 3281SOL    HW121479   2.304   0.928  14.283  1.0973  0.5474  1.6233
 3281SOL    HW221480   2.431   0.877  14.233 -1.0252  1.6209  1.0711
 3282SOL     OW21481   3.723   4.386   3.317 -0.6261 -0.0758  0.2732
 3282SOL    HW121482   3.730   4.290   3.314 -3.1610 -0.1817 -2.7557
 3282SOL    HW221483   3.794   4.400   3.254  0.9605  2.3132  2.5958
 3283SOL     OW21484   0.493   2.150   6.786  0.5448 -0.2115  0.0531
 3283SOL    HW121485   0.468   2.058   6.774  2.0908 -0.5500 -0.4780
 3283SOL    HW221486   0.553   2.134   6.858 -0.2374  2.9099  1.4054
 3284SOL     OW21487   1.423   1.096   2.025 -0.2794 -0.3317 -0.1545
 3284SOL    HW121488   1.497   1.104   1.965 -0.1488  0.9849  0.1689
 3284SOL    HW221489   1.467   1.088   2.110 -0.6574 -1.9336 -0.1144
 3285SOL     OW21490   0.904   0.352   0.275 -0.3657  0.4232 -0.3093
 3285SOL    HW121491   0.982   0.332   0.327 -0.7761 -0.0057  0.1470
 3285SOL    HW221492   0.936   0.432   0.234 -0.9501 -0.4259 -2.4115
 3286SOL     OW21493   4.236   0.672  10.088 -0.1586 -0.1613 -0.3757
 3286SOL    HW121494   4.321   0.699  10.122 -0.4138 -2.5239  2.1175
 3286SOL    HW221495   4.198   0.754  10.118 -3.3519 -1.4935 -0.7921
 3287SOL     OW21496   2.182   3.573   6.004  0.7995  0.0243 -0.4581
 3287SOL    HW121497   2.094   3.590   5.970  0.3334  0.8879  1.1499
 3287SOL    HW221498   2.248   3.631   5.967 -0.9558  1.7550 -0.8806
 3288SOL     OW21499   4.385   3.550   2.438  0.5227 -0.4599  0.3869
 3288SOL    HW121500   4.298   3.510   2.437  1.5523 -2.6940  1.6656
 3288SOL    HW221501   4.344   3.621   2.387 -0.9338 -1.8993 -0.4426
 3289SOL     OW21502   2.580   2.229  11.049 -0.1930 -0.4564  0.3206
 3289SOL    HW121503   2.498   2.251  11.004  0.3647  0.3570 -0.3051
 3289SOL    HW221504   2.643   2.300  11.036 -0.1591 -0.0698  2.6401
 3290SOL     OW21505   3.684   1.590   1.506 -0.0399  0.3353  0.1683
 3290SOL    HW121506   3.772   1.597   1.469 -0.1197 -1.8281 -0.3936
 3290SOL    HW221507   3.693   1.634   1.591  0.0500 -1.8719  1.2856
 3291SOL     OW21508   0.468   3.577   5.898  0.6607  0.1925 -0.0435
 3291SOL    HW121509   0.471   3.669   5.924  1.0658  0.3391 -0.6058
 3291SOL    HW221510   0.555   3.562   5.860  1.4883 -0.5907  2.2003
 3292SOL     OW21511   0.113   0.669   3.629  0.3104  0.1060 -0.0252
 3292SOL    HW121512   0.132   0.749   3.582 -0.3781  0.6810  0.6744
 3292SOL    HW221513   0.175   0.674   3.702  1.4269 -0.5921 -0.9375
 3293SOL     OW21514   4.311   4.107   9.360  0.4006 -0.0169 -0.0924
 3293SOL    HW121515   4.373   4.041   9.391  1.6824  3.2521  4.2625
 3293SOL    HW221516   4.351   4.125   9.275 -0.3930  2.4993  0.0796
 3294SOL     OW21517   4.252   1.602  12.146 -0.1299 -0.1610  0.5244
 3294SOL    HW121518   4.303   1.542  12.201  1.3904  0.2708 -0.4220
 3294SOL    HW221519   4.164   1.578  12.173 -0.6540  1.4527  0.2064
 3295SOL     OW21520   0.180   1.322  10.055 -0.2639  0.4119 -0.1957
 3295SOL    HW121521   0.114   1.346   9.989 -0.9534  2.0382  1.0805
 3295SOL    HW221522   0.150   1.232  10.072 -0.1607  0.3328 -0.4330
 3296SOL     OW21523   0.395   0.596   7.088  0.1681  0.1584 -0.6691
 3296SOL    HW121524   0.418   0.508   7.117  0.2104  0.8993  1.5075
 3296SOL    HW221525   0.459   0.657   7.124  0.3145  0.5847 -1.6271
 3297SOL     OW21526   1.047   1.023   1.050 -0.3956  0.7177  0.0272
 3297SOL    HW121527   1.092   0.972   1.117  2.6583  1.1432 -1.7414
 3297SOL    HW221528   1.056   0.966   0.974  0.4878  0.0436  0.6426
 3298SOL     OW21529   3.785   0.613   2.831  0.1407  0.3513 -0.0432
 3298SOL    HW121530   3.692   0.635   2.840  0.5852  2.2743 -0.2458
 3298SOL    HW221531   3.807   0.559   2.906 -1.3052 -2.1040 -1.3871
 3299SOL     OW21532   1.278   2.377   2.427  0.1308 -0.1413  0.2625
 3299SOL    HW121533   1.266   2.400   2.519 -1.1968  1.6802 -0.3782
 3299SOL    HW221534   1.292   2.283   2.442 -1.3871 -0.5804 -1.2053
 3300SOL     OW21535   3.353   4.036  12.855 -0.3605 -0.3147 -0.0017
 3300SOL    HW121536   3.439   4.012  12.891 -0.8468 -0.8523  0.8045
 3300SOL    HW221537   3.301   4.024  12.934 -0.5682  0.4539 -0.0274
 3301SOL     OW21538   0.006   4.074   0.053 -0.1220 -0.1853 -0.0443
 3301SOL    HW121539   0.080   4.049   0.109 -0.9657 -0.4091  0.9617
 3301SOL    HW221540   4.725   4.164   0.077  1.2806 -0.3416  1.5661
 3302SOL     OW21541   2.403   0.956   4.136 -0.0048  0.1220 -0.2899
 3302SOL    HW121542   2.494   0.969   4.165 -0.5012 -0.7255  1.6396
 3302SOL    HW221543   2.406   0.862   4.151 -0.9921 -0.0691 -1.3227
 3303SOL     OW21544   2.840   1.072  16.804 -0.4831  0.8006 -0.1534
 3303SOL    HW121545   2.892   1.061  16.884  0.5061  2.0863 -0.6159
 3303SOL    HW221546   2.751   1.095  16.833  0.2073  2.7178  0.4805
 3304SOL     OW21547   1.421   4.577   7.833 -0.1570 -0.3682  0.0075
 3304SOL    HW121548   1.489   4.551   7.895 -0.1760 -1.3724 -0.3941
 3304SOL    HW221549   1.342   4.542   7.874  0.5267 -3.3289 -1.2070
 3305SOL     OW21550   4.688   3.240   9.901 -0.1797  0.1305 -0.0899
 3305SOL    HW121551   4.714   3.332   9.897 -0.7159  0.3638  1.9355
 3305SOL    HW221552   4.595   3.259   9.889  0.1150  1.2710 -0.5390
 3306SOL     OW21553   0.503   3.053  16.118  0.0817 -0.1155 -0.2838
 3306SOL    HW121554   0.473   3.001  16.193  2.5360 -0.7564  0.2456
 3306SOL    HW221555   0.437   3.122  16.106  0.8954  0.6852 -0.1785
 3307SOL     OW21556   3.115   1.051   1.400 -0.0140  0.2858  0.3431
 3307SOL    HW121557   3.029   1.052   1.358  0.8000 -0.0692 -1.3342
 3307SOL    HW221558   3.103   0.991   1.474  2.1157  1.3191  1.5329
 3308SOL     OW21559   2.480   1.549   2.878  0.0474  0.6257 -0.4967
 3308SOL    HW121560   2.571   1.538   2.903  0.4356  2.3276 -1.1950
 3308SOL    HW221561   2.485   1.512   2.790 -2.2937  0.3024 -0.5025
 3309SOL     OW21562   3.090   1.693  11.462  0.8812  0.8905 -0.3493
 3309SOL    HW121563   3.039   1.615  11.443 -0.9656  2.0275 -0.0666
 3309SOL    HW221564   3.132   1.678  11.547  0.9692 -3.2116 -1.1465
 3310SOL     OW21565   2.291   2.394   6.765 -0.2812 -0.0027  0.5411
 3310SOL    HW121566   2.350   2.420   6.835 -1.3819  0.5854  1.2365
 3310SOL    HW221567   2.340   2.324   6.720  1.5016  0.9388  1.0349
 3311SOL     OW21568   0.694   2.245   1.374 -0.3537  0.5245  0.4774
 3311SOL    HW121569   0.777   2.216   1.412 -0.2180 -2.5644 -2.1548
 3311SOL    HW221570   0.641   2.263   1.451 -1.0695 -1.3380  0.4291
 3312SOL     OW21571   3.454   3.983   6.756  0.2326  0.5477 -0.1928
 3312SOL    HW121572   3.497   4.013   6.675 -0.4559  1.4292 -0.2222
 3312SOL    HW221573   3.459   4.058   6.814  2.1410  0.2339  0.0651
 3313SOL     OW21574   2.801   2.900   3.059  0.1864  0.2547  0.6527
 3313SOL    HW121575   2.740   2.921   2.988  0.3669 -1.5688 -0.0420
 3313SOL    HW221576   2.845   2.822   3.026 -3.3425  0.2085 -3.9136
 3314SOL     OW21577   2.536   4.178   4.665 -0.3714  0.0838 -0.3571
 3314SOL    HW121578   2.596   4.215   4.600  3.4977  0.3301  3.3544
 3314SOL    HW221579   2.509   4.094   4.629  2.3247 -2.2351  2.9562
 3315SOL     OW21580   4.509   1.238  15.078  0.2909  0.2112  0.0257
 3315SOL    HW121581   4.435   1.289  15.045 -0.7137 -1.7453 -0.7583
 3315SOL    HW221582   4.564   1.249  15.000 -0.7516 -0.2430 -0.7754
 3316SOL     OW21583   0.387   3.908   2.104  0.2062 -0.1110  0.4837
 3316SOL    HW121584   0.293   3.921   2.102  0.4102  1.1809 -1.4096
 3316SOL    HW221585   0.421   3.973   2.041 -0.5191 -0.8994 -0.7218
 3317SOL     OW21586   4.682   2.638   2.984 -0.5588 -0.4904  0.3488
 3317SOL    HW121587   4.715   2.551   3.007  0.3002 -0.6224 -1.4370
 3317SOL    HW221588   4.626   2.611   2.912 -0.9098 -0.7202  0.7053
 3318SOL     OW21589   0.989   1.660   4.928  0.2067 -0.3195 -0.2948
 3318SOL    HW121590   0.930   1.644   5.002 -0.0193  1.4728 -0.0769
 3318SOL    HW221591   1.007   1.754   4.929  3.2501 -0.8807 -3.1510
 3319SOL     OW21592   3.100   4.378   2.175  0.0415  0.1617 -0.4491
 3319SOL    HW121593   3.143   4.364   2.260 -0.0758  0.7455 -0.2923
 3319SOL    HW221594   3.172   4.402   2.117  1.9532  0.5968  2.1236
 3320SOL     OW21595   0.864   0.865  10.117 -0.1896 -0.5544  0.1877
 3320SOL    HW121596   0.954   0.892  10.133  1.1149 -3.3416 -2.5257
 3320SOL    HW221597   0.825   0.905  10.195  1.8296 -0.2397  1.0226
 3321SOL     OW21598   1.247   4.733   8.763  0.6107  0.2163  0.5537
 3321SOL    HW121599   1.195   0.076   8.767 -0.8526 -0.8465  2.9844
 3321SOL    HW221600   1.334   0.034   8.768 -0.0224  1.9365 -1.5474
 3322SOL     OW21601   1.310   4.362  17.202 -0.0530  0.1936 -0.3754
 3322SOL    HW121602   1.364   4.301  17.152 -1.5423  0.2968 -2.1035
 3322SOL    HW221603   1.226   4.350  17.157 -1.8665  1.3522  2.7176
 3323SOL     OW21604   0.918   1.725   7.391 -0.1023  0.0202  0.3266
 3323SOL    HW121605   0.862   1.751   7.463  0.8564  2.3373  0.2182
 3323SOL    HW221606   0.988   1.789   7.401  2.1083 -2.0679 -1.7357
 3324SOL     OW21607   0.774   4.412  10.547  0.3588 -0.2838  0.2842
 3324SOL    HW121608   0.814   4.369  10.623 -0.0355 -0.5892  0.3155
 3324SOL    HW221609   0.692   4.443  10.586  0.8884  0.6765  0.6192
 3325SOL     OW21610   4.060   4.178   2.515  0.0342  0.1057 -0.5223
 3325SOL    HW121611   4.062   4.203   2.422  2.4470  0.0193 -0.5016
 3325SOL    HW221612   4.010   4.247   2.558  1.1706  0.9507 -0.5628
 3326SOL     OW21613   0.082   3.370   8.414  0.2095 -0.4469 -0.3531
 3326SOL    HW121614   0.139   3.357   8.338  0.2575 -1.7549 -0.0975
 3326SOL    HW221615   0.120   3.444   8.461 -0.9989 -0.1043  0.0881
 3327SOL     OW21616   4.504   3.999   6.485  0.7827  0.1178  0.3741
 3327SOL    HW121617   4.421   3.979   6.441  0.5379 -0.7489  1.2569
 3327SOL    HW221618   4.532   4.061   6.417  1.4517  1.4986  1.9303
 3328SOL     OW21619   0.906   4.173   2.738 -0.3086 -0.3117 -0.4622
 3328SOL    HW121620   0.880   4.097   2.687 -1.3187 -2.6829  3.5572
 3328SOL    HW221621   0.894   4.141   2.828 -4.7233 -0.0355 -0.9774
 3329SOL     OW21622   0.597   4.132   7.219  0.6340  0.2143 -0.5467
 3329SOL    HW121623   0.589   4.209   7.162 -0.4369 -0.4695 -1.3212
 3329SOL    HW221624   0.513   4.086   7.211  1.1798 -0.7968 -0.4429
 3330SOL     OW21625   2.702   3.801  13.310  0.0831 -0.4682 -0.2325
 3330SOL    HW121626   2.756   3.737  13.263 -0.9101 -0.9437 -0.7403
 3330SOL    HW221627   2.672   3.856  13.238 -0.9867 -0.8922 -0.1092
 3331SOL     OW21628   0.443   0.103   9.967  0.3201  0.6588  0.0949
 3331SOL    HW121629   0.409   0.071   9.883  1.5196  1.5868 -0.7420
 3331SOL    HW221630   0.460   0.013   9.994 -0.0712  0.1204 -1.3999
 3332SOL     OW21631   3.981   0.343   4.773 -0.5114 -0.0597 -0.3747
 3332SOL    HW121632   4.027   0.361   4.691  0.7127  1.1768  0.5901
 3332SOL    HW221633   3.935   0.262   4.750  1.8862 -1.3025 -0.7368
 3333SOL     OW21634   1.632   3.647   8.118 -0.2433 -0.1146  0.1150
 3333SOL    HW121635   1.586   3.611   8.193 -2.2685  0.9358 -0.6231
 3333SOL    HW221636   1.707   3.589   8.106 -0.1606  0.3065 -1.4441
 3334SOL     OW21637   3.462   2.152  15.143 -0.1709  0.1952  0.5555
 3334SOL    HW121638   3.438   2.237  15.106 -1.5387  0.1117  1.2714
 3334SOL    HW221639   3.406   2.138  15.219 -1.1105  0.9478  0.0002
 3335SOL     OW21640   1.138   1.251  11.312 -0.5374  0.3241 -0.1741
 3335SOL    HW121641   1.083   1.239  11.389  1.9277  2.5350  1.9434
 3335SOL    HW221642   1.070   1.278  11.251 -0.2301  0.9382 -0.2469
 3336SOL     OW21643   4.442   1.190  14.506  0.1162  0.1370  0.1865
 3336SOL    HW121644   4.403   1.230  14.428  1.3194 -0.2560 -0.6147
 3336SOL    HW221645   4.436   1.098  14.478 -3.8847 -0.2287  2.3211
 3337SOL     OW21646   0.619   0.905   8.204 -0.1692 -0.0105  0.6073
 3337SOL    HW121647   0.606   0.994   8.235  1.1282 -0.1052  1.4523
 3337SOL    HW221648   0.635   0.924   8.112 -3.0084  0.7322  0.2786
 3338SOL     OW21649   3.779   2.481   5.178 -0.1671 -0.4589  0.2292
 3338SOL    HW121650   3.717   2.552   5.157  0.6335  0.4544  0.9722
 3338SOL    HW221651   3.734   2.459   5.260 -0.1165 -1.1372  0.0685
 3339SOL     OW21652   4.503   1.613   7.079  0.5163 -0.3676 -0.7619
 3339SOL    HW121653   4.534   1.558   7.151  0.0667  0.7011  0.2511
 3339SOL    HW221654   4.466   1.543   7.026 -1.0840  1.2454 -1.8053
 3340SOL     OW21655   2.432   0.499   3.964 -0.2202 -0.5323 -0.0160
 3340SOL    HW121656   2.468   0.424   3.916  2.1562 -0.2630  1.3567
 3340SOL    HW221657   2.465   0.479   4.052 -0.0926 -1.5482 -0.2906
 3341SOL     OW21658   2.397   0.638   7.760  0.3768 -0.7730 -0.3405
 3341SOL    HW121659   2.400   0.570   7.693  0.0950 -1.4067  0.2879
 3341SOL    HW221660   2.461   0.612   7.827 -0.6987  0.5900  1.1974
 3342SOL     OW21661   1.234   1.561   4.474 -0.3454 -0.1748  0.1577
 3342SOL    HW121662   1.274   1.609   4.401 -1.0363  2.8672  1.7653
 3342SOL    HW221663   1.142   1.571   4.453 -0.6402 -0.2598  1.3860
 3343SOL     OW21664   2.711   1.410   6.858 -0.0551  0.1729  0.1227
 3343SOL    HW121665   2.753   1.372   6.935 -0.5792 -0.1069  0.2721
 3343SOL    HW221666   2.648   1.341   6.840  0.4820  0.3522 -2.4597
 3344SOL     OW21667   1.717   3.498   5.241  0.2537  0.2017  0.4060
 3344SOL    HW121668   1.766   3.445   5.178 -0.6358  0.3982 -0.4426
 3344SOL    HW221669   1.721   3.582   5.195  0.6480 -1.2015 -2.1119
 3345SOL     OW21670   1.036   0.736   5.508  0.0407 -0.0953  0.1145
 3345SOL    HW121671   1.047   0.659   5.451 -0.2581 -0.3358  0.3812
 3345SOL    HW221672   1.055   0.710   5.598 -1.0807 -2.4668 -0.3200
 3346SOL     OW21673   1.709   2.498   5.140 -0.2058 -0.4901  0.1661
 3346SOL    HW121674   1.629   2.470   5.185  0.6960 -2.4361  0.5872
 3346SOL    HW221675   1.738   2.564   5.202 -2.2752 -0.0218  0.6369
 3347SOL     OW21676   3.442   4.121   7.191 -0.4296 -0.2979  0.3937
 3347SOL    HW121677   3.474   4.047   7.243 -0.4222 -1.9466 -1.9441
 3347SOL    HW221678   3.348   4.110   7.206 -0.4540  1.6848  1.7173
 3348SOL     OW21679   0.555   2.645   6.159 -0.1517 -0.4839  0.3673
 3348SOL    HW121680   0.577   2.552   6.157 -2.3687 -0.9906 -0.0578
 3348SOL    HW221681   0.460   2.647   6.148 -0.2495 -1.4119  0.9592
 3349SOL     OW21682   3.563   1.605   4.841 -0.1517 -0.5187 -0.1649
 3349SOL    HW121683   3.487   1.630   4.787  1.2624  1.6866 -1.1632
 3349SOL    HW221684   3.613   1.567   4.769 -0.8460 -2.3255  0.3178
 3350SOL     OW21685   2.114   3.407   5.406 -0.3536  0.2251  0.2667
 3350SOL    HW121686   2.163   3.397   5.488  0.7104  0.0113 -0.3932
 3350SOL    HW221687   2.072   3.492   5.418 -0.8311  0.0102  0.1410
 3351SOL     OW21688   0.943   0.166   6.139 -0.0985  0.4530 -0.1008
 3351SOL    HW121689   0.848   0.158   6.151 -0.5257  1.2713 -2.9284
 3351SOL    HW221690   0.947   0.093   6.077  1.1874  0.0131  0.5050
 3352SOL     OW21691   3.611   3.941   5.701 -0.6504  0.4017  0.2019
 3352SOL    HW121692   3.623   4.030   5.666  0.2869 -0.3654 -1.4368
 3352SOL    HW221693   3.552   3.900   5.638  1.6913 -2.3825 -0.1854
 3353SOL     OW21694   3.643   4.618  15.006  0.0076 -0.2583 -0.7698
 3353SOL    HW121695   3.584   4.631  14.933 -0.8828 -1.4277 -0.2576
 3353SOL    HW221696   3.688   4.703  15.008  2.1103 -1.3836  0.0498
 3354SOL     OW21697   3.412   0.643   1.068 -0.1723 -0.5418 -0.4529
 3354SOL    HW121698   3.462   0.704   1.123 -1.1613 -0.0045 -0.1562
 3354SOL    HW221699   3.322   0.675   1.064 -0.1292 -0.0871  1.9147
 3355SOL     OW21700   3.627   3.028   2.054  0.4811  0.8590  0.1531
 3355SOL    HW121701   3.661   3.070   1.975  0.4075  2.7532  1.1201
 3355SOL    HW221702   3.559   2.973   2.014  0.1438  1.3756  0.0134
 3356SOL     OW21703   2.033   0.441   3.825  0.5842 -0.3984 -0.0120
 3356SOL    HW121704   2.084   0.423   3.903  1.9952 -0.9206 -1.0732
 3356SOL    HW221705   2.081   0.511   3.780  1.2113 -0.2194  0.9351
 3357SOL     OW21706   0.978   0.078  10.142  0.3355 -0.1649  0.4289
 3357SOL    HW121707   1.054   0.034  10.104  0.6212  0.1638  0.6173
 3357SOL    HW221708   0.974   0.161  10.094  0.3323  0.7637  2.0151
 3358SOL     OW21709   3.128   0.277  12.662 -0.1588 -1.1693  0.1134
 3358SOL    HW121710   3.073   0.208  12.700  1.8401 -2.5016  0.5787
 3358SOL    HW221711   3.210   0.230  12.648  0.6312  0.3532 -0.3849
 3359SOL     OW21712   3.451   2.369   4.327  0.1018 -0.1588 -0.3193
 3359SOL    HW121713   3.513   2.437   4.352 -1.4840  1.1803 -0.0414
 3359SOL    HW221714   3.384   2.381   4.395  0.0830  1.3018 -0.5930
 3360SOL     OW21715   3.516   0.730   6.111 -0.1322  0.7595 -0.6108
 3360SOL    HW121716   3.434   0.682   6.105  0.2572  0.1108 -0.8320
 3360SOL    HW221717   3.501   0.821   6.085  0.0602 -0.0153 -3.4130
 3361SOL     OW21718   1.374   3.685   3.956 -0.4981  0.2522 -0.1168
 3361SOL    HW121719   1.461   3.657   3.986 -1.2368 -1.0775  0.8047
 3361SOL    HW221720   1.392   3.738   3.879 -2.1626 -1.2045 -1.5165
 3362SOL     OW21721   0.352   0.713   7.892 -0.1809  0.7717 -0.1801
 3362SOL    HW121722   0.367   0.694   7.799  0.4740 -0.2580  0.1260
 3362SOL    HW221723   0.259   0.734   7.891 -0.1581  0.8704 -0.1229
 3363SOL     OW21724   1.797   3.796   1.304 -0.0830 -0.1508  0.3227
 3363SOL    HW121725   1.709   3.776   1.272  1.0754  0.5187 -3.3552
 3363SOL    HW221726   1.787   3.878   1.352  0.8555 -0.2868  0.7510
 3364SOL     OW21727   4.608   2.593   4.463  0.2538 -0.1198 -0.6035
 3364SOL    HW121728   4.519   2.603   4.429 -0.6366 -3.3770  0.7031
 3364SOL    HW221729   4.589   2.521   4.524  1.4454  0.3976  0.3683
 3365SOL     OW21730   1.605   2.480   3.494 -0.1985 -0.3464  0.0682
 3365SOL    HW121731   1.520   2.437   3.491 -0.1775 -0.3359 -0.5784
 3365SOL    HW221732   1.661   2.409   3.462 -1.7527 -1.7099  0.3574
 3366SOL     OW21733   4.413   2.778   6.508 -0.5515 -0.5070  0.0260
 3366SOL    HW121734   4.483   2.770   6.573 -2.0551  1.7061  1.8975
 3366SOL    HW221735   4.414   2.871   6.487  2.0309 -0.7564 -0.9265
 3367SOL     OW21736   3.140   0.201   8.799 -0.2078 -0.4040 -0.2383
 3367SOL    HW121737   3.199   0.262   8.841  0.0806  0.4279 -1.8464
 3367SOL    HW221738   3.088   0.264   8.749  1.0916  1.3160  0.5785
 3368SOL     OW21739   2.662   1.674   6.929  0.0681 -0.4683 -0.2145
 3368SOL    HW121740   2.570   1.673   6.905  0.2453  0.9591 -1.0083
 3368SOL    HW221741   2.684   1.582   6.914  0.2571 -0.4888  0.1946
 3369SOL     OW21742   2.262   3.274  15.036 -0.5248 -0.0065  0.1749
 3369SOL    HW121743   2.170   3.299  15.027 -0.3278  0.6657  0.0273
 3369SOL    HW221744   2.310   3.357  15.044  2.8662 -2.1605  2.1706
 3370SOL     OW21745   2.134   0.964   3.305 -0.4264 -0.5768  0.1525
 3370SOL    HW121746   2.198   1.035   3.309 -0.6699 -0.4058  1.1287
 3370SOL    HW221747   2.162   0.925   3.222 -2.4664 -0.1277 -0.7411
 3371SOL     OW21748   3.646   3.745  14.611 -0.5296 -0.0581 -0.1606
 3371SOL    HW121749   3.633   3.688  14.535 -0.8691  0.3777 -0.4315
 3371SOL    HW221750   3.668   3.831  14.574 -1.7889  0.2008 -0.3329
 3372SOL     OW21751   1.281   2.286  11.037 -0.4420 -0.4922  0.3416
 3372SOL    HW121752   1.209   2.347  11.046 -0.4336 -0.3457 -0.6582
 3372SOL    HW221753   1.240   2.206  11.069 -0.7054 -0.5350 -0.1110
 3373SOL     OW21754   3.549   1.119   6.456 -0.1351 -0.4912  0.0701
 3373SOL    HW121755   3.552   1.137   6.550 -1.0249 -0.1270  0.0221
 3373SOL    HW221756   3.633   1.075   6.437 -1.1910 -1.6369 -2.0319
 3374SOL     OW21757   3.783   3.538   5.046 -0.2996  0.1481 -0.5746
 3374SOL    HW121758   3.788   3.611   4.984  3.9502 -0.0843 -0.5040
 3374SOL    HW221759   3.755   3.575   5.130 -0.2030 -1.6080  0.2363
 3375SOL     OW21760   4.232   3.283  14.394  0.4486 -0.4974 -0.3247
 3375SOL    HW121761   4.206   3.347  14.460 -1.2970  0.6859 -2.1441
 3375SOL    HW221762   4.172   3.213  14.421  1.3345 -1.0698  0.1358
 3376SOL     OW21763   2.665   2.836  15.936 -0.3401 -0.4242  0.1123
 3376SOL    HW121764   2.727   2.888  15.987 -1.9679 -1.0132  2.6978
 3376SOL    HW221765   2.612   2.796  16.005 -0.8159 -0.3339 -0.2002
 3377SOL     OW21766   0.884   0.342   8.254 -0.7615 -0.3139 -0.4999
 3377SOL    HW121767   0.825   0.271   8.228  0.8460 -2.4482  1.6960
 3377SOL    HW221768   0.949   0.344   8.183 -1.2067 -1.4309 -0.9327
 3378SOL     OW21769   0.512   1.437   8.318 -0.1443  0.0202  0.0156
 3378SOL    HW121770   0.452   1.503   8.352 -1.6976 -0.9780 -0.7849
 3378SOL    HW221771   0.592   1.482   8.344 -1.5058  2.7927 -0.6444
 3379SOL     OW21772   1.208   0.177  13.207 -0.1497 -0.3365  1.0398
 3379SOL    HW121773   1.200   0.235  13.283 -0.2371  0.0614  0.7240
 3379SOL    HW221774   1.213   0.090  13.248 -0.6372  0.2847  2.4258
 3380SOL     OW21775   2.327   3.906   2.954  0.0887  0.0037 -0.2165
 3380SOL    HW121776   2.343   3.858   2.872 -2.1218  1.1042 -1.2809
 3380SOL    HW221777   2.255   3.857   2.994 -0.3966  2.3821  1.7970
 3381SOL     OW21778   2.803   0.802  11.305 -0.0291 -0.3799 -0.1997
 3381SOL    HW121779   2.856   0.770  11.378  1.6473  0.8751 -0.8484
 3381SOL    HW221780   2.816   0.897  11.300  2.6732 -0.5783  2.6186
 3382SOL     OW21781   0.274   1.336   6.580  0.5833  0.1646 -0.2555
 3382SOL    HW121782   0.317   1.343   6.495  1.7850  2.1247  0.5335
 3382SOL    HW221783   0.258   1.428   6.601  0.2697  0.4740 -1.8389
 3383SOL     OW21784   1.494   4.666   1.838 -0.0263  0.1386 -0.1763
 3383SOL    HW121785   1.521   4.614   1.914 -0.4195  0.5723  0.2633
 3383SOL    HW221786   1.502   4.610   1.760 -0.6134 -0.1623 -0.0234
 3384SOL     OW21787   0.006   2.021   1.685 -0.3678 -0.2854 -0.2624
 3384SOL    HW121788   0.019   2.113   1.709 -2.2784  0.7065 -3.1060
 3384SOL    HW221789   0.061   1.974   1.748  1.3763  1.4549 -0.4798
 3385SOL     OW21790   0.775   1.474   2.288  0.4960  0.1294 -0.1186
 3385SOL    HW121791   0.842   1.413   2.257  1.3904  1.6808 -1.2575
 3385SOL    HW221792   0.818   1.557   2.268 -2.2628  1.7707  0.7386
 3386SOL     OW21793   1.004   2.115   6.256  0.1048  0.1355  0.2189
 3386SOL    HW121794   1.047   2.052   6.314 -0.1043 -0.1756  0.0336
 3386SOL    HW221795   0.928   2.143   6.307 -0.4080  0.6291 -0.8271
 3387SOL     OW21796   1.875   3.974   3.901  0.0519  0.7030  0.5014
 3387SOL    HW121797   1.784   3.946   3.915  0.4613  0.0203  1.7537
 3387SOL    HW221798   1.925   3.904   3.942  0.3247  1.2569  1.1050
 3388SOL     OW21799   0.896   4.483   6.425 -0.1113  0.1130 -0.7708
 3388SOL    HW121800   0.981   4.446   6.402 -0.5115 -1.1572 -0.1733
 3388SOL    HW221801   0.826   4.419   6.410  0.4375 -1.0915  1.9598
 3389SOL     OW21802   0.801   2.485   2.875  0.0814  0.1401  0.3951
 3389SOL    HW121803   0.732   2.426   2.844  0.3259  0.6995 -1.1876
 3389SOL    HW221804   0.789   2.484   2.970  1.2041 -2.1571  0.5240
 3390SOL     OW21805   2.171   3.859  11.450  0.5565  0.1270 -0.2165
 3390SOL    HW121806   2.204   3.871  11.539  1.3552  1.6466 -0.7170
 3390SOL    HW221807   2.093   3.809  11.476  1.3676 -0.8650  0.3122
 3391SOL     OW21808   1.939   2.509   5.535 -0.6517 -0.4443  0.1073
 3391SOL    HW121809   2.007   2.473   5.591  0.5075  0.3098 -0.8111
 3391SOL    HW221810   1.892   2.558   5.602 -0.2397  0.2424 -0.1023
 3392SOL     OW21811   4.294   0.040  13.002  0.2370  0.0273  0.0612
 3392SOL    HW121812   4.239   0.059  12.926 -0.6203  0.3882  0.7715
 3392SOL    HW221813   4.367   0.100  12.990 -2.2423  2.9581 -0.2259
 3393SOL     OW21814   4.600   3.687   3.048  0.0449 -0.1049 -0.0227
 3393SOL    HW121815   4.633   3.742   3.118 -0.0240  1.2871 -1.0660
 3393SOL    HW221816   4.509   3.681   3.077  0.6226 -1.7314  1.4609
 3394SOL     OW21817   1.636   4.125   9.193 -0.4050  0.6887 -0.0178
 3394SOL    HW121818   1.669   4.122   9.283 -1.6424  0.5440  0.4352
 3394SOL    HW221819   1.669   4.212   9.173  0.2997  0.7383  1.3573
 3395SOL     OW21820   3.860   2.322   5.637  0.2169 -0.3458 -0.1047
 3395SOL    HW121821   3.924   2.385   5.605  0.5808 -0.5915  0.1382
 3395SOL    HW221822   3.848   2.349   5.728  0.0432  2.3186 -0.9370
 3396SOL     OW21823   0.178   1.972   5.983 -0.3984  0.0918 -0.0753
 3396SOL    HW121824   0.193   2.060   5.949  2.2777 -1.1827 -2.2881
 3396SOL    HW221825   0.097   1.984   6.031  0.4247  1.5969  0.9333
 3397SOL     OW21826   3.889   1.147   9.872  0.3909  0.4324 -0.5672
 3397SOL    HW121827   3.974   1.172   9.836 -0.2468  3.3542 -0.0571
 3397SOL    HW221828   3.833   1.208   9.824 -0.3131 -0.1602 -0.4984
 3398SOL     OW21829   1.363   1.562   6.428  0.1775  0.5079 -0.1457
 3398SOL    HW121830   1.287   1.511   6.455  0.7830  0.1665  0.9376
 3398SOL    HW221831   1.368   1.526   6.340  1.8765 -0.8760  0.5200
 3399SOL     OW21832   1.846   2.203   9.849  0.0839  0.0303  0.6671
 3399SOL    HW121833   1.883   2.115   9.850  0.2577  0.1345  3.9869
 3399SOL    HW221834   1.808   2.210   9.937  1.9049  1.3603  1.3408
 3400SOL     OW21835   0.819   4.095   7.756  0.0554  0.2524  0.0530
 3400SOL    HW121836   0.781   4.180   7.734  0.0777  0.4329  0.7152
 3400SOL    HW221837   0.876   4.081   7.680  0.1744 -0.6523  0.3016
 3401SOL     OW21838   1.513   0.582   9.361  0.5919  0.1119 -0.4788
 3401SOL    HW121839   1.469   0.526   9.426  1.7653  0.0427  0.2514
 3401SOL    HW221840   1.547   0.654   9.415 -1.6802  1.7826 -1.2496
 3402SOL     OW21841   3.830   2.448  17.678  0.1541  0.0521 -0.0674
 3402SOL    HW121842   3.776   2.372  17.700 -0.1923 -0.2200 -1.8010
 3402SOL    HW221843   3.784   2.521  17.719 -1.2672 -0.6992 -0.3319
 3403SOL     OW21844   3.846   1.584   2.505  0.4072  0.6825  0.3919
 3403SOL    HW121845   3.846   1.638   2.426 -0.7624  0.3941  0.1971
 3403SOL    HW221846   3.875   1.647   2.571  1.9195 -0.2659  0.6605
 3404SOL     OW21847   0.030   4.404   9.582  0.4892  0.6593 -0.2971
 3404SOL    HW121848   0.032   4.352   9.502  0.6906 -0.8317  0.6845
 3404SOL    HW221849   4.733   4.344   9.648  0.8710  0.4868 -0.2592
 3405SOL     OW21850   4.055   1.069   2.898  0.1310 -0.0828  0.3519
 3405SOL    HW121851   4.013   0.983   2.891  0.5860 -0.0909 -2.4020
 3405SOL    HW221852   4.132   1.056   2.841 -1.0378 -0.5062 -1.1457
 3406SOL     OW21853   0.638   0.813   1.544  0.1878  0.0364 -0.2694
 3406SOL    HW121854   0.697   0.763   1.487  0.6565  1.5270 -1.0721
 3406SOL    HW221855   0.555   0.772   1.520  0.0187 -0.8688  1.8357
 3407SOL     OW21856   0.947   1.341  11.137 -0.0417 -0.1183 -0.7169
 3407SOL    HW121857   0.960   1.420  11.085 -0.9774 -0.2772 -1.1919
 3407SOL    HW221858   0.853   1.331  11.121 -0.0902 -0.7299 -0.0418
 3408SOL     OW21859   2.860   0.250  10.688 -0.1467 -0.2326 -0.2618
 3408SOL    HW121860   2.891   0.160  10.698  0.3891 -0.0881 -0.6129
 3408SOL    HW221861   2.890   0.264  10.598  0.0517 -3.2012 -0.6566
 3409SOL     OW21862   3.777   3.103   5.777  0.1662  1.2714 -0.3341
 3409SOL    HW121863   3.814   3.015   5.768 -1.4445  0.5522 -0.1328
 3409SOL    HW221864   3.713   3.101   5.849  2.8708  0.6264  2.0377
 3410SOL     OW21865   4.191   0.842   8.449 -0.4624  0.4759 -0.0835
 3410SOL    HW121866   4.274   0.845   8.400 -1.2197 -0.8129 -1.4456
 3410SOL    HW221867   4.145   0.768   8.410 -0.6952 -0.9108  2.8594
 3411SOL     OW21868   0.505   1.143   8.777  0.5321  0.4481 -0.1755
 3411SOL    HW121869   0.554   1.064   8.800  2.4565  1.6148 -0.2750
 3411SOL    HW221870   0.573   1.192   8.731  0.2302  1.0008 -0.0269
 3412SOL     OW21871   0.073   0.483   7.965  0.5754  0.7594 -0.0276
 3412SOL    HW121872   0.138   0.419   7.995  0.0248  0.4991  0.6016
 3412SOL    HW221873   0.001   0.426   7.938  0.7593 -0.3206  1.7677
 3413SOL     OW21874   2.176   2.968  12.519  0.0136  0.3470  0.0568
 3413SOL    HW121875   2.103   2.986  12.578 -0.6489 -0.0737 -0.6436
 3413SOL    HW221876   2.236   3.039  12.542 -0.8880  0.4325  2.0828
 3414SOL     OW21877   4.245   1.104   6.983 -0.9250 -0.3075  0.4233
 3414SOL    HW121878   4.213   1.164   7.050  0.6939 -1.0907  1.9046
 3414SOL    HW221879   4.295   1.041   7.035 -0.7231  0.4036  1.0803
 3415SOL     OW21880   1.472   2.641   6.205 -0.0009  0.3513  0.9788
 3415SOL    HW121881   1.517   2.725   6.215  3.0006 -1.1612  0.3249
 3415SOL    HW221882   1.537   2.579   6.240 -0.1790 -1.4523 -1.9394
 3416SOL     OW21883   1.981   1.272  15.595  0.8519 -0.2644  0.0080
 3416SOL    HW121884   2.040   1.223  15.537  0.9792 -0.3025  0.1697
 3416SOL    HW221885   1.941   1.205  15.651  0.2937 -1.4952 -1.8402
 3417SOL     OW21886   0.235   1.844   6.681  0.4549  0.2051 -0.4454
 3417SOL    HW121887   0.251   1.887   6.597 -1.7885  0.6889 -0.6322
 3417SOL    HW221888   0.212   1.921   6.733 -0.4992 -1.0588  0.9891
 3418SOL     OW21889   4.379   1.717   2.639 -0.1228  0.1689 -0.4301
 3418SOL    HW121890   4.352   1.640   2.590 -0.7352  0.4112 -0.4809
 3418SOL    HW221891   4.461   1.686   2.676 -1.3850 -0.7866  1.5163
 3419SOL     OW21892   1.672   1.055   8.269  0.0839  0.5729  0.1191
 3419SOL    HW121893   1.664   0.973   8.220  0.1696  0.5667  0.1146
 3419SOL    HW221894   1.614   1.042   8.344  0.2236 -0.2694  0.0845
 3420SOL     OW21895   0.747   1.971   4.844 -0.6334 -0.3144  0.2957
 3420SOL    HW121896   0.835   1.952   4.878  0.2244  0.3191 -1.5355
 3420SOL    HW221897   0.754   2.066   4.831  0.0613 -0.7454 -2.4546
 3421SOL     OW21898   2.286   3.713  11.256  0.1954  0.1085 -0.5220
 3421SOL    HW121899   2.225   3.639  11.265  0.9857 -0.7169 -1.8109
 3421SOL    HW221900   2.242   3.770  11.318  1.5206 -0.4116  0.9235
 3422SOL     OW21901   2.255   2.845   5.860  0.3554  0.1408  0.2077
 3422SOL    HW121902   2.282   2.836   5.769 -0.8259 -2.1205  0.0873
 3422SOL    HW221903   2.333   2.815   5.908 -0.9592 -0.8035  1.7518
 3423SOL     OW21904   1.409   2.772   8.896  0.5030  0.3996 -0.9941
 3423SOL    HW121905   1.370   2.788   8.981 -0.5402 -0.9576 -1.2081
 3423SOL    HW221906   1.335   2.729   8.853 -0.0404  0.0915  0.2635
 3424SOL     OW21907   4.533   1.527   0.365 -0.3432 -0.5024  0.6327
 3424SOL    HW121908   4.492   1.496   0.284  1.9761  0.3859 -0.8515
 3424SOL    HW221909   4.489   1.467   0.426 -1.4424  1.3009  1.6255
 3425SOL     OW21910   3.802   1.910   1.833 -0.0351  0.3158 -0.2058
 3425SOL    HW121911   3.732   1.856   1.796  0.3652  0.8783 -1.7948
 3425SOL    HW221912   3.787   1.996   1.795 -1.5644  0.1031 -0.0647
 3426SOL     OW21913   0.070   0.177  14.598 -0.1595  0.2752 -0.0295
 3426SOL    HW121914   0.042   0.119  14.527  1.5996  0.2499 -0.6948
 3426SOL    HW221915   0.063   0.262  14.555  1.9251 -0.0576 -0.9861
 3427SOL     OW21916   3.143   3.864   3.894 -0.7506 -0.1527  0.1323
 3427SOL    HW121917   3.065   3.897   3.939 -1.3385 -0.4734 -0.6477
 3427SOL    HW221918   3.138   3.904   3.807 -0.9530  1.0037  0.6806
 3428SOL     OW21919   2.396   4.247  14.968  0.2615  0.7295  0.0674
 3428SOL    HW121920   2.346   4.215  15.043 -1.1965 -3.1415 -2.5709
 3428SOL    HW221921   2.421   4.161  14.934 -0.7504  0.2517  0.5225
 3429SOL     OW21922   2.888   3.847   7.361  0.3256  0.5400 -0.3382
 3429SOL    HW121923   2.797   3.833   7.336 -0.7144  1.0437  3.2405
 3429SOL    HW221924   2.872   3.921   7.419 -1.2304 -0.5027  0.5278
 3430SOL     OW21925   2.412   3.469   0.803 -0.0123 -0.6741 -0.2452
 3430SOL    HW121926   2.430   3.379   0.778  1.5809 -0.8015  1.3773
 3430SOL    HW221927   2.355   3.453   0.877 -0.0226  0.7717  0.0688
 3431SOL     OW21928   2.569   2.600   0.874 -0.6726  0.3488  0.2963
 3431SOL    HW121929   2.603   2.523   0.918  0.0814 -1.3575 -3.2784
 3431SOL    HW221930   2.585   2.679   0.926 -2.5077  0.6945  0.3412
 3432SOL     OW21931   2.517   1.971   1.716  0.2281 -0.1027  0.3488
 3432SOL    HW121932   2.441   2.029   1.729  0.4466  0.3266 -0.2870
 3432SOL    HW221933   2.558   2.023   1.647  0.8783 -0.8976  0.1427
 3433SOL     OW21934   0.823   2.381   2.355 -0.0155 -0.1604 -0.3903
 3433SOL    HW121935   0.850   2.471   2.372 -1.6506  0.6953 -2.2265
 3433SOL    HW221936   0.732   2.383   2.325 -0.4044 -2.9402  0.6070
 3434SOL     OW21937   2.939   1.647  12.903  0.0574  0.2310 -0.3955
 3434SOL    HW121938   3.018   1.648  12.957  1.3610  1.5014 -2.3141
 3434SOL    HW221939   2.866   1.659  12.964  1.1779  4.4232  0.0988
 3435SOL     OW21940   2.451   0.756   2.101 -0.1922  0.3993  0.2507
 3435SOL    HW121941   2.481   0.830   2.154 -1.0271  0.7498  0.2397
 3435SOL    HW221942   2.416   0.790   2.018  1.2220  1.0306 -0.0957
 3436SOL     OW21943   3.296   0.973   2.273 -1.0149 -0.3082  0.3415
 3436SOL    HW121944   3.314   0.934   2.187 -2.7396  0.9418 -0.6013
 3436SOL    HW221945   3.371   0.943   2.323  0.9623  1.5129 -1.5575
 3437SOL     OW21946   0.080   3.310   7.235  0.6410  0.1639  0.7223
 3437SOL    HW121947   0.098   3.333   7.326  0.6469  1.3384  0.4204
 3437SOL    HW221948   0.123   3.224   7.234 -0.2087 -0.2427 -1.1470
 3438SOL     OW21949   2.468   2.803  15.331 -0.1618 -0.2536 -0.2290
 3438SOL    HW121950   2.395   2.855  15.364  2.1492  0.7901  3.2298
 3438SOL    HW221951   2.466   2.830  15.239 -2.0440  0.9508  0.1780
 3439SOL     OW21952   2.898   0.908   3.445 -0.6461 -0.2263  0.4668
 3439SOL    HW121953   2.897   0.999   3.415 -0.8501 -0.0691  0.9487
 3439SOL    HW221954   2.943   0.871   3.369  0.6412  1.0760  0.5890
 3440SOL     OW21955   1.496   0.769   3.222  0.2209  0.5359 -0.3615
 3440SOL    HW121956   1.562   0.709   3.188  1.4059  1.8948 -0.5019
 3440SOL    HW221957   1.420   0.723   3.187  0.6690 -1.1772  0.9580
 3441SOL     OW21958   0.041   3.167   2.009 -0.7224  0.1330 -0.3470
 3441SOL    HW121959   0.090   3.243   2.041  0.5287  0.0334 -2.0342
 3441SOL    HW221960   4.694   3.173   2.054  0.1023 -2.6481  1.5535
 3442SOL     OW21961   0.585   1.827   4.372  0.1608 -0.1977 -0.7589
 3442SOL    HW121962   0.513   1.766   4.356  0.4408 -1.2041  1.8024
 3442SOL    HW221963   0.585   1.825   4.468 -1.0442 -1.1498 -0.7786
 3443SOL     OW21964   4.544   1.770   8.409  0.5345 -0.3927  0.2124
 3443SOL    HW121965   4.523   1.677   8.402 -1.5941  0.2306 -1.4645
 3443SOL    HW221966   4.561   1.784   8.502  0.9603 -1.3970  0.2796
 3444SOL     OW21967   3.186   0.587   0.265 -0.2745  0.3056 -0.3709
 3444SOL    HW121968   3.148   0.583   0.177 -1.0842  0.6781 -0.0388
 3444SOL    HW221969   3.108   0.549   0.305  0.6956 -1.9872 -0.6426
 3445SOL     OW21970   4.721   4.049   7.980  0.2621 -0.2280 -0.0306
 3445SOL    HW121971   4.689   4.011   8.062  1.0492 -1.0177 -0.0925
 3445SOL    HW221972   0.062   4.100   8.003 -0.9435  1.5661  0.0540
 3446SOL     OW21973   0.759   3.371   7.806  0.1234 -0.0327  0.0383
 3446SOL    HW121974   0.708   3.290   7.793 -0.1889  0.1764 -0.0418
 3446SOL    HW221975   0.848   3.336   7.800  1.6212  3.6796  0.9243
 3447SOL     OW21976   2.097   4.255   7.343  0.2373 -0.4406 -0.2330
 3447SOL    HW121977   2.087   4.162   7.359  0.3865  0.1597  3.3795
 3447SOL    HW221978   2.172   4.253   7.283  0.3014 -3.2134 -0.0603
 3448SOL     OW21979   2.358   2.809   2.387  0.3363  0.4629 -0.1233
 3448SOL    HW121980   2.324   2.727   2.423  1.3680  0.2950  0.4675
 3448SOL    HW221981   2.295   2.824   2.316  0.0227  0.1207  0.0789
 3449SOL     OW21982   4.424   2.347   2.955 -0.6745 -0.1844 -0.0705
 3449SOL    HW121983   4.365   2.272   2.955 -0.5113 -0.2935  2.1606
 3449SOL    HW221984   4.441   2.345   3.049 -0.4516  2.0948 -0.0640
 3450SOL     OW21985   2.344   4.391  17.618  0.7414 -0.4525  0.7324
 3450SOL    HW121986   2.366   4.481  17.644  1.6342  0.1028 -1.9270
 3450SOL    HW221987   2.253   4.412  17.598  1.6064  1.6745 -0.9583
 3451SOL     OW21988   0.214   2.234   5.934  0.1066 -0.0003  0.1391
 3451SOL    HW121989   0.236   2.306   5.874 -2.3475  1.1284  0.6072
 3451SOL    HW221990   0.227   2.273   6.021  1.1740 -1.0427  0.4483
 3452SOL     OW21991   3.400   0.917  16.542  0.2112  0.0018  0.1915
 3452SOL    HW121992   3.341   0.875  16.604  2.4739 -2.0025  0.9282
 3452SOL    HW221993   3.477   0.865  16.565  0.2057 -0.6283 -1.1570
 3453SOL     OW21994   2.255   1.707   7.788 -0.2760  0.5250  0.6096
 3453SOL    HW121995   2.192   1.776   7.767  0.2703  0.8479  0.0237
 3453SOL    HW221996   2.209   1.663   7.860 -1.2472  0.0600 -0.2923
 3454SOL     OW21997   0.916   4.189  12.937  0.7023 -0.7380  0.1408
 3454SOL    HW121998   0.995   4.226  12.897  0.2447  0.2839  0.1825
 3454SOL    HW221999   0.948   4.101  12.959 -1.1972 -1.9415 -1.8635
 3455SOL     OW22000   1.389   3.195   3.197  0.4151 -0.6362  0.1874
 3455SOL    HW122001   1.385   3.100   3.207 -1.9031 -0.7145 -1.5711
 3455SOL    HW222002   1.323   3.221   3.262 -1.3790 -4.2196 -0.2456
 3456SOL     OW22003   1.760   1.607  15.249 -0.0261 -0.0609 -0.4378
 3456SOL    HW122004   1.844   1.610  15.295  1.1427 -0.5481 -2.4971
 3456SOL    HW222005   1.763   1.697  15.216  1.1656 -0.1443 -0.5639
 3457SOL     OW22006   1.456   1.079   6.850 -0.6027 -0.2327  0.7912
 3457SOL    HW122007   1.417   1.069   6.937  0.1505 -0.1991  1.1403
 3457SOL    HW222008   1.384   1.134   6.819 -1.4369 -2.1995 -0.7444
 3458SOL     OW22009   1.634   4.703  11.982  0.1768  0.5260  1.0730
 3458SOL    HW122010   1.686   0.036  11.943  0.0191  1.2646  2.1952
 3458SOL    HW222011   1.586   4.664  11.909  0.4318  1.8643  0.1970
 3459SOL     OW22012   2.940   3.844   2.599 -0.4289  0.7347 -0.5606
 3459SOL    HW122013   2.856   3.824   2.558 -0.2503  2.1642 -1.6250
 3459SOL    HW222014   2.912   3.876   2.685 -2.7156 -2.3487 -0.1519
 3460SOL     OW22015   2.030   0.091   5.103 -0.0553  0.1897 -0.4562
 3460SOL    HW122016   2.098   0.144   5.145 -0.6032 -0.2570  1.0215
 3460SOL    HW222017   2.048   0.002   5.133  0.9395  0.7594  0.6364
 3461SOL     OW22018   3.771   4.627   4.196 -0.2547  0.1671 -0.0197
 3461SOL    HW122019   3.844   4.680   4.230 -0.9905  0.3846  1.2384
 3461SOL    HW222020   3.735   4.676   4.122 -1.0680 -0.4358 -0.0271
 3462SOL     OW22021   0.889   2.072   9.039  0.2985 -0.0279  0.4981
 3462SOL    HW122022   0.813   2.030   9.079  0.5383 -0.8730  0.0779
 3462SOL    HW222023   0.927   1.995   8.997 -1.5138  0.0636 -1.3042
 3463SOL     OW22024   3.593   1.781  11.089 -0.3293  0.2031 -0.2941
 3463SOL    HW122025   3.534   1.847  11.123  0.9733  1.4403 -0.4290
 3463SOL    HW222026   3.674   1.831  11.086  0.2927 -0.7931 -0.3062
 3464SOL     OW22027   0.438   2.217   6.509  0.1585  0.0969  0.3942
 3464SOL    HW122028   0.457   2.302   6.470  0.8703 -0.5610 -0.6839
 3464SOL    HW222029   0.421   2.245   6.599 -1.2136  1.0914 -0.1786
 3465SOL     OW22030   2.888   2.028   1.803 -0.1727 -0.2205  0.1838
 3465SOL    HW122031   2.839   2.102   1.768  0.0850  0.1268  0.5675
 3465SOL    HW222032   2.977   2.061   1.816 -0.3961  0.7289 -0.7996
 3466SOL     OW22033   3.593   1.519   8.626 -0.0301 -0.1538 -0.1449
 3466SOL    HW122034   3.541   1.571   8.565  2.0757  2.4487  0.2423
 3466SOL    HW222035   3.560   1.430   8.625  1.1164 -0.5952  1.3033
 3467SOL     OW22036   4.207   1.617   0.447  0.1462  0.7693  0.2326
 3467SOL    HW122037   4.243   1.539   0.488  1.7680  1.1560 -0.4619
 3467SOL    HW222038   4.215   1.675   0.522  0.5148  1.6657 -0.4987
 3468SOL     OW22039   4.078   4.430  12.882 -0.5566 -0.7036 -0.1688
 3468SOL    HW122040   4.030   4.381  12.815 -0.1507 -1.0609 -0.1984
 3468SOL    HW222041   4.094   4.356  12.941  1.4856  0.0744  0.2461
 3469SOL     OW22042   3.658   3.245   1.882 -0.0688  0.4844 -0.2532
 3469SOL    HW122043   3.601   3.250   1.806  0.0819 -0.0605 -0.4014
 3469SOL    HW222044   3.747   3.255   1.847  0.1190  0.8946  0.3303
 3470SOL     OW22045   2.728   2.036   7.824  0.2259 -0.5418 -0.1779
 3470SOL    HW122046   2.715   1.941   7.827 -2.3426 -0.1149  2.2960
 3470SOL    HW222047   2.655   2.072   7.874 -0.9150 -0.7629 -1.7167
 3471SOL     OW22048   3.065   1.983  16.441 -0.5230  0.4020  0.2514
 3471SOL    HW122049   3.089   1.918  16.375 -0.3707 -1.4379  2.1376
 3471SOL    HW222050   3.142   1.996  16.496  0.6103 -0.7235 -1.0487
 3472SOL     OW22051   0.331   0.993   2.172  0.2522 -0.0840  0.1968
 3472SOL    HW122052   0.414   1.013   2.216 -0.7387 -1.0854  2.5007
 3472SOL    HW222053   0.273   0.997   2.247  2.0509  0.0336  1.5929
 3473SOL     OW22054   0.730   3.513   5.845  0.0124 -0.4761 -0.4505
 3473SOL    HW122055   0.796   3.570   5.808 -0.2578 -0.4846 -0.9402
 3473SOL    HW222056   0.782   3.459   5.905  0.7813  1.4269  0.5783
 3474SOL     OW22057   1.030   4.068   4.422 -0.0759  0.2895 -0.0792
 3474SOL    HW122058   0.961   4.004   4.438 -2.0155  1.8575 -2.1510
 3474SOL    HW222059   0.972   4.133   4.382  1.1706  0.5570 -1.4702
 3475SOL     OW22060   0.263   4.557   9.567 -0.3936 -0.1761  0.1186
 3475SOL    HW122061   0.199   4.487   9.572 -1.3595  0.6901 -0.0355
 3475SOL    HW222062   0.233   4.610   9.493 -0.0380  0.9958  0.8167
 3476SOL     OW22063   2.950   4.417   2.925 -0.1664 -0.7481  0.5900
 3476SOL    HW122064   2.990   4.356   2.987  0.0867 -1.2397 -0.0609
 3476SOL    HW222065   2.887   4.365   2.875  0.2365 -0.9159  0.2597
 3477SOL     OW22066   3.658   4.218   3.735  0.4522  0.1751 -0.4422
 3477SOL    HW122067   3.651   4.161   3.812  0.0594  0.2822 -0.3999
 3477SOL    HW222068   3.632   4.305   3.764 -1.3606 -0.1029 -1.2179
 3478SOL     OW22069   0.613   2.913   1.842 -0.4516 -0.5066 -0.2889
 3478SOL    HW122070   0.547   2.951   1.783 -0.5525 -0.0882  0.0916
 3478SOL    HW222071   0.613   2.982   1.909 -2.7608 -1.9141  1.1692
 3479SOL     OW22072   3.381   2.486   6.796 -0.0538 -0.7008  0.5788
 3479SOL    HW122073   3.381   2.429   6.874  0.1380 -1.9310 -0.3153
 3479SOL    HW222074   3.450   2.546   6.821  0.2111 -0.4638 -0.7418
 3480SOL     OW22075   0.466   4.175   9.103  0.6306 -0.2701 -0.5651
 3480SOL    HW122076   0.501   4.139   9.185  1.8588 -1.1102 -1.4590
 3480SOL    HW222077   0.404   4.241   9.133  1.5643 -0.7119  2.3252
 3481SOL     OW22078   1.540   1.340   7.984 -0.2896 -0.7202  0.0799
 3481SOL    HW122079   1.474   1.292   8.034  0.5495 -0.3078  1.5473
 3481SOL    HW222080   1.549   1.283   7.907 -0.7960  0.7915 -1.0940
 3482SOL     OW22081   2.201   2.968   7.807  0.0923  0.0808 -0.0314
 3482SOL    HW122082   2.137   2.928   7.866  0.2873 -2.4673 -1.5764
 3482SOL    HW222083   2.270   2.903   7.798  0.5052  0.7288 -1.5512
 3483SOL     OW22084   3.204   0.626  14.929  0.3758  0.1878  0.1778
 3483SOL    HW122085   3.294   0.656  14.946  0.8275 -1.0554  0.0133
 3483SOL    HW222086   3.204   0.651  14.837 -2.1243 -0.8434 -0.1037
 3484SOL     OW22087   2.323   0.854   3.141 -0.0089  0.4295  0.8583
 3484SOL    HW122088   2.327   0.765   3.177 -0.9121 -0.8514 -2.2162
 3484SOL    HW222089   2.317   0.828   3.049 -0.5077  0.0902  0.9855
 3485SOL     OW22090   0.437   0.907   6.226 -0.3724  0.3736  0.7842
 3485SOL    HW122091   0.370   0.918   6.295 -3.2025  0.6947 -2.0271
 3485SOL    HW222092   0.448   0.998   6.201 -2.2668 -0.0191 -1.5225
 3486SOL     OW22093   0.967   0.847   2.893  0.4530  0.4384  0.0041
 3486SOL    HW122094   1.036   0.906   2.864  0.1834  0.8706  0.2360
 3486SOL    HW222095   1.004   0.759   2.901  0.2437  0.2759 -0.8157
 3487SOL     OW22096   0.419   2.559  12.058  0.0570  0.1016  0.1279
 3487SOL    HW122097   0.430   2.644  12.100 -1.1339  1.1375 -1.6490
 3487SOL    HW222098   0.347   2.583  12.000 -0.0945  1.9332  1.0822
 3488SOL     OW22099   4.668   3.663   3.506 -0.4302  0.1258  0.0253
 3488SOL    HW122100   4.636   3.617   3.583 -0.7183  0.0269 -0.1534
 3488SOL    HW222101   4.690   3.591   3.448  0.2522 -1.5668  2.3919
 3489SOL     OW22102   3.830   0.457   4.127  0.1775 -0.2995 -0.3779
 3489SOL    HW122103   3.797   0.546   4.115  1.9585  0.2241 -1.4182
 3489SOL    HW222104   3.842   0.460   4.222  2.6129  0.9705 -0.7242
 3490SOL     OW22105   0.691   4.170  15.535  0.5664 -0.0289 -0.7405
 3490SOL    HW122106   0.608   4.122  15.530  0.4069  0.1604  0.0221
 3490SOL    HW222107   0.727   4.150  15.448 -1.3380 -2.1606 -1.0408
 3491SOL     OW22108   4.449   2.182   4.038 -0.2405  0.4394 -0.1862
 3491SOL    HW122109   4.455   2.190   4.133  0.1170  1.9309 -0.3402
 3491SOL    HW222110   4.540   2.163   4.013 -0.6730 -2.0333  0.1272
 3492SOL     OW22111   0.986   4.283   7.592  0.5730  0.2323  0.0704
 3492SOL    HW122112   1.063   4.261   7.539 -0.0548 -2.1013  0.1177
 3492SOL    HW222113   0.919   4.281   7.524 -0.0541 -1.4139  0.7318
 3493SOL     OW22114   4.676   1.902  15.720  0.2326  0.6521 -0.7153
 3493SOL    HW122115   0.034   1.905  15.717  0.2539 -1.2882 -2.2735
 3493SOL    HW222116   4.661   1.892  15.626 -0.1386  1.4591 -0.7398
 3494SOL     OW22117   4.082   4.329   4.283  0.1924 -0.0892 -0.3873
 3494SOL    HW122118   4.090   4.271   4.207  1.3315  0.2307 -0.5127
 3494SOL    HW222119   4.001   4.290   4.318 -0.6095 -0.7063 -2.9026
 3495SOL     OW22120   0.795   2.197   2.069 -0.1869  0.5011 -0.4168
 3495SOL    HW122121   0.855   2.268   2.048 -0.5241  1.0706  0.5308
 3495SOL    HW222122   0.789   2.209   2.164 -1.2105  0.8945 -0.5438
 3496SOL     OW22123   2.200   0.454   6.776 -0.4870  0.8224  0.7196
 3496SOL    HW122124   2.195   0.462   6.681 -1.4475  4.6557  1.0639
 3496SOL    HW222125   2.155   0.373   6.800  0.7264 -0.4328 -1.2532
 3497SOL     OW22126   3.237   0.415  11.237  0.6284  0.1888 -0.1169
 3497SOL    HW122127   3.188   0.497  11.229  0.0567 -0.2957 -1.6803
 3497SOL    HW222128   3.252   0.407  11.142 -0.7782 -1.2333 -0.2295
 3498SOL     OW22129   1.011   0.579   0.147 -0.1153  0.0356 -0.2317
 3498SOL    HW122130   1.098   0.600   0.180  0.5958 -1.5567 -1.1194
 3498SOL    HW222131   0.968   0.665   0.153  0.1070  0.1551 -0.3831
 3499SOL     OW22132   4.217   3.215  12.703  0.0064  0.3955  0.5445
 3499SOL    HW122133   4.173   3.130  12.703 -3.3100  2.0714 -0.4676
 3499SOL    HW222134   4.152   3.258  12.760  0.5074  0.1253  1.3226
 3500SOL     OW22135   0.543   4.543   5.942  0.3368  0.3068  0.0912
 3500SOL    HW122136   0.516   4.537   5.850 -0.6141 -0.5104  0.4190
 3500SOL    HW222137   0.464   4.510   5.985  0.7767 -1.2986 -0.3091
 3501SOL     OW22138   1.335   3.609  12.985  0.1008 -0.0871  0.2763
 3501SOL    HW122139   1.390   3.608  13.064  0.4948  0.1752  0.0039
 3501SOL    HW222140   1.258   3.655  13.018  0.2757  0.3775  0.0350
 3502SOL     OW22141   3.720   1.687   6.002 -0.5065  0.5249 -0.0271
 3502SOL    HW122142   3.780   1.643   6.063 -2.1807 -1.5495  0.1346
 3502SOL    HW222143   3.654   1.618   6.009 -0.5698  0.6182  0.2778
 3503SOL     OW22144   1.381   3.285   5.037 -0.0810  0.1928 -0.6846
 3503SOL    HW122145   1.472   3.275   5.067 -0.7854  0.3716  1.4958
 3503SOL    HW222146   1.342   3.361   5.079  4.2184  2.0999 -0.0803
 3504SOL     OW22147   0.333   2.304   9.652 -0.4676  0.5137 -0.0063
 3504SOL    HW122148   0.332   2.295   9.747  0.5167  1.6444  0.1027
 3504SOL    HW222149   0.291   2.224   9.619 -0.4596  0.7659 -0.6332
 3505SOL     OW22150   1.939   3.276  15.079 -0.3188 -0.0480  0.1540
 3505SOL    HW122151   1.859   3.227  15.058 -1.6620  2.2581 -0.1929
 3505SOL    HW222152   1.925   3.344  15.013  1.5051  1.4923  1.3466
 3506SOL     OW22153   3.043   0.579   7.494 -0.5380 -0.4363  0.2940
 3506SOL    HW122154   2.981   0.511   7.470  1.1803 -0.9958 -2.5366
 3506SOL    HW222155   2.994   0.619   7.566  0.9992  0.9637  0.5567
 3507SOL     OW22156   3.415   3.007   5.250 -0.0984  0.1903  0.0851
 3507SOL    HW122157   3.425   3.061   5.172  0.9245 -0.0207  0.0697
 3507SOL    HW222158   3.455   2.925   5.221 -3.3132 -1.2292 -0.3727
 3508SOL     OW22159   0.324   3.682   0.598 -0.1566 -0.3119 -0.4113
 3508SOL    HW122160   0.270   3.744   0.647 -2.2057 -1.0590 -1.6979
 3508SOL    HW222161   0.260   3.662   0.529  2.6383 -2.3570 -2.3860
 3509SOL     OW22162   2.289   3.755  15.465 -0.2807 -0.1552  0.1337
 3509SOL    HW122163   2.384   3.761  15.455 -0.1476 -0.6935  1.0727
 3509SOL    HW222164   2.260   3.790  15.381 -1.6065 -1.6685 -0.0348
 3510SOL     OW22165   4.069   0.790  10.278 -0.0069 -0.2786  0.4738
 3510SOL    HW122166   4.101   0.873  10.312 -3.6770  1.1497  0.3993
 3510SOL    HW222167   4.015   0.820  10.205  0.8815  2.2586  0.8738
 3511SOL     OW22168   0.759   0.019   8.884 -0.0039 -0.1534 -0.0404
 3511SOL    HW122169   0.771   4.715   8.970 -1.4322 -2.3973 -0.9308
 3511SOL    HW222170   0.717   4.687   8.834 -0.4488  0.7563 -0.9245
 3512SOL     OW22171   0.140   3.746   9.996 -0.2494 -0.0319  0.2735
 3512SOL    HW122172   0.144   3.836   9.963 -0.8335  0.0665  0.4610
 3512SOL    HW222173   0.183   3.749  10.081 -3.2885  0.8821  1.7925
 3513SOL     OW22174   2.051   0.317  11.028 -0.4787 -0.3520  0.0414
 3513SOL    HW122175   2.130   0.275  11.061  1.0031  3.2784  1.0802
 3513SOL    HW222176   1.982   0.263  11.066  0.7717 -1.4407  0.7816
 3514SOL     OW22177   1.658   1.422   9.075  0.0478 -0.1533  0.4478
 3514SOL    HW122178   1.639   1.460   9.161 -1.6156  1.3494 -0.5950
 3514SOL    HW222179   1.749   1.450   9.070  0.0334 -0.3636 -0.9191
 3515SOL     OW22180   0.422   0.673   1.378  0.0441 -0.2105  0.4436
 3515SOL    HW122181   0.364   0.598   1.363  0.0285 -0.0854 -0.0912
 3515SOL    HW222182   0.380   0.721   1.449  2.7936 -1.3744  2.8779
 3516SOL     OW22183   2.729   0.025  15.366  0.1205 -0.5462 -0.0599
 3516SOL    HW122184   2.733   4.677  15.323 -1.6946  0.0170 -1.3742
 3516SOL    HW222185   2.766   0.085  15.301 -1.1345 -0.2047 -0.4606
 3517SOL     OW22186   2.649   2.478   8.849  0.4306 -0.5289 -0.6685
 3517SOL    HW122187   2.585   2.410   8.828 -0.7243 -0.2437  1.8579
 3517SOL    HW222188   2.690   2.433   8.923  1.8325 -0.2333 -1.2676
 3518SOL     OW22189   1.059   0.381   4.472  0.3965 -0.2673 -0.3301
 3518SOL    HW122190   1.099   0.444   4.533 -3.2038 -1.6439  3.4317
 3518SOL    HW222191   1.102   0.297   4.485  0.3683 -0.2742 -0.2804
 3519SOL     OW22192   0.728   2.114  12.612  0.3921 -0.3448  0.0962
 3519SOL    HW122193   0.639   2.123  12.646  0.5784  2.0954 -0.0306
 3519SOL    HW222194   0.746   2.020  12.612  0.4186 -0.3384  2.3375
 3520SOL     OW22195   1.735   3.821   8.400  0.5673 -0.0245 -0.1677
 3520SOL    HW122196   1.656   3.775   8.372  0.0458  0.9546 -0.2811
 3520SOL    HW222197   1.791   3.743   8.407  2.6080  1.5859  1.4780
 3521SOL     OW22198   1.114   2.176  14.239  0.1819 -0.1967  0.0019
 3521SOL    HW122199   1.069   2.190  14.322 -0.1402 -0.0730 -0.1917
 3521SOL    HW222200   1.195   2.135  14.268  0.1613  0.9593  1.6630
 3522SOL     OW22201   2.037   2.424   6.905  0.4454  0.3199  0.0696
 3522SOL    HW122202   2.103   2.370   6.861 -0.5072 -1.4042  0.7680
 3522SOL    HW222203   2.091   2.503   6.907  0.9219 -0.0503  1.5591
 3523SOL     OW22204   1.849   2.382   6.496 -0.1630  0.2068 -0.2490
 3523SOL    HW122205   1.936   2.418   6.513 -0.3322 -0.4022  1.8463
 3523SOL    HW222206   1.868   2.289   6.492 -0.0693  0.1916  0.5249
 3524SOL     OW22207   1.574   1.238   6.599  0.5964  0.4145 -0.2344
 3524SOL    HW122208   1.558   1.192   6.681 -2.9505  1.0746 -0.5810
 3524SOL    HW222209   1.487   1.237   6.559  0.1627  0.0204  0.7290
 3525SOL     OW22210   1.159   4.379   6.494  0.0277 -0.3561  0.9495
 3525SOL    HW122211   1.151   4.348   6.584  1.0112 -0.2444  1.0703
 3525SOL    HW222212   1.227   4.447   6.498 -0.6880  0.6501 -4.0036
 3526SOL     OW22213   3.545   2.178   7.707 -0.1649  0.1445  0.1238
 3526SOL    HW122214   3.537   2.152   7.799  1.9002  0.0013  0.2573
 3526SOL    HW222215   3.500   2.102   7.670  0.4202 -1.0727  1.8941
 3527SOL     OW22216   0.328   0.774   1.596  0.1261  0.6324 -1.3881
 3527SOL    HW122217   0.300   0.697   1.645 -0.0767  0.1408 -2.2884
 3527SOL    HW222218   0.330   0.843   1.662  3.2252  0.0207 -0.8144
 3528SOL     OW22219   2.408   4.464   7.251 -0.4123 -0.7951  0.3304
 3528SOL    HW122220   2.499   4.450   7.225 -0.2181 -0.8733  1.0737
 3528SOL    HW222221   2.355   4.405   7.198 -2.2090  2.9752 -2.0826
 3529SOL     OW22222   2.367   2.069   5.184 -0.0775 -0.0169 -0.3964
 3529SOL    HW122223   2.337   1.980   5.171  0.0484 -0.0343 -0.5582
 3529SOL    HW222224   2.319   2.102   5.261 -1.8352 -0.2003 -1.4031
 3530SOL     OW22225   0.033   2.336   2.403  0.0647  0.1337  0.1687
 3530SOL    HW122226   4.693   2.349   2.348 -0.1499  3.8093  1.3246
 3530SOL    HW222227   0.031   2.423   2.443 -1.1582  0.3914 -0.4689
 3531SOL     OW22228   1.566   1.335   3.412 -0.4264  0.0519 -0.3161
 3531SOL    HW122229   1.493   1.283   3.377  0.4674 -1.1658 -0.3587
 3531SOL    HW222230   1.618   1.344   3.332  0.5416  2.5263  0.5807
 3532SOL     OW22231   2.237   0.694   4.871  0.0736  0.4963  0.3058
 3532SOL    HW122232   2.241   0.614   4.924 -1.4502  0.6689  0.6843
 3532SOL    HW222233   2.145   0.714   4.889  0.7629  1.5286  2.7528
 3533SOL     OW22234   3.186   3.496   1.995  0.0586  0.2629 -0.0041
 3533SOL    HW122235   3.251   3.433   2.029  0.0901  0.6584  0.6829
 3533SOL    HW222236   3.156   3.544   2.072 -0.3541  2.4340 -1.5535
 3534SOL     OW22237   3.194   4.298   1.022 -0.0029  0.4494  0.2418
 3534SOL    HW122238   3.169   4.385   0.991 -0.9134 -0.0811 -0.4999
 3534SOL    HW222239   3.238   4.260   0.946 -2.6080  1.5163 -1.8113
 3535SOL     OW22240   1.490   2.856   6.464 -0.3555 -0.1358 -0.1098
 3535SOL    HW122241   1.431   2.797   6.417 -0.5053  2.4134 -3.0787
 3535SOL    HW222242   1.567   2.855   6.407 -0.2241  0.5335  0.0647
 3536SOL     OW22243   3.869   0.424   2.992  0.1043  0.7132  0.5184
 3536SOL    HW122244   3.953   0.380   2.984 -0.3613 -0.2378  0.8152
 3536SOL    HW222245   3.859   0.462   3.079 -2.2759  2.4083 -0.4748
 3537SOL     OW22246   2.477   1.816   0.075  0.1712  0.4019 -0.4147
 3537SOL    HW122247   2.556   1.763   0.062 -0.0321  0.3986 -1.5867
 3537SOL    HW222248   2.462   1.806   0.169 -1.7935  1.4297 -0.6190
 3538SOL     OW22249   2.277   1.177   8.436 -0.1322 -0.4693  0.1764
 3538SOL    HW122250   2.355   1.129   8.407 -0.1983 -0.3771 -0.1540
 3538SOL    HW222251   2.220   1.151   8.364 -0.3810  1.6551 -0.3848
 3539SOL     OW22252   3.910   4.389   2.632  0.5685  0.4203 -0.2090
 3539SOL    HW122253   3.948   4.464   2.677 -1.8067  2.2392 -1.2484
 3539SOL    HW222254   3.827   4.396   2.679  0.2947  0.9392 -0.7742
 3540SOL     OW22255   2.615   4.515   4.757 -0.0817 -0.2901  0.1206
 3540SOL    HW122256   2.596   4.571   4.832  2.1020  1.1010 -0.3525
 3540SOL    HW222257   2.532   4.469   4.747 -1.0137  1.0621  1.7813
 3541SOL     OW22258   2.908   0.942   6.663 -1.1235 -0.6047 -0.2928
 3541SOL    HW122259   2.905   0.858   6.709 -0.1143 -1.6701 -2.1694
 3541SOL    HW222260   2.942   1.000   6.732 -1.1488  0.0718 -0.8506
 3542SOL     OW22261   2.147   3.882   1.807 -0.1215  0.4940 -0.2786
 3542SOL    HW122262   2.196   3.863   1.726  0.9278  2.0434  0.0024
 3542SOL    HW222263   2.108   3.797   1.828 -0.0327  0.6169  0.3723
 3543SOL     OW22264   1.087   3.003   1.764 -0.2849  0.1072  0.2416
 3543SOL    HW122265   1.089   3.083   1.712  2.1594 -0.3291 -0.3495
 3543SOL    HW222266   1.174   2.994   1.801 -0.4693 -0.8984  0.4350
 3544SOL     OW22267   3.781   0.974   4.062 -0.5955  0.2021 -0.0370
 3544SOL    HW122268   3.786   0.999   3.970 -0.5817  3.1138  0.7647
 3544SOL    HW222269   3.711   1.031   4.094  0.4463  2.1129 -1.1785
 3545SOL     OW22270   1.862   1.140   7.152  0.1224 -0.1283 -0.6798
 3545SOL    HW122271   1.805   1.191   7.096  0.8554  4.2680  2.5644
 3545SOL    HW222272   1.802   1.128   7.226 -1.6232  2.5617 -1.6862
 3546SOL     OW22273   0.263   1.014  11.618  0.1226  0.2732  0.0652
 3546SOL    HW122274   0.315   1.030  11.697 -1.7476  0.6504  1.2122
 3546SOL    HW222275   0.322   0.953  11.573  1.2721  1.3922  0.0594
 3547SOL     OW22276   4.253   2.874   8.523  0.9727 -0.0314 -0.2714
 3547SOL    HW122277   4.312   2.944   8.552 -0.0451 -0.3306  2.4822
 3547SOL    HW222278   4.234   2.827   8.604 -1.0744  2.8565  0.9493
 3548SOL     OW22279   1.842   0.682   5.790  0.5399  0.5377 -0.2708
 3548SOL    HW122280   1.925   0.729   5.800 -0.5891  2.0620  1.9290
 3548SOL    HW222281   1.780   0.738   5.743 -0.0344  2.8147  3.2270
 3549SOL     OW22282   3.651   3.630  15.618  0.4253  0.2436  0.2673
 3549SOL    HW122283   3.559   3.650  15.631  0.9544  2.8689 -0.1119
 3549SOL    HW222284   3.679   3.704  15.564 -2.0261 -0.1649 -1.5520
 3550SOL     OW22285   0.449   1.472   2.898 -0.0147  0.4799  0.2226
 3550SOL    HW122286   0.425   1.385   2.929  2.6008 -0.3650 -0.0965
 3550SOL    HW222287   0.391   1.529   2.948  0.5310  0.2277  1.1523
 3551SOL     OW22288   0.846   4.017   6.722  0.2925  0.3996 -0.2687
 3551SOL    HW122289   0.795   4.018   6.641  0.9149 -1.0856 -0.6774
 3551SOL    HW222290   0.780   4.024   6.790  0.6898 -1.6079  0.3110
 3552SOL     OW22291   2.874   3.369   7.656 -0.1273  0.8417 -0.2656
 3552SOL    HW122292   2.832   3.329   7.580 -1.7002 -2.2414  2.2342
 3552SOL    HW222293   2.887   3.458   7.623 -1.9421  0.2147 -2.6520
 3553SOL     OW22294   1.789   0.238   9.371  0.4787 -0.0608  0.2009
 3553SOL    HW122295   1.818   0.314   9.319 -0.9646  0.9595  0.8877
 3553SOL    HW222296   1.868   0.186   9.353  1.9290  1.5236  1.9424
 3554SOL     OW22297   0.992   2.563   8.448  0.5951 -0.0341 -0.0448
 3554SOL    HW122298   0.960   2.590   8.362  0.7956 -2.4823 -0.8798
 3554SOL    HW222299   0.920   2.592   8.505  2.5296  0.5878  2.0820
 3555SOL     OW22300   2.756   3.243   1.355  0.1312 -0.2123 -0.4172
 3555SOL    HW122301   2.792   3.325   1.389 -2.7669  0.0350  2.0365
 3555SOL    HW222302   2.674   3.274   1.318  1.5715  1.8119 -1.9279
 3556SOL     OW22303   1.366   2.597   7.728 -0.2086 -0.5726 -0.2291
 3556SOL    HW122304   1.292   2.581   7.785  0.9986 -0.9271  1.2237
 3556SOL    HW222305   1.435   2.558   7.781 -0.6722 -2.1188 -0.7760
 3557SOL     OW22306   0.017   2.602  12.519  0.0797 -0.8052  0.3773
 3557SOL    HW122307   0.012   2.645  12.605  1.5468  0.7690 -0.3338
 3557SOL    HW222308   4.679   2.543  12.508 -1.1009  0.4710  1.5852
 3558SOL     OW22309   2.586   4.735   6.336 -0.3100 -0.7449 -0.3524
 3558SOL    HW122310   2.557   4.726   6.427 -0.2952  2.0641 -0.0661
 3558SOL    HW222311   2.625   0.086   6.328 -1.7401 -0.1982 -1.2912
 3559SOL     OW22312   4.061   0.093  11.827  0.1076 -0.0987  0.0235
 3559SOL    HW122313   4.005   0.026  11.790  0.7393 -0.9136  0.5346
 3559SOL    HW222314   4.039   0.069  11.917  0.8607  0.8737  0.4694
 3560SOL     OW22315   3.097   1.815   2.740 -0.0570 -0.5130  0.8117
 3560SOL    HW122316   3.033   1.747   2.761 -0.7298  0.2111  1.1247
 3560SOL    HW222317   3.170   1.756   2.760  0.1654 -0.1296  1.1259
 3561SOL     OW22318   2.729   1.864   3.679 -0.0347  0.4948 -0.0973
 3561SOL    HW122319   2.736   1.917   3.600  2.0256 -1.2520 -1.1051
 3561SOL    HW222320   2.796   1.799   3.657  0.0952  1.1015 -1.5044
 3562SOL     OW22321   2.627   1.835   9.507 -0.5034  0.8806  0.2006
 3562SOL    HW122322   2.539   1.860   9.478 -1.2095  1.1329  2.5731
 3562SOL    HW222323   2.600   1.812   9.595  1.8457  0.9873  0.9384
 3563SOL     OW22324   1.059   4.298  10.641 -0.2996  0.0806  0.2947
 3563SOL    HW122325   0.974   4.255  10.655  0.3011 -1.4334 -0.7167
 3563SOL    HW222326   1.031   4.378  10.685 -1.6819 -0.5456  0.5409
 3564SOL     OW22327   2.499   3.322   1.319 -0.1547  0.1400 -0.1513
 3564SOL    HW122328   2.524   3.409   1.288  0.0201 -0.2046 -0.9943
 3564SOL    HW222329   2.496   3.328   1.414 -1.9890  0.6105 -0.2480
 3565SOL     OW22330   1.640   1.977   9.689  0.3346  0.1627 -0.3917
 3565SOL    HW122331   1.689   2.019   9.619  0.0326 -0.2074 -0.8286
 3565SOL    HW222332   1.593   2.051   9.729 -0.7778 -0.3508 -0.7430
 3566SOL     OW22333   1.564   2.763  14.073  0.0884  0.7456 -0.4247
 3566SOL    HW122334   1.493   2.810  14.116  1.7879  2.1331  0.9019
 3566SOL    HW222335   1.604   2.835  14.022 -0.7468  1.7616  0.3578
 3567SOL     OW22336   2.827   0.116   2.661 -0.6477 -0.2894  0.5744
 3567SOL    HW122337   2.741   0.155   2.675 -0.7838 -0.1994 -0.5675
 3567SOL    HW222338   2.805   0.029   2.695  0.0008 -0.5746  0.2706
 3568SOL     OW22339   1.078   2.455   7.447  0.0620 -0.0879 -0.0342
 3568SOL    HW122340   1.163   2.485   7.417 -0.3454 -0.3036 -1.4158
 3568SOL    HW222341   1.091   2.369   7.485 -2.0883 -0.8860 -1.1185
 3569SOL     OW22342   4.689   1.993   9.244  0.1402  0.5044 -0.2598
 3569SOL    HW122343   4.719   2.003   9.154 -0.6726  0.0810 -0.5774
 3569SOL    HW222344   4.601   1.956   9.235 -0.3677  1.2856  1.3661
 3570SOL     OW22345   3.258   2.777   5.315 -0.1193  0.0984 -0.1778
 3570SOL    HW122346   3.322   2.720   5.356  0.7130  0.7895 -0.5207
 3570SOL    HW222347   3.302   2.860   5.332 -0.5307 -0.0131  1.4491
 3571SOL     OW22348   0.033   2.100   9.711 -0.6649 -0.0413  0.2304
 3571SOL    HW122349   0.117   2.087   9.667  0.6275 -0.4283  2.8282
 3571SOL    HW222350   0.064   2.159   9.780  1.3201 -0.8737  0.0504
 3572SOL     OW22351   0.329   4.504   4.117  0.0556  0.2855 -0.4145
 3572SOL    HW122352   0.264   4.442   4.151  0.2550  0.2474 -0.1034
 3572SOL    HW222353   0.296   4.517   4.028  2.0784 -0.5103 -1.2758
 3573SOL     OW22354   3.948   2.512   6.735  0.0723  0.1971  0.1977
 3573SOL    HW122355   4.010   2.577   6.703  1.8416 -0.1383  2.9713
 3573SOL    HW222356   3.877   2.511   6.670  1.3703  0.1847 -1.2174
 3574SOL     OW22357   4.016   4.623   2.778 -0.2772  0.1338 -0.1930
 3574SOL    HW122358   3.948   4.589   2.836 -0.2751  1.3356  0.5154
 3574SOL    HW222359   4.014   4.699   2.836 -0.3544 -1.2308  1.5856
 3575SOL     OW22360   2.324   2.944   1.309  0.2461  0.0857  0.2438
 3575SOL    HW122361   2.248   2.890   1.287  1.3696 -1.2614 -0.2956
 3575SOL    HW222362   2.301   3.031   1.276 -0.5784 -0.9230 -1.8200
 3576SOL     OW22363   3.553   3.005   7.332  0.2372 -0.6075  0.0724
 3576SOL    HW122364   3.496   2.939   7.293 -2.6306  0.6870  2.1072
 3576SOL    HW222365   3.513   3.086   7.300  1.9203  0.4333  0.5826
 3577SOL     OW22366   3.729   2.469  15.345  0.0008 -1.1062 -0.0477
 3577SOL    HW122367   3.780   2.467  15.426  1.0758  0.4833 -0.6797
 3577SOL    HW222368   3.639   2.452  15.374 -0.1765  0.8465  0.5391
 3578SOL     OW22369   3.894   3.310   9.510  0.4364  0.0841  0.5111
 3578SOL    HW122370   3.973   3.264   9.482 -0.7385 -3.1605  2.5027
 3578SOL    HW222371   3.869   3.239   9.569  0.4395 -0.1795  0.1918
 3579SOL     OW22372   4.640   1.839   7.157 -0.4003 -0.9180 -0.1551
 3579SOL    HW122373   4.730   1.826   7.127 -1.0128  1.3766 -2.9358
 3579SOL    HW222374   4.597   1.758   7.131  1.9469 -1.1206 -3.4202
 3580SOL     OW22375   3.519   4.189   2.505 -0.1113 -0.0779  0.5744
 3580SOL    HW122376   3.576   4.259   2.475 -0.7845 -0.2693 -1.1528
 3580SOL    HW222377   3.564   4.113   2.469 -2.2497 -1.3153  0.4785
 3581SOL     OW22378   2.702   3.605   4.838  0.2112 -0.3075 -0.0203
 3581SOL    HW122379   2.734   3.633   4.924  0.1539  0.6062 -0.2913
 3581SOL    HW222380   2.679   3.515   4.859 -0.3342  0.0120  0.7746
 3582SOL     OW22381   3.925   0.147   4.110 -0.2061 -0.1885  0.3423
 3582SOL    HW122382   3.914   0.218   4.046 -3.8361  0.2958  1.5054
 3582SOL    HW222383   3.948   0.076   4.050 -3.7452 -0.5666 -0.5302
 3583SOL     OW22384   2.829   2.994   3.861 -0.0997  0.1647 -0.1403
 3583SOL    HW122385   2.826   2.901   3.841  2.6946  0.2285 -0.8991
 3583SOL    HW222386   2.903   2.998   3.922 -0.6033 -1.1760  0.5539
 3584SOL     OW22387   4.666   0.181   8.723 -0.3194 -0.3965 -0.2820
 3584SOL    HW122388   4.589   0.141   8.764 -0.5795  3.2115  2.7471
 3584SOL    HW222389   4.642   0.271   8.702 -3.4084 -1.2713 -0.5756
 3585SOL     OW22390   0.166   3.189   8.618 -0.1060 -0.0630  0.1588
 3585SOL    HW122391   0.139   3.235   8.539  0.3757 -2.1066 -1.1792
 3585SOL    HW222392   0.081   3.154   8.644 -1.1373  2.6365  0.4079
 3586SOL     OW22393   3.291   4.327   7.421  0.1410  0.1871 -0.0474
 3586SOL    HW122394   3.370   4.359   7.377 -0.4353  0.8164 -0.6330
 3586SOL    HW222395   3.324   4.329   7.511  0.6519  0.6383 -0.2409
 3587SOL     OW22396   2.266   1.251   7.851 -0.1404  0.2520 -0.1873
 3587SOL    HW122397   2.226   1.288   7.929  0.4450  0.0883  0.1879
 3587SOL    HW222398   2.342   1.206   7.888  0.1781  0.3151 -0.7530
 3588SOL     OW22399   0.689   3.576   2.794 -0.1280 -0.1421 -0.2731
 3588SOL    HW122400   0.764   3.571   2.735  0.0360 -1.1916  0.0196
 3588SOL    HW222401   0.621   3.604   2.733  0.1614 -0.7046 -0.8543
 3589SOL     OW22402   2.944   0.146  16.003  1.0439 -0.0753 -0.2474
 3589SOL    HW122403   3.003   0.187  16.067 -0.2706 -0.1063  0.9715
 3589SOL    HW222404   2.999   0.070  15.982  1.7447  1.0775 -2.6003
 3590SOL     OW22405   3.843   0.125   3.354 -0.1965 -0.4312 -0.1300
 3590SOL    HW122406   3.805   0.177   3.425 -1.1870 -0.9164 -0.3081
 3590SOL    HW222407   3.902   0.066   3.401  2.1571  1.1144 -1.1558
 3591SOL     OW22408   4.511   3.450   5.122  0.5526 -0.5603  0.8818
 3591SOL    HW122409   4.510   3.506   5.200  0.4947  0.5236  0.0938
 3591SOL    HW222410   4.507   3.363   5.161  0.8558 -0.7273  0.5333
 3592SOL     OW22411   2.441   0.481   4.454 -0.4179  0.0138  0.3554
 3592SOL    HW122412   2.350   0.485   4.425 -0.7511 -0.9554  1.2500
 3592SOL    HW222413   2.428   0.500   4.547 -0.5676  2.2065 -0.1180
 3593SOL     OW22414   0.058   2.898   9.089 -0.4138  0.0271  0.7518
 3593SOL    HW122415   0.049   2.958   9.015  2.0119  0.6055  0.8987
 3593SOL    HW222416   0.013   2.823   9.051 -2.3143  1.1967  0.7167
 3594SOL     OW22417   0.154   3.349  14.520  0.6344 -0.7547 -0.8899
 3594SOL    HW122418   0.137   3.314  14.607 -2.3239  0.3915 -0.9785
 3594SOL    HW222419   0.095   3.290  14.473 -0.3951  0.3316 -0.9647
 3595SOL     OW22420   1.896   2.188   5.256 -0.7080 -0.0647  0.4210
 3595SOL    HW122421   1.863   2.151   5.338 -0.1341 -0.0833  0.6401
 3595SOL    HW222422   1.940   2.113   5.216  1.5829  1.0591  0.8624
 3596SOL     OW22423   3.491   1.563   9.306 -0.1866 -0.1855 -0.1809
 3596SOL    HW122424   3.467   1.481   9.350 -0.4938  1.6077  2.9981
 3596SOL    HW222425   3.519   1.623   9.375 -0.1161 -1.5135  0.9727
 3597SOL     OW22426   0.390   1.161   3.262 -0.9812 -0.2173 -0.0151
 3597SOL    HW122427   0.476   1.124   3.280 -0.8517 -1.0216 -2.3233
 3597SOL    HW222428   0.407   1.252   3.286  0.7466 -0.6063  0.2243
 3598SOL     OW22429   0.880   3.785   5.665  0.0804  0.2036 -0.0673
 3598SOL    HW122430   0.937   3.748   5.732 -0.3487 -3.0301 -1.5039
 3598SOL    HW222431   0.937   3.806   5.592  1.3148 -0.9311  0.5716
 3599SOL     OW22432   4.480   2.800   4.051 -0.8481 -0.5565  0.0628
 3599SOL    HW122433   4.560   2.815   4.101 -0.6687  0.6537 -0.5959
 3599SOL    HW222434   4.415   2.783   4.119 -3.0708  0.9498 -1.7036
 3600SOL     OW22435   1.306   3.982  11.903  0.3372 -0.0740 -0.6434
 3600SOL    HW122436   1.271   4.046  11.841 -0.6393 -2.2373 -2.2991
 3600SOL    HW222437   1.327   4.047  11.970  3.4880 -0.6135 -1.0897
 3601SOL     OW22438   4.003   3.366  12.814  0.1570 -0.1961 -0.1623
 3601SOL    HW122439   3.964   3.441  12.768  1.7904  1.7947  1.6838
 3601SOL    HW222440   4.020   3.399  12.902 -0.5878 -0.7181  0.1796
 3602SOL     OW22441   2.931   1.947  11.417  0.0435 -0.2159  0.1048
 3602SOL    HW122442   2.969   1.888  11.482 -0.0625 -0.2549  0.1319
 3602SOL    HW222443   2.844   1.962  11.455 -0.9400 -1.0961 -1.7907
 3603SOL     OW22444   1.879   1.975   2.322  0.1446  0.1296 -0.3023
 3603SOL    HW122445   1.818   2.007   2.389 -1.6171 -0.0086 -1.8549
 3603SOL    HW222446   1.937   1.916   2.372 -0.6312 -1.7381 -1.5930
 3604SOL     OW22447   0.020   2.389   4.963 -0.9031  0.3023 -0.0522
 3604SOL    HW122448   4.672   2.361   4.930 -1.2699 -0.3658  1.4886
 3604SOL    HW222449   0.030   2.326   5.034  0.4561 -0.2082 -0.7037
 3605SOL     OW22450   2.906   0.428   3.875 -0.3984  0.2520 -0.4338
 3605SOL    HW122451   2.829   0.372   3.885 -0.1410  0.1978  1.2354
 3605SOL    HW222452   2.930   0.413   3.784 -0.0671  3.3857 -0.8648
 3606SOL     OW22453   4.245   3.075   4.575 -0.0385 -0.0680 -0.4997
 3606SOL    HW122454   4.239   3.151   4.633  0.8966 -1.0974  0.9565
 3606SOL    HW222455   4.235   2.999   4.632  3.2144 -0.2595 -0.1798
 3607SOL     OW22456   3.718   0.475   6.077  0.7048 -0.7067 -0.3452
 3607SOL    HW122457   3.642   0.532   6.069  0.3225 -1.5027 -2.3625
 3607SOL    HW222458   3.738   0.467   5.984 -3.8469 -1.7715 -1.2288
 3608SOL     OW22459   3.793   1.028   3.800 -0.1033 -0.1293  0.0153
 3608SOL    HW122460   3.804   1.091   3.729  0.9992 -0.2158  0.1086
 3608SOL    HW222461   3.843   0.953   3.766  0.5152  0.4354 -0.3259
 3609SOL     OW22462   1.035   1.638   3.150 -0.2707  0.5147 -0.2015
 3609SOL    HW122463   1.119   1.681   3.163 -0.3814  1.0952 -1.4017
 3609SOL    HW222464   1.014   1.600   3.235  1.6131 -1.0387 -0.4222
 3610SOL     OW22465   4.579   2.266   2.596 -0.1954 -0.1902 -0.5538
 3610SOL    HW122466   4.635   2.191   2.615 -0.0780 -0.3959 -1.6932
 3610SOL    HW222467   4.620   2.294   2.514  1.6244  0.6653  0.6397
 3611SOL     OW22468   2.542   3.916   8.345 -0.5611  0.5321 -0.4195
 3611SOL    HW122469   2.461   3.961   8.319 -0.9657 -0.0327 -0.1253
 3611SOL    HW222470   2.501   3.845   8.394  0.9806 -0.5121 -0.6614
 3612SOL     OW22471   1.410   2.135  13.888  0.4681 -0.0627 -0.1662
 3612SOL    HW122472   1.372   2.064  13.836 -0.4558  1.0867 -1.0700
 3612SOL    HW222473   1.428   2.086  13.968 -1.6251 -1.1512 -0.3410
 3613SOL     OW22474   4.045   3.517   6.056  0.5153 -0.2500  0.2829
 3613SOL    HW122475   4.062   3.432   6.017  1.0203  0.0643 -0.1830
 3613SOL    HW222476   4.114   3.524   6.122  0.1553 -2.1869  0.8393
 3614SOL     OW22477   2.845   2.662   7.968  0.0269 -0.0916 -0.1647
 3614SOL    HW122478   2.916   2.609   7.932  1.9275  0.9858  2.0469
 3614SOL    HW222479   2.888   2.685   8.050 -0.8034  0.4429  0.1195
 3615SOL     OW22480   1.168   0.986   8.034  0.7368  0.4451 -0.2526
 3615SOL    HW122481   1.126   0.962   7.951  1.9967 -0.7603 -0.5349
 3615SOL    HW222482   1.143   0.902   8.072 -0.1406 -0.6147 -3.1507
 3616SOL     OW22483   0.361   2.887  17.406  0.6492  0.3798 -0.1014
 3616SOL    HW122484   0.381   2.801  17.369  1.4028 -0.1373  1.4870
 3616SOL    HW222485   0.332   2.927  17.324 -0.1439  0.3633  0.1657
 3617SOL     OW22486   1.682   0.561  17.538 -0.7621  0.1958  0.1471
 3617SOL    HW122487   1.725   0.640  17.571  0.9035 -0.7883  0.3443
 3617SOL    HW222488   1.702   0.508  17.615  1.9064  0.3229 -0.4821
 3618SOL     OW22489   1.937   0.576   4.552  0.2738 -0.2333 -0.6025
 3618SOL    HW122490   1.939   0.526   4.634  1.6469  0.8987  0.0480
 3618SOL    HW222491   1.874   0.644   4.579  0.2606  0.1576 -1.6425
 3619SOL     OW22492   0.357   1.429   9.631  0.7646 -0.2982  0.2947
 3619SOL    HW122493   0.308   1.353   9.598 -0.0516  0.1452  0.4802
 3619SOL    HW222494   0.360   1.419   9.727  2.0833 -0.0705  0.2712
 3620SOL     OW22495   1.989   0.616   7.973 -0.4483 -0.5710  0.8038
 3620SOL    HW122496   2.063   0.676   7.979 -1.8126  1.2145 -0.2647
 3620SOL    HW222497   2.028   0.564   7.902 -0.1483  0.7656 -0.0100
 3621SOL     OW22498   4.724   2.873   5.883  0.6298 -0.0741  0.0646
 3621SOL    HW122499   0.024   2.845   5.798 -1.4418 -2.3335 -0.0936
 3621SOL    HW222500   4.725   2.967   5.870 -1.7364  0.0615  0.9015
 3622SOL     OW22501   4.714   0.456   5.327 -0.8376 -0.1495  0.5532
 3622SOL    HW122502   4.669   0.421   5.249 -1.4906 -0.3656  1.0273
 3622SOL    HW222503   4.733   0.548   5.308 -1.7852  0.3104  1.8841
 3623SOL     OW22504   2.024   2.977   9.247 -0.7538 -0.3319  0.1047
 3623SOL    HW122505   1.999   2.907   9.308  1.6121 -0.2317  1.1996
 3623SOL    HW222506   1.957   3.041   9.271 -0.5260 -0.7011  1.7268
 3624SOL     OW22507   2.795   4.278   7.983  0.1084  0.2974  0.2338
 3624SOL    HW122508   2.739   4.306   7.911 -2.6258 -2.1730  1.3836
 3624SOL    HW222509   2.793   4.348   8.048 -0.8687  0.4605  0.0188
 3625SOL     OW22510   0.259   1.297   5.130  0.2185 -0.1168 -0.2266
 3625SOL    HW122511   0.207   1.375   5.108 -1.8345 -1.6865 -0.9377
 3625SOL    HW222512   0.314   1.311   5.053  2.2988 -0.0212  1.2680
 3626SOL     OW22513   4.058   0.624   7.657  0.1570 -0.3306 -0.3331
 3626SOL    HW122514   4.089   0.555   7.599  0.1239 -1.2201  0.6955
 3626SOL    HW222515   4.139   0.673   7.669 -0.7072  0.6828  1.2929
 3627SOL     OW22516   0.801   2.449  16.511 -0.0556 -0.3685  0.1351
 3627SOL    HW122517   0.706   2.443  16.518 -0.1182  0.6151  0.1744
 3627SOL    HW222518   0.815   2.536  16.473  1.0521 -0.0261  1.2776
 3628SOL     OW22519   3.273   2.096  17.448  0.0806 -0.4583  0.0740
 3628SOL    HW122520   3.286   2.010  17.407 -0.9288 -0.3414 -0.5045
 3628SOL    HW222521   3.177   2.100  17.446  0.1242  0.3708 -0.3429
 3629SOL     OW22522   3.296   3.029   4.363  0.6522 -0.1618  0.0535
 3629SOL    HW122523   3.276   3.049   4.271 -1.2414  2.2392  0.9850
 3629SOL    HW222524   3.213   2.990   4.388 -0.2014  1.0161 -0.9550
 3630SOL     OW22525   4.210   0.396  10.164  0.3250 -0.5182 -0.5257
 3630SOL    HW122526   4.156   0.333  10.116 -0.8700 -0.3672  0.6097
 3630SOL    HW222527   4.179   0.476  10.123  0.1332 -0.9991 -1.3099
 3631SOL     OW22528   2.762   3.117   5.899 -0.1194  0.0830 -0.2769
 3631SOL    HW122529   2.666   3.117   5.904 -0.2892 -0.9527 -3.8093
 3631SOL    HW222530   2.785   3.029   5.927 -0.4121 -0.6912 -2.4434
 3632SOL     OW22531   3.320   4.585   8.181 -0.2174 -0.4778  0.2280
 3632SOL    HW122532   3.343   4.504   8.228  0.2180 -0.3915  0.1671
 3632SOL    HW222533   3.336   4.655   8.245 -2.0933 -0.1222  0.2903
 3633SOL     OW22534   4.536   0.031  17.447 -0.4633  0.1390 -0.3620
 3633SOL    HW122535   4.567   4.687  17.487 -1.8837 -0.1480  0.1687
 3633SOL    HW222536   4.441   0.019  17.439 -0.2258 -1.7107 -0.2134
 3634SOL     OW22537   0.418   4.563  13.015 -0.2114  0.1320  0.0231
 3634SOL    HW122538   0.461   4.649  13.012 -1.5778  0.7319 -2.4560
 3634SOL    HW222539   0.479   4.520  13.075  0.4681 -1.1094 -1.5856
 3635SOL     OW22540   0.736   0.488  14.973 -0.2315 -0.8377 -0.3507
 3635SOL    HW122541   0.739   0.405  15.021  1.7829 -1.4779 -1.5915
 3635SOL    HW222542   0.807   0.481  14.909  1.0994  0.3290  0.9855
 3636SOL     OW22543   1.487   2.506  16.146 -0.1222  0.9343 -0.5064
 3636SOL    HW122544   1.555   2.447  16.114 -2.0543 -0.4606 -2.0199
 3636SOL    HW222545   1.536   2.588  16.143  0.2270  0.8014  1.6381
 3637SOL     OW22546   1.007   3.812   4.636  0.9399 -0.0360 -0.4919
 3637SOL    HW122547   1.085   3.770   4.674  1.7029  0.2978 -1.6892
 3637SOL    HW222548   1.023   3.790   4.544  3.8104 -0.5785  0.1258
 3638SOL     OW22549   1.455   2.982   7.171  0.0062 -0.4370 -0.2451
 3638SOL    HW122550   1.519   3.045   7.140 -0.5119  1.6326  2.9280
 3638SOL    HW222551   1.388   2.996   7.104 -1.6949  0.2609  1.5962
 3639SOL     OW22552   2.555   2.038  11.297  0.0956 -0.0489 -0.1847
 3639SOL    HW122553   2.524   2.121  11.260  0.3192 -0.5967 -1.6208
 3639SOL    HW222554   2.584   1.989  11.219  0.6837  0.1171 -0.0728
 3640SOL     OW22555   2.903   0.060  13.980 -0.1387 -0.2439  0.1440
 3640SOL    HW122556   2.950   0.112  14.046 -3.8187 -0.1260  2.6780
 3640SOL    HW222557   2.816   0.092  14.002 -0.2546 -0.9979  0.8036
 3641SOL     OW22558   1.934   3.006   6.398  0.2271  0.0122 -0.2651
 3641SOL    HW122559   2.005   2.974   6.342 -0.5122 -0.5478 -0.8779
 3641SOL    HW222560   1.879   3.048   6.333  0.2791  1.9813  0.9618
 3642SOL     OW22561   3.091   2.825   2.807 -0.2037  0.0531  0.2256
 3642SOL    HW122562   3.001   2.856   2.797  0.5010  2.3196  0.9077
 3642SOL    HW222563   3.132   2.899   2.853 -0.2082  0.8647 -1.0852
 3643SOL     OW22564   2.820   1.093   1.160 -0.2641 -0.4446 -0.1590
 3643SOL    HW122565   2.749   1.031   1.178 -0.6699  0.5011  1.4897
 3643SOL    HW222566   2.813   1.149   1.237  2.2884 -0.2195 -0.1147
 3644SOL     OW22567   3.522   1.881   0.986  0.5541  0.1406  0.5186
 3644SOL    HW122568   3.485   1.797   1.012 -0.1582 -0.2547 -1.8035
 3644SOL    HW222569   3.471   1.889   0.905 -0.7806  1.6442  1.5138
 3645SOL     OW22570   0.326   2.850   2.733  0.6395 -0.3887  0.4961
 3645SOL    HW122571   0.304   2.933   2.774  1.0474  0.1611 -0.4053
 3645SOL    HW222572   0.366   2.810   2.810 -1.2229 -1.1690  1.0526
 3646SOL     OW22573   1.315   0.958   2.984  0.2706 -0.1318 -0.1486
 3646SOL    HW122574   1.304   0.868   2.954 -0.9851 -0.1104  0.2430
 3646SOL    HW222575   1.241   0.993   2.935  0.2635 -0.0762 -0.0985
 3647SOL     OW22576   2.864   4.216   2.412 -0.0413  0.3200  0.2811
 3647SOL    HW122577   2.953   4.185   2.428 -0.3859  0.3934  2.2719
 3647SOL    HW222578   2.813   4.136   2.427 -1.5962  0.8481 -2.1996
 3648SOL     OW22579   1.098   1.160   5.548 -0.5513 -0.2683 -0.3014
 3648SOL    HW122580   1.002   1.164   5.557 -0.3390 -2.0932  2.7711
 3648SOL    HW222581   1.130   1.113   5.625  0.7939 -1.7687 -1.8046
 3649SOL     OW22582   4.013   4.640   3.474 -0.1231  0.3670 -0.1803
 3649SOL    HW122583   4.051   4.560   3.511  0.4318  1.7348  2.1800
 3649SOL    HW222584   3.948   4.671   3.537 -1.2452 -0.5643 -0.8762
 3650SOL     OW22585   0.301   4.613   4.422 -0.0730 -0.2187  0.0124
 3650SOL    HW122586   0.379   4.668   4.419 -0.1042 -0.2448 -1.1716
 3650SOL    HW222587   0.343   4.528   4.436 -0.6268 -0.0445  2.8116
 3651SOL     OW22588   4.481   4.720   6.493  0.4075 -0.1947 -0.2847
 3651SOL    HW122589   4.552   4.736   6.431  0.0715  2.0861 -0.0836
 3651SOL    HW222590   4.517   4.711   6.581  1.6942 -0.1260 -0.8077
 3652SOL     OW22591   2.781   2.877   6.042 -0.0275 -0.4828 -0.1561
 3652SOL    HW122592   2.788   2.937   6.117 -1.6955 -1.7718  1.0411
 3652SOL    HW222593   2.808   2.792   6.075  0.3314 -0.4359 -0.3357
 3653SOL     OW22594   2.403   1.810   9.162  0.2789 -0.5070 -0.3911
 3653SOL    HW122595   2.399   1.835   9.254 -0.6653 -0.3494 -0.4745
 3653SOL    HW222596   2.452   1.728   9.162 -0.3677 -0.8876 -1.5333
 3654SOL     OW22597   4.229   0.955   4.617 -0.2402  0.3169  0.0902
 3654SOL    HW122598   4.262   1.005   4.692  0.9491 -1.1645  0.5339
 3654SOL    HW222599   4.198   1.027   4.562 -2.8230 -0.9704 -0.1614
 3655SOL     OW22600   3.358   0.279   3.348  0.2473 -0.2849  0.3638
 3655SOL    HW122601   3.379   0.350   3.409  1.6830  0.3277 -0.8425
 3655SOL    HW222602   3.317   0.217   3.408 -1.4763  0.5087 -0.0101
 3656SOL     OW22603   3.670   4.049  12.775  0.0721  0.0513 -0.1293
 3656SOL    HW122604   3.652   4.130  12.727  1.7472  0.0940 -0.7049
 3656SOL    HW222605   3.626   4.076  12.855 -1.8684 -1.4673 -0.6967
 3657SOL     OW22606   2.294   2.587   1.582 -0.1837 -0.1288 -0.0683
 3657SOL    HW122607   2.268   2.514   1.526 -1.7013 -1.0534  1.8314
 3657SOL    HW222608   2.231   2.577   1.653  1.1789  0.3047  1.2168
 3658SOL     OW22609   4.149   2.153   4.311 -0.0863  0.1458  0.4115
 3658SOL    HW122610   4.243   2.167   4.299  0.0014 -1.6473 -1.1105
 3658SOL    HW222611   4.120   2.225   4.366 -1.8669  1.0847 -1.7781
 3659SOL     OW22612   0.382   4.428   2.530 -0.0314  0.4629  0.4791
 3659SOL    HW122613   0.377   4.493   2.600  2.1590  0.8908  0.2432
 3659SOL    HW222614   0.303   4.448   2.480 -0.4558  1.8807  1.7339
 3660SOL     OW22615   0.753   3.102   0.784 -0.9877  0.5244  0.3077
 3660SOL    HW122616   0.756   3.196   0.767  1.8210  0.1424 -1.3286
 3660SOL    HW222617   0.660   3.089   0.800 -0.7579 -1.3072  0.1493
 3661SOL     OW22618   4.171   3.120   6.993  0.1506  0.4365  0.3484
 3661SOL    HW122619   4.254   3.152   6.958  0.8793 -1.9373 -0.0974
 3661SOL    HW222620   4.112   3.135   6.920  1.5810  2.9661 -0.2708
 3662SOL     OW22621   0.257   3.923  11.896  0.0080  0.5371  0.0199
 3662SOL    HW122622   0.349   3.919  11.868  0.5104  0.4917  1.6950
 3662SOL    HW222623   0.238   3.842  11.942 -1.3516  1.8715  1.8014
 3663SOL     OW22624   3.857   1.191   3.578  0.3157 -0.2481  0.0131
 3663SOL    HW122625   3.915   1.251   3.532 -1.7457  1.2964 -0.5371
 3663SOL    HW222626   3.796   1.257   3.612  0.0936 -0.1850 -0.5064
 3664SOL     OW22627   0.127   0.255  10.966  0.6903 -0.0936 -0.2614
 3664SOL    HW122628   0.094   0.277  11.053  1.5797  1.4909 -0.3344
 3664SOL    HW222629   0.132   0.344  10.932  1.1515 -1.4722 -3.8583
 3665SOL     OW22630   4.287   3.048   7.996  0.2411  0.0665  0.1185
 3665SOL    HW122631   4.286   3.057   7.901  0.2655 -1.7159 -0.0493
 3665SOL    HW222632   4.257   2.960   8.016 -1.7774  0.7149 -0.0874
 3666SOL     OW22633   0.776   2.708   8.554  0.0182  0.0730  0.3609
 3666SOL    HW122634   0.694   2.754   8.573 -1.2704 -1.2396 -2.0448
 3666SOL    HW222635   0.821   2.733   8.635  1.1039 -1.5023  0.2361
 3667SOL     OW22636   2.907   3.652   2.929 -0.1443  0.0935 -0.3036
 3667SOL    HW122637   2.848   3.633   2.856 -3.3338  0.9162  2.0859
 3667SOL    HW222638   2.865   3.715   2.987  0.1836 -0.5014  0.5971
 3668SOL     OW22639   3.869   1.053   8.376 -0.3453  0.2457  0.1493
 3668SOL    HW122640   3.872   0.982   8.313  0.5427 -0.4219  0.9443
 3668SOL    HW222641   3.871   1.128   8.316  1.8505  1.0848  1.2916
 3669SOL     OW22642   2.443   3.391   7.279 -0.3243  0.2346 -0.6478
 3669SOL    HW122643   2.406   3.303   7.275  0.2391  0.0885 -2.7934
 3669SOL    HW222644   2.418   3.424   7.193  0.3087 -1.2120 -1.3827
 3670SOL     OW22645   3.633   0.304   2.884 -0.4498 -0.0774 -0.3576
 3670SOL    HW122646   3.625   0.300   2.979 -2.0576  0.2701 -0.4857
 3670SOL    HW222647   3.715   0.353   2.880  1.3756 -2.9331  1.6320
 3671SOL     OW22648   3.629   0.059   4.907  0.0535  0.2083  0.3326
 3671SOL    HW122649   3.711   0.028   4.944  0.4688 -0.0596 -0.8156
 3671SOL    HW222650   3.652   0.099   4.823  2.1077 -0.4993  0.5604
 3672SOL     OW22651   3.158   3.705   2.190 -0.0529  0.7944  0.0301
 3672SOL    HW122652   3.140   3.769   2.122 -1.3105  1.7519  1.2826
 3672SOL    HW222653   3.189   3.765   2.257  1.7276  1.1150 -1.0841
 3673SOL     OW22654   0.647   4.671   1.426  0.6653 -0.3931 -0.2160
 3673SOL    HW122655   0.721   4.693   1.368  0.3864  0.4455 -0.2583
 3673SOL    HW222656   0.580   4.659   1.358  0.3302 -1.3576  0.2858
 3674SOL     OW22657   1.608   4.551   0.786 -0.3168 -0.2396  0.1596
 3674SOL    HW122658   1.584   4.485   0.852  0.8066 -0.6773  0.1339
 3674SOL    HW222659   1.586   4.632   0.831  0.4672 -0.2448  0.5627
 3675SOL     OW22660   2.851   3.759   4.350 -0.0211  0.4439  0.1130
 3675SOL    HW122661   2.798   3.714   4.285 -2.5408  5.1937 -1.1182
 3675SOL    HW222662   2.814   3.721   4.429  0.2589 -1.9189 -0.9033
 3676SOL     OW22663   3.516   1.639  17.439 -0.2898  0.2140  0.6530
 3676SOL    HW122664   3.558   1.710  17.487  2.2866 -0.4122 -0.6588
 3676SOL    HW222665   3.535   1.667  17.350 -5.1945 -0.2784 -0.5548
 3677SOL     OW22666   4.430   0.895   6.248 -0.5156  0.5855 -0.9269
 3677SOL    HW122667   4.343   0.922   6.220 -1.5615 -1.4375  0.3546
 3677SOL    HW222668   4.446   0.954   6.322  0.4603  2.1786 -2.4140
 3678SOL     OW22669   3.716   0.818   4.620 -0.5841  0.2323 -0.6527
 3678SOL    HW122670   3.754   0.862   4.544 -1.1891  0.1367 -1.0077
 3678SOL    HW222671   3.655   0.884   4.652 -1.0170 -0.9511  0.9329
 3679SOL     OW22672   0.338   2.274   2.780 -0.5190 -0.7017  0.0962
 3679SOL    HW122673   0.339   2.362   2.817 -1.5691 -0.5794 -0.1788
 3679SOL    HW222674   0.333   2.293   2.687  0.1677 -0.6185  0.0764
 3680SOL     OW22675   0.265   0.202  12.710  0.0123 -0.2914 -0.7745
 3680SOL    HW122676   0.282   0.125  12.655  0.1519 -0.4467 -0.5094
 3680SOL    HW222677   0.194   0.245  12.661 -0.8221  0.7241  1.3572
 3681SOL     OW22678   1.130   4.368  12.361 -0.3931 -0.1770  0.7946
 3681SOL    HW122679   1.051   4.409  12.394 -0.5914  0.7802 -0.8548
 3681SOL    HW222680   1.155   4.431  12.293 -1.0788 -0.5218  0.2386
 3682SOL     OW22681   3.417   1.849   1.926  0.6220 -0.6591 -0.1553
 3682SOL    HW122682   3.489   1.820   1.982 -0.2060  0.2582  1.3764
 3682SOL    HW222683   3.380   1.763   1.904  0.1501 -0.2099 -1.1038
 3683SOL     OW22684   2.190   0.258  13.550  0.1643  0.1939  0.5875
 3683SOL    HW122685   2.107   0.281  13.591 -0.4153 -0.1038 -0.4219
 3683SOL    HW222686   2.193   0.164  13.570 -1.8875  0.1943  0.8447
 3684SOL     OW22687   1.079   4.170  15.890  0.0596 -0.0377  0.3405
 3684SOL    HW122688   1.078   4.254  15.845  0.0892 -0.5832 -0.6794
 3684SOL    HW222689   1.139   4.109  15.849 -0.2335  0.5870 -1.0191
 3685SOL     OW22690   2.987   1.251   8.069  0.2438 -0.6556  0.5047
 3685SOL    HW122691   2.902   1.269   8.109 -0.0636  1.7583 -1.2280
 3685SOL    HW222692   2.975   1.233   7.975  3.1284 -0.9364  0.1924
 3686SOL     OW22693   3.076   0.922   7.662  0.2609 -0.0681  0.2079
 3686SOL    HW122694   3.118   1.005   7.683  0.1424 -0.2761  1.3086
 3686SOL    HW222695   3.036   0.943   7.578  1.0924  2.6373  0.4839
 3687SOL     OW22696   2.446   3.285   5.975 -0.9832  0.1216 -0.2845
 3687SOL    HW122697   2.390   3.285   6.052  0.0271  1.4743  0.4446
 3687SOL    HW222698   2.437   3.196   5.941  1.9312  0.0870 -0.9567
 3688SOL     OW22699   0.842   0.784   7.527  0.1772 -0.4521 -0.0150
 3688SOL    HW122700   0.842   0.861   7.470  2.9536  0.5335  1.3327
 3688SOL    HW222701   0.933   0.768   7.548 -0.3079 -1.5456  1.2603
 3689SOL     OW22702   4.429   0.834   2.754  0.0644  0.4119 -0.7101
 3689SOL    HW122703   4.450   0.747   2.789  0.0193  0.7228  0.0963
 3689SOL    HW222704   4.414   0.884   2.835  2.0326 -0.6691  0.3252
 3690SOL     OW22705   4.332   4.464   5.536 -0.4875  0.1490 -0.6657
 3690SOL    HW122706   4.383   4.441   5.613  2.8516 -0.9579 -3.1986
 3690SOL    HW222707   4.305   4.555   5.553  0.2565 -0.0319  1.4858
 3691SOL     OW22708   2.597   0.449  15.212 -0.4925 -0.6745 -1.0270
 3691SOL    HW122709   2.616   0.426  15.303 -1.2973 -0.0710 -0.6963
 3691SOL    HW222710   2.661   0.519  15.201 -0.4455 -0.6231 -0.4655
 3692SOL     OW22711   4.524   0.945  10.581  0.3927 -0.3196  0.3168
 3692SOL    HW122712   4.537   0.896  10.663  0.3393  2.4787  1.9926
 3692SOL    HW222713   4.470   0.887  10.528  1.2481 -0.0429 -0.8689
 3693SOL     OW22714   0.796   0.599   9.261  0.2834 -0.8914  0.0373
 3693SOL    HW122715   0.816   0.650   9.339  3.1847 -1.3845 -0.3691
 3693SOL    HW222716   0.820   0.509   9.284  1.3819 -0.3872  0.8678
 3694SOL     OW22717   3.330   2.372   7.830 -0.1844  0.5040 -0.5626
 3694SOL    HW122718   3.306   2.307   7.764 -2.2752  1.0473 -0.3280
 3694SOL    HW222719   3.360   2.448   7.779  1.6511 -0.8964 -1.5786
 3695SOL     OW22720   1.413   3.843   3.752 -0.2733  0.5802  0.1196
 3695SOL    HW122721   1.414   3.836   3.657 -0.9636  3.1005 -0.0703
 3695SOL    HW222722   1.386   3.935   3.755  1.0235  0.9677 -0.3519
 3696SOL     OW22723   1.502   2.291   9.223 -0.3595  0.7414  0.2043
 3696SOL    HW122724   1.482   2.373   9.176 -3.4296  0.4210  0.9522
 3696SOL    HW222725   1.419   2.243   9.216 -0.0299  0.3718 -1.1697
 3697SOL     OW22726   2.000   0.198   8.466  0.0537  0.1861 -0.3290
 3697SOL    HW122727   2.062   0.269   8.448 -0.2711  0.7153  0.6177
 3697SOL    HW222728   1.929   0.222   8.406  1.1300  2.1537 -0.8276
 3698SOL     OW22729   2.158   0.284   1.853 -0.9265  0.2676 -0.1286
 3698SOL    HW122730   2.217   0.310   1.782  0.8667 -1.2603  0.8237
 3698SOL    HW222731   2.155   0.190   1.836  2.5408  0.5158 -2.2066
 3699SOL     OW22732   2.743   3.740   8.382  0.5259 -0.2832  0.3666
 3699SOL    HW122733   2.674   3.805   8.370  0.4585 -0.4843 -0.3338
 3699SOL    HW222734   2.799   3.748   8.305  0.2129 -1.7759 -0.0151
 3700SOL     OW22735   3.390   3.403  13.485 -0.3469  0.1021  0.4573
 3700SOL    HW122736   3.411   3.374  13.574 -1.3424 -0.7957  0.4055
 3700SOL    HW222737   3.427   3.328  13.438  1.8630  1.2466  0.4040
 3701SOL     OW22738   2.605   0.411   5.289 -0.3348  0.5952  0.0928
 3701SOL    HW122739   2.566   0.480   5.235 -1.6001  0.8342  1.3093
 3701SOL    HW222740   2.689   0.392   5.248 -0.9594  0.7220 -1.2354
 3702SOL     OW22741   4.453   1.513   8.395 -0.8234  0.0141 -0.1597
 3702SOL    HW122742   4.467   1.475   8.308 -0.5995  0.5356 -0.3504
 3702SOL    HW222743   4.495   1.440   8.441  0.5060  0.4009 -0.7565
 3703SOL     OW22744   1.396   0.523  10.265  0.4440  0.3506  0.1117
 3703SOL    HW122745   1.386   0.447  10.322  0.9788 -0.1832 -0.5085
 3703SOL    HW222746   1.310   0.566  10.262 -0.0288 -0.6284 -0.5927
 3704SOL     OW22747   2.161   4.620  13.481 -0.2488  0.6467 -0.2287
 3704SOL    HW122748   2.121   4.654  13.401 -0.6176  0.7768  0.0135
 3704SOL    HW222749   2.096   4.561  13.517  0.5501  1.1423  2.0487
 3705SOL     OW22750   1.395   2.831   4.112  0.3751  0.4792  0.4221
 3705SOL    HW122751   1.474   2.875   4.141  0.5460 -0.2726  1.0816
 3705SOL    HW222752   1.407   2.742   4.144  0.4103  0.3467  0.0403
 3706SOL     OW22753   3.410   0.361   5.585 -0.1431 -0.6567  0.0340
 3706SOL    HW122754   3.355   0.285   5.567  1.9073 -2.3526  1.0101
 3706SOL    HW222755   3.493   0.333   5.547  1.7551  5.2957 -0.3150
 3707SOL     OW22756   0.597   3.252   3.869  0.7403 -0.0528  0.4406
 3707SOL    HW122757   0.683   3.224   3.837 -0.7031 -1.1896 -2.4344
 3707SOL    HW222758   0.584   3.340   3.833 -1.6678 -0.5199  0.1622
 3708SOL     OW22759   3.865   0.970   7.785  0.7482 -0.4395 -0.1136
 3708SOL    HW122760   3.886   0.917   7.862 -1.9659  1.8672  2.2283
 3708SOL    HW222761   3.796   0.916   7.746  0.9043  0.5321 -1.7162
 3709SOL     OW22762   0.461   2.726   2.927  0.1597 -0.4536  0.3101
 3709SOL    HW122763   0.404   2.649   2.923 -1.2762  0.3713  4.9996
 3709SOL    HW222764   0.487   2.734   3.019  0.2277 -2.6041  0.4816
 3710SOL     OW22765   2.256   4.382   3.468  0.3611 -0.0627 -0.0461
 3710SOL    HW122766   2.238   4.310   3.528 -0.7616  0.7864  0.6432
 3710SOL    HW222767   2.189   4.363   3.403  0.9138 -0.4543 -0.5000
 3711SOL     OW22768   4.127   4.054   3.279  0.3781 -0.4559  0.2656
 3711SOL    HW122769   4.212   4.058   3.234 -0.4702  0.9296 -1.2207
 3711SOL    HW222770   4.066   4.045   3.206  1.6745 -2.2226 -0.5856
 3712SOL     OW22771   2.140   1.209  15.166 -0.3540  0.4541 -0.2076
 3712SOL    HW122772   2.048   1.235  15.172  0.3185  2.4449  1.4261
 3712SOL    HW222773   2.154   1.189  15.258 -0.0986 -0.5774 -0.4737
 3713SOL     OW22774   1.831   3.722   2.704  0.0627  0.3227  1.0766
 3713SOL    HW122775   1.757   3.683   2.657 -0.6262  2.6887  0.1819
 3713SOL    HW222776   1.826   3.814   2.676 -1.6954 -1.3296 -4.0170
 3714SOL     OW22777   1.791   1.106   2.534 -0.2029  0.1060  0.3722
 3714SOL    HW122778   1.766   1.014   2.528  0.3360  0.0791 -1.4519
 3714SOL    HW222779   1.885   1.098   2.523  0.2711  2.2384  2.8635
 3715SOL     OW22780   2.015   4.547   6.749  0.2781  0.1391  0.6149
 3715SOL    HW122781   1.955   4.619   6.770  0.3877  0.1116  1.0346
 3715SOL    HW222782   2.090   4.576   6.801 -0.6732  0.5816  1.7641
 3716SOL     OW22783   1.454   4.342   5.991 -0.1061 -0.1006 -0.2492
 3716SOL    HW122784   1.399   4.361   6.067  0.9524 -0.6004  0.6412
 3716SOL    HW222785   1.434   4.249   5.984 -0.3234 -0.0607 -0.1567
 3717SOL     OW22786   1.795   3.998   8.194 -0.1828 -0.4446  0.5650
 3717SOL    HW122787   1.824   3.940   8.264 -0.9744 -0.2681  1.0399
 3717SOL    HW222788   1.774   4.074   8.249 -0.1926  0.6082 -0.8965
 3718SOL     OW22789   3.304   0.141   5.853 -0.1212  0.2038 -0.0667
 3718SOL    HW122790   3.390   0.182   5.862 -1.2560  2.6604 -0.4043
 3718SOL    HW222791   3.332   0.051   5.838 -1.2101 -0.0838 -0.3833
 3719SOL     OW22792   1.026   1.696   9.286  0.1766  0.0417  0.0820
 3719SOL    HW122793   1.054   1.785   9.264  0.6048  0.5030  2.4874
 3719SOL    HW222794   0.934   1.708   9.309  0.2150 -0.5550  0.5614
 3720SOL     OW22795   4.064   3.042   8.405  0.1816 -0.4477 -0.1800
 3720SOL    HW122796   3.996   3.024   8.470  1.1973  1.1227  1.3168
 3720SOL    HW222797   4.115   2.961   8.411 -1.6391 -1.6981 -1.5663
 3721SOL     OW22798   3.439   4.619   6.464 -0.5604  0.7608  0.1406
 3721SOL    HW122799   3.371   4.632   6.398  0.4692  0.3421 -1.0006
 3721SOL    HW222800   3.389   4.647   6.541 -1.4359  1.3357 -0.6403
 3722SOL     OW22801   4.037   1.842   0.681  0.2563 -0.1596 -0.1480
 3722SOL    HW122802   4.045   1.930   0.717 -0.8661 -0.2416  0.2876
 3722SOL    HW222803   4.130   1.822   0.666  0.6202  0.4621  1.2413
 3723SOL     OW22804   3.139   0.272   2.092 -0.1502 -0.5494 -0.4724
 3723SOL    HW122805   3.214   0.216   2.112  0.0300 -0.4856 -0.9786
 3723SOL    HW222806   3.162   0.352   2.139  0.5995 -0.6560 -0.6687
 3724SOL     OW22807   1.827   0.992   3.336  0.3004  0.2857 -0.1617
 3724SOL    HW122808   1.886   1.065   3.355  0.2537  0.4293 -0.5730
 3724SOL    HW222809   1.855   0.966   3.248 -2.0919 -2.4571 -0.1465
 3725SOL     OW22810   2.873   4.122   0.481  0.5567 -0.2700  0.1338
 3725SOL    HW122811   2.921   4.039   0.471  1.3222  0.1961 -0.0790
 3725SOL    HW222812   2.927   4.157   0.552 -0.0929 -0.2015  0.5910
 3726SOL     OW22813   4.150   0.220   4.984 -0.1170  0.0286 -0.0936
 3726SOL    HW122814   4.081   0.264   4.936 -0.6626 -0.5820  0.1288
 3726SOL    HW222815   4.169   0.282   5.054 -1.7392  0.3025  0.0926
 3727SOL     OW22816   2.055   4.067   7.911  0.5633  0.0293 -0.0268
 3727SOL    HW122817   2.057   4.049   8.005 -1.3371  1.6090  0.3088
 3727SOL    HW222818   2.149   4.057   7.896  0.7215  0.1305  0.9110
 3728SOL     OW22819   3.694   3.139   8.435 -0.5455  0.4084  0.3291
 3728SOL    HW122820   3.614   3.113   8.390  0.1303 -0.1384 -0.5545
 3728SOL    HW222821   3.675   3.231   8.450 -0.5063  0.4406  0.1863
 3729SOL     OW22822   0.466   4.029  10.035 -0.2481 -0.5255  0.5448
 3729SOL    HW122823   0.518   4.070   9.966 -1.4980  1.0653  0.5393
 3729SOL    HW222824   0.525   4.036  10.110  1.2868 -1.8184 -0.5459
 3730SOL     OW22825   2.613   3.792   2.966 -0.3634  0.3746  0.2708
 3730SOL    HW122826   2.616   3.738   3.045  0.0853  1.4326  0.9812
 3730SOL    HW222827   2.520   3.815   2.960 -0.6004 -0.8038 -0.5479
 3731SOL     OW22828   1.237   3.737   2.169  0.3985 -0.0950  0.0606
 3731SOL    HW122829   1.189   3.665   2.210 -0.4786 -0.0786 -0.9474
 3731SOL    HW222830   1.261   3.794   2.242 -0.2954 -0.2821  0.4305
 3732SOL     OW22831   1.092   4.336   4.579 -0.6216  0.5882 -0.7062
 3732SOL    HW122832   1.169   4.326   4.523  0.1879  0.5346  0.4126
 3732SOL    HW222833   1.040   4.266   4.540 -0.4328 -0.1673  0.4106
 3733SOL     OW22834   2.803   2.011   4.634  0.0580  0.3567 -0.1999
 3733SOL    HW122835   2.890   1.976   4.614  1.2305  2.3677  1.5023
 3733SOL    HW222836   2.786   1.959   4.712  1.6648 -0.5485 -0.4444
 3734SOL     OW22837   0.064   2.552   9.849 -0.8499 -0.3140  0.0669
 3734SOL    HW122838   0.028   2.603   9.922 -0.0743  0.9361 -0.4218
 3734SOL    HW222839   0.031   2.609   9.779  1.2332 -0.5574 -1.1184
 3735SOL     OW22840   2.520   3.694  15.916 -0.6940 -0.0941 -0.0377
 3735SOL    HW122841   2.504   3.608  15.877 -0.3475 -0.6115  0.9654
 3735SOL    HW222842   2.594   3.675  15.973 -1.0051 -0.1958  0.3361
 3736SOL     OW22843   3.429   2.940   3.984  0.0069 -0.1733  0.1209
 3736SOL    HW122844   3.419   2.914   3.893 -0.9456  2.8782 -0.6534
 3736SOL    HW222845   3.401   3.031   3.981  0.4362  0.0622  3.3366
 3737SOL     OW22846   3.879   3.061  13.250  0.3841  0.7027  0.0126
 3737SOL    HW122847   3.812   3.121  13.282 -0.7028 -0.3247 -0.3534
 3737SOL    HW222848   3.831   2.980  13.236  1.3140  0.4832 -1.8654
 3738SOL     OW22849   3.549   1.021   1.125 -0.1029 -0.0394 -0.0003
 3738SOL    HW122850   3.540   1.057   1.214 -0.7515 -2.5213  0.9256
 3738SOL    HW222851   3.463   0.983   1.107 -0.0071 -0.1994 -0.1107
 3739SOL     OW22852   1.005   1.578   9.872 -0.3565 -0.1639 -0.5735
 3739SOL    HW122853   1.044   1.663   9.892 -0.9840  0.2090 -0.9410
 3739SOL    HW222854   0.993   1.550   9.962  2.3430 -0.2128 -0.2487
 3740SOL     OW22855   3.074   4.617   3.388 -0.4150 -0.0697  0.4519
 3740SOL    HW122856   3.055   4.612   3.294 -1.2856  1.9792  0.5133
 3740SOL    HW222857   3.169   4.615   3.378 -0.3651 -0.7999  1.0788
 3741SOL     OW22858   2.534   4.731   6.618 -0.4479 -0.0236 -0.3368
 3741SOL    HW122859   2.553   4.663   6.684  0.1801 -0.8625 -1.3832
 3741SOL    HW222860   2.507   0.062   6.680  1.5409 -1.0139  1.6278
 3742SOL     OW22861   1.955   1.652   2.044 -0.0423  0.6579  0.3703
 3742SOL    HW122862   1.900   1.617   1.974  1.0433  0.5476 -0.4311
 3742SOL    HW222863   1.949   1.748   2.037 -2.3310  0.3930 -1.2886
 3743SOL     OW22864   4.021   0.203  17.003 -0.3078  0.2875  0.3079
 3743SOL    HW122865   4.076   0.278  16.982 -0.6960  1.0429  2.0396
 3743SOL    HW222866   4.081   0.131  17.023  0.8339  0.8658 -1.0109
 3744SOL     OW22867   0.172   1.284   3.574 -0.5562 -0.0845  0.6306
 3744SOL    HW122868   0.222   1.243   3.504 -1.0589 -0.1377  0.3013
 3744SOL    HW222869   0.079   1.272   3.554 -0.2731 -0.3076 -0.5601
 3745SOL     OW22870   3.654   0.521   6.378  0.3234  0.3744 -0.1197
 3745SOL    HW122871   3.598   0.588   6.416  0.9608  1.0381 -0.3587
 3745SOL    HW222872   3.639   0.525   6.283 -0.8739 -1.5706 -0.0049
 3746SOL     OW22873   3.062   0.618  10.159  0.0585  0.2933  0.0421
 3746SOL    HW122874   3.151   0.620  10.126  0.3710 -0.9446  0.7755
 3746SOL    HW222875   3.085   0.652  10.245  1.0641 -1.4144  0.4463
 3747SOL     OW22876   3.734   2.193   4.088 -0.1294  0.2540 -0.7651
 3747SOL    HW122877   3.749   2.274   4.038 -1.7233  2.0793  1.7199
 3747SOL    HW222878   3.825   2.167   4.099 -0.5847 -0.5876  0.9371
 3748SOL     OW22879   3.300   0.145   2.298 -0.2504 -0.8054  0.1417
 3748SOL    HW122880   3.366   0.091   2.341 -0.2920 -1.0194 -0.0652
 3748SOL    HW222881   3.238   0.074   2.280 -0.5182 -0.4802 -0.2185
 3749SOL     OW22882   0.203   0.255   6.560  0.2595 -0.0174 -0.6448
 3749SOL    HW122883   0.229   0.163   6.564  0.9815  0.2311  0.4523
 3749SOL    HW222884   0.233   0.285   6.475  0.6084 -1.3347 -0.9826
 3750SOL     OW22885   2.487   4.437   8.635 -0.3881 -0.5319 -0.1295
 3750SOL    HW122886   2.438   4.468   8.711 -0.1869 -1.7570  0.5040
 3750SOL    HW222887   2.414   4.407   8.580 -1.6868  2.6389 -0.1286
 3751SOL     OW22888   4.556   2.918  15.310  0.2965  0.6758 -0.7729
 3751SOL    HW122889   4.494   2.845  15.307  0.0358  0.8196  1.5463
 3751SOL    HW222890   4.642   2.881  15.328  0.0886 -0.5395 -2.2318
 3752SOL     OW22891   4.294   3.220   8.226  0.3055 -0.3816 -0.2850
 3752SOL    HW122892   4.281   3.154   8.157 -2.7819  0.0948 -0.1600
 3752SOL    HW222893   4.235   3.184   8.293  0.2353  2.6337  1.2639
 3753SOL     OW22894   1.450   2.127   5.323 -0.3623 -0.0589  0.6130
 3753SOL    HW122895   1.385   2.061   5.348 -2.1581  1.2740 -0.5094
 3753SOL    HW222896   1.411   2.148   5.238  1.1384 -0.1342 -0.0941
 3754SOL     OW22897   4.298   0.913   9.657  1.3184 -0.2099  0.3797
 3754SOL    HW122898   4.273   0.860   9.733 -1.8235 -1.0725 -1.2579
 3754SOL    HW222899   4.348   0.854   9.602  0.5568 -1.7529  1.3391
 3755SOL     OW22900   2.991   0.308   2.333 -0.3490  0.5997 -0.6511
 3755SOL    HW122901   2.905   0.267   2.345 -0.7843  2.1294  1.6525
 3755SOL    HW222902   3.015   0.283   2.244  0.2932  0.2192 -0.3659
 3756SOL     OW22903   3.693   1.082   6.704  0.6239  0.5594 -0.7438
 3756SOL    HW122904   3.707   1.001   6.655  0.6565  0.5281 -0.6827
 3756SOL    HW222905   3.748   1.072   6.781 -1.0530  1.5183  0.5841
 3757SOL     OW22906   0.108   0.860  13.604 -0.0106 -0.1241  0.1331
 3757SOL    HW122907   0.164   0.870  13.682  1.4720  0.0021 -0.9403
 3757SOL    HW222908   0.135   0.771  13.583 -1.6171 -0.3116 -1.0359
 3758SOL     OW22909   3.274   3.661   8.497 -0.0309  0.5684  0.1533
 3758SOL    HW122910   3.268   3.567   8.512  0.2654  0.7175  1.2014
 3758SOL    HW222911   3.183   3.689   8.488  0.0526  1.1283  1.0363
 3759SOL     OW22912   0.631   1.243   7.948  0.1811 -0.1842  0.0750
 3759SOL    HW122913   0.658   1.323   7.993 -3.4885 -0.0661  2.0632
 3759SOL    HW222914   0.580   1.268   7.871 -1.5896 -0.5868  1.1194
 3760SOL     OW22915   4.632   1.287   3.465  0.1983  0.7125  0.2586
 3760SOL    HW122916   4.628   1.337   3.546 -1.1556 -0.6867  1.0672
 3760SOL    HW222917   4.548   1.243   3.480 -0.1384  0.7094 -1.5924
 3761SOL     OW22918   1.311   1.273   6.727  0.0608 -0.1313  0.0703
 3761SOL    HW122919   1.255   1.329   6.781  0.1591  0.6521 -0.6410
 3761SOL    HW222920   1.265   1.285   6.645 -2.9190  0.4450  1.8307
 3762SOL     OW22921   1.006   3.115   3.167 -0.3774  0.0738  0.5953
 3762SOL    HW122922   1.077   3.168   3.131 -2.1201  0.0774 -2.7682
 3762SOL    HW222923   0.957   3.183   3.214 -1.1414  0.6621 -1.0725
 3763SOL     OW22924   4.618   0.325   3.848 -0.1692 -0.1514  0.0466
 3763SOL    HW122925   4.540   0.337   3.794 -1.7794  0.8746  2.6284
 3763SOL    HW222926   4.581   0.327   3.936 -2.0161 -1.7367 -0.6807
 3764SOL     OW22927   1.785   1.436   6.547  0.2452  0.6938  0.3689
 3764SOL    HW122928   1.733   1.516   6.536 -0.9057 -0.1020 -0.0537
 3764SOL    HW222929   1.721   1.374   6.583  0.3514 -0.2706 -1.1146
 3765SOL     OW22930   4.266   1.357   0.521  0.3240  0.4055 -0.5424
 3765SOL    HW122931   4.335   1.311   0.473  2.1291  0.8569  1.6392
 3765SOL    HW222932   4.273   1.318   0.607  0.5726  0.6889 -0.4333
 3766SOL     OW22933   3.170   4.700  13.979  0.3686  0.2558  0.4438
 3766SOL    HW122934   3.164   0.035  14.042  0.4768  1.6740 -1.1700
 3766SOL    HW222935   3.078   4.689  13.954  0.4769  0.5573 -0.0723
 3767SOL     OW22936   1.435   3.564   6.832  0.4595 -0.3526  0.3215
 3767SOL    HW122937   1.479   3.546   6.749  1.1994  0.2972  0.5735
 3767SOL    HW222938   1.355   3.611   6.810  0.6667 -0.1990 -0.0947
 3768SOL     OW22939   1.807   3.646  12.689 -0.3146 -0.1069  0.5071
 3768SOL    HW122940   1.890   3.654  12.642 -0.7376  2.1373  0.1019
 3768SOL    HW222941   1.786   3.734  12.656  0.5296 -0.1917 -0.2696
 3769SOL     OW22942   3.422   0.017   2.499  0.7684  0.1541  0.1627
 3769SOL    HW122943   3.476   0.080   2.547  2.2786 -0.0494 -1.2662
 3769SOL    HW222944   3.455   4.668   2.526  0.9814 -0.3311 -1.6155
 3770SOL     OW22945   1.534   3.187   9.516  0.4128 -0.4316 -0.0168
 3770SOL    HW122946   1.611   3.132   9.501  1.8212  0.5213  3.7903
 3770SOL    HW222947   1.572   3.272   9.536  2.8479 -1.4925 -0.1198
 3771SOL     OW22948   0.409   0.616   8.113  0.2861  0.2418  0.1175
 3771SOL    HW122949   0.348   0.681   8.150 -0.1796  0.1495 -0.4938
 3771SOL    HW222950   0.410   0.635   8.020  3.4609 -1.5423 -0.1821
 3772SOL     OW22951   1.334   4.061   3.224  0.0890 -0.4486  0.0414
 3772SOL    HW122952   1.280   4.092   3.151 -0.9658 -0.2365  0.9051
 3772SOL    HW222953   1.294   3.981   3.258 -1.9847  1.0589  1.1577
 3773SOL     OW22954   4.724   1.857   5.568  0.2050  0.1326 -0.0641
 3773SOL    HW122955   4.694   1.770   5.544  1.4766 -0.9903  2.4962
 3773SOL    HW222956   0.016   1.853   5.659  0.4705 -1.1563 -0.2154
 3774SOL     OW22957   3.069   0.121   6.661  0.1941  0.2432 -0.0220
 3774SOL    HW122958   3.005   0.091   6.726  0.4041  0.9406  0.5078
 3774SOL    HW222959   3.125   0.044   6.656  1.3640  1.1867 -1.2350
 3775SOL     OW22960   2.346   2.963   1.597  0.0121  0.6604 -0.0786
 3775SOL    HW122961   2.264   2.921   1.624  0.5159  0.1573  0.6537
 3775SOL    HW222962   2.317   2.988   1.509 -1.3073 -0.9131 -0.1012
 3776SOL     OW22963   4.478   1.158   6.056 -0.0498  0.2319 -0.1572
 3776SOL    HW122964   4.569   1.176   6.082 -0.6201 -0.1012  2.0387
 3776SOL    HW222965   4.438   1.239   6.087  0.8987  0.4572  0.4926
 3777SOL     OW22966   0.697   1.730   3.776 -0.3531  0.2814  0.2963
 3777SOL    HW122967   0.709   1.808   3.830  0.2891 -0.3870  1.1340
 3777SOL    HW222968   0.663   1.664   3.838  3.0980 -4.9157 -3.3057
 3778SOL     OW22969   0.978   4.435  16.327  0.5010  0.6213  0.1357
 3778SOL    HW122970   0.924   4.366  16.288 -0.2301  0.5488  1.2653
 3778SOL    HW222971   1.050   4.453  16.266 -0.0612 -0.8769 -0.9801
 3779SOL     OW22972   2.489   0.242   3.899 -0.0131  0.1057 -0.5112
 3779SOL    HW122973   2.580   0.262   3.922  0.1688 -1.1408 -0.1583
 3779SOL    HW222974   2.499   0.243   3.804  0.5696 -0.9529 -0.4659
 3780SOL     OW22975   0.709   4.464  15.378 -0.3991  0.2665  0.2460
 3780SOL    HW122976   0.721   4.405  15.453 -1.1252 -0.8799 -0.5440
 3780SOL    HW222977   0.657   4.413  15.316  2.1423  1.2921 -2.7331
 3781SOL     OW22978   3.562   2.379   3.257 -0.2277 -0.0535  0.3174
 3781SOL    HW122979   3.529   2.290   3.262  0.7577 -0.5401 -1.6916
 3781SOL    HW222980   3.650   2.374   3.218 -0.2711 -0.5504  0.2872
 3782SOL     OW22981   3.235   4.226  13.938  0.2436 -0.5599  0.0802
 3782SOL    HW122982   3.273   4.158  13.882  0.2611  0.6189 -1.3455
 3782SOL    HW222983   3.167   4.257  13.878  0.8708  1.3883  0.3935
 3783SOL     OW22984   2.907   2.626   6.913  0.4243 -0.2001 -0.3406
 3783SOL    HW122985   2.872   2.712   6.889  0.5767  0.1899  0.8340
 3783SOL    HW222986   2.952   2.595   6.834 -0.4845 -3.3547  0.3820
 3784SOL     OW22987   4.003   2.177   8.522  0.1726  0.1200 -0.0516
 3784SOL    HW122988   3.939   2.147   8.458  1.1592  0.0761 -1.0197
 3784SOL    HW222989   3.954   2.251   8.556  0.3384 -1.1031  2.8477
 3785SOL     OW22990   4.722   2.894  13.852 -0.3165  0.4738  0.3475
 3785SOL    HW122991   0.022   2.810  13.876  0.7727  1.1769  1.1253
 3785SOL    HW222992   4.713   2.875  13.758 -1.4757  2.2366  0.0917
 3786SOL     OW22993   0.571   4.060   1.781 -0.4480  0.3597  0.6646
 3786SOL    HW122994   0.506   4.126   1.804 -1.2353  0.2009 -1.0351
 3786SOL    HW222995   0.617   4.101   1.707 -0.3165 -0.4887  0.2764
 3787SOL     OW22996   2.344   0.797   6.721 -0.3517 -0.4602  0.3513
 3787SOL    HW122997   2.352   0.832   6.809  0.3341 -0.0291  0.1191
 3787SOL    HW222998   2.439   0.793   6.707 -0.3314  0.1977  0.2881
 3788SOL     OW22999   1.072   2.413  14.118  0.2815  0.5038 -0.1709
 3788SOL    HW123000   1.111   2.428  14.032  2.1382 -1.9340  0.2460
 3788SOL    HW223001   1.110   2.331  14.151 -1.9385 -0.4653 -0.0322
 3789SOL     OW23002   4.167   4.706   4.015  0.3067 -0.3381  0.4456
 3789SOL    HW123003   4.188   4.621   4.053  2.1557  1.3587  3.2228
 3789SOL    HW223004   4.247   0.018   4.032 -0.2439  1.8539 -3.2624
 3790SOL     OW23005   3.559   3.063   0.208 -0.3821 -0.3345  0.7180
 3790SOL    HW123006   3.542   3.155   0.225 -0.8403  0.1416 -2.3144
 3790SOL    HW223007   3.625   3.053   0.139 -1.5938 -0.2954 -0.4372
 3791SOL     OW23008   0.268   3.962   9.870 -0.0543  0.1037  0.5963
 3791SOL    HW123009   0.267   4.052   9.838 -0.3528 -0.2128 -0.3122
 3791SOL    HW223010   0.341   3.954   9.930 -2.2648 -1.5752  3.0844
 3792SOL     OW23011   0.990   4.386   9.491 -0.0456 -0.2398 -0.0981
 3792SOL    HW123012   0.920   4.321   9.503 -1.4132  1.4185  0.8890
 3792SOL    HW223013   1.024   4.366   9.404 -0.7380 -0.8279 -0.2353
 3793SOL     OW23014   4.023   1.774  11.272  0.4329 -0.2749  0.0094
 3793SOL    HW123015   3.948   1.831  11.258  0.4011  0.0870  1.7313
 3793SOL    HW223016   4.043   1.795  11.363  1.7456 -2.9006  0.3202
 3794SOL     OW23017   1.593   0.099   3.763  0.2294  0.4287 -0.4768
 3794SOL    HW123018   1.582   0.186   3.799 -2.2865 -0.0193 -0.1922
 3794SOL    HW223019   1.579   0.041   3.838 -0.1353  0.6389 -0.3879
 3795SOL     OW23020   1.201   2.238   5.533  0.0590 -0.5800 -0.2524
 3795SOL    HW123021   1.257   2.162   5.518  0.2280 -0.3087 -0.9641
 3795SOL    HW223022   1.171   2.249   5.443 -0.0134  0.8874 -0.0497
 3796SOL     OW23023   2.680   1.610   2.094  0.5440  0.0332  0.5860
 3796SOL    HW123024   2.769   1.640   2.111 -0.4756  2.2891  2.0329
 3796SOL    HW223025   2.657   1.655   2.013  1.4054  0.2147  0.4409
 3797SOL     OW23026   0.342   3.134   8.336 -0.4942  0.9102 -0.2413
 3797SOL    HW123027   0.257   3.159   8.300 -0.9106 -0.6997 -0.4099
 3797SOL    HW223028   0.321   3.082   8.414 -0.0585  1.0461 -0.0349
 3798SOL     OW23029   1.637   3.163   6.982  0.5304  0.6946  0.4190
 3798SOL    HW123030   1.631   3.161   6.887  1.3437 -1.6688  0.4303
 3798SOL    HW223031   1.687   3.082   6.987  3.1406  2.1870 -1.2597
 3799SOL     OW23032   4.426   4.076   5.853  0.0755  0.2052 -0.0510
 3799SOL    HW123033   4.465   4.028   5.780  0.3642 -0.2308  0.3810
 3799SOL    HW223034   4.471   4.038   5.929  0.5349  0.0275 -0.4159
 3800SOL     OW23035   4.406   2.569   9.278 -0.0892  0.1685  1.0044
 3800SOL    HW123036   4.433   2.478   9.265 -0.7619  0.4480 -2.3638
 3800SOL    HW223037   4.450   2.590   9.361  2.0328 -1.4321  0.2684
 3801SOL     OW23038   4.155   2.014   6.489  0.0435 -0.8234  0.5765
 3801SOL    HW123039   4.175   2.046   6.401 -0.4614 -1.0874  0.3674
 3801SOL    HW223040   4.219   1.943   6.499 -0.6771 -1.5766 -0.1289
 3802SOL     OW23041   0.307   0.659  13.685 -0.1490 -0.4943  0.2410
 3802SOL    HW123042   0.305   0.565  13.704 -1.3709 -0.4787  0.1667
 3802SOL    HW223043   0.322   0.665  13.591 -2.1267  1.5127  0.0708
 3803SOL     OW23044   1.606   2.431   9.530  0.1979  0.4274 -0.6080
 3803SOL    HW123045   1.668   2.444   9.458  0.3053  2.5313 -0.1318
 3803SOL    HW223046   1.581   2.521   9.551 -1.8306 -0.3207  0.1080
 3804SOL     OW23047   2.309   1.502   4.899  0.5062  0.3960 -0.2641
 3804SOL    HW123048   2.338   1.588   4.867  0.3508  0.8052  0.7046
 3804SOL    HW223049   2.382   1.457   4.856  0.6109  1.7750 -1.5524
 3805SOL     OW23050   4.651   1.790   6.420 -0.6134  0.1816  0.5505
 3805SOL    HW123051   4.557   1.797   6.436 -0.8041  3.9211 -2.2048
 3805SOL    HW223052   4.685   1.868   6.463  1.5328 -1.3132  1.5348
 3806SOL     OW23053   3.800   0.210   3.834 -0.7511  0.2350  0.1074
 3806SOL    HW123054   3.875   0.271   3.831 -1.4812  1.0909 -0.6560
 3806SOL    HW223055   3.721   0.256   3.805 -1.6618  0.1682  2.5144
 3807SOL     OW23056   3.838   3.963   8.153  0.1768 -0.2244  0.7901
 3807SOL    HW123057   3.837   3.997   8.063 -1.8136  0.5960  1.1389
 3807SOL    HW223058   3.925   3.980   8.191  1.1513 -1.3390 -0.9367
 3808SOL     OW23059   2.600   3.041   6.326 -0.2890 -0.2407  0.0662
 3808SOL    HW123060   2.695   3.038   6.326 -0.2386  1.1611 -1.0180
 3808SOL    HW223061   2.584   3.133   6.345  0.7128 -0.3780  1.5532
 3809SOL     OW23062   3.975   1.883  14.611 -0.3178  0.1963  0.0351
 3809SOL    HW123063   3.916   1.904  14.684 -1.4224  0.0234 -0.8052
 3809SOL    HW223064   3.972   1.967  14.564 -1.7636  0.1390  0.0199
 3810SOL     OW23065   4.422   2.273   3.246  0.2798  0.0326  0.4819
 3810SOL    HW123066   4.513   2.267   3.274  0.0256 -0.9653  1.0713
 3810SOL    HW223067   4.403   2.363   3.275  0.7090  1.4524 -3.6497
 3811SOL     OW23068   1.870   3.874  13.110 -0.0242 -0.1245  0.3092
 3811SOL    HW123069   1.867   3.950  13.169  0.7268  0.6697 -0.6826
 3811SOL    HW223070   1.793   3.824  13.135 -0.5768  1.2732  1.4248
 3812SOL     OW23071   2.520   2.647   4.355  0.3700  0.1946  0.4060
 3812SOL    HW123072   2.432   2.633   4.390 -0.7610  1.9022 -1.7580
 3812SOL    HW223073   2.578   2.655   4.431  0.0471  0.1651  0.6566
 3813SOL     OW23074   0.030   3.710   8.782 -0.2712 -0.1123  0.5915
 3813SOL    HW123075   4.682   3.749   8.764  0.2677 -0.4533 -2.6590
 3813SOL    HW223076   0.005   3.618   8.792 -0.1349 -0.0609  1.3891
 3814SOL     OW23077   4.695   4.169   2.003  0.2377  0.1668  0.0970
 3814SOL    HW123078   4.734   4.253   1.982 -2.5233  1.2855 -0.4858
 3814SOL    HW223079   0.033   4.109   1.998 -1.3406 -1.9790  2.0660
 3815SOL     OW23080   4.199   4.658   8.067  0.3297  0.0447  0.1781
 3815SOL    HW123081   4.211   4.731   8.006  2.6332 -0.8178 -0.3995
 3815SOL    HW223082   4.290   4.628   8.070  1.1397  2.5062  0.1731
 3816SOL     OW23083   2.717   0.341   8.050 -0.1495  0.3620 -0.4209
 3816SOL    HW123084   2.771   0.371   8.123 -0.9639 -0.3034  0.4695
 3816SOL    HW223085   2.787   0.332   7.985  1.8295  1.5211  1.5374
 3817SOL     OW23086   3.765   4.485  14.729  0.0637 -0.4341  0.0651
 3817SOL    HW123087   3.778   4.409  14.674  0.0599 -0.1623 -0.3092
 3817SOL    HW223088   3.674   4.501  14.705 -0.2590 -1.8864  0.3651
 3818SOL     OW23089   2.688   4.209   1.204 -0.4841 -0.1299 -0.1525
 3818SOL    HW123090   2.637   4.129   1.216 -0.7343  0.3712  1.9615
 3818SOL    HW223091   2.617   4.266   1.176 -2.7435 -3.3790 -1.1128
 3819SOL     OW23092   3.147   0.509   5.496 -0.5365 -0.3727  0.1471
 3819SOL    HW123093   3.059   0.523   5.530 -0.5937  0.0930 -0.1949
 3819SOL    HW223094   3.164   0.420   5.528  1.8495 -0.7813 -2.2850
 3820SOL     OW23095   1.765   1.739   6.211  0.1225  0.1077  0.3035
 3820SOL    HW123096   1.703   1.677   6.173 -0.8385  0.7340  0.8427
 3820SOL    HW223097   1.734   1.718   6.299  1.5768 -1.6903  0.3944
 3821SOL     OW23098   3.089   3.601   4.882 -0.0966  0.3551 -0.2074
 3821SOL    HW123099   3.047   3.631   4.801  0.5279  1.4569 -0.1241
 3821SOL    HW223100   3.075   3.674   4.941  0.8439  0.4634 -0.1155
 3822SOL     OW23101   3.989   0.746  13.830 -0.1242  0.4981  0.4778
 3822SOL    HW123102   3.944   0.761  13.747  1.3045  1.4530 -0.1253
 3822SOL    HW223103   4.048   0.675  13.804 -0.3284  0.7838 -0.7622
 3823SOL     OW23104   0.877   4.500  12.735  0.1683  0.9798 -0.0847
 3823SOL    HW123105   0.785   4.492  12.761 -0.0818  4.6508  0.2748
 3823SOL    HW223106   0.913   4.521  12.821  0.5052  1.3638 -0.3223
 3824SOL     OW23107   3.095   1.748   5.558  0.0043 -0.9640  0.0985
 3824SOL    HW123108   3.111   1.820   5.619 -0.5055 -0.5190 -0.2899
 3824SOL    HW223109   3.001   1.762   5.544  0.3110 -0.5205 -1.5862
 3825SOL     OW23110   1.884   1.423   0.788  0.1961 -0.4306 -0.1180
 3825SOL    HW123111   1.788   1.429   0.783 -0.0069 -1.6800  2.2283
 3825SOL    HW223112   1.903   1.485   0.859  1.8535 -1.3113  0.1907
 3826SOL     OW23113   1.127   1.718   6.197  0.3745  0.2813  0.0866
 3826SOL    HW123114   1.051   1.710   6.255  1.1520 -4.0272  0.5289
 3826SOL    HW223115   1.113   1.793   6.140 -0.1897  0.6103  0.6581
 3827SOL     OW23116   3.499   2.804   4.808 -0.1981 -0.5214  0.3792
 3827SOL    HW123117   3.479   2.801   4.715  1.8604 -0.1823 -0.0738
 3827SOL    HW223118   3.427   2.745   4.832 -0.3805 -1.4075 -2.3644
 3828SOL     OW23119   0.978   2.553   7.877  0.6510 -0.2229  0.2129
 3828SOL    HW123120   1.059   2.583   7.919 -0.5815  0.7523  1.8685
 3828SOL    HW223121   0.922   2.623   7.909  0.6915 -0.8582  1.7069
 3829SOL     OW23122   0.042   2.742   5.656  0.4833  0.0020 -0.2566
 3829SOL    HW123123   0.132   2.735   5.624  0.9519  1.5237  0.7008
 3829SOL    HW223124   0.016   2.799   5.584  0.2172 -0.8555 -0.8385
 3830SOL     OW23125   1.027   4.668   3.125  0.2615 -0.4256 -0.2858
 3830SOL    HW123126   1.028   0.018   3.165  1.2061 -0.2401 -0.7124
 3830SOL    HW223127   1.106   4.624   3.155 -0.0839  0.4995  1.9478
 3831SOL     OW23128   1.441   4.192   4.603 -0.0677 -0.1729 -0.2861
 3831SOL    HW123129   1.432   4.135   4.679 -1.3475 -1.3776 -1.3320
 3831SOL    HW223130   1.520   4.157   4.561 -0.0707  0.9353 -1.2064
 3832SOL     OW23131   0.877   4.458   3.364 -0.0488  0.4987  0.3216
 3832SOL    HW123132   0.844   4.504   3.287  0.8464  1.3000  0.4136
 3832SOL    HW223133   0.941   4.409   3.312  1.2419 -0.0171  2.3856
 3833SOL     OW23134   3.666   2.191   2.779  0.6000  0.5092 -0.7556
 3833SOL    HW123135   3.632   2.280   2.783 -1.4734 -0.1311 -3.5164
 3833SOL    HW223136   3.606   2.151   2.842  0.3175 -0.8179 -1.8628
 3834SOL     OW23137   3.761   4.572   4.598 -0.3587  0.1179  0.4504
 3834SOL    HW123138   3.705   4.603   4.526 -1.4329  0.3757  1.4025
 3834SOL    HW223139   3.850   4.581   4.562 -0.9916  2.1514 -0.6532
 3835SOL     OW23140   1.645   4.615   7.057 -0.4047  0.3891  0.1270
 3835SOL    HW123141   1.713   4.548   7.066 -0.0241  0.5261 -1.6692
 3835SOL    HW223142   1.681   4.680   7.117  0.1623  0.1140  0.0823
 3836SOL     OW23143   4.121   2.099   5.430  0.5865  0.1244 -0.3620
 3836SOL    HW123144   4.162   2.167   5.378 -1.3125  0.8308 -0.9365
 3836SOL    HW223145   4.190   2.091   5.496  1.7640 -2.8697 -1.9867
 3837SOL     OW23146   4.527   0.167  12.972  0.3579 -0.3521  0.1415
 3837SOL    HW123147   4.581   0.101  13.015  0.3892 -1.2014 -1.1903
 3837SOL    HW223148   4.558   0.248  13.012 -0.4410  0.5149 -0.9696
 3838SOL     OW23149   0.393   2.513   3.957  0.1078  0.1735  0.0894
 3838SOL    HW123150   0.360   2.526   3.868  1.9909  1.5660 -0.4030
 3838SOL    HW223151   0.403   2.604   3.983 -0.1478 -0.2382  1.6047
 3839SOL     OW23152   3.744   0.547   7.203 -0.3911  0.4960  0.4134
 3839SOL    HW123153   3.733   0.453   7.190  1.8557  0.1624  0.9151
 3839SOL    HW223154   3.839   0.559   7.210 -0.3069  0.0957 -0.0121
 3840SOL     OW23155   2.283   2.860   5.165  0.4849 -0.0173  0.3252
 3840SOL    HW123156   2.267   2.884   5.257  0.4800 -1.0427  0.5892
 3840SOL    HW223157   2.201   2.815   5.148  0.5163  0.2985 -0.6544
 3841SOL     OW23158   0.817   4.195  10.718 -0.0193 -0.3456 -0.6647
 3841SOL    HW123159   0.800   4.102  10.733 -0.5771 -0.3543 -1.3296
 3841SOL    HW223160   0.800   4.224  10.808  0.5111  1.1727 -1.0573
 3842SOL     OW23161   4.230   2.208   2.037 -0.6314  0.3701 -0.0154
 3842SOL    HW123162   4.225   2.184   2.130  2.0801 -0.3762 -0.0617
 3842SOL    HW223163   4.195   2.130   1.995 -1.2054  0.0519  1.0535
 3843SOL     OW23164   4.345   1.764   5.412  0.0473 -0.3148  0.0504
 3843SOL    HW123165   4.422   1.712   5.433  0.6297  0.1031 -1.0536
 3843SOL    HW223166   4.300   1.707   5.350 -3.3569  1.7587  0.5734
 3844SOL     OW23167   2.122   4.350   5.344  0.0636 -0.3611 -0.8694
 3844SOL    HW123168   2.100   4.423   5.402  0.4677 -2.0936  1.4609
 3844SOL    HW223169   2.097   4.275   5.398 -0.6952 -1.1576 -2.3361
 3845SOL     OW23170   3.032   4.347  16.716  0.1294 -0.2782  0.3684
 3845SOL    HW123171   2.982   4.422  16.684  1.8031  0.5237 -0.3567
 3845SOL    HW223172   3.117   4.390  16.707 -0.9844  2.1375  1.4229
 3846SOL     OW23173   2.841   4.686   4.278  0.2338  0.3545 -1.1550
 3846SOL    HW123174   2.790   4.626   4.332  1.9128 -0.1196 -0.1092
 3846SOL    HW223175   2.788   0.028   4.280 -0.4534 -0.1856  1.5671
 3847SOL     OW23176   3.611   3.092   5.994 -0.4949  0.0282 -0.1718
 3847SOL    HW123177   3.580   3.174   6.030  1.8418  0.7191  0.2714
 3847SOL    HW223178   3.623   3.034   6.069 -0.7291  0.9474  0.5677
 3848SOL     OW23179   2.417   2.265   7.334 -0.0615 -0.0617  0.1716
 3848SOL    HW123180   2.442   2.219   7.254  3.0052  1.3940  0.2619
 3848SOL    HW223181   2.465   2.209   7.395 -1.9744  0.8174  2.4835
 3849SOL     OW23182   4.329   0.226   8.252  0.7332  0.2952  0.1551
 3849SOL    HW123183   4.386   0.152   8.233 -0.0159 -0.5753  1.3392
 3849SOL    HW223184   4.346   0.243   8.344 -2.1939 -1.3057  0.9874
 3850SOL     OW23185   3.958   2.171   0.361 -0.0310 -0.2892 -0.2744
 3850SOL    HW123186   3.987   2.079   0.359 -0.3713 -0.3907 -0.5966
 3850SOL    HW223187   3.879   2.154   0.412  1.9177 -1.1736  2.4649
 3851SOL     OW23188   2.207   2.305   2.529 -0.2492 -0.0877 -0.3293
 3851SOL    HW123189   2.215   2.337   2.619 -0.0790 -0.6854 -0.1308
 3851SOL    HW223190   2.179   2.214   2.538  0.4550 -0.3687 -1.0023
 3852SOL     OW23191   3.147   2.196   7.149 -0.0982 -0.1934 -0.4477
 3852SOL    HW123192   3.076   2.236   7.198  0.1741 -1.8804  1.3338
 3852SOL    HW223193   3.105   2.173   7.066  0.6555 -0.3426 -0.7905
 3853SOL     OW23194   4.183   3.408   3.925  0.1545 -0.3306 -0.3795
 3853SOL    HW123195   4.166   3.389   4.017  0.3987 -0.3359 -0.3358
 3853SOL    HW223196   4.225   3.494   3.918  1.4671 -0.7635  2.1209
 3854SOL     OW23197   2.946   0.630   1.507  0.1809  0.1400 -0.4821
 3854SOL    HW123198   2.976   0.627   1.416 -0.7995  0.2807 -0.8067
 3854SOL    HW223199   2.883   0.558   1.511 -1.6118  1.6004 -2.1445
 3855SOL     OW23200   3.817   1.299   2.092  0.1782  0.0729  0.5875
 3855SOL    HW123201   3.738   1.351   2.107  1.1204  1.2666  1.4446
 3855SOL    HW223202   3.835   1.277   2.183  3.8920  1.0107  0.0594
 3856SOL     OW23203   4.697   0.020   2.799  0.1359 -0.0243  0.3679
 3856SOL    HW123204   4.631   0.073   2.844  1.8198  1.7714  0.7140
 3856SOL    HW223205   0.034   0.080   2.799  0.7085 -0.7323  0.5699
 3857SOL     OW23206   3.026   1.967   7.979  0.5642  0.1291 -0.0770
 3857SOL    HW123207   3.027   1.873   7.963 -0.7604  0.2110 -0.6443
 3857SOL    HW223208   3.012   2.000   7.890  0.3310  0.7374  0.1829
 3858SOL     OW23209   3.782   3.460  16.003  0.3236 -0.0910 -0.1140
 3858SOL    HW123210   3.703   3.476  15.952  0.9367  0.8479 -0.7671
 3858SOL    HW223211   3.750   3.498  16.085 -0.1670 -1.3493  0.2719
 3859SOL     OW23212   2.860   3.010   6.316  0.2818 -0.0175  0.0791
 3859SOL    HW123213   2.871   2.948   6.388  1.4431 -1.2685 -1.1859
 3859SOL    HW223214   2.949   3.046   6.317  1.1081 -2.0614 -0.6612
 3860SOL     OW23215   0.358   3.650  15.022  0.1570 -0.4165  0.0935
 3860SOL    HW123216   0.287   3.585  15.021 -1.1211  0.9716  0.0588
 3860SOL    HW223217   0.314   3.722  14.977  1.1478 -1.1457 -2.0244
 3861SOL     OW23218   1.455   3.593   2.107  0.0702  0.1556 -0.2428
 3861SOL    HW123219   1.370   3.634   2.116 -0.3026 -0.8702  0.8876
 3861SOL    HW223220   1.440   3.541   2.028  1.4589 -1.3850  0.4866
 3862SOL     OW23221   1.130   2.079   4.058  0.0339  0.1298 -0.1001
 3862SOL    HW123222   1.173   2.098   3.975  0.3126  1.6948  0.4171
 3862SOL    HW223223   1.186   2.007   4.087  0.9709 -0.7654 -4.1582
 3863SOL     OW23224   0.219   2.966   8.019  0.1465  0.1703  0.2245
 3863SOL    HW123225   0.191   2.984   8.108  1.8465  0.4088  0.7097
 3863SOL    HW223226   0.188   2.876   8.005 -2.0568  0.7166  1.4981
 3864SOL     OW23227   1.376   1.697  16.586  0.5138  0.5286  0.0532
 3864SOL    HW123228   1.330   1.616  16.607  1.6398  0.8228  3.5334
 3864SOL    HW223229   1.454   1.685  16.639 -0.4406  0.3260  1.4232
 3865SOL     OW23230   2.059   2.925   6.990  0.9348 -0.2387  0.1637
 3865SOL    HW123231   1.971   2.927   7.029  0.1699  1.6060 -1.7095
 3865SOL    HW223232   2.049   2.988   6.919  1.6831  0.2511  0.4973
 3866SOL     OW23233   2.101   0.322   2.558 -0.0151 -0.0661  0.3053
 3866SOL    HW123234   2.063   0.268   2.628 -0.5786 -0.7291 -0.5107
 3866SOL    HW223235   2.030   0.385   2.570  1.1870  1.1105  1.1515
 3867SOL     OW23236   3.866   2.371  15.943 -0.4488  0.7211  0.0038
 3867SOL    HW123237   3.809   2.310  15.990  0.2941  1.3653  1.7396
 3867SOL    HW223238   3.932   2.412  15.998 -0.0611 -0.8595  0.7257
 3868SOL     OW23239   4.456   2.216   9.465  0.2130 -0.3108 -0.1467
 3868SOL    HW123240   4.389   2.284   9.471  1.2589  0.9131 -2.3034
 3868SOL    HW223241   4.529   2.257   9.513  0.2028 -0.8851  0.3537
 3869SOL     OW23242   2.732   3.714   2.492  0.4694  0.1533  0.0191
 3869SOL    HW123243   2.684   3.679   2.567  0.2126 -1.5492 -0.9467
 3869SOL    HW223244   2.718   3.652   2.420  0.9725 -1.3440  1.2285
 3870SOL     OW23245   4.676   4.235   5.881 -0.1517 -0.8201 -0.1196
 3870SOL    HW123246   4.665   4.170   5.951  1.0854 -0.6931  0.1974
 3870SOL    HW223247   0.035   4.229   5.881 -0.0914  0.2805 -1.6891
 3871SOL     OW23248   4.139   2.547   0.204 -0.4313  0.6170 -1.0604
 3871SOL    HW123249   4.050   2.517   0.182  0.9818 -3.4304 -1.3014
 3871SOL    HW223250   4.125   2.599   0.283 -0.4925 -2.3835  0.9135
 3872SOL     OW23251   4.094   2.273   6.709 -0.3992 -0.3169  0.3014
 3872SOL    HW123252   4.168   2.261   6.769  0.5510  2.7281 -0.2538
 3872SOL    HW223253   4.059   2.360   6.729 -0.7466 -0.0428 -1.5266
 3873SOL     OW23254   2.277   4.053   1.589  0.0592  0.1240 -0.0442
 3873SOL    HW123255   2.361   4.066   1.633  0.0718  3.2236 -0.9903
 3873SOL    HW223256   2.296   3.965   1.553 -1.1976  0.0887 -0.5981
 3874SOL     OW23257   3.987   3.012   5.139 -0.7489 -0.0661 -0.3502
 3874SOL    HW123258   4.047   3.082   5.163 -3.0330  1.5026  0.7770
 3874SOL    HW223259   3.930   3.009   5.216 -0.9460  1.1618 -0.4431
 3875SOL     OW23260   4.324   0.373   2.157  0.4882 -0.2852  0.5239
 3875SOL    HW123261   4.333   0.279   2.173  0.5727 -0.6305 -1.5359
 3875SOL    HW223262   4.396   0.410   2.209 -0.3125  0.8393  0.8169
 3876SOL     OW23263   0.133   3.369   4.162 -0.0818  0.2939  0.0833
 3876SOL    HW123264   0.194   3.432   4.201 -0.8193  0.6246  0.7143
 3876SOL    HW223265   0.186   3.289   4.161 -2.0063 -0.9596 -0.1452
 3877SOL     OW23266   4.403   1.873   2.178 -0.4892 -0.0123  0.2768
 3877SOL    HW123267   4.354   1.942   2.222 -0.7013 -1.3787  2.1531
 3877SOL    HW223268   4.348   1.859   2.100 -0.8400 -1.6350  0.7974
 3878SOL     OW23269   0.284   2.779   5.534 -0.2030  0.4589 -0.2774
 3878SOL    HW123270   0.280   2.806   5.442  0.9644  0.5756 -0.2909
 3878SOL    HW223271   0.345   2.844   5.569 -2.0736  2.7242 -1.2467
 3879SOL     OW23272   3.738   0.796   6.624 -0.6536  0.1242 -0.3082
 3879SOL    HW123273   3.791   0.763   6.552  0.5239  0.4474  0.4097
 3879SOL    HW223274   3.807   0.825   6.684 -1.4057 -1.1711  1.1966
 3880SOL     OW23275   2.172   0.035  15.623 -0.3862  0.2009 -0.4143
 3880SOL    HW123276   2.170   0.059  15.715 -0.7845  1.4635 -0.7400
 3880SOL    HW223277   2.126   0.114  15.593  0.5987  0.8113 -0.3099
 3881SOL     OW23278   1.288   0.321   1.729  0.5304 -0.3582 -0.1277
 3881SOL    HW123279   1.338   0.300   1.808 -2.3110  0.1306  1.7762
 3881SOL    HW223280   1.364   0.367   1.692  0.6092  1.5747  2.4505
 3882SOL     OW23281   4.731   3.482   9.450  0.5565  0.5954 -0.5375
 3882SOL    HW123282   0.079   3.519   9.472  0.5212  1.2615 -1.5601
 3882SOL    HW223283   4.683   3.487   9.533  0.1259  1.8792 -0.8743
 3883SOL     OW23284   2.709   2.378  13.808  0.5520 -0.2243 -0.2390
 3883SOL    HW123285   2.633   2.417  13.850 -1.1105 -0.0777 -3.3531
 3883SOL    HW223286   2.778   2.381  13.875 -0.8358 -0.1617  1.1728
 3884SOL     OW23287   0.368   4.517   5.045 -0.4339 -0.1362  0.0851
 3884SOL    HW123288   0.367   4.565   4.962  1.3614 -1.7782 -0.8933
 3884SOL    HW223289   0.373   4.593   5.104 -1.8967  0.6057 -0.7327
 3885SOL     OW23290   3.812   2.194   2.103 -0.5556  0.7607 -0.4607
 3885SOL    HW123291   3.872   2.265   2.127 -0.3793  0.5565 -0.3019
 3885SOL    HW223292   3.771   2.170   2.186  2.6381 -1.1025  0.5673
 3886SOL     OW23293   2.252   1.866   7.080 -0.1069  0.3713 -0.0093
 3886SOL    HW123294   2.304   1.787   7.095 -2.8890 -0.8219  3.4229
 3886SOL    HW223295   2.202   1.873   7.162  1.9835  2.0298  1.1206
 3887SOL     OW23296   0.776   1.177   4.357  0.3812 -0.7316  0.0918
 3887SOL    HW123297   0.784   1.270   4.378  0.9039 -0.5777 -0.8178
 3887SOL    HW223298   0.687   1.160   4.388 -0.2700  0.9675 -0.8931
 3888SOL     OW23299   1.087   2.901   9.385  0.1461 -0.9522  0.1098
 3888SOL    HW123300   1.034   2.966   9.429 -0.1231 -0.7880 -0.4516
 3888SOL    HW223301   1.025   2.862   9.323 -1.4558 -0.1065  1.1884
 3889SOL     OW23302   1.641   0.387   3.246  0.4756 -0.7517 -0.1257
 3889SOL    HW123303   1.562   0.366   3.295  0.9603 -0.2913  0.8424
 3889SOL    HW223304   1.704   0.398   3.317 -0.4615  1.6500  0.3168
 3890SOL     OW23305   1.778   0.882  13.337  0.4529 -0.2217  0.2403
 3890SOL    HW123306   1.704   0.898  13.395  0.5444 -2.1656  0.8684
 3890SOL    HW223307   1.784   0.787  13.338  0.4510 -0.2278 -0.0971
 3891SOL     OW23308   2.949   2.247   6.035 -0.4646 -0.0936 -0.4137
 3891SOL    HW123309   2.937   2.321   6.094  0.7935 -1.3492  1.4524
 3891SOL    HW223310   2.923   2.290   5.954 -4.4972  1.6169  1.8299
 3892SOL     OW23311   0.880   2.733  10.305 -0.0540 -0.5911 -0.2471
 3892SOL    HW123312   0.891   2.731  10.400  2.0336  0.2340 -0.4550
 3892SOL    HW223313   0.804   2.789  10.289  1.2533  1.1164 -0.4949
 3893SOL     OW23314   4.031   3.129   7.883  0.5210 -0.2393  0.9871
 3893SOL    HW123315   4.047   3.222   7.898 -0.2129  0.1449 -0.6829
 3893SOL    HW223316   4.107   3.092   7.839  1.7352  1.1842  1.8842
 3894SOL     OW23317   4.448   2.795   1.921 -0.5123  0.4018 -0.2969
 3894SOL    HW123318   4.486   2.883   1.917  0.5001 -0.0751 -1.2220
 3894SOL    HW223319   4.422   2.785   1.829  0.5712 -2.3395 -0.3104
 3895SOL     OW23320   2.795   4.025   4.426 -0.2595 -0.1822  0.2118
 3895SOL    HW123321   2.703   4.034   4.452 -0.1984 -0.8156  0.6433
 3895SOL    HW223322   2.794   3.943   4.376  0.4020 -0.2754  0.3558
 3896SOL     OW23323   4.125   1.479  11.811 -0.1759 -0.4465  0.4696
 3896SOL    HW123324   4.191   1.509  11.748  0.4529 -2.2229  0.2581
 3896SOL    HW223325   4.140   1.384  11.804  0.5258 -0.3142  0.1537
 3897SOL     OW23326   2.240   3.336   3.400  0.3149 -0.4208  0.5856
 3897SOL    HW123327   2.257   3.397   3.472 -0.5697  2.1129 -1.3345
 3897SOL    HW223328   2.331   3.327   3.372  0.7058 -0.6116  1.9368
 3898SOL     OW23329   1.674   3.388   1.197 -0.3007  0.0523  0.0446
 3898SOL    HW123330   1.624   3.388   1.278  0.0879 -0.9609  0.2818
 3898SOL    HW223331   1.614   3.408   1.125 -3.9556 -2.4143  2.4105
 3899SOL     OW23332   3.496   1.145   7.895 -0.5157  0.1947  0.0428
 3899SOL    HW123333   3.522   1.076   7.955  2.7702  1.7447  0.3967
 3899SOL    HW223334   3.571   1.204   7.898  0.2454 -0.8282  0.7948
 3900SOL     OW23335   1.404   0.222   1.408  0.0993 -0.5077  0.3495
 3900SOL    HW123336   1.418   0.308   1.448 -1.3777  0.4463 -1.1611
 3900SOL    HW223337   1.462   0.159   1.450 -0.7495 -1.3729  0.2349
 3901SOL     OW23338   1.390   2.270   9.532  0.0182  0.2671 -0.0112
 3901SOL    HW123339   1.408   2.221   9.612  0.5532  0.4278 -0.0378
 3901SOL    HW223340   1.465   2.329   9.529  0.7467 -0.6837 -0.6376
 3902SOL     OW23341   0.332   2.350   5.250 -0.6131  0.0896 -0.2847
 3902SOL    HW123342   0.383   2.430   5.262 -0.4210 -0.0777  0.0053
 3902SOL    HW223343   0.263   2.358   5.316  0.1027 -0.0006  0.4645
 3903SOL     OW23344   4.209   0.003   6.680  0.1087 -0.2138 -0.1106
 3903SOL    HW123345   4.211   0.038   6.591  0.2310  1.4696  0.5534
 3903SOL    HW223346   4.118   0.020   6.702 -0.1540 -0.7131 -0.7826
 3904SOL     OW23347   2.099   4.559   9.586  0.3121 -0.2050 -0.4795
 3904SOL    HW123348   2.085   4.550   9.680 -0.9152  0.2773 -0.6090
 3904SOL    HW223349   2.013   4.547   9.545  0.3994 -2.8330  0.1155
 3905SOL     OW23350   0.609   0.014   3.066  0.3490 -0.2241 -0.4327
 3905SOL    HW123351   0.680   4.688   3.052 -1.5452 -2.7412  1.5297
 3905SOL    HW223352   0.561   4.704   3.133  2.3022  0.4082  1.4283
 3906SOL     OW23353   4.108   1.461   6.671 -0.4293 -0.4292 -0.3236
 3906SOL    HW123354   4.116   1.367   6.687 -0.6502 -0.2049  1.1477
 3906SOL    HW223355   4.115   1.496   6.760  1.7448 -1.6691 -0.0094
 3907SOL     OW23356   4.321   2.341   6.536 -0.7843  0.0925 -0.0968
 3907SOL    HW123357   4.399   2.286   6.530  0.1392  1.3718  0.0311
 3907SOL    HW223358   4.256   2.283   6.576  1.0053 -2.7990 -1.3467
 3908SOL     OW23359   1.357   3.397   7.779 -0.2604  0.1897 -0.4555
 3908SOL    HW123360   1.444   3.360   7.768  0.0824  0.5668  0.9060
 3908SOL    HW223361   1.298   3.341   7.728  1.1835 -0.5571 -1.2940
 3909SOL     OW23362   4.040   0.227   7.203 -0.4080 -0.1921  0.0865
 3909SOL    HW123363   3.946   0.227   7.221 -0.3841 -0.5441  0.2207
 3909SOL    HW223364   4.064   0.272   7.122 -3.0947 -1.1242 -1.2289
 3910SOL     OW23365   1.213   3.843   2.856  0.2595  0.0647 -0.0869
 3910SOL    HW123366   1.298   3.886   2.868 -0.0107  0.1231  1.5914
 3910SOL    HW223367   1.212   3.833   2.761 -0.2605  0.4015 -0.1131
 3911SOL     OW23368   4.005   0.990   1.445 -0.6582 -0.6276 -0.5785
 3911SOL    HW123369   4.042   1.026   1.526 -0.6632 -1.8763 -0.0214
 3911SOL    HW223370   4.074   1.004   1.380  0.1956  0.5666  0.5855
 3912SOL     OW23371   4.620   1.873   9.751 -0.0396 -0.3440 -0.1516
 3912SOL    HW123372   4.689   1.939   9.744 -1.1403  0.9235  1.0257
 3912SOL    HW223373   4.580   1.879   9.664  0.2621 -0.2149 -0.2815
 3913SOL     OW23374   0.402   4.252   1.825 -0.1728  0.1852  0.2832
 3913SOL    HW123375   0.419   4.304   1.746  0.6750  2.0970  1.7362
 3913SOL    HW223376   0.387   4.321   1.889  0.1001 -0.6871  1.2757
 3914SOL     OW23377   1.522   3.726  12.531  0.4565  0.5137 -0.1753
 3914SOL    HW123378   1.513   3.656  12.595  2.3359  0.0476 -0.4297
 3914SOL    HW223379   1.474   3.795  12.578 -0.1237 -0.5960  0.8503
 3915SOL     OW23380   0.343   2.947   4.671  0.1645  0.5710  0.4533
 3915SOL    HW123381   0.384   2.894   4.603 -0.1273  2.2151 -1.0095
 3915SOL    HW223382   0.398   3.021   4.645  2.5402 -1.2565  0.3376
 3916SOL     OW23383   3.651   2.745   6.000 -0.6754 -0.3816  0.4399
 3916SOL    HW123384   3.677   2.819   6.056 -0.3961 -0.2518  0.1396
 3916SOL    HW223385   3.566   2.769   5.962  0.3255  0.8534 -1.0344
 3917SOL     OW23386   0.227   4.040   6.086 -0.3766 -0.3047 -0.8990
 3917SOL    HW123387   0.133   4.050   6.100 -0.3284 -0.5864 -0.3785
 3917SOL    HW223388   0.237   4.110   6.021  0.3808 -1.9361 -2.5562
 3918SOL     OW23389   3.820   4.732  17.032 -0.1988 -0.2307  0.0215
 3918SOL    HW123390   3.895   4.675  17.016 -0.6926 -0.4669 -1.3875
 3918SOL    HW223391   3.840   0.078  16.990 -0.1127 -1.1978 -1.8189
 3919SOL     OW23392   1.543   3.901   7.826  0.5759 -0.9386 -0.0864
 3919SOL    HW123393   1.491   3.913   7.905  0.2747  0.7012 -0.5184
 3919SOL    HW223394   1.534   3.807   7.814 -3.4584 -0.7834  1.6910
 3920SOL     OW23395   2.658   1.253   6.035  0.3513 -0.0720  0.0877
 3920SOL    HW123396   2.652   1.166   5.995 -0.7276  1.0055 -2.0924
 3920SOL    HW223397   2.682   1.231   6.125 -1.8899  0.8398  0.9177
 3921SOL     OW23398   0.344   1.667   8.799  0.5593 -0.4959 -0.2363
 3921SOL    HW123399   0.414   1.602   8.807  0.0924 -1.0302 -0.4510
 3921SOL    HW223400   0.274   1.631   8.855  1.7289  0.5614  1.8914
 3922SOL     OW23401   3.587   3.205  15.328 -0.6819  0.1650 -0.2537
 3922SOL    HW123402   3.565   3.118  15.295  1.0756 -0.3368 -0.1318
 3922SOL    HW223403   3.669   3.184  15.373 -0.8898 -1.7602 -0.7703
 3923SOL     OW23404   0.784   4.601   9.114  0.5581 -0.0223 -0.7404
 3923SOL    HW123405   0.795   4.508   9.131 -0.6517  0.0218  0.2989
 3923SOL    HW223406   0.696   4.617   9.151  0.8150  0.7014 -0.4365
 3924SOL     OW23407   4.514   1.616   2.285  0.2374 -0.2851 -0.2171
 3924SOL    HW123408   4.441   1.591   2.342  2.0655 -3.9587  0.5287
 3924SOL    HW223409   4.466   1.683   2.236 -1.6138 -0.1879  1.7413
 3925SOL     OW23410   1.039   3.313   2.571  0.1221  0.3071 -0.0615
 3925SOL    HW123411   0.977   3.384   2.588 -0.7473  0.1488 -2.5484
 3925SOL    HW223412   1.115   3.351   2.526  1.1292  0.0757  1.4352
 3926SOL     OW23413   2.091   2.268   4.342 -0.0492  0.0568 -0.4295
 3926SOL    HW123414   2.132   2.315   4.415 -1.2122  1.2590 -0.5535
 3926SOL    HW223415   2.119   2.327   4.272  0.4647 -0.6600 -0.8239
 3927SOL     OW23416   4.647   4.322   9.824 -0.4718  0.2635  0.5209
 3927SOL    HW123417   4.713   4.385   9.854  1.1817 -2.0097  1.6665
 3927SOL    HW223418   4.592   4.310   9.901 -1.7315  0.3662 -0.3657
 3928SOL     OW23419   0.831   3.620   3.243 -0.0961 -0.4524  0.2853
 3928SOL    HW123420   0.885   3.676   3.188 -2.2360  1.5905  0.2566
 3928SOL    HW223421   0.745   3.643   3.207 -0.6724 -0.9888  1.3076
 3929SOL     OW23422   0.429   2.290  13.012  0.5699 -0.1761 -0.1072
 3929SOL    HW123423   0.479   2.211  12.991  1.3090  0.2227  0.1564
 3929SOL    HW223424   0.343   2.276  12.971  1.5641  0.9324 -2.5948
 3930SOL     OW23425   0.376   4.597   7.240  0.0306  0.8531 -0.1338
 3930SOL    HW123426   0.394   4.593   7.334  1.5564  3.0301 -0.3197
 3930SOL    HW223427   0.436   4.663   7.206  0.2390 -0.5171 -2.4825
 3931SOL     OW23428   0.932   4.291   3.937 -0.4558  0.3389  0.1371
 3931SOL    HW123429   0.988   4.279   4.013 -1.2492  0.5340  0.7609
 3931SOL    HW223430   0.974   4.257   3.858  0.0033  0.1022  0.4890
 3932SOL     OW23431   3.446   3.508   7.378  0.3233  0.0350  0.1289
 3932SOL    HW123432   3.372   3.555   7.340  0.8849 -0.1751 -1.2384
 3932SOL    HW223433   3.461   3.567   7.451 -1.4836 -0.5903  0.9948
 3933SOL     OW23434   2.057   3.378   8.301  0.2820  0.2184  0.1369
 3933SOL    HW123435   2.095   3.378   8.390  0.8375  0.5822 -0.0984
 3933SOL    HW223436   2.126   3.418   8.249 -0.4575 -0.6076 -1.4688
 3934SOL     OW23437   1.899   4.585  13.497 -0.3522  0.5382  0.4051
 3934SOL    HW123438   1.833   4.542  13.443 -1.5524  0.8568  1.6194
 3934SOL    HW223439   1.863   4.662  13.542 -1.8702  1.5764 -2.6291
 3935SOL     OW23440   0.095   1.502   4.748 -0.2555 -0.0801 -0.2120
 3935SOL    HW123441   0.097   1.407   4.752  0.7152  0.0737  3.7973
 3935SOL    HW223442   0.121   1.510   4.657  0.0209 -0.7107 -0.1908
 3936SOL     OW23443   1.773   1.401   3.698 -0.6861  0.7247  0.5090
 3936SOL    HW123444   1.793   1.443   3.615 -0.7723  1.3922  0.8268
 3936SOL    HW223445   1.809   1.469   3.755 -1.3444  1.1923  0.3740
 3937SOL     OW23446   4.114   3.281   5.910 -0.2051  0.3046  0.2898
 3937SOL    HW123447   4.210   3.280   5.916 -0.1230 -0.9238 -1.2193
 3937SOL    HW223448   4.112   3.209   5.847  0.0652 -1.8216  2.7686
 3938SOL     OW23449   3.773   3.514  16.608 -0.0271  0.2109  0.2262
 3938SOL    HW123450   3.735   3.602  16.617  2.5167  1.5614 -2.1136
 3938SOL    HW223451   3.791   3.488  16.699  1.8237  2.7561  0.5985
 3939SOL     OW23452   3.887   0.080  14.825 -0.0931  0.2079 -0.1608
 3939SOL    HW123453   3.967   0.133  14.825 -0.0416  0.1396 -1.5570
 3939SOL    HW223454   3.832   0.112  14.897 -0.6365  1.2696 -1.0560
 3940SOL     OW23455   0.340   0.729  13.388 -0.3086  0.2519 -0.4263
 3940SOL    HW123456   0.353   0.634  13.398  0.0738  0.5652  2.0955
 3940SOL    HW223457   0.358   0.734  13.294  1.9971 -2.2612 -0.1224
 3941SOL     OW23458   1.753   3.167   5.915  0.0616 -0.4301 -0.0240
 3941SOL    HW123459   1.833   3.115   5.911 -0.0733 -0.7439  1.7446
 3941SOL    HW223460   1.718   3.159   5.826  0.8976  0.8264 -0.4689
 3942SOL     OW23461   1.834   2.059   7.633 -0.2663 -0.0079 -0.1395
 3942SOL    HW123462   1.887   2.138   7.640 -0.2776  0.2420 -2.6104
 3942SOL    HW223463   1.823   2.053   7.538  1.8063 -1.6007 -0.2681
 3943SOL     OW23464   0.450   2.708   2.123  0.2639 -0.3349  0.3069
 3943SOL    HW123465   0.531   2.757   2.132 -0.5197  0.9143  0.6152
 3943SOL    HW223466   0.391   2.779   2.097  1.3880  1.7735  3.6325
 3944SOL     OW23467   1.498   0.455   1.526 -0.1182 -0.0425 -0.2835
 3944SOL    HW123468   1.512   0.548   1.510 -1.8962 -0.1406 -2.3315
 3944SOL    HW223469   1.577   0.436   1.578 -0.0375 -0.0248 -0.4012
 3945SOL     OW23470   3.946   1.275  14.633  0.5782 -0.2410  0.0489
 3945SOL    HW123471   4.003   1.209  14.594 -0.3458 -0.6268 -0.6491
 3945SOL    HW223472   3.936   1.324  14.551  0.2439  2.1463  1.5220
 3946SOL     OW23473   0.210   3.076   2.465  0.1561  0.3867 -0.3808
 3946SOL    HW123474   0.258   3.113   2.391  2.0677  0.3152  0.7998
 3946SOL    HW223475   0.121   3.106   2.446  0.2012  1.2350  0.7327
 3947SOL     OW23476   0.248   0.202   9.349 -0.8655 -0.6824  0.4590
 3947SOL    HW123477   0.307   0.192   9.274 -0.9835 -1.5821  0.4859
 3947SOL    HW223478   0.185   0.132   9.331 -0.3319 -1.0661  0.0723
 3948SOL     OW23479   2.770   3.447   6.143 -0.1459  0.1428 -0.1472
 3948SOL    HW123480   2.841   3.442   6.080  0.4429 -2.3026  0.6948
 3948SOL    HW223481   2.807   3.472   6.228 -4.7896 -0.4876  2.0725
 3949SOL     OW23482   2.865   2.426   4.838 -0.1279  0.4816  0.2229
 3949SOL    HW123483   2.854   2.516   4.868 -2.2286 -0.6420  2.8951
 3949SOL    HW223484   2.788   2.392   4.883 -0.0288  0.1517  0.1403
 3950SOL     OW23485   4.653   1.151   9.707  0.4208  0.1667  0.4203
 3950SOL    HW123486   4.678   1.073   9.757 -2.0069 -0.7561  0.1801
 3950SOL    HW223487   4.686   1.220   9.765  1.9849 -0.5428  0.3700
 3951SOL     OW23488   0.516   2.522   4.717 -0.2602 -0.3613  0.1203
 3951SOL    HW123489   0.604   2.482   4.713 -0.3595 -0.5585 -0.1218
 3951SOL    HW223490   0.538   2.614   4.728  4.1988 -1.5088  0.8982
 3952SOL     OW23491   0.044   3.460  10.722 -0.0451  0.0269 -0.0449
 3952SOL    HW123492   0.049   3.405  10.800  0.0691  0.2695  0.1186
 3952SOL    HW223493   4.692   3.494  10.727 -0.5557 -1.8215  3.3077
 3953SOL     OW23494   2.979   4.484   4.822  0.4734  0.0681 -0.3995
 3953SOL    HW123495   2.908   4.465   4.883  1.9971 -0.2447  1.2975
 3953SOL    HW223496   3.052   4.466   4.881 -0.1022 -0.8554  0.0226
 3954SOL     OW23497   3.727   4.225  14.174 -0.1778  0.4484  0.0767
 3954SOL    HW123498   3.716   4.135  14.143 -1.5777 -0.1224  2.2028
 3954SOL    HW223499   3.639   4.238  14.208 -1.4981 -1.2004 -2.7486
 3955SOL     OW23500   4.209   2.285   5.255 -0.1167  0.1235  0.0267
 3955SOL    HW123501   4.145   2.336   5.205  0.8579 -0.0326 -1.3799
 3955SOL    HW223502   4.274   2.355   5.270  0.8485 -0.8719  0.5015
 3956SOL     OW23503   2.663   2.180   7.186  0.3076  0.2198 -0.0920
 3956SOL    HW123504   2.680   2.274   7.182  1.2504 -0.0491 -2.3071
 3956SOL    HW223505   2.751   2.144   7.173  0.8209  1.3053  0.3697
 3957SOL     OW23506   3.927   1.663   1.403 -0.0013 -0.1152  0.7800
 3957SOL    HW123507   3.927   1.657   1.498 -0.1017  0.2616  0.8028
 3957SOL    HW223508   3.985   1.590   1.382  0.4330  0.3202  0.4652
 3958SOL     OW23509   2.410   1.641   6.853  0.6815 -0.0818 -0.5680
 3958SOL    HW123510   2.358   1.649   6.933 -0.2447 -1.5120 -1.0277
 3958SOL    HW223511   2.354   1.585   6.798 -0.1028  0.7859 -0.6420
 3959SOL     OW23512   0.986   2.190   7.108 -0.0838 -0.0691 -0.2780
 3959SOL    HW123513   0.952   2.134   7.038  3.7595 -0.2652 -1.9628
 3959SOL    HW223514   0.912   2.227   7.156  0.2720  0.8299 -0.4307
 3960SOL     OW23515   1.460   3.247   6.020 -0.6394 -0.4667  0.0502
 3960SOL    HW123516   1.447   3.323   6.076 -2.4554 -0.4599 -0.3671
 3960SOL    HW223517   1.554   3.240   6.008 -0.7685 -1.5049 -0.4277
 3961SOL     OW23518   1.119   0.100   3.614  0.4295  0.2647 -0.5338
 3961SOL    HW123519   1.052   0.136   3.673  0.1761 -2.4770  0.8353
 3961SOL    HW223520   1.110   0.005   3.622 -2.6014  0.6830  0.9694
 3962SOL     OW23521   2.942   1.997   8.620  0.0667 -0.0318  0.2408
 3962SOL    HW123522   2.861   2.006   8.669 -1.0755 -0.4900 -1.5762
 3962SOL    HW223523   2.988   2.069   8.664 -0.1179  0.9102 -1.0698
 3963SOL     OW23524   1.928   2.013   9.149  0.2216  0.7076 -0.0052
 3963SOL    HW123525   1.921   1.942   9.213  1.0884 -1.5067 -2.3524
 3963SOL    HW223526   1.858   2.077   9.160  0.8795  2.0175 -3.3298
 3964SOL     OW23527   0.017   4.684   9.879 -0.8389  0.3098  0.1965
 3964SOL    HW123528   4.704   4.664   9.957  0.2617  2.8658  1.5536
 3964SOL    HW223529   0.066   4.602   9.865 -0.9796  0.1334  0.7443
 3965SOL     OW23530   3.714   0.769   7.671 -0.0157  0.1549 -0.6267
 3965SOL    HW123531   3.712   0.722   7.587  0.0074  0.5389 -0.8435
 3965SOL    HW223532   3.622   0.796   7.681  0.2836  1.1879 -0.6336
 3966SOL     OW23533   0.847   0.448   1.876  0.8707  0.4103 -0.8623
 3966SOL    HW123534   0.759   0.410   1.870  1.7459 -1.5417 -1.3154
 3966SOL    HW223535   0.904   0.380   1.841 -1.5865 -0.7922 -2.5484
 3967SOL     OW23536   4.348   2.383  15.986 -0.0602  0.9104  0.2184
 3967SOL    HW123537   4.378   2.412  15.900  3.0033  0.8901  1.2774
 3967SOL    HW223538   4.386   2.446  16.047 -0.0003  0.4933  0.6128
 3968SOL     OW23539   1.032   1.742   3.882 -0.4147 -0.4455  0.1571
 3968SOL    HW123540   1.028   1.654   3.844 -0.5900 -1.3536  2.2750
 3968SOL    HW223541   0.959   1.742   3.944 -0.1811 -0.1332  0.4323
 3969SOL     OW23542   0.076   0.806   7.087  0.0232  0.1148 -0.3186
 3969SOL    HW123543   0.139   0.871   7.057  0.4547 -0.4343 -0.6057
 3969SOL    HW223544   0.111   0.736   7.033  1.1559 -0.0409  0.6215
 3970SOL     OW23545   1.858   2.598   3.712  0.7285  0.4921 -0.5726
 3970SOL    HW123546   1.944   2.565   3.740  0.8199  2.4993  1.5319
 3970SOL    HW223547   1.878   2.634   3.626  2.4010  2.5175  0.6639
 3971SOL     OW23548   0.161   2.411   0.230  0.1069  0.0322 -0.7398
 3971SOL    HW123549   0.155   2.460   0.148 -1.2375  1.5062  0.2305
 3971SOL    HW223550   0.252   2.436   0.245  0.2968 -1.3018  0.3572
 3972SOL     OW23551   3.948   2.186   3.768 -0.1156 -0.1357 -0.0951
 3972SOL    HW123552   3.914   2.251   3.829  1.6598  0.0378  0.6942
 3972SOL    HW223553   3.989   2.252   3.712  0.2704  0.5798  1.0259
 3973SOL     OW23554   4.458   0.247   2.932  1.0333  0.3158  0.0146
 3973SOL    HW123555   4.459   0.268   3.026 -1.5259  1.2014 -0.1691
 3973SOL    HW223556   4.489   0.324   2.885 -0.3143  2.2724  2.3254
 3974SOL     OW23557   1.521   2.447  10.888 -0.8067  0.7652 -0.3298
 3974SOL    HW123558   1.482   2.451  10.800 -2.6320  1.2876  0.4977
 3974SOL    HW223559   1.481   2.366  10.919  1.3680 -0.5773 -1.0670
 3975SOL     OW23560   1.075   3.872  14.666 -0.2884 -0.0416  0.0007
 3975SOL    HW123561   1.134   3.800  14.644  0.8901  0.7824  0.5316
 3975SOL    HW223562   1.013   3.881  14.593 -0.4983 -3.3506 -0.2427
 3976SOL     OW23563   4.142   3.788  15.971  0.6478  0.4364  0.0267
 3976SOL    HW123564   4.094   3.705  15.967  0.3922  0.5018  1.9866
 3976SOL    HW223565   4.185   3.791  15.885  0.3852 -3.4352 -0.2296
 3977SOL     OW23566   4.345   2.892   0.822 -0.4995 -0.2126  0.4655
 3977SOL    HW123567   4.412   2.953   0.855  0.5600 -1.1078 -0.0360
 3977SOL    HW223568   4.308   2.853   0.901 -1.3472  0.7127  0.5275
 3978SOL     OW23569   1.074   0.304   2.382  0.3248  0.5091 -0.0680
 3978SOL    HW123570   1.014   0.231   2.369  0.7128  0.3650 -1.0521
 3978SOL    HW223571   1.116   0.310   2.296 -0.2624  0.6902 -0.3499
 3979SOL     OW23572   3.740   3.921   0.882  0.2132 -0.4357  0.1965
 3979SOL    HW123573   3.697   3.991   0.833  0.9057 -0.8954 -1.0683
 3979SOL    HW223574   3.688   3.844   0.855  0.9561 -0.5378 -0.9557
 3980SOL     OW23575   0.948   0.583   7.210 -0.2420 -0.0744  0.7666
 3980SOL    HW123576   1.042   0.562   7.214 -0.2833 -0.6341 -1.2733
 3980SOL    HW223577   0.940   0.678   7.204 -2.5629 -0.2504  1.1222
 3981SOL     OW23578   3.496   0.790   4.152  0.5901  0.7340 -0.4307
 3981SOL    HW123579   3.414   0.741   4.158  1.5925 -0.6835  1.4277
 3981SOL    HW223580   3.466   0.871   4.110  1.2267  1.9114  1.3743
 3982SOL     OW23581   3.202   2.437   3.278 -0.1800  0.1591  0.2300
 3982SOL    HW123582   3.256   2.427   3.356  0.6107 -2.1769 -0.6006
 3982SOL    HW223583   3.116   2.445   3.319 -0.4031 -2.1833  0.2278
 3983SOL     OW23584   0.050   4.728   3.258  0.0185 -0.2008  0.1613
 3983SOL    HW123585   0.018   0.052   3.191  1.3535  0.8520  0.4769
 3983SOL    HW223586   0.139   4.707   3.230  0.4540  0.6820  0.8932
 3984SOL     OW23587   4.336   1.945   9.910  0.5203  0.6292 -0.3943
 3984SOL    HW123588   4.414   1.933   9.856  0.7669  2.3743 -0.4085
 3984SOL    HW223589   4.269   1.902   9.857 -0.7059 -0.1431  1.7893
 3985SOL     OW23590   0.473   3.857   6.962 -0.2408 -0.7315  0.7016
 3985SOL    HW123591   0.501   3.788   6.903  0.2367  1.9444 -2.2258
 3985SOL    HW223592   0.381   3.833   6.971 -0.3976  0.4571  2.4305
 3986SOL     OW23593   0.916   2.993   2.948 -0.2456  0.0073  0.7006
 3986SOL    HW123594   0.911   3.033   3.035 -1.1624  0.3874  0.4657
 3986SOL    HW223595   0.898   3.075   2.903  2.6323  0.0706 -0.3098
 3987SOL     OW23596   0.630   0.654   7.439 -0.0265  0.0577 -0.1028
 3987SOL    HW123597   0.718   0.672   7.472 -0.6481 -1.0973  2.1823
 3987SOL    HW223598   0.645   0.561   7.422 -0.6977 -0.5613  2.7037
 3988SOL     OW23599   1.209   2.274   5.019  0.3428 -0.1197 -0.4243
 3988SOL    HW123600   1.303   2.258   5.023  0.1502 -1.1069  0.3704
 3988SOL    HW223601   1.192   2.222   4.940  0.3395  0.2153 -0.6424
 3989SOL     OW23602   2.090   4.621   7.096 -0.3243 -0.3910 -0.2203
 3989SOL    HW123603   2.151   4.695   7.094 -0.9994  0.1018 -2.3126
 3989SOL    HW223604   2.138   4.550   7.054 -0.6852 -1.1759  0.7143
 3990SOL     OW23605   1.477   4.369  15.328  0.4852  0.1029 -0.2994
 3990SOL    HW123606   1.516   4.387  15.242  1.4388 -0.6573 -0.0257
 3990SOL    HW223607   1.386   4.396  15.321  0.4031 -0.0711  0.1029
 3991SOL     OW23608   0.066   4.679   7.765 -0.0823  0.1029  0.1792
 3991SOL    HW123609   0.122   4.628   7.823 -0.7776  0.6127  1.2825
 3991SOL    HW223610   0.121   0.017   7.741  0.3712 -0.4880 -0.6714
 3992SOL     OW23611   1.332   0.713  13.626  0.1956  0.0775  0.3544
 3992SOL    HW123612   1.416   0.719  13.671 -0.7284  0.8338  1.9591
 3992SOL    HW223613   1.280   0.696  13.704  0.3380 -0.6555  0.2905
 3993SOL     OW23614   3.743   0.427   1.701 -0.5333 -0.3038 -0.3423
 3993SOL    HW123615   3.817   0.369   1.717 -0.0588  0.5353  0.4985
 3993SOL    HW223616   3.764   0.451   1.610 -2.0162 -0.6003 -0.7632
 3994SOL     OW23617   2.538   2.731   1.119  0.1523  0.3481 -0.3828
 3994SOL    HW123618   2.530   2.701   1.209  0.7906  1.3036 -0.0058
 3994SOL    HW223619   2.606   2.795   1.137  0.7049 -0.1883 -0.5423
 3995SOL     OW23620   1.536   2.038   5.589 -0.0695 -0.0653  0.1918
 3995SOL    HW123621   1.558   2.080   5.506  1.0526 -1.7901 -0.3958
 3995SOL    HW223622   1.621   2.029   5.631  0.0328  0.2950  0.0568
 3996SOL     OW23623   2.216   4.454  11.148 -0.8046 -0.3148  0.1391
 3996SOL    HW123624   2.212   4.458  11.053 -2.0979 -0.2728  0.1920
 3996SOL    HW223625   2.296   4.502  11.170 -0.4956 -0.5001 -0.5893
 3997SOL     OW23626   2.773   4.715  16.168  0.0137 -0.2357  0.1087
 3997SOL    HW123627   2.839   4.684  16.230  0.7260 -0.2224 -0.6355
 3997SOL    HW223628   2.813   0.059  16.135  0.2343 -0.0789  0.7641
 3998SOL     OW23629   0.740   2.897  12.766  0.6208 -0.2289  0.2719
 3998SOL    HW123630   0.834   2.905  12.752  0.8437 -0.1722  1.8457
 3998SOL    HW223631   0.735   2.803  12.778 -1.0398 -0.0880  0.6321
 3999SOL     OW23632   0.046   1.552   2.261  0.3364 -0.2727  0.0976
 3999SOL    HW123633   4.689   1.571   2.257  0.5720  0.7883 -0.4683
 3999SOL    HW223634   0.089   1.637   2.270 -1.4210  0.6049  0.2235
 4000SOL     OW23635   4.092   4.509   3.801 -0.0303  0.0285  0.1002
 4000SOL    HW123636   4.136   4.587   3.835  1.9392 -0.2642 -1.7776
 4000SOL    HW223637   4.008   4.511   3.847  0.8985 -0.7345  1.8609
 4001SOL     OW23638   2.601   0.253   2.072 -0.3198 -0.8503  0.1812
 4001SOL    HW123639   2.565   0.315   2.135  0.3595  0.6557 -0.9043
 4001SOL    HW223640   2.693   0.239   2.095 -0.2863 -1.3651 -0.2768
 4002SOL     OW23641   1.498   1.932   1.368  0.1193  0.4900 -0.3332
 4002SOL    HW123642   1.457   1.969   1.289 -3.0777 -1.8109  0.2606
 4002SOL    HW223643   1.514   1.841   1.345  1.8946  0.4654  1.0120
 4003SOL     OW23644   4.526   1.723  14.480 -0.2460 -0.8241 -0.3199
 4003SOL    HW123645   4.490   1.777  14.410 -0.9057 -0.5379  0.2412
 4003SOL    HW223646   4.609   1.696  14.440  0.7025 -0.3683  1.3457
 4004SOL     OW23647   2.010   1.739   4.382 -0.4091  0.3739 -0.3372
 4004SOL    HW123648   2.088   1.794   4.367 -0.5325  0.9460  1.0914
 4004SOL    HW223649   2.018   1.663   4.325  0.3881 -0.2371  0.5756
 4005SOL     OW23650   1.199   0.321   2.973  0.3187 -0.4148  0.3513
 4005SOL    HW123651   1.124   0.263   2.957 -0.7584  1.1226 -0.1923
 4005SOL    HW223652   1.257   0.262   3.021  2.6334  0.3440 -1.5535
 4006SOL     OW23653   2.370   0.171   8.405 -0.4868  0.2443  0.2037
 4006SOL    HW123654   2.306   0.204   8.468  0.3418 -0.7630  1.5772
 4006SOL    HW223655   2.348   0.078   8.397 -1.9586  0.4937  1.3656
 4007SOL     OW23656   3.518   2.106   9.724 -0.1358  0.2890  0.1349
 4007SOL    HW123657   3.488   2.153   9.803  0.8690  0.5931  0.3441
 4007SOL    HW223658   3.604   2.074   9.753 -0.3678  0.5809  1.1705
 4008SOL     OW23659   4.337   2.716  15.613 -0.4187 -0.1344 -0.0023
 4008SOL    HW123660   4.329   2.688  15.704 -0.0212  0.2821  0.1620
 4008SOL    HW223661   4.288   2.798  15.606 -0.4569 -0.2538 -1.1588
 4009SOL     OW23662   1.271   2.813   9.146 -0.3135  0.5366  0.3576
 4009SOL    HW123663   1.228   2.898   9.157 -0.6551  0.1762  1.9135
 4009SOL    HW223664   1.204   2.758   9.186 -0.8978 -0.0195 -1.3856
 4010SOL     OW23665   2.210   4.244  10.777 -0.1820 -0.4381 -0.2741
 4010SOL    HW123666   2.138   4.272  10.720  0.5074  0.4004 -0.7359
 4010SOL    HW223667   2.231   4.158  10.740  1.2566  0.1111 -0.7394
 4011SOL     OW23668   3.958   3.526  17.334 -0.2665  0.2927 -0.4733
 4011SOL    HW123669   3.920   3.532  17.421  1.4097  0.8482  0.2118
 4011SOL    HW223670   3.984   3.617  17.323 -1.5595  0.5101 -1.7236
 4012SOL     OW23671   2.177   1.877   9.002 -0.6360  0.0838  0.4906
 4012SOL    HW123672   2.257   1.881   9.055  0.5756  0.3971 -1.3344
 4012SOL    HW223673   2.114   1.912   9.065 -1.4145  0.7814 -0.6787
 4013SOL     OW23674   0.442   1.627   9.988  0.6399 -0.4810  0.0484
 4013SOL    HW123675   0.403   1.698   9.938 -0.7640 -0.6871  0.8589
 4013SOL    HW223676   0.525   1.668  10.012  1.2319 -0.2830 -2.3422
 4014SOL     OW23677   4.546   1.526   6.728  0.2400  0.5692  0.0314
 4014SOL    HW123678   4.486   1.544   6.655  1.0178  1.0365 -0.5010
 4014SOL    HW223679   4.543   1.610   6.773 -0.2776  1.8411 -2.3424
 4015SOL     OW23680   4.543   4.173  10.298 -0.3886  0.5972  0.3394
 4015SOL    HW123681   4.568   4.083  10.278  2.2136  1.3133  0.3414
 4015SOL    HW223682   4.621   4.191  10.351 -1.4096 -1.8593  2.6687
 4016SOL     OW23683   0.369   2.455  12.413  0.5768 -0.1666 -0.5139
 4016SOL    HW123684   0.454   2.427  12.447 -0.2108  0.3704  1.8219
 4016SOL    HW223685   0.303   2.428  12.477 -0.4695  1.3774 -0.9587
 4017SOL     OW23686   0.487   1.304   1.044  0.1009  0.0330  0.0167
 4017SOL    HW123687   0.392   1.302   1.033  0.0650  0.0054  0.3284
 4017SOL    HW223688   0.489   1.219   1.088 -1.0578 -0.4218 -0.8169
 4018SOL     OW23689   3.366   1.196   7.155 -0.6514  0.3271  0.4497
 4018SOL    HW123690   3.405   1.137   7.091  1.0350  1.1392  0.7036
 4018SOL    HW223691   3.399   1.159   7.237 -3.2253  0.8556  1.7173
 4019SOL     OW23692   3.521   2.760   5.172 -0.0613  0.4946  0.1558
 4019SOL    HW123693   3.592   2.745   5.110  0.2035  0.5688  0.4376
 4019SOL    HW223694   3.451   2.699   5.149  1.2819 -0.4215 -1.4699
 4020SOL     OW23695   0.450   4.680   5.243 -0.2219 -0.1038  0.3833
 4020SOL    HW123696   0.491   4.681   5.330  0.3193 -1.9610  0.1269
 4020SOL    HW223697   0.533   4.672   5.196  0.9006 -0.0490  2.3548
 4021SOL     OW23698   4.467   0.604   3.257  0.0915  0.2658 -0.2919
 4021SOL    HW123699   4.526   0.589   3.331 -3.1697  1.3625  2.5052
 4021SOL    HW223700   4.397   0.643   3.309 -0.3271 -0.8024 -0.0545
 4022SOL     OW23701   0.064   1.617  15.600 -0.3313 -0.1347 -0.5950
 4022SOL    HW123702   0.117   1.695  15.617  0.3483 -0.9768  1.1802
 4022SOL    HW223703   4.717   1.649  15.567 -0.1542 -0.8186 -1.7072
 4023SOL     OW23704   2.660   3.919   5.845 -0.1006  0.6360  0.0272
 4023SOL    HW123705   2.670   3.866   5.767 -1.2328  1.1332 -0.4668
 4023SOL    HW223706   2.566   3.941   5.847 -0.4438 -0.7308 -1.9187
 4024SOL     OW23707   3.757   0.528   3.277  0.4352 -0.0889  0.6345
 4024SOL    HW123708   3.770   0.561   3.365  0.7753  3.3882 -0.7130
 4024SOL    HW223709   3.730   0.609   3.233 -1.1316 -1.0272 -0.1516
 4025SOL     OW23710   0.039   2.578   5.929 -0.0382 -0.1780  0.2626
 4025SOL    HW123711   0.023   2.672   5.921 -0.5737 -0.2436  0.5508
 4025SOL    HW223712   0.124   2.571   5.974  0.6526 -1.4567 -1.2790
 4026SOL     OW23713   0.239   3.672   5.744 -0.2883  0.4651  0.3574
 4026SOL    HW123714   0.235   3.639   5.655  1.1344 -1.1143  0.8851
 4026SOL    HW223715   0.324   3.636   5.767  0.0581  1.1101  0.0708
 4027SOL     OW23716   1.136   0.786   1.542 -0.7496 -0.1652  0.5435
 4027SOL    HW123717   1.068   0.851   1.561 -0.9828 -0.7077  1.5546
 4027SOL    HW223718   1.205   0.840   1.502  0.4666 -2.5078 -0.5492
 4028SOL     OW23719   2.873   2.079   8.161  0.2458 -1.0670  0.4385
 4028SOL    HW123720   2.908   2.051   8.076 -0.2702 -1.0054  0.2060
 4028SOL    HW223721   2.938   2.062   8.230  1.0346 -0.6222 -0.1913
 4029SOL     OW23722   0.496   0.358   4.218  0.2431 -0.0290  0.1620
 4029SOL    HW123723   0.430   0.422   4.243  1.1620  0.7700  0.5349
 4029SOL    HW223724   0.463   0.288   4.276 -0.6112 -0.3978 -0.7768
 4030SOL     OW23725   3.101   2.613   7.846 -0.5645 -0.6303 -0.0505
 4030SOL    HW123726   3.116   2.708   7.843  1.0440 -0.7952  2.3261
 4030SOL    HW223727   3.174   2.580   7.793 -0.0467  0.7239 -0.1794
 4031SOL     OW23728   4.123   0.371   6.962 -0.2693 -0.5859 -0.2412
 4031SOL    HW123729   4.140   0.466   6.960  0.6915 -0.7072  1.4428
 4031SOL    HW223730   4.213   0.341   6.953 -0.2682 -0.4072 -0.8021
 4032SOL     OW23731   1.497   0.192   9.279  0.2297 -0.7276  0.2383
 4032SOL    HW123732   1.422   0.145   9.314 -0.3029 -0.4308 -0.4805
 4032SOL    HW223733   1.519   0.249   9.353  1.3292 -1.1768  0.2544
 4033SOL     OW23734   4.068   2.788   3.813 -0.2677  0.2587  0.0269
 4033SOL    HW123735   4.005   2.800   3.742  0.0925  0.6156 -0.2362
 4033SOL    HW223736   4.097   2.878   3.825 -0.9899  0.8575 -2.5654
 4034SOL     OW23737   0.735   0.824  14.755  0.1898  0.1157 -0.1036
 4034SOL    HW123738   0.763   0.862  14.839  1.0787  0.5198 -0.5910
 4034SOL    HW223739   0.805   0.849  14.696 -2.2289  1.4757 -2.3816
 4035SOL     OW23740   3.509   1.300   0.363 -0.3444 -0.4639  0.6193
 4035SOL    HW123741   3.590   1.351   0.352  0.2439 -1.4401  0.4295
 4035SOL    HW223742   3.460   1.331   0.439 -1.6417 -0.3118 -0.2798
 4036SOL     OW23743   2.170   3.281   2.242 -0.0038  0.0098  0.5141
 4036SOL    HW123744   2.201   3.276   2.152 -1.7362 -0.0366 -0.0880
 4036SOL    HW223745   2.180   3.193   2.278 -0.6760 -0.1088  0.4086
 4037SOL     OW23746   1.948   0.939  15.073  0.3201 -0.3170 -0.4467
 4037SOL    HW123747   1.987   1.008  15.127 -2.1535  1.4929 -0.9580
 4037SOL    HW223748   2.028   0.897  15.041  0.8282 -0.8476  1.5757
 4038SOL     OW23749   4.736   2.762   1.791 -0.2941 -0.1361  0.3013
 4038SOL    HW123750   0.084   2.798   1.819 -0.9614  1.2262  0.5686
 4038SOL    HW223751   4.694   2.841   1.757 -2.9048 -1.4852  0.4673
 4039SOL     OW23752   4.467   4.388   4.764  0.2686  0.5658  0.5124
 4039SOL    HW123753   4.428   4.303   4.784 -0.5958  1.1624  1.3008
 4039SOL    HW223754   4.536   4.351   4.709  1.0353  0.1049  1.7825
 4040SOL     OW23755   0.579   3.980  16.428 -0.7126 -0.1762  0.1688
 4040SOL    HW123756   0.583   4.045  16.358  2.7713 -1.3342 -0.6888
 4040SOL    HW223757   0.674   3.968  16.434 -0.3409  3.0205  0.6997
 4041SOL     OW23758   3.706   0.091  13.403  0.8665 -0.1718 -0.5573
 4041SOL    HW123759   3.671   0.036  13.332 -0.9437  3.9902 -2.8987
 4041SOL    HW223760   3.799   0.094  13.384  1.3704  1.7317  2.1384
 4042SOL     OW23761   3.162   2.864   5.964 -1.1393 -0.1060  0.3600
 4042SOL    HW123762   3.159   2.864   6.060  0.3477  2.5675  0.3978
 4042SOL    HW223763   3.099   2.935   5.951  0.6769  1.3005 -0.6781
 4043SOL     OW23764   3.559   3.541   8.283  0.5550  1.1657  0.1880
 4043SOL    HW123765   3.616   3.596   8.229  2.6828 -1.1995  0.0500
 4043SOL    HW223766   3.545   3.599   8.358  0.3871  0.6991  0.5146
 4044SOL     OW23767   1.561   0.676  13.355  0.6410  0.5601 -0.3392
 4044SOL    HW123768   1.524   0.746  13.409 -0.9710  2.2475 -3.6195
 4044SOL    HW223769   1.600   0.716  13.277  1.5443 -0.7327 -0.5371
 4045SOL     OW23770   3.271   0.716   7.435 -0.8767  0.3864  0.0592
 4045SOL    HW123771   3.187   0.676   7.459  0.3345 -2.0121  0.2227
 4045SOL    HW223772   3.298   0.656   7.365  0.9503 -1.0517  1.9974
 4046SOL     OW23773   1.756   0.076   3.533  0.0290  0.4041  0.1403
 4046SOL    HW123774   1.781   4.724   3.557  0.5779  0.9590  1.5933
 4046SOL    HW223775   1.714   0.100   3.616  0.8368  1.6679  0.1710
 4047SOL     OW23776   2.024   3.993  12.471  0.0125 -0.0881  0.5025
 4047SOL    HW123777   2.053   4.034  12.389 -1.3291  0.9805  0.5716
 4047SOL    HW223778   2.049   3.902  12.453  2.1248  0.5035  0.4245
 4048SOL     OW23779   0.322   0.774  16.002 -0.5056 -0.3260 -0.0916
 4048SOL    HW123780   0.240   0.807  15.966  0.2161  1.6892  0.0891
 4048SOL    HW223781   0.351   0.710  15.937  0.9798  2.8083 -2.4921
 4049SOL     OW23782   4.075   0.903  12.643  0.1085  0.2629 -0.1687
 4049SOL    HW123783   4.116   0.990  12.640  0.4915  0.1038  0.6322
 4049SOL    HW223784   4.035   0.906  12.729 -1.2452  1.0003 -0.8238
 4050SOL     OW23785   2.746   1.896  12.029 -0.2484  0.4476 -0.4175
 4050SOL    HW123786   2.667   1.926  12.075  1.3156  2.1858  1.1319
 4050SOL    HW223787   2.810   1.945  12.079  0.8238 -0.5220 -0.8525
 4051SOL     OW23788   0.242   2.776   6.057  0.2184 -0.3148  0.0080
 4051SOL    HW123789   0.272   2.851   6.006  1.4595 -0.8097  0.0136
 4051SOL    HW223790   0.283   2.793   6.142  0.6801 -2.1681  0.1485
 4052SOL     OW23791   1.320   4.214  14.000  0.5204 -0.6515  0.1971
 4052SOL    HW123792   1.360   4.189  13.917  1.6958  0.1095  0.5386
 4052SOL    HW223793   1.389   4.218  14.067 -1.4612  3.3025  1.9925
 4053SOL     OW23794   0.647   4.649   1.054 -0.0930 -0.5051 -0.8439
 4053SOL    HW123795   0.621   4.691   0.972  0.6437 -0.1851 -0.9174
 4053SOL    HW223796   0.571   4.594   1.073  0.3123 -1.1815 -1.1371
 4054SOL     OW23797   3.816   3.919   4.178 -0.4048 -0.1230  0.0973
 4054SOL    HW123798   3.824   3.829   4.147 -3.2991 -0.3772  0.1030
 4054SOL    HW223799   3.899   3.936   4.224  0.8950 -1.5663 -1.7222
 4055SOL     OW23800   3.098   0.232  11.391 -0.1241  0.5875 -0.1229
 4055SOL    HW123801   3.163   0.291  11.353  0.6556 -0.6020 -0.6286
 4055SOL    HW223802   3.016   0.256  11.348 -0.4756  0.5711  0.5484
 4056SOL     OW23803   1.287   0.094  11.769 -0.6766 -1.4574  0.4794
 4056SOL    HW123804   1.298   0.160  11.837  1.4437 -1.8163  0.5085
 4056SOL    HW223805   1.230   0.136  11.705  2.2329  1.1726 -0.3689
 4057SOL     OW23806   2.221   2.425   1.992 -0.1316 -0.0941 -0.3196
 4057SOL    HW123807   2.316   2.430   1.999 -0.0461 -1.3990 -0.6453
 4057SOL    HW223808   2.197   2.339   2.028 -0.7397  0.3352  0.3049
 4058SOL     OW23809   4.472   0.367   9.798  0.2197  0.1997 -0.1219
 4058SOL    HW123810   4.533   0.325   9.737 -1.5723 -0.3613 -1.5064
 4058SOL    HW223811   4.528   0.430   9.844 -0.9583  1.7927 -0.8572
 4059SOL     OW23812   2.779   4.654   1.864  0.1085  0.2161 -0.2148
 4059SOL    HW123813   2.866   4.628   1.832  0.8776  0.3220  1.7692
 4059SOL    HW223814   2.798   4.727   1.923 -0.7778  0.9839 -0.8820
 4060SOL     OW23815   3.808   2.730   5.365  0.1257  0.3114 -0.3469
 4060SOL    HW123816   3.877   2.671   5.333 -0.2178  0.8762 -2.1491
 4060SOL    HW223817   3.818   2.701   5.456 -0.5772  1.9456  0.2474
 4061SOL     OW23818   2.585   0.658   0.252  0.3970 -0.0194  0.3961
 4061SOL    HW123819   2.647   0.729   0.269  2.6373 -1.8877  0.0360
 4061SOL    HW223820   2.524   0.672   0.324 -0.3422  2.0359 -0.6327
 4062SOL     OW23821   2.400   4.077   3.878  0.0226  0.1995  0.2011
 4062SOL    HW123822   2.353   4.133   3.939 -0.4984 -0.8419  0.7477
 4062SOL    HW223823   2.420   4.002   3.934  0.6234  0.5243  0.4151
 4063SOL     OW23824   2.574   2.644  17.276 -0.3100  0.4201 -0.6470
 4063SOL    HW123825   2.585   2.565  17.222 -0.6861  2.2223 -3.3597
 4063SOL    HW223826   2.481   2.638  17.296 -1.0732  0.4989 -4.1337
 4064SOL     OW23827   2.355   2.404  10.963 -0.0570 -0.4110  0.3201
 4064SOL    HW123828   2.393   2.397  10.875  0.3016  0.8268  0.3651
 4064SOL    HW223829   2.332   2.497  10.962  3.2200  0.4257 -0.1772
 4065SOL     OW23830   4.719   0.566   6.679  0.5664 -0.3147  0.5244
 4065SOL    HW123831   4.729   0.471   6.676 -2.8570 -0.7627  3.2122
 4065SOL    HW223832   0.039   0.585   6.753 -1.5926  0.5058  1.9675
 4066SOL     OW23833   2.918   3.566  16.613 -0.5014 -0.1647  0.0251
 4066SOL    HW123834   3.004   3.607  16.621 -1.1314  0.2714  4.2119
 4066SOL    HW223835   2.894   3.555  16.704 -1.0531  1.8775  0.1435
 4067SOL     OW23836   0.786   2.773   6.101 -0.7482  0.3449  0.7189
 4067SOL    HW123837   0.778   2.749   6.008  1.8290  0.1632  0.5416
 4067SOL    HW223838   0.701   2.740   6.130 -0.3445 -0.8915  0.4875
 4068SOL     OW23839   2.515   1.706   5.904  0.0906 -0.6444  0.4805
 4068SOL    HW123840   2.469   1.743   5.830  0.2007 -0.5952  0.4364
 4068SOL    HW223841   2.455   1.735   5.973 -1.3970 -4.2351  0.7518
 4069SOL     OW23842   4.112   1.829   8.446 -0.1940  0.1435  0.4760
 4069SOL    HW123843   4.162   1.764   8.398  0.3222  2.1977 -1.7281
 4069SOL    HW223844   4.095   1.899   8.383  1.8816 -1.6094 -2.0262
 4070SOL     OW23845   4.501   3.264  14.325  0.0726  0.1382 -0.5231
 4070SOL    HW123846   4.406   3.261  14.328  0.0663  5.1251  3.1536
 4070SOL    HW223847   4.524   3.336  14.383  0.9885 -0.1732 -0.5037
 4071SOL     OW23848   1.804   3.161   6.226  0.5625  0.2995  0.2082
 4071SOL    HW123849   1.837   3.250   6.210 -2.4283  1.0531 -1.7841
 4071SOL    HW223850   1.768   3.145   6.139 -1.5277 -2.4468  1.5922
 4072SOL     OW23851   1.613   3.285   7.805  0.1002  0.5208  0.0458
 4072SOL    HW123852   1.577   3.207   7.846  0.0551  1.3796  1.6200
 4072SOL    HW223853   1.701   3.253   7.783 -0.0667  0.8394 -1.0874
 4073SOL     OW23854   2.164   0.472  16.547  0.4908  0.5047  0.3989
 4073SOL    HW123855   2.079   0.440  16.576  1.7871 -0.5347  3.0156
 4073SOL    HW223856   2.214   0.391  16.559 -1.1903 -0.7305 -0.9538
 4074SOL     OW23857   0.872   3.888   5.931 -0.2162 -0.1193  0.5319
 4074SOL    HW123858   0.842   3.931   5.851 -0.3686 -0.1128  0.5932
 4074SOL    HW223859   0.967   3.885   5.920 -0.2885  0.8588 -0.3627
 4075SOL     OW23860   0.259   2.334   8.804 -0.0181  0.1543 -0.2361
 4075SOL    HW123861   0.327   2.396   8.829 -0.0393  0.6527 -1.4174
 4075SOL    HW223862   0.205   2.372   8.735 -2.7204 -3.9580 -0.4181
 4076SOL     OW23863   1.373   2.381   6.876 -0.3250 -0.9788  0.1484
 4076SOL    HW123864   1.421   2.423   6.804  1.4858  0.4656  2.1990
 4076SOL    HW223865   1.444   2.368   6.938 -0.7193  2.3059  1.2848
 4077SOL     OW23866   3.345   4.463  14.067 -0.2394 -0.4299  0.1165
 4077SOL    HW123867   3.295   4.388  14.036  0.7189  0.0505 -2.5343
 4077SOL    HW223868   3.334   4.520  13.992  0.1971  0.7424  0.9427
 4078SOL     OW23869   1.080   0.233   8.715  0.8880 -1.1114 -0.2083
 4078SOL    HW123870   1.019   0.207   8.645 -1.3966  0.5943  1.1354
 4078SOL    HW223871   1.026   0.237   8.794  1.4324  1.7420  0.0150
 4079SOL     OW23872   0.763   3.058   3.407 -0.4856 -0.2574  0.0065
 4079SOL    HW123873   0.811   2.990   3.359 -0.2549 -1.7425  2.3537
 4079SOL    HW223874   0.839   3.103   3.444 -1.6997  2.6765 -1.1144
 4080SOL     OW23875   2.773   0.337   7.395  0.1202 -0.5022  0.9028
 4080SOL    HW123876   2.820   0.284   7.459  1.6335  0.1055  0.2768
 4080SOL    HW223877   2.721   0.390   7.456  0.4793  1.4448 -0.4768
 4081SOL     OW23878   3.967   3.071   3.668  0.5556 -0.1127  0.9315
 4081SOL    HW123879   3.910   3.109   3.601  0.1115 -1.7549  0.3821
 4081SOL    HW223880   3.957   3.138   3.735  0.2773  0.9378 -0.1679
 4082SOL     OW23881   4.497   3.177   5.508 -0.2315 -0.0583  0.3053
 4082SOL    HW123882   4.500   3.194   5.414 -0.2708  0.8867  0.4783
 4082SOL    HW223883   4.511   3.082   5.511  0.6955  0.0090 -1.7635
 4083SOL     OW23884   3.115   0.218  13.295  0.1687  0.0179  0.9947
 4083SOL    HW123885   3.034   0.180  13.264  0.4922 -0.2706  0.5117
 4083SOL    HW223886   3.150   0.277  13.228 -1.2576  0.3352  0.5398
 4084SOL     OW23887   2.633   1.292  11.780 -0.3823 -0.7020 -0.5437
 4084SOL    HW123888   2.611   1.384  11.766 -0.7040 -0.5030  1.1868
 4084SOL    HW223889   2.555   1.258  11.736 -0.0452 -2.8965  0.5511
 4085SOL     OW23890   3.296   2.541  17.049 -0.8341 -0.3555 -0.1504
 4085SOL    HW123891   3.208   2.505  17.038 -0.8976 -0.7789  1.7910
 4085SOL    HW223892   3.278   2.634  17.062 -2.3268 -0.5411 -0.9186
 4086SOL     OW23893   0.001   3.719   6.298  0.2662 -0.1158  0.7813
 4086SOL    HW123894   0.010   3.769   6.217 -1.5568 -0.9794  0.0469
 4086SOL    HW223895   4.724   3.631   6.264 -0.3018  0.0749  0.5225
 4087SOL     OW23896   2.266   4.584  16.920 -0.2145 -0.4355  0.1522
 4087SOL    HW123897   2.286   4.537  16.839  0.2731 -1.4912  0.8854
 4087SOL    HW223898   2.194   4.641  16.892  0.8606  0.3607 -0.9853
 4088SOL     OW23899   1.621   0.802   9.143 -0.0533  0.1198 -0.4329
 4088SOL    HW123900   1.645   0.795   9.235 -0.5694 -0.3502 -0.3372
 4088SOL    HW223901   1.528   0.821   9.152  0.0335 -0.8530  2.3727
 4089SOL     OW23902   2.746   1.210   6.284  0.4244 -0.2950  0.1400
 4089SOL    HW123903   2.819   1.204   6.346 -0.5613  0.9487  1.3959
 4089SOL    HW223904   2.689   1.267   6.334 -0.4968 -0.5102 -0.6595
 4090SOL     OW23905   4.244   3.644  11.836  0.3540 -0.0810 -0.5846
 4090SOL    HW123906   4.168   3.597  11.870 -0.7550  2.5883  0.6981
 4090SOL    HW223907   4.217   3.736  11.840  1.6723  0.3601 -1.8840
 4091SOL     OW23908   3.281   2.840   3.052  0.0929 -0.8724 -1.1271
 4091SOL    HW123909   3.310   2.927   3.026 -1.4612  0.0244  0.1558
 4091SOL    HW223910   3.226   2.865   3.126 -1.8221  0.4672 -2.9803
 4092SOL     OW23911   0.992   3.596   8.344 -0.1730 -0.1698  0.2358
 4092SOL    HW123912   0.998   3.501   8.351 -0.3344 -0.1424  0.7778
 4092SOL    HW223913   0.930   3.615   8.415 -2.3270 -0.6521 -1.4840
 4093SOL     OW23914   2.460   0.883   1.845 -0.1043 -0.0600 -0.0797
 4093SOL    HW123915   2.444   0.834   1.765  0.2552 -1.4513  0.6962
 4093SOL    HW223916   2.487   0.969   1.813  1.2821  0.0505  1.3847
 4094SOL     OW23917   1.292   0.496   7.697  0.3062 -0.3639  0.3776
 4094SOL    HW123918   1.335   0.545   7.627 -1.2584  1.3115  0.5765
 4094SOL    HW223919   1.331   0.538   7.774 -1.3290  0.9347  0.5093
 4095SOL     OW23920   3.867   3.132   6.262  0.3719 -0.0224  0.0504
 4095SOL    HW123921   3.869   3.228   6.259 -1.6056 -0.0344 -2.2236
 4095SOL    HW223922   3.961   3.118   6.271  0.3224 -0.5993 -0.3108
 4096SOL     OW23923   3.374   0.048   8.389  0.2675 -0.5267  0.9261
 4096SOL    HW123924   3.439   0.117   8.402 -0.3677 -0.1586  2.1823
 4096SOL    HW223925   3.301   0.108   8.373  2.5792  1.6945 -1.2852
 4097SOL     OW23926   1.527   4.731   8.114 -0.1119 -0.1997 -0.2405
 4097SOL    HW123927   1.536   4.649   8.065  1.8403 -0.0068 -0.2156
 4097SOL    HW223928   1.616   0.027   8.101 -0.4771  1.9238  2.5105
 4098SOL     OW23929   3.539   1.439  10.453  0.0378 -0.4809 -0.0424
 4098SOL    HW123930   3.610   1.402  10.506  0.4541  1.6947  0.9408
 4098SOL    HW223931   3.470   1.376  10.471  0.8597 -1.1815  0.6414
 4099SOL     OW23932   3.763   1.623  10.901 -0.1046 -0.1305 -0.1452
 4099SOL    HW123933   3.677   1.634  10.941  0.0085 -1.2388  0.3933
 4099SOL    HW223934   3.788   1.709  10.866 -1.9490  1.6404  2.8505
 4100SOL     OW23935   2.055   1.803   2.445 -0.0781  0.5440  0.3128
 4100SOL    HW123936   2.030   1.732   2.504  2.5697  1.2740  2.3322
 4100SOL    HW223937   2.129   1.756   2.406  0.4713  2.0204 -0.3932
 4101SOL     OW23938   2.219   2.488   8.130 -0.3268 -0.0061  0.3655
 4101SOL    HW123939   2.288   2.542   8.168 -0.7166 -0.6242  1.9167
 4101SOL    HW223940   2.222   2.508   8.036 -0.3673 -1.8894 -0.0200
 4102SOL     OW23941   2.752   3.468   1.951 -0.6741  0.6257  0.0918
 4102SOL    HW123942   2.693   3.415   1.898  0.4325  0.7429 -1.2681
 4102SOL    HW223943   2.838   3.448   1.914 -1.3390  1.6141 -1.9905
 4103SOL     OW23944   3.555   4.163   5.389  0.1182 -0.3958 -0.0628
 4103SOL    HW123945   3.567   4.097   5.320 -1.1328  1.8292 -2.4086
 4103SOL    HW223946   3.647   4.185   5.406  0.1047  0.1770 -0.7378
 4104SOL     OW23947   0.860   3.531   9.474  0.0326 -0.6151 -0.2618
 4104SOL    HW123948   0.882   3.485   9.392  0.8595  0.4547 -0.6380
 4104SOL    HW223949   0.941   3.524   9.525  0.5018 -1.1185 -1.0589
 4105SOL     OW23950   0.323   1.741   2.114 -0.1108 -0.3923  0.6728
 4105SOL    HW123951   0.265   1.772   2.183 -2.1835  0.1658 -1.3021
 4105SOL    HW223952   0.405   1.782   2.140 -0.6539  0.3462  1.2153
 4106SOL     OW23953   3.187   0.719   4.158  0.3044 -0.4841 -0.6260
 4106SOL    HW123954   3.133   0.640   4.166  0.3275 -0.1995  2.4721
 4106SOL    HW223955   3.211   0.728   4.250 -1.1353  0.6562 -0.3705
 4107SOL     OW23956   3.388   3.510   3.216 -0.2394  0.3532  0.1451
 4107SOL    HW123957   3.414   3.418   3.219  0.8501  0.6685  0.5999
 4107SOL    HW223958   3.348   3.509   3.129  1.4072  2.4523 -0.6587
 4108SOL     OW23959   2.438   0.789   2.464 -0.1100 -0.3738 -0.0923
 4108SOL    HW123960   2.428   0.884   2.456 -0.5320 -0.4450 -0.3549
 4108SOL    HW223961   2.522   0.770   2.422  0.1578 -0.3320  0.4226
 4109SOL     OW23962   3.943   1.670   8.032  0.0354  0.4149  0.0329
 4109SOL    HW123963   3.969   1.624   8.112 -1.6965 -1.7172 -0.6516
 4109SOL    HW223964   3.990   1.753   8.039 -0.0757  0.4446  0.4820
 4110SOL     OW23965   0.320   2.668  11.506 -0.7290 -0.1117  0.1285
 4110SOL    HW123966   0.240   2.654  11.455 -2.0796 -0.4879  2.3929
 4110SOL    HW223967   0.302   2.747  11.557  0.9240 -0.3571  1.0691
 4111SOL     OW23968   3.994   4.039   3.817 -0.0246 -0.4398 -0.3844
 4111SOL    HW123969   3.984   4.067   3.908 -1.2506  0.3871 -0.7638
 4111SOL    HW223970   3.983   4.121   3.768 -2.2568 -0.0583  0.7540
 4112SOL     OW23971   2.642   1.811   1.886  0.0781  0.0513 -0.2729
 4112SOL    HW123972   2.601   1.873   1.825 -0.0194 -0.9772 -1.2504
 4112SOL    HW223973   2.660   1.869   1.960 -0.8240  0.2660 -0.2258
 4113SOL     OW23974   1.347   2.662   3.861  0.6530  0.0661 -0.0657
 4113SOL    HW123975   1.383   2.700   3.941 -0.6124  1.8162 -0.3200
 4113SOL    HW223976   1.431   2.659   3.815 -1.4156 -3.0431 -3.6664
 4114SOL     OW23977   2.136   0.848  16.953 -0.5724  0.5979  0.1641
 4114SOL    HW123978   2.048   0.861  16.989 -0.4370  1.5743  0.1241
 4114SOL    HW223979   2.140   0.758  16.920 -1.9686  1.0611 -1.2770
 4115SOL     OW23980   3.325   1.281   4.821  0.2366 -0.3582  0.1646
 4115SOL    HW123981   3.348   1.192   4.793 -2.4843 -0.9430 -0.1583
 4115SOL    HW223982   3.231   1.282   4.805  0.3193 -0.1846 -0.2859
 4116SOL     OW23983   1.603   2.107  14.834  0.0857 -0.3054 -0.4618
 4116SOL    HW123984   1.666   2.101  14.906  0.1611 -2.8976 -0.7434
 4116SOL    HW223985   1.663   2.134  14.764 -1.1524  1.6578 -0.7629
 4117SOL     OW23986   4.670   3.175  11.453 -0.5918  0.2098  0.7696
 4117SOL    HW123987   4.611   3.138  11.518  0.9626 -1.9111  0.9576
 4117SOL    HW223988   4.674   3.106  11.387 -1.4922  0.9361 -0.0584
 4118SOL     OW23989   2.014   3.613  13.076  0.5436  0.0318 -0.4929
 4118SOL    HW123990   2.089   3.573  13.122  0.1654 -0.9162 -0.7040
 4118SOL    HW223991   2.000   3.690  13.131  3.3628  0.2289 -0.0162
 4119SOL     OW23992   3.034   4.141   7.941 -0.1288 -0.1664  0.4071
 4119SOL    HW123993   2.944   4.167   7.920 -0.3201 -2.5892 -1.8278
 4119SOL    HW223994   3.026   4.118   8.033  1.4367  1.6857  1.0061
 4120SOL     OW23995   3.438   4.458   4.679 -0.3722 -0.5076  0.0458
 4120SOL    HW123996   3.515   4.403   4.689  0.0206 -0.3841 -2.3191
 4120SOL    HW223997   3.452   4.513   4.602  2.8655  0.6194  1.4257
 4121SOL     OW23998   2.631   2.893  10.335 -0.2625 -0.2156 -0.0793
 4121SOL    HW123999   2.643   2.978  10.293 -3.0437  2.0102  3.6145
 4121SOL    HW224000   2.598   2.917  10.421  3.4212  1.3977  0.8872
 4122SOL     OW24001   0.623   2.822  16.678  0.6532  0.1586 -0.2698
 4122SOL    HW124002   0.578   2.814  16.762  1.3632 -1.7196 -0.0626
 4122SOL    HW224003   0.574   2.766  16.617  0.1499  1.4761 -1.0658
 4123SOL     OW24004   0.179   1.892   7.750 -0.2679 -0.0948  0.0929
 4123SOL    HW124005   0.190   1.983   7.777 -1.8819  0.7150 -2.0093
 4123SOL    HW224006   0.123   1.858   7.820 -1.8765 -1.9463 -2.0938
 4124SOL     OW24007   1.398   3.936  14.476 -0.2581  0.0506 -0.5972
 4124SOL    HW124008   1.408   3.845  14.506  0.0957 -0.9648 -3.7941
 4124SOL    HW224009   1.306   3.944  14.451 -0.0478 -1.8077 -2.0136
 4125SOL     OW24010   0.167   2.134   2.908  0.3101 -0.5427  0.1765
 4125SOL    HW124011   0.237   2.181   2.863 -0.7581  0.6346 -0.2514
 4125SOL    HW224012   0.114   2.099   2.837  1.0486 -2.3005  0.4866
 4126SOL     OW24013   3.415   4.092   2.893 -1.1361  0.5360 -0.5786
 4126SOL    HW124014   3.324   4.069   2.874 -0.5015 -3.0281  0.7309
 4126SOL    HW224015   3.440   4.005   2.924  1.6004  2.0183  1.3689
 4127SOL     OW24016   1.669   2.739   3.405  0.7422  0.0652 -0.3853
 4127SOL    HW124017   1.647   2.650   3.434  0.3448  0.3973  0.3235
 4127SOL    HW224018   1.759   2.751   3.435  1.5238  0.0183 -2.7293
 4128SOL     OW24019   3.406   1.492  17.098 -0.9271 -0.2394  0.4735
 4128SOL    HW124020   3.433   1.543  17.021  0.7403 -0.0949  1.1620
 4128SOL    HW224021   3.490   1.478  17.141 -0.2188 -2.0239 -1.4779
 4129SOL     OW24022   0.453   0.025   4.145 -0.6958 -0.3027  0.5236
 4129SOL    HW124023   0.404   4.681   4.134  0.7828 -1.2121  0.5729
 4129SOL    HW224024   0.393   0.093   4.114 -1.0510 -0.1096  1.6377
 4130SOL     OW24025   1.763   3.657   6.159 -0.5038 -0.1678 -0.3290
 4130SOL    HW124026   1.843   3.672   6.209  0.9020 -1.9879 -2.0529
 4130SOL    HW224027   1.717   3.741   6.169 -1.2782 -0.5457 -0.7126
 4131SOL     OW24028   3.434   3.056   5.680 -0.1885 -0.4910  0.6612
 4131SOL    HW124029   3.449   3.128   5.741  1.2842 -0.4282  0.2284
 4131SOL    HW224030   3.429   2.971   5.724 -1.9320 -1.5456 -1.5639
 4132SOL     OW24031   2.325   0.524   2.279 -0.3079 -0.2121 -0.5965
 4132SOL    HW124032   2.418   0.508   2.292 -1.0005 -2.1914  1.8652
 4132SOL    HW224033   2.331   0.589   2.209 -0.4041 -0.9125 -1.2609
 4133SOL     OW24034   1.739   0.468   0.039 -0.1379  0.4153 -0.1140
 4133SOL    HW124035   1.822   0.501   0.072  0.7917 -2.6418  0.5977
 4133SOL    HW224036   1.710   0.412   0.111  2.2817  1.0685  1.3745
 4134SOL     OW24037   4.348   2.866   5.269 -0.0377 -0.0162  0.4652
 4134SOL    HW124038   4.337   2.912   5.186  1.3902 -1.2132 -0.3973
 4134SOL    HW224039   4.426   2.814   5.247 -0.9265 -1.3893  0.5344
 4135SOL     OW24040   2.233   4.667   4.875 -0.2251 -0.0238 -0.1820
 4135SOL    HW124041   2.287   4.595   4.841 -0.4171 -0.6934  0.9257
 4135SOL    HW224042   2.143   4.633   4.873 -0.0942 -0.5213  2.5398
 4136SOL     OW24043   3.119   2.531   6.699  0.2249 -0.0877  0.4295
 4136SOL    HW124044   3.207   2.513   6.730  1.0016  0.9191 -1.2198
 4136SOL    HW224045   3.106   2.447   6.655  0.4814  0.5983 -0.9501
 4137SOL     OW24046   4.001   0.683   2.147 -0.0120  0.2183 -0.1228
 4137SOL    HW124047   3.958   0.752   2.096 -0.5530 -0.0240  0.0059
 4137SOL    HW224048   3.969   0.603   2.105 -2.0332  0.3843  1.0832
 4138SOL     OW24049   3.089   0.647  11.153  0.5718 -0.0576  0.4888
 4138SOL    HW124050   3.121   0.688  11.073  1.1887 -0.7442  0.3848
 4138SOL    HW224051   3.150   0.686  11.216  1.3621 -0.7620  0.1608
 4139SOL     OW24052   0.644   2.383  12.507 -0.1535  0.0077  0.1734
 4139SOL    HW124053   0.686   2.298  12.495  0.1095  0.3217 -1.1283
 4139SOL    HW224054   0.597   2.371  12.590 -0.9312 -1.0253 -0.4168
 4140SOL     OW24055   2.152   3.879   6.120  0.0131  0.0108 -0.2829
 4140SOL    HW124056   2.088   3.944   6.090 -1.4523 -0.2683  2.2726
 4140SOL    HW224057   2.102   3.814   6.169  0.9895  0.8056  1.7410
 4141SOL     OW24058   3.831   0.782   6.276  0.3124 -0.4174 -0.1990
 4141SOL    HW124059   3.880   0.789   6.194 -0.5611  1.2974 -0.5733
 4141SOL    HW224060   3.742   0.757   6.248  0.1608 -0.5005  0.3656
 4142SOL     OW24061   1.642   3.623   3.743 -0.3145 -0.1505 -0.8185
 4142SOL    HW124062   1.563   3.592   3.697 -1.4709  0.8374  0.5340
 4142SOL    HW224063   1.623   3.573   3.823 -0.3976  0.5854 -0.3837
 4143SOL     OW24064   3.191   3.745   5.975 -0.0936  0.3181  0.5183
 4143SOL    HW124065   3.189   3.831   6.016 -1.2614  0.3964  0.3033
 4143SOL    HW224066   3.206   3.766   5.883  1.0031  0.2139  0.6719
 4144SOL     OW24067   1.729   1.661  10.264 -0.1983 -0.1989  0.2357
 4144SOL    HW124068   1.799   1.597  10.262 -0.3512 -0.3027 -2.5279
 4144SOL    HW224069   1.664   1.633  10.329 -1.0142 -1.0762 -0.9464
 4145SOL     OW24070   0.362   3.914   8.181 -0.0144 -0.5238 -0.6380
 4145SOL    HW124071   0.279   3.892   8.137 -1.8568  1.9264  1.5921
 4145SOL    HW224072   0.411   3.833   8.172 -1.2568 -1.4063  0.5519
 4146SOL     OW24073   1.518   0.239   8.533 -0.5051 -0.0906  0.2480
 4146SOL    HW124074   1.434   0.272   8.566 -1.8254 -0.5373 -2.6370
 4146SOL    HW224075   1.574   0.315   8.519 -0.0355 -0.4978 -0.0972
 4147SOL     OW24076   1.392   1.127   5.982 -0.6439 -0.1097 -0.6921
 4147SOL    HW124077   1.423   1.086   6.063 -1.0677 -2.1613 -1.5631
 4147SOL    HW224078   1.302   1.130   6.015 -0.5670  0.1230 -0.4966
 4148SOL     OW24079   2.846   4.318   0.972  0.1322 -0.5298 -0.7391
 4148SOL    HW124080   2.802   4.275   1.045  1.4548 -4.3255 -2.1191
 4148SOL    HW224081   2.819   4.409   0.982 -1.5215 -1.1588  0.4384
 4149SOL     OW24082   3.428   2.883   1.949  0.6103  0.1513 -0.2963
 4149SOL    HW124083   3.393   2.897   1.862 -2.2291  0.8061  0.9478
 4149SOL    HW224084   3.411   2.789   1.959  0.0583  0.3142  0.2701
 4150SOL     OW24085   3.832   3.166  10.393  0.0976 -0.2718  0.3201
 4150SOL    HW124086   3.793   3.095  10.343 -0.2350 -0.7873  1.3168
 4150SOL    HW224087   3.818   3.240  10.333  5.0912 -1.1639 -2.0168
 4151SOL     OW24088   1.774   3.902  12.581  0.3429 -0.2610  0.4492
 4151SOL    HW124089   1.859   3.927  12.544 -0.9382  2.4320 -0.6460
 4151SOL    HW224090   1.721   3.895  12.502  0.9684 -0.3821  0.0384
 4152SOL     OW24091   2.845   1.843   1.617 -0.3037  0.4662 -0.8519
 4152SOL    HW124092   2.939   1.829   1.605 -0.8220 -3.0563 -0.7214
 4152SOL    HW224093   2.848   1.891   1.699  0.4748  0.4927 -0.8931
 4153SOL     OW24094   2.023   4.662   7.579  0.1844  0.3264  0.1965
 4153SOL    HW124095   1.969   4.586   7.602 -0.7197  0.6796 -0.7402
 4153SOL    HW224096   2.026   4.649   7.484 -1.8022  1.5703 -0.0422
 4154SOL     OW24097   0.766   3.174   4.184  0.8029 -0.2001  0.1917
 4154SOL    HW124098   0.825   3.124   4.126  0.9888  0.4249 -0.1546
 4154SOL    HW224099   0.780   3.127   4.266  0.6702  0.9809  0.8810
 4155SOL     OW24100   4.314   4.564   6.323 -0.1969  0.2606  0.0795
 4155SOL    HW124101   4.355   4.624   6.386 -0.4893  1.3521 -0.7670
 4155SOL    HW224102   4.379   4.554   6.253 -0.7432  0.0442 -0.3913
 4156SOL     OW24103   3.338   4.286   7.706 -0.6077 -0.0318 -0.4179
 4156SOL    HW124104   3.361   4.227   7.778  0.9046  0.2844 -0.6504
 4156SOL    HW224105   3.290   4.356   7.750 -0.3221  0.6209 -1.1473
 4157SOL     OW24106   0.948   0.635   9.781  0.0377 -0.1104  0.2259
 4157SOL    HW124107   0.937   0.603   9.870  1.9503 -2.4368 -0.3653
 4157SOL    HW224108   0.938   0.730   9.789  0.7732  0.0987 -1.3053
 4158SOL     OW24109   1.680   1.707   1.603 -0.1362  0.0708  0.2349
 4158SOL    HW124110   1.641   1.636   1.654 -1.5360 -1.3114 -2.7486
 4158SOL    HW224111   1.678   1.672   1.514 -2.2261  0.2777  0.2076
 4159SOL     OW24112   0.199   3.675  11.755 -0.0941 -0.4394 -0.4692
 4159SOL    HW124113   0.179   3.655  11.846  1.6495  0.8518  0.1970
 4159SOL    HW224114   0.240   3.596  11.720 -0.0910 -1.3415  1.5710
 4160SOL     OW24115   4.016   0.764  11.590 -0.1927  0.0698 -0.5001
 4160SOL    HW124116   4.037   0.703  11.660  0.2724  1.4886  0.6041
 4160SOL    HW224117   4.067   0.725  11.520  0.1599 -0.6046  0.1442
 4161SOL     OW24118   1.901   4.715   1.958 -0.5014  0.1174 -0.7947
 4161SOL    HW124119   1.994   4.707   1.938  0.0012  3.5566  0.0628
 4161SOL    HW224120   1.891   0.050   2.021 -0.1629  0.6587 -1.3549
 4162SOL     OW24121   3.534   4.227  16.996 -0.2885 -0.1436  0.4055
 4162SOL    HW124122   3.448   4.192  17.018 -0.6158 -0.2175 -1.0158
 4162SOL    HW224123   3.558   4.274  17.076 -0.7075 -2.3917  1.8500
 4163SOL     OW24124   2.212   1.229   6.509 -0.1050  0.4143 -0.1621
 4163SOL    HW124125   2.295   1.182   6.523 -0.4443  0.2528  1.2677
 4163SOL    HW224126   2.172   1.215   6.595 -1.0980  1.9962 -0.3730
 4164SOL     OW24127   0.262   2.462  13.562  0.2819 -0.4948 -0.0076
 4164SOL    HW124128   0.280   2.480  13.654 -1.9483 -1.3875  0.6232
 4164SOL    HW224129   0.334   2.403  13.545  1.4156  0.9964 -0.3962
 4165SOL     OW24130   2.736   0.796   8.178  0.4320  0.0393  0.2689
 4165SOL    HW124131   2.672   0.844   8.232 -1.0791 -1.1609 -0.4596
 4165SOL    HW224132   2.818   0.819   8.222  1.2147 -2.3465  0.0529
 4166SOL     OW24133   3.880   3.430   6.253  0.5183 -0.2740 -0.2669
 4166SOL    HW124134   3.927   3.472   6.181 -0.1476  0.6762 -0.1424
 4166SOL    HW224135   3.838   3.508   6.288 -1.5604 -2.3655  1.9019
 4167SOL     OW24136   2.983   4.693  15.639  0.2833  0.1602  0.5210
 4167SOL    HW124137   2.917   4.643  15.591  2.2591 -0.9544 -1.0457
 4167SOL    HW224138   3.026   4.629  15.695  2.2040 -0.5727 -1.8283
 4168SOL     OW24139   3.497   1.890   8.861  0.1382  0.3508  0.4701
 4168SOL    HW124140   3.486   1.962   8.923 -1.4243  0.9990 -0.5544
 4168SOL    HW224141   3.583   1.862   8.892  0.2329 -1.0963 -1.0761
 4169SOL     OW24142   2.636   3.442   5.915 -0.7343  0.1605  0.4370
 4169SOL    HW124143   2.570   3.380   5.945 -0.1853  0.7501  2.8528
 4169SOL    HW224144   2.674   3.452   6.002 -0.3082 -1.2388  0.4042
 4170SOL     OW24145   2.647   1.577   1.769  0.2615 -0.0367  0.2090
 4170SOL    HW124146   2.638   1.650   1.829 -0.3981  0.6152 -0.6760
 4170SOL    HW224147   2.632   1.616   1.683  3.3661 -2.2153 -1.3345
 4171SOL     OW24148   0.147   0.121  15.996 -0.1358  0.1822  0.1856
 4171SOL    HW124149   0.226   0.072  15.974 -1.1641 -0.8735 -1.1525
 4171SOL    HW224150   0.167   0.156  16.083 -0.6204  3.2290 -0.9274
 4172SOL     OW24151   1.971   0.531  15.154 -0.3745 -0.7281  0.1435
 4172SOL    HW124152   2.028   0.592  15.199  0.4843 -1.7304  0.4080
 4172SOL    HW224153   2.018   0.448  15.146  1.4878  0.3704 -0.2135
 4173SOL     OW24154   1.623   4.698   6.318 -0.2085 -0.0550  0.2223
 4173SOL    HW124155   1.646   0.001   6.235 -1.2205 -0.4966 -0.2684
 4173SOL    HW224156   1.542   0.008   6.336 -0.1309  0.3614 -0.5221
 4174SOL     OW24157   2.246   0.431   5.733  0.4929  0.0659 -0.0639
 4174SOL    HW124158   2.152   0.432   5.751  1.0125 -1.7516  2.8472
 4174SOL    HW224159   2.255   0.526   5.732  1.4758 -0.0537 -1.9038
 4175SOL     OW24160   0.088   3.424   6.975  0.6075 -0.7454 -0.0032
 4175SOL    HW124161   0.045   3.354   6.927 -1.8597  0.8311 -0.1342
 4175SOL    HW224162   0.056   3.395   7.060  0.5287  0.4299  0.3747
 4176SOL     OW24163   1.026   4.671   2.848 -0.3502 -0.2616 -0.7381
 4176SOL    HW124164   1.029   4.662   2.943  0.0253 -2.6103 -0.9686
 4176SOL    HW224165   1.017   0.028   2.835  2.7649 -0.1367 -2.0329
 4177SOL     OW24166   0.537   0.065   4.424  0.3102  0.0395 -0.4152
 4177SOL    HW124167   0.527   0.033   4.335 -0.8133  2.3702 -1.1126
 4177SOL    HW224168   0.632   0.051   4.430  0.4344  0.3972 -1.7096
 4178SOL     OW24169   1.266   0.570  11.962  0.5650 -0.0414 -0.1660
 4178SOL    HW124170   1.335   0.591  11.899 -0.7086 -1.3415 -1.9813
 4178SOL    HW224171   1.259   0.654  12.007  2.6171  0.0585 -0.0172
 4179SOL     OW24172   4.258   3.704  13.384  0.1828 -0.2707  0.4724
 4179SOL    HW124173   4.303   3.634  13.430 -1.0483 -1.0062  0.5730
 4179SOL    HW224174   4.317   3.709  13.309 -0.6327 -2.0445 -0.2764
 4180SOL     OW24175   1.390   3.524   6.155  0.2027 -0.3652  0.3056
 4180SOL    HW124176   1.355   3.552   6.240  0.0482 -1.1597  0.5098
 4180SOL    HW224177   1.363   3.590   6.092 -1.2758 -1.0238  0.2345
 4181SOL     OW24178   2.082   0.689   1.744 -0.2387  0.2234  0.4313
 4181SOL    HW124179   2.132   0.720   1.820 -0.5146  0.4421  0.5223
 4181SOL    HW224180   2.014   0.756   1.742 -0.6230 -0.2167 -1.6643
 4182SOL     OW24181   4.316   2.559   6.374 -0.3184  0.2837  0.0195
 4182SOL    HW124182   4.282   2.492   6.434 -1.2335  1.9231  1.3407
 4182SOL    HW224183   4.346   2.629   6.432 -0.3173 -0.7900  1.3217
 4183SOL     OW24184   1.793   3.433  12.480  0.0416 -0.1891  0.5529
 4183SOL    HW124185   1.780   3.475  12.565 -0.9291 -0.2165  0.4158
 4183SOL    HW224186   1.889   3.431  12.481 -0.0025 -2.2838  1.4936
 4184SOL     OW24187   2.055   2.815   0.841 -0.5609  0.5180  0.1267
 4184SOL    HW124188   2.042   2.778   0.928 -0.7805  0.7831  0.2056
 4184SOL    HW224189   2.148   2.794   0.833 -0.7653 -0.4409  0.3101
 4185SOL     OW24190   1.639   2.400   7.511  0.3845  0.0310  0.2829
 4185SOL    HW124191   1.724   2.444   7.513  0.8062 -0.8302  1.7763
 4185SOL    HW224192   1.602   2.406   7.424  1.9174 -1.4465 -0.4798
 4186SOL     OW24193   4.095   2.281  17.692  0.2894 -0.1636 -0.4622
 4186SOL    HW124194   4.009   2.323  17.696  0.6799  0.8277 -2.0832
 4186SOL    HW224195   4.148   2.360  17.680 -1.7302  1.5362  1.9873
 4187SOL     OW24196   2.765   3.634  12.443 -0.4105  0.0094 -0.1429
 4187SOL    HW124197   2.770   3.550  12.397 -0.1064 -1.1176  1.9653
 4187SOL    HW224198   2.718   3.694  12.386  0.0993 -0.8711 -1.4936
 4188SOL     OW24199   4.275   1.962  17.203 -0.1227 -0.4982 -0.2477
 4188SOL    HW124200   4.318   1.899  17.144 -0.1441  0.0123 -0.8115
 4188SOL    HW224201   4.347   2.022  17.221  0.7635 -1.3477 -0.9346
 4189SOL     OW24202   3.343   4.276   3.846 -0.1544  0.2626 -0.0215
 4189SOL    HW124203   3.260   4.308   3.881 -0.7567 -2.2808  0.9240
 4189SOL    HW224204   3.401   4.337   3.892  0.7309 -0.2616 -0.4459
 4190SOL     OW24205   3.820   0.091   8.160 -0.7801 -0.1394 -0.1422
 4190SOL    HW124206   3.790   0.055   8.244  0.6156 -0.7352  0.1024
 4190SOL    HW224207   3.907   0.126   8.179 -0.9546  0.9308 -1.3334
 4191SOL     OW24208   2.247   0.545  10.570 -0.2122 -0.2006  0.1030
 4191SOL    HW124209   2.186   0.607  10.531  0.2822  0.4322  0.3458
 4191SOL    HW224210   2.214   0.539  10.660 -1.3758  1.8101 -0.1877
 4192SOL     OW24211   0.926   1.569  11.019  0.3230 -0.1379  0.1549
 4192SOL    HW124212   0.956   1.628  11.088 -2.3552  0.3978  0.8923
 4192SOL    HW224213   0.968   1.600  10.939 -0.6771  1.1600  0.1255
 4193SOL     OW24214   0.563   1.004   2.304 -0.1564  0.2950 -0.1273
 4193SOL    HW124215   0.576   1.055   2.384  1.8134  0.4478 -0.5553
 4193SOL    HW224216   0.644   1.015   2.256 -0.0343  1.2425  0.3077
 4194SOL     OW24217   2.061   4.016  14.932 -0.1189 -0.0675  0.3523
 4194SOL    HW124218   1.985   3.960  14.946 -0.5725  0.0340 -1.7334
 4194SOL    HW224219   2.075   4.080  15.002  2.2167  0.1461 -0.2830
 4195SOL     OW24220   3.130   1.728   6.839  0.0877 -0.1447  0.3238
 4195SOL    HW124221   3.184   1.796   6.799 -0.3218  0.6896  1.1807
 4195SOL    HW224222   3.125   1.760   6.930  0.5498  1.4394 -0.2129
 4196SOL     OW24223   2.327   4.250   6.796  0.2144 -0.0114 -0.1404
 4196SOL    HW124224   2.284   4.172   6.761  0.2284 -1.1244  2.3363
 4196SOL    HW224225   2.388   4.203   6.854 -0.2881  1.7320  1.7961
 4197SOL     OW24226   4.362   1.551   3.544  0.3331 -0.1397  0.2500
 4197SOL    HW124227   4.419   1.604   3.599  1.9875 -0.0753 -1.5401
 4197SOL    HW224228   4.418   1.478   3.519 -1.0713 -0.9447 -0.5296
 4198SOL     OW24229   2.340   4.581  15.507 -0.0499 -0.0034 -0.7897
 4198SOL    HW124230   2.337   4.534  15.590  0.4862 -0.7078 -1.1636
 4198SOL    HW224231   2.296   4.662  15.532  1.0091 -0.3753  2.2628
 4199SOL     OW24232   1.939   0.949   6.514  0.7299 -0.2495  0.6409
 4199SOL    HW124233   1.919   0.866   6.471  1.6017 -0.1935  0.1303
 4199SOL    HW224234   2.027   0.964   6.480  0.7483  0.2447  0.9041
 4200SOL     OW24235   3.464   2.878   0.001  0.1597 -0.2845 -0.0577
 4200SOL    HW124236   3.544   2.847  17.705  0.8036  1.1684  0.0697
 4200SOL    HW224237   3.493   2.882   0.092  0.2272 -0.0445 -0.0881
 4201SOL     OW24238   2.159   4.658  10.328 -0.1077 -0.0972 -0.1172
 4201SOL    HW124239   2.159   4.633  10.420 -2.1596  1.6127  0.3592
 4201SOL    HW224240   2.229   4.723  10.318  0.2712 -0.6156 -0.8110
 4202SOL     OW24241   2.604   1.315  14.181 -0.0504  0.1961  0.3662
 4202SOL    HW124242   2.571   1.323  14.092  1.1311  2.5047  0.1257
 4202SOL    HW224243   2.607   1.406  14.211  1.5882 -0.9408  3.6728
 4203SOL     OW24244   3.237   0.189   1.721 -0.6219  0.3518 -0.4013
 4203SOL    HW124245   3.282   0.265   1.758  0.4620  0.5871 -2.1644
 4203SOL    HW224246   3.309   0.150   1.672 -2.0279 -1.9160 -0.6838
 4204SOL     OW24247   1.441   1.566   3.450  0.3554  0.1084 -0.2267
 4204SOL    HW124248   1.499   1.553   3.524  0.9817  1.7794 -0.4283
 4204SOL    HW224249   1.467   1.480   3.419 -2.4170 -0.6188 -0.5671
 4205SOL     OW24250   2.079   4.565   0.733  0.1714  0.4685  0.0062
 4205SOL    HW124251   2.064   4.649   0.777 -1.7699  0.1803 -0.0923
 4205SOL    HW224252   2.131   4.605   0.663  0.5935  1.1349  0.6928
 4206SOL     OW24253   2.178   1.798   4.046  0.8286 -0.1798  0.8805
 4206SOL    HW124254   2.193   1.866   4.112  0.9015  1.2861 -0.6482
 4206SOL    HW224255   2.199   1.852   3.970 -1.0784  0.2774  0.6794
 4207SOL     OW24256   3.816   1.049   6.999 -0.0227 -0.0477  0.3207
 4207SOL    HW124257   3.760   1.019   7.071 -0.2496 -0.1699  0.0941
 4207SOL    HW224258   3.861   1.115   7.052 -0.9043  0.8948 -0.0898
 4208SOL     OW24259   2.441   1.165   2.190 -0.4506  0.1460 -0.6072
 4208SOL    HW124260   2.409   1.145   2.102  0.4150  0.6820 -1.0416
 4208SOL    HW224261   2.509   1.229   2.168  0.2354 -0.6427 -0.7511
 4209SOL     OW24262   4.576   2.440  17.020 -0.5224  0.2620 -0.0598
 4209SOL    HW124263   4.542   2.493  17.092  0.0403  0.3814  0.1201
 4209SOL    HW224264   4.508   2.379  16.991 -0.9726 -0.4729  2.5442
 4210SOL     OW24265   4.140   1.928   7.175  0.1443  0.8922  0.8094
 4210SOL    HW124266   4.143   1.920   7.079  0.0047 -0.2698  0.9022
 4210SOL    HW224267   4.139   2.024   7.173 -1.9603  0.8825  2.2335
 4211SOL     OW24268   1.107   4.312   2.627 -0.1301 -0.2146  0.4251
 4211SOL    HW124269   1.034   4.284   2.684  0.0200  1.6187  1.5052
 4211SOL    HW224270   1.157   4.230   2.632  0.3592  0.0779  0.3055
 4212SOL     OW24271   0.382   3.562   6.444  0.1491  0.2176  0.0709
 4212SOL    HW124272   0.326   3.640   6.445  0.1783  0.3115 -3.0032
 4212SOL    HW224273   0.452   3.582   6.381  1.6554 -1.1159  1.3346
 4213SOL     OW24274   2.804   2.667   6.227  0.3363  0.2588 -0.1768
 4213SOL    HW124275   2.749   2.714   6.289 -0.6645  0.2570 -1.0626
 4213SOL    HW224276   2.735   2.624   6.177  1.6989 -1.5844 -0.4666
 4214SOL     OW24277   1.044   4.020   9.743  0.4372 -0.3723 -0.4985
 4214SOL    HW124278   1.103   3.954   9.707  1.2073 -0.3908  0.8058
 4214SOL    HW224279   1.090   4.103   9.727  0.3626 -0.0811  0.7655
 4215SOL     OW24280   0.307   1.373   5.418 -0.4447 -0.2019 -0.4195
 4215SOL    HW124281   0.217   1.346   5.438 -0.4142 -0.5185 -0.7230
 4215SOL    HW224282   0.320   1.336   5.331 -0.1500  1.4938 -1.0825
 4216SOL     OW24283   2.508   4.101   3.571 -0.2817 -0.5468  0.4205
 4216SOL    HW124284   2.530   4.141   3.487  0.1336  0.1661  0.8698
 4216SOL    HW224285   2.576   4.138   3.627  1.4419 -1.2404 -1.2508
 4217SOL     OW24286   0.023   3.900  11.684 -0.2837  0.4029 -0.5639
 4217SOL    HW124287   0.016   3.834  11.615  2.3005 -0.2667 -0.1859
 4217SOL    HW224288   0.110   3.867  11.706 -0.7778 -1.3877 -1.3072
 4218SOL     OW24289   1.487   0.935   0.969  0.5112 -0.1569 -0.2694
 4218SOL    HW124290   1.486   0.996   0.895  1.7355  1.9385  1.4255
 4218SOL    HW224291   1.541   0.864   0.936 -0.6370 -1.4069  0.5613
 4219SOL     OW24292   0.639   2.013   4.211  0.5185  0.5025 -0.0058
 4219SOL    HW124293   0.631   1.950   4.283 -0.8102  0.9886  0.2575
 4219SOL    HW224294   0.727   2.046   4.231  1.6108 -2.7151  0.4974
 4220SOL     OW24295   3.929   2.489  14.933 -0.6979  0.6725  0.1099
 4220SOL    HW124296   3.936   2.417  14.995  3.3751 -0.7166 -1.9870
 4220SOL    HW224297   3.900   2.561  14.989 -1.0390  0.6381 -0.0233
 4221SOL     OW24298   0.095   3.358   7.841 -0.1747  0.1978  0.0555
 4221SOL    HW124299   0.138   3.280   7.806 -0.9066  0.2473 -0.9711
 4221SOL    HW224300   0.025   3.353   7.776  1.2148  2.6197 -1.6399
 4222SOL     OW24301   3.623   2.272   8.193  0.5915 -0.5109  0.6102
 4222SOL    HW124302   3.567   2.304   8.263 -0.9657  1.9713 -1.7766
 4222SOL    HW224303   3.632   2.352   8.142 -0.8953 -0.2268  0.7912
 4223SOL     OW24304   1.320   3.545  13.620 -0.0649  0.1121  0.1374
 4223SOL    HW124305   1.403   3.593  13.627  0.4566 -0.5164 -1.5974
 4223SOL    HW224306   1.294   3.571  13.532 -0.4979 -0.1103  0.1992
 4224SOL     OW24307   1.748   0.645   8.952 -0.1240 -0.5182  0.0507
 4224SOL    HW124308   1.779   0.580   9.014  2.1203  0.3106 -0.1897
 4224SOL    HW224309   1.723   0.707   9.020 -1.6912 -1.7569  0.5973
 4225SOL     OW24310   0.049   2.527   6.975 -0.1368 -0.0389 -0.2880
 4225SOL    HW124311   0.023   2.566   7.059 -2.3270 -0.5362 -0.7246
 4225SOL    HW224312   0.140   2.552   6.964  0.5488 -2.3868  0.0030
 4226SOL     OW24313   3.731   4.466   8.541 -0.3807 -0.1125  0.3039
 4226SOL    HW124314   3.653   4.455   8.594 -1.5170  1.6223 -0.9893
 4226SOL    HW224315   3.698   4.440   8.455  2.3026 -1.2191 -0.4086
 4227SOL     OW24316   2.841   0.285   7.134  0.2588 -0.1856 -0.0461
 4227SOL    HW124317   2.915   0.227   7.151  2.5870  3.4774  2.3108
 4227SOL    HW224318   2.813   0.303   7.224  1.9408  2.5345 -0.0777
 4228SOL     OW24319   0.749   4.638   6.126 -0.4205 -0.3149 -0.6324
 4228SOL    HW124320   0.823   4.597   6.081 -0.1687 -1.8110  1.1409
 4228SOL    HW224321   0.679   4.633   6.060 -0.1390  0.2250 -0.9684
 4229SOL     OW24322   3.385   2.632   2.700 -0.2932 -0.0167  0.1405
 4229SOL    HW124323   3.323   2.598   2.764 -2.2862  0.9282 -1.3024
 4229SOL    HW224324   3.367   2.726   2.697 -0.1823  0.0216  0.8734
 4230SOL     OW24325   0.543   4.336   5.075  0.3516  0.5544 -0.0327
 4230SOL    HW124326   0.472   4.400   5.073 -0.9268 -0.8014  2.0281
 4230SOL    HW224327   0.623   4.388   5.068  1.6033 -1.3853 -0.1656
 4231SOL     OW24328   4.620   4.117   9.670  0.1317  0.1698  0.0804
 4231SOL    HW124329   4.647   4.044   9.727 -1.6890 -2.0119 -1.8227
 4231SOL    HW224330   4.623   4.183   9.739  0.6404 -0.1060  0.3249
 4232SOL     OW24331   2.942   4.687  12.002  0.0131 -0.5255 -0.0786
 4232SOL    HW124332   3.014   4.650  12.053  2.5867  4.2808 -0.3152
 4232SOL    HW224333   2.875   4.618  12.001 -0.5846  0.0704 -0.6787
 4233SOL     OW24334   2.765   2.433   3.936  0.0185 -0.1508 -0.3065
 4233SOL    HW124335   2.710   2.377   3.990 -0.7986  2.9851  2.1398
 4233SOL    HW224336   2.851   2.393   3.949  0.1239  0.1617 -0.0100
 4234SOL     OW24337   1.349   2.083   9.091 -0.5443  0.4623  1.1084
 4234SOL    HW124338   1.327   2.107   9.001 -0.6549 -0.2726  0.9363
 4234SOL    HW224339   1.331   1.989   9.094  0.8430  0.2739  3.2452
 4235SOL     OW24340   2.820   2.010   6.110  0.1191  0.3501 -0.0924
 4235SOL    HW124341   2.848   2.101   6.107  0.8054  0.2289  2.4085
 4235SOL    HW224342   2.894   1.974   6.160 -1.1664 -2.6646 -0.3223
 4236SOL     OW24343   4.215   0.804   1.934  0.1881 -0.1668 -0.4203
 4236SOL    HW124344   4.122   0.822   1.918  0.3198  1.3215  0.5320
 4236SOL    HW224345   4.211   0.717   1.973  0.1796  0.4312  0.8998
 4237SOL     OW24346   4.364   3.204  14.753 -0.5601 -0.2111  0.2002
 4237SOL    HW124347   4.433   3.138  14.761  1.1638  1.4276 -1.0000
 4237SOL    HW224348   4.285   3.163  14.788  0.2180 -2.0392 -0.2082
 4238SOL     OW24349   1.820   2.614   5.738  0.6826  0.0326 -0.2200
 4238SOL    HW124350   1.760   2.540   5.727 -0.3201  1.1320 -2.3114
 4238SOL    HW224351   1.884   2.569   5.793 -0.1497 -1.8011 -0.7603
 4239SOL     OW24352   0.840   1.501   8.042 -0.2157 -0.5085 -0.3494
 4239SOL    HW124353   0.752   1.536   8.048 -0.4019 -0.6512 -2.1163
 4239SOL    HW224354   0.874   1.574   7.991 -1.6273 -1.4035 -2.5874
 4240SOL     OW24355   0.063   1.895   3.922 -0.0075  0.1190  0.7726
 4240SOL    HW124356   0.095   1.888   3.832 -0.8903 -1.4884  0.5843
 4240SOL    HW224357   0.012   1.976   3.925 -1.3602 -0.7351  0.5809
 4241SOL     OW24358   2.554   1.505   8.790  0.4754 -0.6763 -0.3340
 4241SOL    HW124359   2.503   1.424   8.784  0.2547 -0.5562 -0.1238
 4241SOL    HW224360   2.494   1.559   8.841  1.5307  0.1836 -0.0190
 4242SOL     OW24361   4.560   1.947   3.629  0.0506  0.0812 -0.1498
 4242SOL    HW124362   4.627   1.987   3.573 -0.1070  1.7606  0.8794
 4242SOL    HW224363   4.534   2.031   3.666 -0.3877 -0.9889  1.9947
 4243SOL     OW24364   0.029   3.924   6.486  0.1515  0.3164  0.1818
 4243SOL    HW124365   0.009   3.849   6.429 -1.6545  1.5990 -0.8855
 4243SOL    HW224366   4.679   3.951   6.514  0.3505  0.1129  0.9993
 4244SOL     OW24367   3.738   3.051   0.013  0.7030  0.0627  0.3637
 4244SOL    HW124368   3.831   3.031   0.006 -0.3338 -3.9047 -2.0959
 4244SOL    HW224369   3.705   3.030  17.673 -0.5307 -1.4661  1.1935
 4245SOL     OW24370   1.014   4.114   8.805 -0.2822  0.3507  0.1243
 4245SOL    HW124371   1.048   4.106   8.716 -0.4522  1.4504 -0.0415
 4245SOL    HW224372   1.069   4.059   8.860 -1.5152  2.0231  3.0594
 4246SOL     OW24373   0.446   0.863  14.844 -0.1876 -0.2404 -0.2701
 4246SOL    HW124374   0.492   0.919  14.781 -1.0373  1.1280  0.3446
 4246SOL    HW224375   0.513   0.795  14.846  1.4426  1.3737 -0.7048
 4247SOL     OW24376   4.497   3.991   5.394  0.1907  0.3114  0.2268
 4247SOL    HW124377   4.417   4.025   5.435 -0.0675 -0.7410  0.6181
 4247SOL    HW224378   4.561   4.030   5.454  0.1231  1.1332 -0.2421
 4248SOL     OW24379   1.197   2.319   6.114 -0.2082  0.7144 -0.0853
 4248SOL    HW124380   1.219   2.263   6.188 -0.2871  0.4290 -0.2780
 4248SOL    HW224381   1.173   2.400   6.159 -0.4720 -0.1561  1.3411
 4249SOL     OW24382   1.716   3.857   7.306 -0.1965  0.1777 -0.3522
 4249SOL    HW124383   1.741   3.784   7.362 -2.0059 -0.7649 -0.7881
 4249SOL    HW224384   1.722   3.821   7.217  0.8798 -0.3799 -0.0472
 4250SOL     OW24385   2.548   0.676   9.854  0.3239  0.3508  0.0882
 4250SOL    HW124386   2.553   0.644   9.944  1.7864 -1.6200 -0.7027
 4250SOL    HW224387   2.492   0.605   9.822  0.8041 -1.0734  2.3960
 4251SOL     OW24388   4.005   1.369   5.478 -0.3543 -0.5330 -0.2227
 4251SOL    HW124389   3.962   1.309   5.419 -1.5374  1.2286 -1.1425
 4251SOL    HW224390   4.005   1.447   5.423  1.6310  0.2100  0.8145
 4252SOL     OW24391   2.831   0.589  11.123 -0.2932  0.6762 -0.4701
 4252SOL    HW124392   2.801   0.650  11.190 -0.1221  0.5953 -0.3178
 4252SOL    HW224393   2.923   0.615  11.123 -0.0894 -0.0115 -1.5069
 4253SOL     OW24394   0.753   1.053   1.590  0.2354  0.2543 -0.1876
 4253SOL    HW124395   0.693   0.991   1.550 -0.9717 -0.3399  2.5535
 4253SOL    HW224396   0.698   1.093   1.658 -1.9646 -1.2099 -1.1251
 4254SOL     OW24397   0.029   4.057   4.185 -0.2185 -0.9109 -0.7525
 4254SOL    HW124398   0.099   4.043   4.121  0.5605 -1.5585  0.2519
 4254SOL    HW224399   4.693   4.006   4.150 -1.0163  1.1066 -2.0849
 4255SOL     OW24400   3.973   4.208   7.397 -0.0970 -0.6332 -0.4306
 4255SOL    HW124401   4.030   4.164   7.460  2.5517  1.4888 -1.3598
 4255SOL    HW224402   3.998   4.161   7.318  0.3851 -0.0146 -0.6468
 4256SOL     OW24403   0.749   4.691   3.687 -0.3766 -0.1616 -0.0658
 4256SOL    HW124404   0.657   4.697   3.665 -0.4106 -0.4019  0.0030
 4256SOL    HW224405   0.753   4.625   3.757  1.1501  1.4572  1.3901
 4257SOL     OW24406   2.895   1.302  14.142 -0.0566 -0.1642  0.1698
 4257SOL    HW124407   2.806   1.323  14.170 -0.6733 -3.6887  0.9037
 4257SOL    HW224408   2.947   1.382  14.130  1.0521 -0.8678  0.2252
 4258SOL     OW24409   2.708   2.231   0.998  0.5320  0.0305  0.5646
 4258SOL    HW124410   2.697   2.325   1.013  0.8743 -0.0879  1.5482
 4258SOL    HW224411   2.697   2.195   1.086 -1.0083  2.8638  1.5329
 4259SOL     OW24412   2.083   3.216   6.537  0.3073 -0.0125  0.1205
 4259SOL    HW124413   2.068   3.217   6.632 -1.1941 -0.4448 -0.1012
 4259SOL    HW224414   2.021   3.152   6.502  0.3675  0.5976 -1.0878
 4260SOL     OW24415   0.895   4.320   1.440  0.4125  0.1031 -0.0870
 4260SOL    HW124416   0.871   4.383   1.371 -1.4509  1.7509  2.0702
 4260SOL    HW224417   0.949   4.378   1.494  1.1403 -0.5917 -0.0766
 4261SOL     OW24418   1.863   0.572   8.707  0.0902 -0.4386  0.1133
 4261SOL    HW124419   1.945   0.581   8.755 -0.5354 -0.2122  1.1245
 4261SOL    HW224420   1.797   0.586   8.775 -0.1752 -1.0178 -0.0186
 4262SOL     OW24421   2.616   0.043   5.903 -0.3039 -0.7450 -0.1510
 4262SOL    HW124422   2.683   0.070   5.840 -0.6036  0.6416  0.1231
 4262SOL    HW224423   2.660   0.060   5.986 -0.9883 -0.9779  0.2566
 4263SOL     OW24424   4.396   3.767   3.468 -0.2657 -0.7367  0.6208
 4263SOL    HW124425   4.469   3.721   3.509 -0.3384  0.3629  1.9745
 4263SOL    HW224426   4.376   3.836   3.532 -1.5961 -2.2184  1.8132
 4264SOL     OW24427   3.151   3.439  11.973 -0.8834  0.0404  0.0766
 4264SOL    HW124428   3.153   3.350  11.938 -1.7885  0.2068 -0.4184
 4264SOL    HW224429   3.169   3.488  11.893  0.7017  1.0456  1.0532
 4265SOL     OW24430   2.640   1.791   7.599  0.0311 -0.4314  0.8275
 4265SOL    HW124431   2.554   1.752   7.618 -0.6903  0.3130 -0.9398
 4265SOL    HW224432   2.695   1.720   7.563  0.1896  0.4256 -0.6176
 4266SOL     OW24433   1.684   3.259   6.464 -0.0512 -0.4099 -0.0484
 4266SOL    HW124434   1.657   3.323   6.397 -1.8433  0.0990  1.1715
 4266SOL    HW224435   1.752   3.212   6.415  0.0350 -0.2326 -0.0996
 4267SOL     OW24436   4.175   2.932  15.583 -0.2963 -0.3666 -0.0045
 4267SOL    HW124437   4.174   3.023  15.613  1.5029 -0.6856  0.9951
 4267SOL    HW224438   4.082   2.909  15.591 -0.1223 -0.2048  2.4450
 4268SOL     OW24439   4.459   1.156   3.041  0.0298  0.1051 -0.2009
 4268SOL    HW124440   4.527   1.099   3.076  1.0096  0.8524 -0.8910
 4268SOL    HW224441   4.383   1.108   3.073 -0.2829  0.9609  0.3466
 4269SOL     OW24442   1.457   0.356   3.484  0.4064  0.2464 -0.1613
 4269SOL    HW124443   1.436   0.441   3.523 -0.5373 -1.1444  2.3753
 4269SOL    HW224444   1.375   0.339   3.437  0.5751 -1.8826  0.3001
 4270SOL     OW24445   1.147   3.291   2.052 -0.0396 -0.3988  0.3729
 4270SOL    HW124446   1.196   3.266   1.974 -0.9814  0.7947 -0.6056
 4270SOL    HW224447   1.102   3.373   2.030  0.8027 -0.0989 -0.2244
 4271SOL     OW24448   0.322   0.206  10.185 -0.0237  0.0384  0.1692
 4271SOL    HW124449   0.241   0.251  10.160 -0.7335 -0.4152  1.6413
 4271SOL    HW224450   0.361   0.192  10.099  3.2851  0.6275  1.5859
 4272SOL     OW24451   4.664   0.420   8.545 -0.1094 -0.0143  0.3621
 4272SOL    HW124452   4.720   0.402   8.470 -1.8449  0.2907 -1.0124
 4272SOL    HW224453   4.677   0.510   8.573 -0.4205 -0.3886  1.7552
 4273SOL     OW24454   3.414   4.335   9.356  0.7181  0.6459 -0.1914
 4273SOL    HW124455   3.372   4.274   9.417  0.9499 -0.3220 -0.9996
 4273SOL    HW224456   3.506   4.318   9.379  0.3305 -0.0650  0.8441
 4274SOL     OW24457   1.801   0.924  10.377 -0.2681  0.2723  0.1233
 4274SOL    HW124458   1.876   0.925  10.436 -0.9159 -0.3680  0.9645
 4274SOL    HW224459   1.842   0.866  10.312  0.4423  0.7747  0.1244
 4275SOL     OW24460   3.046   1.376   5.646 -0.3472 -0.3618 -0.4252
 4275SOL    HW124461   3.013   1.384   5.735 -0.5391 -0.9906 -0.4392
 4275SOL    HW224462   3.111   1.446   5.641 -2.6434  1.7164 -1.2333
 4276SOL     OW24463   1.081   1.940   8.625 -0.3321 -0.2013 -0.8413
 4276SOL    HW124464   1.003   1.911   8.578 -0.3426 -2.2120  0.4003
 4276SOL    HW224465   1.108   2.017   8.575 -0.0251 -0.7391 -1.5044
 4277SOL     OW24466   3.317   0.238   6.872 -0.6480  0.5472 -0.0308
 4277SOL    HW124467   3.257   0.255   6.799 -1.0250 -0.5589  0.0156
 4277SOL    HW224468   3.255   0.216   6.941 -1.8826  0.9551 -0.9906
 4278SOL     OW24469   0.338   3.614   2.922  0.0718 -0.1622  0.2118
 4278SOL    HW124470   0.320   3.600   3.015 -1.7666  0.8730 -0.0065
 4278SOL    HW224471   0.266   3.568   2.879  1.0237 -1.2819 -0.1881
 4279SOL     OW24472   2.786   4.271   2.744  0.3485 -0.0866  0.1112
 4279SOL    HW124473   2.868   4.244   2.703 -0.4046 -0.6693 -1.0316
 4279SOL    HW224474   2.739   4.213   2.684 -3.0580  0.8995  1.8567
 4280SOL     OW24475   1.088   1.797  10.469  0.2414  0.1512  0.3145
 4280SOL    HW124476   1.027   1.782  10.542 -1.5387  1.3433 -0.9467
 4280SOL    HW224477   1.098   1.703  10.457  0.3781  0.1945  0.0974
 4281SOL     OW24478   3.927   4.187   2.927  0.8008 -0.1793  0.2908
 4281SOL    HW124479   3.999   4.224   2.977  1.1381 -1.7357  0.9502
 4281SOL    HW224480   3.875   4.267   2.917  3.2103  1.0712 -2.3404
 4282SOL     OW24481   1.119   4.434  17.673 -0.5629 -0.0043  0.4176
 4282SOL    HW124482   1.130   4.398  17.585  0.5789 -0.8903  0.9343
 4282SOL    HW224483   1.100   4.360  17.731  0.4315  0.1354  0.9202
 4283SOL     OW24484   4.686   2.218   5.861 -0.0982  0.5381 -0.0424
 4283SOL    HW124485   0.044   2.216   5.874 -0.4471  1.1514  2.6231
 4283SOL    HW224486   4.660   2.265   5.941  0.3536  0.6457  0.0397
 4284SOL     OW24487   4.205   0.886   6.639 -0.3445 -0.4340 -1.2016
 4284SOL    HW124488   4.137   0.866   6.575 -0.4887 -2.0105 -0.5612
 4284SOL    HW224489   4.171   0.854   6.723 -0.7758 -2.8355 -2.2802
 4285SOL     OW24490   2.398   4.713   6.963 -0.0653  0.3929  0.2865
 4285SOL    HW124491   2.338   4.691   6.891  1.3290  0.6092 -0.9276
 4285SOL    HW224492   2.473   4.660   6.940  0.5680  1.3262  0.1932
 4286SOL     OW24493   2.620   2.864   0.026 -0.0345 -0.3302  0.2272
 4286SOL    HW124494   2.624   2.797  17.705  1.3547 -0.1143  0.0818
 4286SOL    HW224495   2.589   2.937  17.719  1.5276 -1.0638 -1.6907
 4287SOL     OW24496   2.727   3.412   8.086 -0.0007 -0.1299 -0.0657
 4287SOL    HW124497   2.688   3.486   8.040 -1.1129  0.0615  1.1725
 4287SOL    HW224498   2.797   3.395   8.023 -1.6216 -3.1974 -1.0399
 4288SOL     OW24499   0.682   4.333  12.865 -0.1247 -0.9903  0.0084
 4288SOL    HW124500   0.757   4.280  12.893  2.0750  1.0450 -2.0136
 4288SOL    HW224501   0.651   4.281  12.791 -0.3536  1.3015 -1.5376
 4289SOL     OW24502   4.062   4.142   6.291 -0.9014 -0.0023 -0.2832
 4289SOL    HW124503   3.978   4.188   6.291 -0.1680  1.3425  1.9552
 4289SOL    HW224504   4.039   4.053   6.319 -0.3477  0.4533  1.6188
 4290SOL     OW24505   4.239   0.709  15.394  0.7650 -0.2461 -0.0783
 4290SOL    HW124506   4.194   0.787  15.427  3.2879  0.9295  0.6357
 4290SOL    HW224507   4.222   0.644  15.461 -0.8933  2.2579  1.9262
 4291SOL     OW24508   2.303   3.885   1.374 -0.5487  0.2959  0.4450
 4291SOL    HW124509   2.246   3.939   1.320 -0.4312  1.3796  1.4147
 4291SOL    HW224510   2.239   3.830   1.419 -1.1821  0.9314  0.3016
 4292SOL     OW24511   2.659   0.388  10.263  0.3064  0.5981  0.1451
 4292SOL    HW124512   2.645   0.395  10.169 -0.5340  2.5006  0.4074
 4292SOL    HW224513   2.622   0.471  10.292  0.4755  0.2082  1.4837
 4293SOL     OW24514   1.337   0.603   6.855 -0.3274  0.0985  0.1661
 4293SOL    HW124515   1.340   0.643   6.769 -0.8581 -1.1540 -0.4360
 4293SOL    HW224516   1.306   0.513   6.844  0.3889 -0.0613 -0.5517
 4294SOL     OW24517   4.116   2.035   0.874 -0.1084 -0.3926  0.1292
 4294SOL    HW124518   4.064   2.089   0.934  0.4839 -1.1471  1.3307
 4294SOL    HW224519   4.189   2.033   0.937  0.0370  0.7271  0.0090
 4295SOL     OW24520   3.746   3.754   1.990 -0.8107 -0.0874  0.1380
 4295SOL    HW124521   3.746   3.834   2.042  0.9639 -0.3751  0.5929
 4295SOL    HW224522   3.839   3.740   1.971 -0.8186 -0.9179  0.6847
 4296SOL     OW24523   3.342   2.056   2.680 -0.2608 -0.1363  0.7745
 4296SOL    HW124524   3.368   2.057   2.772 -0.8562 -0.6816  0.9528
 4296SOL    HW224525   3.254   2.093   2.679 -0.3430 -0.4149 -1.8165
 4297SOL     OW24526   3.784   2.051   5.073  0.1287 -0.0046 -0.2438
 4297SOL    HW124527   3.745   2.133   5.044 -1.5252 -1.2270 -1.4200
 4297SOL    HW224528   3.714   1.987   5.061  1.3979 -1.5720  0.6226
 4298SOL     OW24529   4.520   2.620   7.799  0.2511  0.0690  0.3435
 4298SOL    HW124530   4.427   2.641   7.795 -0.0078 -1.1271  0.2211
 4298SOL    HW224531   4.547   2.627   7.891  0.7141  0.9971  0.1342
 4299SOL     OW24532   3.206   1.111   5.171  0.2765 -0.1030 -0.3359
 4299SOL    HW124533   3.143   1.092   5.241 -0.0746 -1.3672 -1.0057
 4299SOL    HW224534   3.190   1.032   5.120  0.0220  0.2835 -0.8457
 4300SOL     OW24535   0.629   3.305   0.465  0.2874 -0.0439  0.7051
 4300SOL    HW124536   0.558   3.291   0.402 -1.3418  3.1750  1.8218
 4300SOL    HW224537   0.679   3.366   0.411 -1.7830 -0.9899 -2.3035
 4301SOL     OW24538   0.824   1.193  16.028 -0.0117  0.2416 -0.0461
 4301SOL    HW124539   0.786   1.269  15.984 -1.5769 -0.3885  0.1947
 4301SOL    HW224540   0.901   1.236  16.066  1.2377 -1.7869 -0.2918
 4302SOL     OW24541   0.769   4.416   8.147  0.1426 -0.2277  0.0871
 4302SOL    HW124542   0.683   4.418   8.104  1.1010  1.2776 -1.7308
 4302SOL    HW224543   0.750   4.408   8.241 -3.4492  0.2441 -0.6055
 4303SOL     OW24544   1.499   2.875  12.159  0.3058  0.2534 -0.7821
 4303SOL    HW124545   1.515   2.830  12.242 -1.0693  1.1960 -0.0033
 4303SOL    HW224546   1.537   2.963  12.157  0.2346  0.3490  1.6642
 4304SOL     OW24547   0.704   3.974  10.186 -0.0967  0.5523  0.2417
 4304SOL    HW124548   0.695   3.934  10.272 -2.5394 -1.6965 -1.0553
 4304SOL    HW224549   0.776   3.921  10.151 -0.7988 -0.0702 -0.2471
 4305SOL     OW24550   0.648   4.129   9.825  0.1400  0.1739  0.3001
 4305SOL    HW124551   0.686   4.059   9.771  1.6841  0.7244  0.6749
 4305SOL    HW224552   0.727   4.181   9.840 -0.9732  1.4209  1.7043
 4306SOL     OW24553   2.714   3.318   6.932  0.2118  0.0175  0.5710
 4306SOL    HW124554   2.741   3.230   6.956 -2.2193 -1.2958 -1.5587
 4306SOL    HW224555   2.636   3.307   6.877  1.0971  0.1006 -0.6994
 4307SOL     OW24556   2.050   2.112   9.575  0.1058 -0.2064  0.1052
 4307SOL    HW124557   2.070   2.204   9.592 -1.0497  0.2652 -1.0577
 4307SOL    HW224558   2.109   2.067   9.635 -0.9160 -2.1270 -0.3414
 4308SOL     OW24559   3.013   3.094   5.289 -0.2176 -0.0229 -0.6097
 4308SOL    HW124560   2.941   3.092   5.352  0.4618  2.6569  0.2486
 4308SOL    HW224561   3.090   3.131   5.333 -1.3615 -0.3133  1.6407
 4309SOL     OW24562   1.992   1.885   1.204  0.1410  0.0487 -0.6395
 4309SOL    HW124563   1.908   1.845   1.184 -0.8660  1.7701  0.0691
 4309SOL    HW224564   1.971   1.911   1.294  1.2435  1.0876 -0.6782
 4310SOL     OW24565   4.266   1.273  13.724 -0.1086  0.0090  0.1978
 4310SOL    HW124566   4.176   1.260  13.695  0.3341  0.3503 -1.3501
 4310SOL    HW224567   4.265   1.234  13.811 -1.4134 -0.5446 -0.0712
 4311SOL     OW24568   3.924   1.090   4.716  0.6914  0.1054 -0.3179
 4311SOL    HW124569   4.004   1.110   4.765 -0.6309  1.3967  1.3054
 4311SOL    HW224570   3.956   1.047   4.637  1.6429 -2.8288  1.6577
 4312SOL     OW24571   0.802   2.568   6.352 -0.4350 -0.5272  0.5059
 4312SOL    HW124572   0.808   2.620   6.432  0.1592 -1.7022  1.2125
 4312SOL    HW224573   0.883   2.592   6.307 -3.2586  2.2278 -3.1224
 4313SOL     OW24574   2.011   2.487  11.039 -0.3166  0.7782  0.3496
 4313SOL    HW124575   2.054   2.419  10.988  2.6429  4.2516 -1.7311
 4313SOL    HW224576   1.937   2.443  11.080 -0.1490  0.5259  0.3795
 4314SOL     OW24577   4.427   0.450   4.467 -1.1316 -0.5801  0.6584
 4314SOL    HW124578   4.375   0.504   4.407  0.3626  0.6515  0.4656
 4314SOL    HW224579   4.358   0.389   4.491 -1.0500 -0.7722  0.4148
 4315SOL     OW24580   1.167   0.567   1.761  0.5388  0.4709 -0.8253
 4315SOL    HW124581   1.200   0.478   1.754  2.4883  1.0627  0.8067
 4315SOL    HW224582   1.092   0.561   1.701 -0.7683  2.9752  0.5545
 4316SOL     OW24583   4.290   1.192   8.683  0.4747 -0.3864  0.4115
 4316SOL    HW124584   4.209   1.183   8.633 -0.3894  2.7326  1.2380
 4316SOL    HW224585   4.278   1.114   8.737 -0.3962 -1.2758 -1.0893
 4317SOL     OW24586   1.531   4.676   3.991  0.3120 -0.1959 -0.2542
 4317SOL    HW124587   1.436   4.681   3.980  0.2921 -0.9653 -0.3865
 4317SOL    HW224588   1.535   4.689   4.085  0.1222 -0.8920 -0.1532
 4318SOL     OW24589   4.626   2.967   8.381 -0.7330  0.2989 -0.5498
 4318SOL    HW124590   4.616   2.874   8.360  2.4696  0.5402 -3.0337
 4318SOL    HW224591   4.557   3.006   8.434  1.0769  3.1310 -0.2689
 4319SOL     OW24592   0.651   0.720   5.408  0.8560  0.6170  0.0755
 4319SOL    HW124593   0.726   0.696   5.355 -1.0226 -1.8355 -1.4709
 4319SOL    HW224594   0.659   0.657   5.481 -0.4694  1.6126  1.0914
 4320SOL     OW24595   0.827   0.674   8.785 -0.1060  0.0004  0.1303
 4320SOL    HW124596   0.870   0.603   8.737  0.2151  0.1657  0.1748
 4320SOL    HW224597   0.896   0.700   8.846  0.3374 -4.0586  1.3541
 4321SOL     OW24598   1.080   4.113   5.832 -0.2019  0.2661  0.0273
 4321SOL    HW124599   1.026   4.192   5.825  0.3840  0.6170 -0.5657
 4321SOL    HW224600   1.118   4.123   5.919  0.8474  1.4635 -0.5594
 4322SOL     OW24601   0.276   1.948  15.104  0.5676 -0.5059 -0.0065
 4322SOL    HW124602   0.203   2.010  15.100  0.2759 -0.9111 -0.8842
 4322SOL    HW224603   0.262   1.921  15.194 -0.1934 -1.3453 -0.3721
 4323SOL     OW24604   0.254   4.474   2.876 -0.6273 -0.5084  0.1323
 4323SOL    HW124605   0.290   4.467   2.965  1.8388 -2.6858 -1.0220
 4323SOL    HW224606   0.326   4.527   2.844 -0.8073 -1.0157 -1.1095
 4324SOL     OW24607   1.620   4.258   8.600 -0.5468  0.1271  0.0509
 4324SOL    HW124608   1.608   4.179   8.654 -2.5858 -0.3056 -1.0227
 4324SOL    HW224609   1.683   4.306   8.654  1.2654 -0.4163 -1.5931
 4325SOL     OW24610   1.718   1.882   4.447 -0.0072  0.6271 -0.2114
 4325SOL    HW124611   1.760   1.796   4.438  0.8889  1.1097 -0.6003
 4325SOL    HW224612   1.795   1.927   4.481  0.5462  1.1195 -2.1228
 4326SOL     OW24613   0.900   1.964   5.761 -0.4498 -0.1394  0.0553
 4326SOL    HW124614   0.968   1.924   5.707 -0.4073  1.7834 -1.3039
 4326SOL    HW224615   0.942   2.050   5.761  2.5608 -1.6133  0.6449
 4327SOL     OW24616   1.815   1.219   5.243 -0.0393 -0.3314 -0.0319
 4327SOL    HW124617   1.763   1.138   5.239 -2.9724  1.5051  0.4658
 4327SOL    HW224618   1.816   1.222   5.338 -0.2103 -0.7693 -0.0138
 4328SOL     OW24619   1.435   2.434   8.414  0.1741 -0.4559 -0.5734
 4328SOL    HW124620   1.503   2.391   8.466  0.1946  0.3967  0.0969
 4328SOL    HW224621   1.391   2.478   8.487  1.9868  2.1844 -1.0924
 4329SOL     OW24622   2.315   3.140   3.613  0.7770 -0.1469 -0.1851
 4329SOL    HW124623   2.319   3.204   3.542 -0.5866  0.6537  0.4417
 4329SOL    HW224624   2.357   3.061   3.579  0.4343  0.4252 -1.9457
 4330SOL     OW24625   2.743   2.568   3.644 -0.1049  0.1537 -0.1912
 4330SOL    HW124626   2.737   2.474   3.659 -1.1179  0.5293  1.7091
 4330SOL    HW224627   2.716   2.581   3.553 -1.2630  1.7334  0.3854
 4331SOL     OW24628   0.512   2.568   3.150  0.3223 -0.1536 -0.4146
 4331SOL    HW124629   0.583   2.626   3.123  0.6060 -1.2484 -1.9961
 4331SOL    HW224630   0.559   2.511   3.212 -2.0754  0.4420  1.9528
 4332SOL     OW24631   2.170   3.989   1.125  0.3548  0.0726  0.1395
 4332SOL    HW124632   2.206   3.949   1.046 -0.7831  1.8850 -1.2948
 4332SOL    HW224633   2.088   4.035   1.107  1.3623  2.0751  0.7040
 4333SOL     OW24634   2.828   3.021  17.063  0.2559  0.2330  0.1346
 4333SOL    HW124635   2.848   2.942  17.013 -0.7411 -0.7439  1.2880
 4333SOL    HW224636   2.746   3.048  17.021 -0.1456 -1.6803 -0.3061
 4334SOL     OW24637   2.991   4.630   5.154  0.2184  0.0908 -0.8293
 4334SOL    HW124638   3.075   4.590   5.131 -0.3668 -1.4854 -0.2314
 4334SOL    HW224639   3.002   4.707   5.097 -0.8250 -0.0038 -1.1570
 4335SOL     OW24640   3.325   2.066   6.399 -0.2631 -0.0529 -0.0922
 4335SOL    HW124641   3.412   2.101   6.420 -0.1937 -0.5043  0.3749
 4335SOL    HW224642   3.334   1.973   6.423 -2.5359 -0.3041 -0.2677
 4336SOL     OW24643   2.228   0.258   3.184  0.4330  0.0030  0.2445
 4336SOL    HW124644   2.175   0.270   3.105  0.9112 -1.1162 -0.2538
 4336SOL    HW224645   2.165   0.210   3.238  0.3795  2.0305  1.9638
 4337SOL     OW24646   0.671   1.778   2.569  0.0264  0.2208 -0.2655
 4337SOL    HW124647   0.677   1.696   2.618 -2.1418 -1.1071 -2.2563
 4337SOL    HW224648   0.602   1.750   2.509  0.4351 -1.6822  0.1766
 4338SOL     OW24649   0.547   2.931   4.442  0.3406  0.5386  0.4876
 4338SOL    HW124650   0.633   2.964   4.417  0.3920  0.7741  0.9795
 4338SOL    HW224651   0.574   2.840   4.426  2.6465  1.3184 -0.0965
 4339SOL     OW24652   1.927   3.288   0.570 -0.2366 -0.7901 -0.1791
 4339SOL    HW124653   1.889   3.271   0.656 -0.1209 -0.4611 -0.0587
 4339SOL    HW224654   1.907   3.206   0.526 -2.2433  0.3789 -1.4140
 4340SOL     OW24655   0.810   0.448   2.385 -0.1361 -0.4243  0.6387
 4340SOL    HW124656   0.893   0.444   2.337 -1.3621 -1.0637 -1.4681
 4340SOL    HW224657   0.743   0.437   2.317  1.3449 -1.0583 -0.7251
 4341SOL     OW24658   4.117   0.711   1.000  0.5352  0.4872 -0.2889
 4341SOL    HW124659   4.204   0.751   1.000  1.6339 -1.8466  0.1773
 4341SOL    HW224660   4.061   0.767   0.946  1.7141  0.1162 -1.9030
 4342SOL     OW24661   1.590   0.487  12.977 -0.0238  0.0295  0.1757
 4342SOL    HW124662   1.536   0.462  12.902 -0.3164  0.7328  0.1448
 4342SOL    HW224663   1.547   0.453  13.056 -0.1072 -0.6917 -0.1855
 4343SOL     OW24664   1.837   1.252   4.984 -0.0819  0.3497 -0.0598
 4343SOL    HW124665   1.924   1.290   4.973 -0.0237  0.4820  0.8682
 4343SOL    HW224666   1.844   1.237   5.078  0.4687  1.1497  0.0243
 4344SOL     OW24667   3.450   3.273   1.472 -0.0625  0.1910 -0.6787
 4344SOL    HW124668   3.382   3.206   1.465  0.4930 -0.7222  2.3938
 4344SOL    HW224669   3.440   3.279   1.567 -3.5623 -0.4793 -0.9978
 4345SOL     OW24670   2.555   3.451   2.502  0.1541  0.1402  0.1755
 4345SOL    HW124671   2.480   3.506   2.480 -0.9507 -1.1759  0.6287
 4345SOL    HW224672   2.496   3.376   2.513  0.5134 -0.2632 -0.6537
 4346SOL     OW24673   0.688   0.103   1.999 -0.0239  0.4908  0.1635
 4346SOL    HW124674   0.663   0.182   1.951  0.9065  1.0372  0.5723
 4346SOL    HW224675   0.648   0.125   2.083 -0.6273 -4.2998  1.1242
 4347SOL     OW24676   4.411   3.234   7.497 -0.5187  0.3145  0.8033
 4347SOL    HW124677   4.347   3.298   7.528 -2.6006 -0.3174 -2.1361
 4347SOL    HW224678   4.386   3.208   7.408  0.1804 -2.3805  1.4053
 4348SOL     OW24679   4.649   1.849   4.292  0.0524 -0.2074 -0.6244
 4348SOL    HW124680   4.643   1.785   4.221  0.4745  1.7252 -2.4329
 4348SOL    HW224681   4.574   1.825   4.346  0.4072 -0.0564 -0.0657
 4349SOL     OW24682   1.690   4.506   6.083 -0.0332 -0.0454  0.4585
 4349SOL    HW124683   1.607   4.507   6.035 -0.0849 -1.1746  0.5318
 4349SOL    HW224684   1.661   4.552   6.161 -0.0759  0.5526  0.0900
 4350SOL     OW24685   4.276   0.529   8.367  0.0824  0.9355  0.0459
 4350SOL    HW124686   4.198   0.573   8.333 -0.9093 -2.0147 -1.5307
 4350SOL    HW224687   4.336   0.603   8.357  1.9264 -0.5211  0.2503
 4351SOL     OW24688   1.363   1.398   1.170  0.2606 -0.2235  0.0371
 4351SOL    HW124689   1.334   1.322   1.119 -0.3715 -0.6691  1.0651
 4351SOL    HW224690   1.336   1.474   1.118 -2.1168 -0.1925  1.2994
 4352SOL     OW24691   2.809   2.194   2.683 -0.1858 -0.2817  0.2397
 4352SOL    HW124692   2.716   2.216   2.682 -0.4741 -1.4408  1.1058
 4352SOL    HW224693   2.818   2.099   2.697  0.6286 -0.2129  0.2144
 4353SOL     OW24694   1.122   3.093  17.164  0.0249 -0.1862 -0.3666
 4353SOL    HW124695   1.184   3.047  17.221  0.3724 -1.6235 -1.8925
 4353SOL    HW224696   1.064   3.017  17.160  0.9206 -0.7882 -1.9634
 4354SOL     OW24697   2.235   3.881  12.290 -0.2401  0.4440  0.1050
 4354SOL    HW124698   2.322   3.883  12.330  0.0973 -2.6381 -0.4948
 4354SOL    HW224699   2.209   3.792  12.314  0.6300 -0.3226 -1.7528
 4355SOL     OW24700   1.242   2.030   3.383  0.6091  0.4053  0.5951
 4355SOL    HW124701   1.315   1.973   3.405 -0.6242 -1.3707  0.1013
 4355SOL    HW224702   1.235   2.071   3.470 -0.7984 -2.6038  1.8948
 4356SOL     OW24703   2.934   1.973   3.056  0.4736 -0.1181 -0.3538
 4356SOL    HW124704   2.908   1.992   2.966  0.7576 -1.3779 -0.7095
 4356SOL    HW224705   2.971   2.059   3.074 -3.1678  1.4076 -0.1880
 4357SOL     OW24706   1.807   0.812   8.035 -0.2187  0.1468  0.4311
 4357SOL    HW124707   1.845   0.728   8.007  1.4262  1.1725 -0.4126
 4357SOL    HW224708   1.770   0.796   8.121  0.8568 -2.3923  0.4202
 4358SOL     OW24709   0.562   2.603  14.046  0.1370 -0.0157 -0.2678
 4358SOL    HW124710   0.625   2.666  14.083  0.0995  0.0219 -0.2682
 4358SOL    HW224711   0.614   2.563  13.976 -1.7457 -2.3952 -0.2823
 4359SOL     OW24712   1.409   2.067   6.763  0.4011  0.5918 -0.0548
 4359SOL    HW124713   1.456   2.150   6.773  0.5251  0.6333 -1.0314
 4359SOL    HW224714   1.405   2.061   6.668  0.7994  3.0524 -0.2478
 4360SOL     OW24715   4.112   0.185   4.324  0.7712 -0.2424  0.0294
 4360SOL    HW124716   4.187   0.131   4.300  0.2848  1.0464 -4.2983
 4360SOL    HW224717   4.060   0.164   4.247  0.1366  0.9105  0.1502
 4361SOL     OW24718   2.090   2.061   3.490 -0.3266 -0.0526  0.2907
 4361SOL    HW124719   2.059   2.011   3.414  0.1770 -1.2730  0.8974
 4361SOL    HW224720   2.015   2.064   3.550 -1.4279 -0.0470 -1.0697
 4362SOL     OW24721   0.066   3.279   9.246 -0.2012 -1.0734 -0.2389
 4362SOL    HW124722   0.042   3.312   9.333 -0.1083 -3.0307  0.5281
 4362SOL    HW224723   0.077   3.185   9.261 -1.4691 -0.9095  1.7615
 4363SOL     OW24724   2.852   2.668   4.974  0.3030 -0.0893  0.0668
 4363SOL    HW124725   2.933   2.709   5.004  0.2125 -1.9201  2.7894
 4363SOL    HW224726   2.819   2.627   5.054 -0.7181 -1.9467 -1.3257
 4364SOL     OW24727   4.184   4.701  17.519 -0.0194 -0.0169  0.1040
 4364SOL    HW124728   4.097   4.721  17.483 -0.8090 -0.5395  1.7015
 4364SOL    HW224729   4.184   4.605  17.517  0.4852  0.0426 -2.5024
 4365SOL     OW24730   2.160   0.513   4.312 -0.4007  0.3108 -0.3992
 4365SOL    HW124731   2.078   0.535   4.268  0.3160  5.1295  0.6933
 4365SOL    HW224732   2.177   0.421   4.292 -1.6549 -0.4037  1.8646
 4366SOL     OW24733   2.510   4.095   8.567  0.0232 -0.0764 -0.2042
 4366SOL    HW124734   2.550   4.167   8.518 -0.5830 -0.7414 -1.7113
 4366SOL    HW224735   2.538   4.016   8.519  1.4167  0.5931 -0.4712
 4367SOL     OW24736   2.351   0.967   1.248 -0.2896  0.0157  0.2118
 4367SOL    HW124737   2.406   1.041   1.224 -0.2305 -0.2378 -0.4382
 4367SOL    HW224738   2.399   0.931   1.323 -2.1207 -1.5693  0.6399
 4368SOL     OW24739   0.599   1.025   3.365  0.8291  0.0854 -0.3425
 4368SOL    HW124740   0.674   0.989   3.318  1.6980 -0.1768  1.2314
 4368SOL    HW224741   0.539   0.953   3.384  1.5431 -0.6872 -0.9937
 4369SOL     OW24742   1.754   3.854   6.546 -0.0568 -0.4649 -0.1333
 4369SOL    HW124743   1.692   3.888   6.483  1.3786  2.4923  0.0485
 4369SOL    HW224744   1.705   3.842   6.628 -2.1002 -0.1735 -1.3421
 4370SOL     OW24745   0.039   0.762   9.341  0.4692  0.4288  0.4065
 4370SOL    HW124746   0.099   0.808   9.400 -0.8693  0.8954  1.4095
 4370SOL    HW224747   0.087   0.680   9.331  0.7117  0.4312  1.5711
 4371SOL     OW24748   3.352   0.890  16.260  0.2240 -0.2994 -0.5016
 4371SOL    HW124749   3.266   0.850  16.250  0.5648 -0.8755 -1.1125
 4371SOL    HW224750   3.367   0.883  16.355  0.0888 -0.2520 -0.4776
 4372SOL     OW24751   1.108   0.112   6.355 -0.4677 -0.3277  0.0339
 4372SOL    HW124752   1.050   0.108   6.430 -0.1816  1.0086  0.3333
 4372SOL    HW224753   1.044   0.140   6.290  0.2983 -1.8687 -1.3846
 4373SOL     OW24754   3.304   4.117   1.617 -0.4628 -0.3811  0.1602
 4373SOL    HW124755   3.222   4.096   1.570  0.3953  1.1150 -2.0201
 4373SOL    HW224756   3.360   4.131   1.541 -0.8025 -0.0216 -0.0294
 4374SOL     OW24757   1.865   3.484  15.286  0.1981  0.1108 -0.4650
 4374SOL    HW124758   1.905   3.451  15.205 -1.2098 -0.4496 -0.9214
 4374SOL    HW224759   1.907   3.423  15.347  0.6405 -1.4405 -2.3141
 4375SOL     OW24760   1.261   0.723   1.986  0.7109 -0.1029 -0.1391
 4375SOL    HW124761   1.225   0.670   1.915  1.6511 -0.1730 -0.5581
 4375SOL    HW224762   1.297   0.655   2.044  0.6141  1.7469  2.0774
 4376SOL     OW24763   1.600   2.811  11.327  0.4795 -0.2350 -0.0154
 4376SOL    HW124764   1.564   2.729  11.363  1.5160  0.4713  2.6783
 4376SOL    HW224765   1.517   2.850  11.300  2.1703  2.1523 -1.7147
 4377SOL     OW24766   1.178   3.751   9.702 -0.5904  0.2496  0.2855
 4377SOL    HW124767   1.170   3.661   9.671  2.5850  0.6589 -1.6601
 4377SOL    HW224768   1.097   3.758   9.753  0.4796 -0.4268  2.0991
 4378SOL     OW24769   0.551   2.375   7.412 -0.2663  0.1339  0.8457
 4378SOL    HW124770   0.624   2.313   7.408  1.7176  2.5362 -0.5958
 4378SOL    HW224771   0.542   2.349   7.504  1.3655  0.0900  0.9949
 4379SOL     OW24772   3.608   0.541   9.347 -0.4075  0.1429  0.5740
 4379SOL    HW124773   3.596   0.450   9.374 -0.6292  0.1523  0.5084
 4379SOL    HW224774   3.682   0.568   9.400 -1.6889  0.1866  2.3175
 4380SOL     OW24775   2.427   0.640   0.822 -0.6007 -0.3074  0.5784
 4380SOL    HW124776   2.421   0.696   0.900  0.6000 -0.4536  0.7687
 4380SOL    HW224777   2.358   0.574   0.825 -1.1861  0.3492  1.7631
 4381SOL     OW24778   2.476   1.178   6.559  0.0072 -0.4086  0.5386
 4381SOL    HW124779   2.520   1.193   6.642  3.1699 -0.9366 -1.0302
 4381SOL    HW224780   2.517   1.255   6.519 -1.3413 -0.4294 -0.9000
 4382SOL     OW24781   0.317   1.353   2.634 -0.1524 -0.3751 -0.2173
 4382SOL    HW124782   0.299   1.321   2.546 -0.5403 -1.5123  0.2809
 4382SOL    HW224783   0.235   1.338   2.681 -1.4862 -1.7326 -3.0328
 4383SOL     OW24784   1.771   2.258   9.154 -0.1092  0.2762 -0.3675
 4383SOL    HW124785   1.756   2.261   9.059  0.6092  0.2279 -0.4855
 4383SOL    HW224786   1.678   2.250   9.176 -0.2939 -2.2575 -2.0962
 4384SOL     OW24787   4.090   0.885  13.129  0.3657  0.1990 -0.3540
 4384SOL    HW124788   4.134   0.967  13.104 -1.8749  1.9507  1.4355
 4384SOL    HW224789   4.165   0.853  13.179 -0.3626  0.2749  0.7853
 4385SOL     OW24790   2.060   4.598  15.460 -0.0503 -0.0008 -0.2760
 4385SOL    HW124791   2.070   4.649  15.539 -1.0124 -0.5369  0.1956
 4385SOL    HW224792   2.151   4.572  15.444 -0.1578 -0.2794 -0.4492
 4386SOL     OW24793   2.117   1.547   4.613 -0.4783  0.1284 -0.0647
 4386SOL    HW124794   2.124   1.629   4.563  1.5743 -0.2873 -0.4644
 4386SOL    HW224795   2.179   1.495   4.562 -0.4445 -1.1053  1.2348
 4387SOL     OW24796   3.444   4.055   7.584 -0.0712  0.1232 -0.3465
 4387SOL    HW124797   3.391   4.129   7.613 -0.8698 -1.1855  1.5387
 4387SOL    HW224798   3.444   3.997   7.660 -0.2388 -0.2349 -0.6251
 4388SOL     OW24799   4.230   2.790   1.051  0.0780  0.2547 -0.0063
 4388SOL    HW124800   4.206   2.716   1.107  0.4940 -0.0349 -0.2141
 4388SOL    HW224801   4.173   2.858   1.088 -0.6968  1.5409 -3.5441
 4389SOL     OW24802   1.409   0.845   6.636 -0.2403  0.7853  0.6862
 4389SOL    HW124803   1.418   0.928   6.683  0.3785  0.5942  0.9031
 4389SOL    HW224804   1.498   0.828   6.605  0.0081 -1.1673  2.5083
 4390SOL     OW24805   3.542   0.673  12.130 -0.3945  0.0693  0.2594
 4390SOL    HW124806   3.587   0.716  12.057 -1.7215 -2.6252 -2.1274
 4390SOL    HW224807   3.581   0.707  12.210  0.0275 -0.2456  0.1910
 4391SOL     OW24808   3.902   3.369   2.541  0.4587 -0.2792  0.1902
 4391SOL    HW124809   3.895   3.293   2.483  0.9007  0.1703 -0.4569
 4391SOL    HW224810   3.811   3.398   2.543  0.9813  1.4992 -1.7678
 4392SOL     OW24811   3.456   0.472   3.504 -0.5375  0.2929  0.2264
 4392SOL    HW124812   3.380   0.525   3.481 -0.0032  0.0470 -2.1027
 4392SOL    HW224813   3.514   0.548   3.499  0.8733 -0.7006  1.3958
 4393SOL     OW24814   0.826   3.354   8.442 -0.3233  0.1003 -0.0160
 4393SOL    HW124815   0.760   3.288   8.461  0.2189 -0.3210  0.3972
 4393SOL    HW224816   0.792   3.436   8.478  1.9170  0.2481  1.7369
 4394SOL     OW24817   0.739   3.609   8.534 -0.3981  0.3540 -0.1612
 4394SOL    HW124818   0.667   3.636   8.591 -0.4175  0.6606 -0.3267
 4394SOL    HW224819   0.745   3.687   8.478 -0.2197 -0.0116 -0.6566
 4395SOL     OW24820   3.144   0.311   1.398 -0.0283 -0.2142  0.2793
 4395SOL    HW124821   3.229   0.269   1.384 -0.2177  0.2081 -2.0846
 4395SOL    HW224822   3.166   0.401   1.374 -1.8365 -0.1088 -1.0318
 4396SOL     OW24823   4.438   1.022   6.778  0.2321  0.4772  1.1140
 4396SOL    HW124824   4.349   1.001   6.805 -0.5714  2.0081 -0.3000
 4396SOL    HW224825   4.497   0.986   6.845  2.1772 -0.2039 -0.9586
 4397SOL     OW24826   2.183   4.628   3.970 -0.0396  0.6076 -0.0805
 4397SOL    HW124827   2.164   4.682   4.047 -0.3986 -1.7629  1.5007
 4397SOL    HW224828   2.222   4.545   3.996 -3.4268 -0.4789  1.6513
 4398SOL     OW24829   1.008   0.125   5.571 -0.3002  0.1987 -0.6334
 4398SOL    HW124830   1.014   0.066   5.496  2.0497 -0.5046  0.1201
 4398SOL    HW224831   1.084   0.182   5.562  0.3696 -0.8319 -1.5764
 4399SOL     OW24832   2.706   3.956   2.359 -0.0564  0.1905 -0.6595
 4399SOL    HW124833   2.762   3.925   2.288 -0.3087  0.8067 -1.1271
 4399SOL    HW224834   2.636   3.892   2.348 -0.3105  0.8135 -2.6153
 4400SOL     OW24835   2.210   2.149   9.345  0.2194 -0.1013  0.1949
 4400SOL    HW124836   2.212   2.240   9.315  0.9452  1.0147  3.6204
 4400SOL    HW224837   2.132   2.148   9.400  0.7686 -2.8324  0.8857
 4401SOL     OW24838   2.503   2.879   8.133  0.4229  0.3481 -0.2306
 4401SOL    HW124839   2.553   2.913   8.059  1.0893  4.3442  2.0810
 4401SOL    HW224840   2.555   2.907   8.208 -0.3991  2.7867 -0.5965
 4402SOL     OW24841   4.298   0.550   9.722 -0.1909 -0.0444  0.0598
 4402SOL    HW124842   4.373   0.609   9.722  0.8602 -1.3730 -0.1214
 4402SOL    HW224843   4.340   0.470   9.752 -0.4024  0.3477  1.3761
 4403SOL     OW24844   2.549   2.708  16.187 -0.0762  0.3352 -0.8118
 4403SOL    HW124845   2.519   2.656  16.262  2.7534 -0.4900 -0.2443
 4403SOL    HW224846   2.485   2.778  16.200  2.7345  2.7255  0.2779
 4404SOL     OW24847   0.867   0.238   5.094  0.1714 -0.2648  0.5080
 4404SOL    HW124848   0.771   0.245   5.093  0.1008 -1.1157  2.6767
 4404SOL    HW224849   0.878   0.300   5.165 -3.3477 -0.2551  1.0362
 4405SOL     OW24850   4.310   1.691  14.874  0.5074 -0.6640 -0.5541
 4405SOL    HW124851   4.343   1.610  14.834 -1.1172 -1.0081 -1.2015
 4405SOL    HW224852   4.295   1.744  14.796 -2.1053  0.0971  0.4432
 4406SOL     OW24853   1.021   2.707   4.089 -0.0118  0.2784 -0.0086
 4406SOL    HW124854   1.063   2.749   4.014  1.3193 -0.8582  0.0820
 4406SOL    HW224855   1.070   2.625   4.087  1.9822  1.4897 -0.5488
 4407SOL     OW24856   3.065   0.512   6.296  0.6412 -0.1959 -0.4058
 4407SOL    HW124857   2.997   0.523   6.229  1.0034  1.3028 -0.5326
 4407SOL    HW224858   3.013   0.545   6.369 -2.3459 -3.1236 -1.1987
 4408SOL     OW24859   1.838   3.708   7.737  0.4101  0.7265 -0.1185
 4408SOL    HW124860   1.833   3.743   7.826  2.3555  2.1571 -0.5644
 4408SOL    HW224861   1.862   3.777   7.675 -0.2410  0.2636 -0.8812
 4409SOL     OW24862   2.581   2.574   0.161 -0.0933  0.3501  0.3478
 4409SOL    HW124863   2.597   2.667   0.147  0.7418  0.3036  0.9718
 4409SOL    HW224864   2.543   2.547   0.077 -0.5037 -0.3341  0.7554
 4410SOL     OW24865   2.791   2.238   8.423 -0.5898 -0.1890  0.1901
 4410SOL    HW124866   2.746   2.306   8.474 -3.3876 -1.2395 -0.8372
 4410SOL    HW224867   2.880   2.248   8.456 -0.4005  0.0799 -0.4123
 4411SOL     OW24868   1.337   0.732   7.101 -0.1557 -0.8460  0.9624
 4411SOL    HW124869   1.334   0.666   7.032  1.2752  0.5082 -0.4341
 4411SOL    HW224870   1.356   0.809   7.046 -0.1627 -0.0333  2.0975
 4412SOL     OW24871   3.949   4.601  15.001  0.8141  0.3632 -0.2000
 4412SOL    HW124872   3.917   4.657  15.071 -0.6169 -1.3162  0.4813
 4412SOL    HW224873   4.031   4.568  15.040 -0.0109 -2.8029 -1.1578
 4413SOL     OW24874   4.085   1.377   1.989  0.2458  0.4490  0.8502
 4413SOL    HW124875   4.130   1.440   2.045  2.0248  0.9443 -1.1640
 4413SOL    HW224876   4.046   1.314   2.050  0.8083  1.3176  2.1134
 4414SOL     OW24877   1.029   3.981  10.478 -0.1585  0.1741  0.1814
 4414SOL    HW124878   1.062   4.054  10.426  1.1303 -0.5347  0.0071
 4414SOL    HW224879   1.076   3.993  10.561 -1.3201  0.6889  0.7758
 4415SOL     OW24880   3.787   3.121  11.669  0.3065 -0.4128  0.5980
 4415SOL    HW124881   3.693   3.120  11.651  0.6814 -2.4286 -1.3071
 4415SOL    HW224882   3.819   3.038  11.632  2.8070 -0.6355  3.2583
 4416SOL     OW24883   2.770   4.395   8.640  0.1160  0.2493  0.0267
 4416SOL    HW124884   2.772   4.324   8.704 -2.4681  1.0974  1.0246
 4416SOL    HW224885   2.675   4.407   8.640  0.6020  4.0911 -0.5906
 4417SOL     OW24886   3.507   4.551   5.403 -0.4763 -0.6294 -0.2399
 4417SOL    HW124887   3.578   4.514   5.350 -1.4603 -0.1726 -1.8936
 4417SOL    HW224888   3.457   4.588   5.330 -2.1690  0.2048  1.3280
 4418SOL     OW24889   2.544   4.626   4.339  0.2548 -0.0943 -0.1418
 4418SOL    HW124890   2.552   4.689   4.411 -1.2214  0.9936 -0.9471
 4418SOL    HW224891   2.498   4.552   4.378  1.7927 -1.9738 -1.9087
 4419SOL     OW24892   1.434   0.917   3.665 -0.4802 -0.0398  0.4073
 4419SOL    HW124893   1.380   0.913   3.586  1.0749  3.5079 -0.8258
 4419SOL    HW224894   1.489   0.841   3.647  0.1838  0.6559 -0.4639
 4420SOL     OW24895   0.619   2.045   7.020  0.0984 -0.5347 -0.1033
 4420SOL    HW124896   0.677   2.044   7.097  0.7290  1.4107 -0.5746
 4420SOL    HW224897   0.666   1.975   6.974 -1.2747 -1.1329 -0.5724
 4421SOL     OW24898   1.166   3.075   9.006 -0.5957  0.2893  0.5784
 4421SOL    HW124899   1.213   3.067   8.923  0.2346 -2.0772  1.2772
 4421SOL    HW224900   1.198   3.161   9.032  0.9611  0.5459 -2.1329
 4422SOL     OW24901   4.072   2.173   4.934  0.0366 -0.5940  0.4827
 4422SOL    HW124902   4.019   2.142   5.008 -0.7251 -0.6816 -0.0928
 4422SOL    HW224903   4.067   2.268   4.931  0.5702 -0.5741  0.1933
 4423SOL     OW24904   3.030   3.152   2.227  0.2196 -0.3204  0.4300
 4423SOL    HW124905   2.961   3.184   2.285  1.8827  0.3902  2.0262
 4423SOL    HW224906   3.108   3.177   2.277 -0.2244  1.6963  0.1326
 4424SOL     OW24907   4.104   1.604   7.420 -0.0160 -0.0037 -0.2284
 4424SOL    HW124908   4.178   1.638   7.371 -1.1336 -0.0700 -1.9612
 4424SOL    HW224909   4.081   1.675   7.480 -0.9441 -2.0017  1.7877
 4425SOL     OW24910   3.801   0.836   8.240  0.8248  0.3588 -0.0149
 4425SOL    HW124911   3.832   0.762   8.292 -1.1442 -0.4462 -0.0069
 4425SOL    HW224912   3.817   0.808   8.149 -0.0948  0.9666 -0.3571
 4426SOL     OW24913   3.301   0.714   4.409  0.0347 -0.0400 -0.2266
 4426SOL    HW124914   3.309   0.801   4.448  3.3566  0.3737 -1.7867
 4426SOL    HW224915   3.393   0.688   4.415  0.4225  1.2395 -0.7737
 4427SOL     OW24916   1.264   4.582  17.050  0.0911 -0.0455 -0.1806
 4427SOL    HW124917   1.286   4.520  17.119  3.6550  0.0921 -1.2066
 4427SOL    HW224918   1.182   4.614  17.086  0.5994  0.5669  0.4226
 4428SOL     OW24919   2.246   2.643   9.420 -0.2075  0.1836 -0.0861
 4428SOL    HW124920   2.274   2.713   9.361 -1.2201  0.3955 -0.3137
 4428SOL    HW224921   2.226   2.695   9.498 -0.4898 -1.6045  1.0337
 4429SOL     OW24922   0.487   1.715  15.111 -0.7316 -0.6915 -0.5681
 4429SOL    HW124923   0.425   1.748  15.177  0.8905  0.3381  0.4298
 4429SOL    HW224924   0.427   1.715  15.036 -0.0106 -2.9144 -1.1477
 4430SOL     OW24925   1.068   3.083   4.976  0.5000 -0.3980  0.3685
 4430SOL    HW124926   1.164   3.082   4.982  0.4964  2.8007  0.6256
 4430SOL    HW224927   1.038   3.167   5.010 -0.9509 -0.0959 -1.6563
 4431SOL     OW24928   1.343   2.121   2.478 -0.0795  0.4688 -0.4408
 4431SOL    HW124929   1.432   2.102   2.447  0.1401  0.5567  0.1455
 4431SOL    HW224930   1.328   2.046   2.535  1.1298 -0.4240 -1.3033
 4432SOL     OW24931   2.846   2.374   5.569 -0.0048  0.0904 -0.5785
 4432SOL    HW124932   2.854   2.467   5.589  0.8906  0.1590 -1.2337
 4432SOL    HW224933   2.753   2.370   5.546  0.0611  0.1554 -0.8555
 4433SOL     OW24934   2.677   3.074   5.009 -0.1437 -0.2316  0.3362
 4433SOL    HW124935   2.666   3.019   5.086  0.9702  2.4768  2.4147
 4433SOL    HW224936   2.659   3.011   4.939 -1.2430  0.9059 -0.4214
 4434SOL     OW24937   4.282   2.707   9.003 -0.3625  0.4427 -0.0361
 4434SOL    HW124938   4.265   2.696   9.097  2.5982  0.5773  0.4941
 4434SOL    HW224939   4.279   2.613   8.986  0.9399 -0.0532  2.5808
 4435SOL     OW24940   3.942   0.355  11.812 -0.5106  0.3694  0.0978
 4435SOL    HW124941   4.013   0.410  11.778 -0.6310 -0.2821 -1.2162
 4435SOL    HW224942   3.972   0.271  11.776  1.5421  1.6211 -1.0982
 4436SOL     OW24943   1.776   2.173   9.528  0.1799 -0.0264 -0.4395
 4436SOL    HW124944   1.863   2.181   9.568  0.7868 -0.1674 -1.7272
 4436SOL    HW224945   1.753   2.262   9.502 -0.8828 -0.1038  0.2277
 4437SOL     OW24946   1.039   3.056   2.176 -0.6908 -0.2869 -0.2679
 4437SOL    HW124947   1.111   2.994   2.186  0.5001  0.9475 -1.1473
 4437SOL    HW224948   1.088   3.135   2.152 -3.2736  1.1082 -1.0162
 4438SOL     OW24949   4.188   3.265   8.691 -0.0028  0.0872  0.0356
 4438SOL    HW124950   4.246   3.272   8.615 -1.0603  3.1754 -0.5030
 4438SOL    HW224951   4.122   3.205   8.658  1.1588 -0.4322 -1.3280
 4439SOL     OW24952   1.432   4.485   4.389  0.5383  0.0601 -0.2896
 4439SOL    HW124953   1.446   4.540   4.312 -1.3792  0.2553 -0.5098
 4439SOL    HW224954   1.360   4.425   4.371 -1.9388  2.0768  2.7702
 4440SOL     OW24955   3.745   3.613   5.570 -0.1484  0.0317  0.0386
 4440SOL    HW124956   3.658   3.654   5.565 -0.8239 -1.5493 -1.3500
 4440SOL    HW224957   3.735   3.527   5.610 -3.6088 -0.2538 -1.4611
 4441SOL     OW24958   3.204   3.132   6.064 -0.1079  0.2877 -0.2469
 4441SOL    HW124959   3.249   3.050   6.045  0.1562  0.6443 -1.1684
 4441SOL    HW224960   3.159   3.162   5.985 -1.5878 -1.1046  0.0683
 4442SOL     OW24961   2.605   3.281   7.776 -0.1553  0.1710  0.7696
 4442SOL    HW124962   2.552   3.221   7.724  1.2623 -1.3581  1.0685
 4442SOL    HW224963   2.653   3.211   7.820 -0.5189 -0.2674  0.4677
 4443SOL     OW24964   0.970   3.741   9.886 -0.8228  0.1868 -0.6572
 4443SOL    HW124965   0.891   3.762   9.936  0.2393  2.8728 -0.1077
 4443SOL    HW224966   1.026   3.708   9.956 -0.5561 -0.0262 -0.9720
 4444SOL     OW24967   4.245   0.809   4.901  0.2904  0.5924 -0.4290
 4444SOL    HW124968   4.168   0.793   4.846 -1.8750 -0.8477  3.0865
 4444SOL    HW224969   4.222   0.885   4.953  0.4273 -0.8758  1.7463
 4445SOL     OW24970   1.606   3.759  13.090  0.2162 -0.1416 -0.1420
 4445SOL    HW124971   1.661   3.692  13.050  0.8988  0.7606 -0.7025
 4445SOL    HW224972   1.570   3.803  13.014 -1.3758 -4.0523 -1.6795
 4446SOL     OW24973   0.667   4.004  15.824  0.1381  0.5196  0.1726
 4446SOL    HW124974   0.707   4.091  15.833  0.1021  0.5808 -0.2626
 4446SOL    HW224975   0.659   3.993  15.729 -0.3748  0.9949  0.1596
 4447SOL     OW24976   2.543   2.565   3.902 -0.2964  0.3726 -0.7156
 4447SOL    HW124977   2.611   2.497   3.906 -1.3656 -0.7809 -2.0013
 4447SOL    HW224978   2.488   2.513   3.843 -1.4322  0.5466  0.1817
 4448SOL     OW24979   3.574   2.545   0.457  0.3265  0.3743 -0.4370
 4448SOL    HW124980   3.529   2.625   0.483  2.7552  3.2953 -5.1108
 4448SOL    HW224981   3.652   2.534   0.512  0.6706  2.6428 -0.4353
 4449SOL     OW24982   4.162   0.910   7.737 -0.1535 -0.1819  0.0617
 4449SOL    HW124983   4.173   1.002   7.713  1.9752 -0.6730 -0.7794
 4449SOL    HW224984   4.070   0.894   7.758  0.1846 -0.6285  1.1863
 4450SOL     OW24985   2.293   3.124   6.991 -0.2398 -0.4157  0.5700
 4450SOL    HW124986   2.347   3.136   7.069 -0.9159 -1.4127  1.1875
 4450SOL    HW224987   2.254   3.041   7.018 -3.5837  0.4102 -1.7052
 4451SOL     OW24988   4.241   2.457   2.495  0.2063 -0.1143  0.5051
 4451SOL    HW124989   4.326   2.480   2.458  0.5821 -0.8126  0.9609
 4451SOL    HW224990   4.175   2.468   2.426  1.5320 -1.6087 -0.9513
 4452SOL     OW24991   3.846   4.136   6.812 -0.4093  0.3824  0.0761
 4452SOL    HW124992   3.806   4.207   6.864 -0.3221 -0.1363  0.8460
 4452SOL    HW224993   3.910   4.190   6.765  1.3123 -0.5812  1.2994
 4453SOL     OW24994   3.931   0.917   6.795  0.3105  0.0017 -0.0070
 4453SOL    HW124995   3.884   0.955   6.870 -1.6142 -0.9479 -0.7277
 4453SOL    HW224996   3.985   0.850   6.836 -0.5152 -0.9532 -0.4811
 4454SOL     OW24997   4.240   0.416   8.059  0.1507 -0.0839  1.1952
 4454SOL    HW124998   4.317   0.468   8.035 -0.4745 -0.5302 -1.8212
 4454SOL    HW224999   4.272   0.355   8.125  1.6614  0.2012  0.7190
 4455SOL     OW25000   3.779   4.154  16.874 -0.4663 -0.7334  0.2017
 4455SOL    HW125001   3.703   4.204  16.903 -0.1875 -0.1877 -0.0130
 4455SOL    HW225002   3.843   4.225  16.873 -1.8984  0.5676  1.6803
 4456SOL     OW25003   3.630   3.854  15.458 -0.1058 -0.1070 -0.1695
 4456SOL    HW125004   3.699   3.920  15.447  0.1369 -0.1320  1.1507
 4456SOL    HW225005   3.570   3.908  15.509  1.0843  0.9834  0.0911
 4457SOL     OW25006   3.413   2.699   8.006 -0.1793  0.1465  0.0224
 4457SOL    HW125007   3.437   2.620   8.055 -0.6745  0.7939  1.3113
 4457SOL    HW225008   3.500   2.727   7.979  0.0382 -0.5977 -0.0351
 4458SOL     OW25009   2.840   4.432   2.122 -0.5777  0.0260 -0.5075
 4458SOL    HW125010   2.924   4.405   2.159  0.5575  2.4818 -1.2991
 4458SOL    HW225011   2.798   4.485   2.189  1.3014 -0.9479  1.4469
 4459SOL     OW25012   0.112   3.957   2.092  0.2978 -0.1118 -0.2732
 4459SOL    HW125013   0.058   3.889   2.052 -1.5840  1.4816 -0.4190
 4459SOL    HW225014   0.069   3.970   2.176  0.0927  0.7186 -0.5075
 4460SOL     OW25015   0.365   1.571   9.127 -0.3590 -0.0628 -0.2336
 4460SOL    HW125016   0.336   1.490   9.168  0.1154 -0.7828 -1.3283
 4460SOL    HW225017   0.280   1.605   9.099 -0.4325  1.4151  1.8012
 4461SOL     OW25018   1.917   4.720   3.203  0.4843  0.1005  0.1246
 4461SOL    HW125019   1.955   4.681   3.282  1.1534 -1.4546 -0.9700
 4461SOL    HW225020   1.825   4.724   3.230  1.3256  0.3757  2.9002
 4462SOL     OW25021   4.133   0.393   5.190  0.4045 -0.0816  0.0508
 4462SOL    HW125022   4.212   0.445   5.205  1.1617 -1.1877 -0.0639
 4462SOL    HW225023   4.065   0.458   5.178  1.5696  1.2184  0.4556
 4463SOL     OW25024   3.182   4.154   5.087  0.3880 -0.4624 -0.2947
 4463SOL    HW125025   3.195   4.146   5.182 -4.7580 -0.6489  0.3975
 4463SOL    HW225026   3.268   4.130   5.055  0.2819 -1.2667  0.0296
 4464SOL     OW25027   0.166   3.435  12.288 -0.7974 -0.1308  0.6148
 4464SOL    HW125028   0.153   3.526  12.313  0.3982  0.0862  0.4616
 4464SOL    HW225029   0.131   3.428  12.199  0.1500  1.9125  0.0896
 4465SOL     OW25030   3.664   0.424  11.062 -0.3373  0.2174 -0.0198
 4465SOL    HW125031   3.680   0.410  10.968  0.2624  0.6863  0.0141
 4465SOL    HW225032   3.742   0.468  11.097 -1.4586  2.4063 -0.3154
 4466SOL     OW25033   1.459   2.178   5.061 -0.1169 -0.2818 -0.1611
 4466SOL    HW125034   1.544   2.219   5.074 -0.6582  0.9503 -0.4816
 4466SOL    HW225035   1.468   2.127   4.981 -0.7220 -0.7505  0.0687
 4467SOL     OW25036   2.308   2.712  11.291 -0.2756  0.2274  0.4549
 4467SOL    HW125037   2.344   2.624  11.277 -1.2035 -0.1770  0.5547
 4467SOL    HW225038   2.379   2.762  11.251  0.2252 -1.5044 -0.8594
 4468SOL     OW25039   4.020   0.955   2.327  0.0420 -0.4441  0.4365
 4468SOL    HW125040   4.081   0.883   2.312  1.1607  0.5314  0.3422
 4468SOL    HW225041   3.992   0.941   2.417 -0.9937 -1.7877 -0.0884
 4469SOL     OW25042   1.673   4.463   1.272  0.3336  0.1336 -0.5844
 4469SOL    HW125043   1.688   4.439   1.180  0.7921 -0.3179 -0.3858
 4469SOL    HW225044   1.595   4.519   1.266 -0.1395 -0.3441  1.0187
 4470SOL     OW25045   2.202   2.125   4.894  0.0713  0.4387  0.1339
 4470SOL    HW125046   2.224   2.135   4.986 -1.9000  1.0647  0.5352
 4470SOL    HW225047   2.246   2.041   4.880  0.7074  1.2249 -2.7514
 4471SOL     OW25048   4.033   0.654   8.362  0.0213 -0.2871  0.4524
 4471SOL    HW125049   3.983   0.639   8.442 -0.1486  0.1966  0.4390
 4471SOL    HW225050   3.995   0.586   8.307 -0.9726 -0.7622  1.7328
 4472SOL     OW25051   1.775   3.092   3.227 -0.3075  0.0857 -0.4312
 4472SOL    HW125052   1.850   3.137   3.266 -0.0284 -2.2077  1.6320
 4472SOL    HW225053   1.728   3.073   3.308 -0.4434  1.5317 -0.1564
 4473SOL     OW25054   4.691   1.767  14.059 -1.1041 -0.3110  0.0479
 4473SOL    HW125055   0.002   1.726  13.987  1.4610  2.1610  0.3524
 4473SOL    HW225056   0.008   1.844  14.074 -0.1217 -1.1908  1.0217
 4474SOL     OW25057   3.677   1.349   7.035  0.1803  0.4658  0.1314
 4474SOL    HW125058   3.768   1.351   7.066 -0.2133  1.5443  1.2283
 4474SOL    HW225059   3.637   1.279   7.086  3.1408 -1.3397 -0.0270
 4475SOL     OW25060   2.154   3.141   3.835 -0.4727  0.3528  0.3879
 4475SOL    HW125061   2.198   3.130   3.751 -2.8155  3.2177 -1.2052
 4475SOL    HW225062   2.073   3.188   3.819 -1.0379 -0.2388  1.4782
 4476SOL     OW25063   3.529   2.256   5.788  0.1399 -0.1978 -0.0536
 4476SOL    HW125064   3.607   2.212   5.821  0.6463  0.0588 -0.9063
 4476SOL    HW225065   3.491   2.194   5.725 -1.0682 -1.0181  1.5043
 4477SOL     OW25066   4.087   2.701   5.271 -0.2327  0.1169  0.6201
 4477SOL    HW125067   4.123   2.712   5.360  0.8542 -2.0003  0.4496
 4477SOL    HW225068   4.132   2.774   5.228  0.3211 -0.0453  0.9274
 4478SOL     OW25069   1.301   4.055  10.311 -0.1045 -0.4279  0.0476
 4478SOL    HW125070   1.326   4.132  10.362  1.3897 -1.5281  0.9343
 4478SOL    HW225071   1.385   4.010  10.311 -0.2346 -0.6715 -0.0134
 4479SOL     OW25072   3.120   0.065   4.402 -0.4144  0.4602  0.6468
 4479SOL    HW125073   3.057   0.004   4.363 -0.0555  1.5718 -1.6589
 4479SOL    HW225074   3.181   0.003   4.442  0.1701  1.2422  0.9738
 4480SOL     OW25075   2.573   4.118  11.962 -0.2583  0.3258 -0.4484
 4480SOL    HW125076   2.602   4.196  11.915 -0.4530  1.0885  0.6907
 4480SOL    HW225077   2.549   4.068  11.884 -2.2109  1.4355 -0.5598
 4481SOL     OW25078   2.766   4.346   4.916  0.0686  0.2957  0.1306
 4481SOL    HW125079   2.703   4.360   4.986  0.8731 -0.6610  1.0533
 4481SOL    HW225080   2.712   4.373   4.842  0.9018 -1.9562 -1.2912
 4482SOL     OW25081   3.418   1.355   3.235 -0.1807  0.8652 -0.3824
 4482SOL    HW125082   3.341   1.325   3.185  0.0908 -0.4112 -0.0396
 4482SOL    HW225083   3.458   1.403   3.163  1.9589 -0.4002 -0.0365
 4483SOL     OW25084   1.140   0.300   2.135  0.2379  0.4325  0.2533
 4483SOL    HW125085   1.070   0.274   2.075  3.7560 -0.9270 -3.2526
 4483SOL    HW225086   1.225   0.278   2.096 -0.0597  0.3779 -0.3569
 4484SOL     OW25087   3.126   2.264   9.861 -0.2655  0.2682  0.0009
 4484SOL    HW125088   3.116   2.307   9.946  0.8623 -1.6293  1.0663
 4484SOL    HW225089   3.075   2.320   9.802  0.1807  1.2406  0.5245
 4485SOL     OW25090   1.042   2.866  15.146  0.0035  0.1558  0.4447
 4485SOL    HW125091   1.137   2.864  15.131 -0.3326 -0.5300 -1.5434
 4485SOL    HW225092   1.015   2.838  15.059  2.5477  0.8015 -0.5622
 4486SOL     OW25093   0.440   3.377   1.155  0.2487 -0.2992 -0.0926
 4486SOL    HW125094   0.409   3.454   1.109  0.6146 -0.4330 -0.5600
 4486SOL    HW225095   0.529   3.367   1.122  0.4862 -0.0150  0.4566
 4487SOL     OW25096   1.559   4.130  12.759  0.4602 -0.1772 -0.4644
 4487SOL    HW125097   1.505   4.204  12.783 -0.4211 -1.4377  1.4404
 4487SOL    HW225098   1.644   4.173  12.747  0.1516  0.5747  0.1215
 4488SOL     OW25099   2.824   1.519   6.584 -0.0246 -0.7359 -0.9822
 4488SOL    HW125100   2.918   1.517   6.600  0.1171 -0.4108 -1.7636
 4488SOL    HW225101   2.796   1.508   6.674  1.2879 -0.6465 -0.5605
 4489SOL     OW25102   0.390   1.788   9.312  0.2463  0.4266  0.2588
 4489SOL    HW125103   0.418   1.853   9.376  0.1551  1.6492 -0.9471
 4489SOL    HW225104   0.438   1.715   9.351 -0.2000  0.7912  1.4879
 4490SOL     OW25105   3.654   2.592   2.095 -0.3932  0.3826 -0.6366
 4490SOL    HW125106   3.577   2.551   2.054 -1.3267  0.2507  1.2751
 4490SOL    HW225107   3.649   2.681   2.061 -1.5753 -0.3704 -2.4250
 4491SOL     OW25108   3.797   3.121  14.420 -0.2087  0.9730 -0.4090
 4491SOL    HW125109   3.812   3.051  14.356  0.1294  1.3578 -0.7434
 4491SOL    HW225110   3.883   3.126  14.462 -0.8216  2.1285  0.7072
 4492SOL     OW25111   0.358   1.997   6.995 -0.0054 -0.3643  0.1353
 4492SOL    HW125112   0.453   1.991   7.002 -0.0885  0.0481  1.7386
 4492SOL    HW225113   0.344   2.005   7.090  0.6937 -0.0194  0.2103
 4493SOL     OW25114   0.168   3.078   7.302 -0.2357  0.0943 -0.3638
 4493SOL    HW125115   0.177   2.982   7.298  0.2931  0.0283  2.6119
 4493SOL    HW225116   0.255   3.097   7.335 -0.4592  0.3693  0.0598
 4494SOL     OW25117   2.017   4.200   8.616  0.3102 -0.2944 -0.4643
 4494SOL    HW125118   1.935   4.151   8.626 -0.1139  0.8191  1.6067
 4494SOL    HW225119   2.088   4.140   8.638  0.5748 -0.3346 -1.4604
 4495SOL     OW25120   3.889   1.369  17.604 -0.1892 -0.5446 -0.1700
 4495SOL    HW125121   3.821   1.364  17.671  0.7019  0.1769  0.7897
 4495SOL    HW225122   3.945   1.306  17.650  1.6934  1.4498  0.2439
 4496SOL     OW25123   3.139   0.903   6.220 -0.5845  0.0082  0.3564
 4496SOL    HW125124   3.077   0.883   6.290  0.5848  0.1210  1.4470
 4496SOL    HW225125   3.184   0.983   6.249 -0.6248 -0.0806  0.6670
 4497SOL     OW25126   0.317   1.905   3.034  0.1961 -0.1667  0.4470
 4497SOL    HW125127   0.275   1.900   2.948  0.4453 -1.2080  0.3854
 4497SOL    HW225128   0.406   1.908   2.998  0.7185  2.5141  1.9946
 4498SOL     OW25129   0.953   0.801   6.686 -0.1470 -0.0475 -0.1802
 4498SOL    HW125130   0.968   0.894   6.671  0.1128  0.1076  1.0467
 4498SOL    HW225131   0.981   0.795   6.777  1.7089  2.9571 -0.5504
 4499SOL     OW25132   1.773   1.438   8.095 -0.2401  0.4769  0.1058
 4499SOL    HW125133   1.820   1.365   8.136  1.4072  1.1408 -0.5872
 4499SOL    HW225134   1.691   1.402   8.062 -0.5775  0.5338  0.8859
 4500SOL     OW25135   4.376   2.540   6.727 -0.4303 -0.0722  0.2407
 4500SOL    HW125136   4.368   2.517   6.819 -0.9949  0.0056  0.2124
 4500SOL    HW225137   4.393   2.453   6.693 -0.5030 -0.8391  2.1854
 4501SOL     OW25138   3.357   3.641   7.864 -0.1025  0.1838 -0.6038
 4501SOL    HW125139   3.413   3.718   7.875  0.2461 -0.0244 -0.9383
 4501SOL    HW225140   3.385   3.586   7.938  0.6730  0.2355 -0.8595
 4502SOL     OW25141   4.056   2.973   6.024  0.3232  0.4340  0.3121
 4502SOL    HW125142   3.996   2.933   5.962  1.2403  0.9989 -0.9302
 4502SOL    HW225143   4.035   3.066   6.024  0.0758  0.3843  1.8310
 4503SOL     OW25144   3.194   2.818  17.726 -0.0572  0.2076 -0.1548
 4503SOL    HW125145   3.289   2.836  17.725 -0.2144  1.0690  0.1233
 4503SOL    HW225146   3.197   2.738   0.031 -0.1570 -0.9743 -1.9794
 4504SOL     OW25147   1.810   1.058  15.657 -0.0941 -0.3648 -0.1057
 4504SOL    HW125148   1.831   0.992  15.591 -1.8444  2.1041 -3.1528
 4504SOL    HW225149   1.718   1.038  15.676  0.4184 -2.4328  0.2000
 4505SOL     OW25150   0.455   1.010   4.405 -0.6162 -0.0301 -0.1173
 4505SOL    HW125151   0.489   0.946   4.342 -1.1536  1.1626 -1.5855
 4505SOL    HW225152   0.423   1.083   4.353  2.7282  1.6739  0.1908
 4506SOL     OW25153   0.047   0.919  13.330  0.6998 -0.0139  0.7749
 4506SOL    HW125154   0.095   0.899  13.410 -0.5202  0.0071  1.5200
 4506SOL    HW225155   4.700   0.897  13.369 -0.3628 -0.6110 -1.8366
 4507SOL     OW25156   0.869   2.776  15.354  0.3339  0.1115 -0.2682
 4507SOL    HW125157   0.825   2.722  15.288 -0.2914  0.6786 -0.3138
 4507SOL    HW225158   0.924   2.822  15.290  0.4059  2.3908  1.4327
 4508SOL     OW25159   3.121   2.017   4.242 -0.7171  0.1573  0.3989
 4508SOL    HW125160   3.169   1.989   4.320 -0.1351 -0.5691 -0.2281
 4508SOL    HW225161   3.167   1.970   4.173 -1.0588 -2.4538  1.9486
 4509SOL     OW25162   3.131   0.873  13.903 -0.0238 -0.4106 -0.0044
 4509SOL    HW125163   3.140   0.817  13.980  0.6409 -0.5589 -0.2009
 4509SOL    HW225164   3.088   0.945  13.951  1.0761 -0.1254  0.5427
 4510SOL     OW25165   3.380   1.088   1.387  0.3949  0.4697 -0.3348
 4510SOL    HW125166   3.417   1.139   1.458  0.6470 -0.5627  0.2857
 4510SOL    HW225167   3.285   1.090   1.400  0.2197 -1.0087 -1.2995
 4511SOL     OW25168   3.700   2.399  13.373 -0.1398 -0.6500  0.2796
 4511SOL    HW125169   3.729   2.380  13.462  0.4561 -0.2416  0.1743
 4511SOL    HW225170   3.689   2.313  13.332 -2.6039 -0.2205  0.0842
 4512SOL     OW25171   2.743   3.082   7.995 -0.6297 -0.0652 -0.5953
 4512SOL    HW125172   2.782   3.095   8.081 -2.7470  0.1524  0.3452
 4512SOL    HW225173   2.813   3.043   7.943 -0.1263 -1.4693  1.1524
 4513SOL     OW25174   2.605   3.876   0.349 -0.3085  0.4179  0.4850
 4513SOL    HW125175   2.609   3.972   0.353 -0.5387  0.3346  2.4494
 4513SOL    HW225176   2.700   3.860   0.349 -0.2983  0.4727  0.1518
 4514SOL     OW25177   2.569   4.406   2.581 -0.4454  0.5242  0.2900
 4514SOL    HW125178   2.560   4.452   2.664  1.2020  0.9046  0.2448
 4514SOL    HW225179   2.535   4.321   2.609 -0.0809 -0.3046 -1.7960
 4515SOL     OW25180   1.634   4.692   5.824  0.1412  0.0002  0.2970
 4515SOL    HW125181   1.727   4.673   5.834  0.1006 -0.1702  0.3565
 4515SOL    HW225182   1.616   4.716   5.733 -1.2143 -1.1045  0.2684
 4516SOL     OW25183   1.732   0.483  16.377 -0.3258  0.2871 -0.1637
 4516SOL    HW125184   1.768   0.521  16.457  1.1561  0.0173 -0.7069
 4516SOL    HW225185   1.674   0.555  16.353  0.8797  1.8722  1.6331
 4517SOL     OW25186   1.335   1.322   2.229 -0.1605  0.4519  0.4304
 4517SOL    HW125187   1.342   1.405   2.276  1.5441 -0.2639  1.4350
 4517SOL    HW225188   1.365   1.355   2.144  2.3313 -0.4450  0.9578
 4518SOL     OW25189   4.376   4.202   3.216 -0.3788  0.1578  0.9432
 4518SOL    HW125190   4.399   4.267   3.151 -2.6024  0.3815  0.3750
 4518SOL    HW225191   4.345   4.263   3.283 -0.8332 -0.7236  1.5394
 4519SOL     OW25192   3.804   3.103   7.181  0.4197  0.3674 -0.0718
 4519SOL    HW125193   3.789   3.167   7.111  2.0175 -0.0715 -0.8303
 4519SOL    HW225194   3.720   3.088   7.224  0.1490 -0.4287 -0.8905
 4520SOL     OW25195   4.358   1.374   6.136  0.2014 -0.1633 -0.1644
 4520SOL    HW125196   4.284   1.388   6.077  1.3368  0.2804 -1.4694
 4520SOL    HW225197   4.349   1.441   6.203  1.3034  1.1175 -1.3016
 4521SOL     OW25198   0.350   1.821   6.156  0.4374 -0.1966  0.4888
 4521SOL    HW125199   0.406   1.893   6.186 -0.0950  1.1478 -1.7934
 4521SOL    HW225200   0.286   1.864   6.100 -0.9479 -1.2835  1.2600
 4522SOL     OW25201   4.674   1.413   3.963 -0.5187  0.1076  0.2152
 4522SOL    HW125202   4.642   1.374   4.045 -1.1358  2.0136  0.8803
 4522SOL    HW225203   4.674   1.501   4.000 -0.1209  0.0506  0.3469
 4523SOL     OW25204   0.418   1.354  17.279 -0.3597  0.3965 -0.2401
 4523SOL    HW125205   0.355   1.407  17.229 -0.4689 -0.0546 -0.5769
 4523SOL    HW225206   0.481   1.423  17.298 -0.9441  0.5869  0.9839
 4524SOL     OW25207   0.761   3.858   8.411 -0.0797  0.4053 -0.7710
 4524SOL    HW125208   0.779   3.931   8.352  0.4792 -0.1229 -1.2629
 4524SOL    HW225209   0.722   3.906   8.483  0.9277  0.6212 -0.3739
 4525SOL     OW25210   2.674   1.241   7.360 -0.0964 -0.1616  0.0338
 4525SOL    HW125211   2.704   1.219   7.272 -1.4616 -2.2910  0.1067
 4525SOL    HW225212   2.579   1.242   7.349 -0.3608 -0.3039  2.3464
 4526SOL     OW25213   1.671   0.120   9.078  0.3525  0.3840  0.3178
 4526SOL    HW125214   1.603   0.150   9.138 -0.1128  1.9680 -0.9839
 4526SOL    HW225215   1.723   0.194   9.045 -0.0609  1.2632  1.6290
 4527SOL     OW25216   2.319   1.217  11.824 -0.2277  0.0516 -0.0710
 4527SOL    HW125217   2.332   1.253  11.736  0.4166  0.0932  0.0420
 4527SOL    HW225218   2.375   1.279  11.871 -0.2786 -1.2543  1.7319
 4528SOL     OW25219   4.319   2.724  12.018  0.4890 -0.1638  0.3547
 4528SOL    HW125220   4.263   2.658  12.058  0.4544 -0.3634 -0.0208
 4528SOL    HW225221   4.269   2.734  11.936 -0.2985 -3.2302  0.4842
 4529SOL     OW25222   2.439   3.242   6.789  0.1285  0.0451 -0.2257
 4529SOL    HW125223   2.400   3.210   6.707 -1.8651  1.6920  0.0979
 4529SOL    HW225224   2.395   3.178   6.845 -1.7026  1.5901  0.0646
 4530SOL     OW25225   4.553   0.903   9.885  0.0778 -0.2812  0.1287
 4530SOL    HW125226   4.560   0.829   9.824 -2.2194 -0.6458  0.2907
 4530SOL    HW225227   4.645   0.925   9.890  0.1852 -0.5795 -0.4603
 4531SOL     OW25228   1.341   4.089   7.752 -0.0459 -0.2740 -0.0456
 4531SOL    HW125229   1.408   4.031   7.787 -0.0651  0.5215  1.2871
 4531SOL    HW225230   1.358   4.082   7.658 -1.7716  0.4270 -0.4253
 4532SOL     OW25231   0.521   3.182   6.340 -0.2639 -0.1942 -0.1640
 4532SOL    HW125232   0.530   3.231   6.259  1.1523 -0.3175 -0.0955
 4532SOL    HW225233   0.438   3.221   6.364  1.0365  1.2990  1.9217
 4533SOL     OW25234   2.258   2.841   1.996 -0.1560 -0.2533 -0.0949
 4533SOL    HW125235   2.345   2.812   1.967  0.3555 -0.4786  1.6380
 4533SOL    HW225236   2.219   2.854   1.910 -1.6088 -1.3498  0.3943
 4534SOL     OW25237   2.008   2.794  17.533  0.0269 -0.5037 -0.3410
 4534SOL    HW125238   1.995   2.823  17.624 -0.8471  1.4859 -1.1022
 4534SOL    HW225239   1.917   2.770  17.514 -0.9855  0.3707  3.3187
 4535SOL     OW25240   0.802   4.287   9.127  0.3818 -0.3766  0.6038
 4535SOL    HW125241   0.739   4.259   9.193 -0.0948 -0.0390  0.3010
 4535SOL    HW225242   0.875   4.226   9.135  2.2583  1.8044  0.2874
 4536SOL     OW25243   2.942   1.033   4.795  0.0968 -0.3168 -0.0068
 4536SOL    HW125244   3.017   0.974   4.797  0.8394  0.6145 -0.1089
 4536SOL    HW225245   2.878   0.975   4.754 -0.5764  0.4601 -0.0464
 4537SOL     OW25246   1.650   4.207   2.294  0.1783 -0.7592  0.3057
 4537SOL    HW125247   1.724   4.255   2.257  0.0371 -1.1822 -0.5343
 4537SOL    HW225248   1.685   4.124   2.324  0.5536 -0.7659 -0.1493
 4538SOL     OW25249   3.909   0.844   7.448  0.0184 -0.6607 -0.0528
 4538SOL    HW125250   4.000   0.821   7.429  0.0310 -1.1991  0.6085
 4538SOL    HW225251   3.903   0.808   7.537 -0.7735 -1.8445 -0.5808
 4539SOL     OW25252   3.866   0.078   9.801  0.1343 -1.0015 -0.1570
 4539SOL    HW125253   3.890   0.150   9.742 -2.2438  0.4286  0.6227
 4539SOL    HW225254   3.905   0.107   9.884 -0.4542  2.4564 -1.1158
 4540SOL     OW25255   4.603   1.029   7.802  0.0886  0.1066 -0.2039
 4540SOL    HW125256   4.620   1.003   7.712 -2.1961  0.0673 -0.6071
 4540SOL    HW225257   4.589   0.943   7.841  1.0892  0.2565  0.5000
 4541SOL     OW25258   2.352   0.219  12.180 -0.7429 -0.1793  0.1585
 4541SOL    HW125259   2.267   0.224  12.224 -0.8800  0.7477 -0.2291
 4541SOL    HW225260   2.389   0.307  12.186  0.5465 -0.7956  1.2434
 4542SOL     OW25261   0.612   0.699   2.069  0.5442  0.0210  0.0647
 4542SOL    HW125262   0.695   0.747   2.067  1.0074 -0.8210 -0.5274
 4542SOL    HW225263   0.591   0.700   2.162  2.8505 -1.1430  0.5903
 4543SOL     OW25264   0.888   0.621   9.519 -0.1855  0.3066 -0.1066
 4543SOL    HW125265   0.917   0.601   9.608  1.6985  3.6761  0.0715
 4543SOL    HW225266   0.968   0.649   9.475 -0.2682 -1.0892 -1.1249
 4544SOL     OW25267   1.810   1.491   4.060 -0.6848  0.1231 -0.0001
 4544SOL    HW125268   1.714   1.491   4.057 -0.7192  0.6846  1.0447
 4544SOL    HW225269   1.829   1.423   4.126 -1.6643 -1.4036 -1.2841
 4545SOL     OW25270   1.559   3.882   9.105  0.2006 -0.0972 -0.1153
 4545SOL    HW125271   1.575   3.959   9.160  0.3857  0.3513 -0.7888
 4545SOL    HW225272   1.623   3.901   9.036 -1.2681  1.2485 -1.1033
 4546SOL     OW25273   2.655   0.092  11.953 -0.2625  0.2938  0.2499
 4546SOL    HW125274   2.737   0.090  11.904  1.5587 -3.0132  3.4748
 4546SOL    HW225275   2.698   0.110  12.037  1.0313  0.2634 -0.4073
 4547SOL     OW25276   2.712   3.215  12.973  0.0998 -0.2788  0.5898
 4547SOL    HW125277   2.723   3.129  12.931  1.3859  0.0902  0.1767
 4547SOL    HW225278   2.701   3.198  13.066 -0.3218 -0.2410  0.5509
 4548SOL     OW25279   4.638   3.481   6.187  0.3513  0.0658 -0.6900
 4548SOL    HW125280   4.690   3.405   6.214 -0.5642 -0.7291 -1.1838
 4548SOL    HW225281   4.591   3.488   6.270 -0.6472  3.3206 -1.5535
 4549SOL     OW25282   1.027   1.659  10.786 -0.0445  0.0165 -0.1294
 4549SOL    HW125283   0.961   1.711  10.739 -0.4063  0.8871  1.3308
 4549SOL    HW225284   1.086   1.726  10.820 -0.5064  1.2437 -1.7138
 4550SOL     OW25285   0.466   3.230   3.058 -0.0749 -0.0094  0.3889
 4550SOL    HW125286   0.428   3.249   3.144 -5.1740 -1.1702 -1.6249
 4550SOL    HW225287   0.505   3.144   3.076 -0.2669 -0.2849 -0.5566
 4551SOL     OW25288   2.207   3.354   5.806  0.0496  0.3716 -0.3948
 4551SOL    HW125289   2.223   3.360   5.900  2.8537  0.2985 -0.8638
 4551SOL    HW225290   2.243   3.268   5.786  0.3301 -0.0715  1.9743
 4552SOL     OW25291   1.419   2.557   4.799  0.0433  0.2214 -0.0037
 4552SOL    HW125292   1.500   2.595   4.833 -0.4900  0.8066  0.6061
 4552SOL    HW225293   1.423   2.599   4.713  0.7861  0.3929  0.1133
 4553SOL     OW25294   3.514   2.120   3.174 -0.4092 -0.1114 -0.3114
 4553SOL    HW125295   3.607   2.100   3.168 -0.1146  1.6592 -1.7641
 4553SOL    HW225296   3.487   2.070   3.252 -0.3024  1.1461  0.5385
 4554SOL     OW25297   1.303   4.581   0.061  0.5449  0.1502  0.1958
 4554SOL    HW125298   1.257   4.585   0.145  2.3752  0.4602  1.1734
 4554SOL    HW225299   1.237   4.535   0.009 -0.1594  0.3049  0.9598
 4555SOL     OW25300   3.209   0.189   5.148  0.2073  0.3710  0.4844
 4555SOL    HW125301   3.156   0.264   5.174 -0.6594 -0.2247  0.4012
 4555SOL    HW225302   3.295   0.227   5.169  0.6449 -0.9175  1.0272
 4556SOL     OW25303   4.267   0.817   2.538  0.2165 -0.0292 -0.6189
 4556SOL    HW125304   4.316   0.794   2.617  0.1103 -0.9014 -0.8080
 4556SOL    HW225305   4.243   0.742   2.485 -1.8500  1.4488 -1.7843
 4557SOL     OW25306   4.047   1.030  11.724  0.4253  0.0513  0.0129
 4557SOL    HW125307   3.997   1.020  11.804  0.0278 -1.7019 -0.4576
 4557SOL    HW225308   4.027   0.947  11.680  1.4822 -0.3878  0.3668
 4558SOL     OW25309   4.520   3.875   6.021 -0.1712  0.5455 -0.1064
 4558SOL    HW125310   4.554   3.790   5.993 -0.2788  0.8753 -1.2517
 4558SOL    HW225311   4.426   3.855   6.015 -0.0892 -0.3991  1.6418
 4559SOL     OW25312   2.449   3.764   8.527  0.0551 -0.2029  0.2724
 4559SOL    HW125313   2.426   3.778   8.619 -1.6165  0.1253 -0.2076
 4559SOL    HW225314   2.474   3.671   8.524  0.0220 -0.1670 -1.3643
 4560SOL     OW25315   0.383   3.857  16.536  0.0177  0.5104 -0.2338
 4560SOL    HW125316   0.458   3.909  16.507 -1.1044  1.9404 -0.5742
 4560SOL    HW225317   0.420   3.824  16.618  0.1149  0.9494 -0.0988
 4561SOL     OW25318   1.733   2.540  14.986  0.0804 -0.3162  0.3104
 4561SOL    HW125319   1.783   2.466  15.020 -1.5212 -1.4530  0.1583
 4561SOL    HW225320   1.793   2.562  14.914 -0.4269 -1.0994 -0.3477
 4562SOL     OW25321   0.235   2.570   7.448  0.0159  0.1182  0.0636
 4562SOL    HW125322   0.147   2.562   7.487 -0.1899  1.1102 -0.2009
 4562SOL    HW225323   0.303   2.551   7.513 -1.5582  0.0790  1.6976
 4563SOL     OW25324   2.329   2.438   9.762  0.0589 -0.1403 -0.3511
 4563SOL    HW125325   2.304   2.523   9.797  1.8495  0.4736 -0.5241
 4563SOL    HW225326   2.417   2.454   9.728  0.4538  2.5917  2.0063
 4564SOL     OW25327   4.544   0.939   5.707  0.7145 -0.2539  0.7206
 4564SOL    HW125328   4.631   0.941   5.746  1.2799 -0.2910 -0.5346
 4564SOL    HW225329   4.563   0.924   5.614  0.3172 -1.2038  0.7932
 4565SOL     OW25330   1.723   3.336   8.529  0.4994 -0.6100 -0.0800
 4565SOL    HW125331   1.638   3.298   8.509  0.2957 -0.8894  1.3135
 4565SOL    HW225332   1.711   3.373   8.617  1.2923 -1.7033  0.4932
 4566SOL     OW25333   3.039   4.076   1.540  0.3528  0.4661 -0.5316
 4566SOL    HW125334   3.018   4.104   1.629  0.5983  0.5016 -0.4860
 4566SOL    HW225335   2.957   4.103   1.499  0.9408  1.4643 -1.0570
 4567SOL     OW25336   3.557   1.166  12.845 -0.2856  0.2962  0.3222
 4567SOL    HW125337   3.605   1.126  12.917  0.2742 -0.1786 -0.3252
 4567SOL    HW225338   3.518   1.244  12.887  0.6161  0.6146  0.5583
 4568SOL     OW25339   2.447   3.885   6.737 -0.7044 -0.0319  0.2087
 4568SOL    HW125340   2.445   3.842   6.652 -2.1701  0.3895  0.0205
 4568SOL    HW225341   2.376   3.950   6.735 -2.0292 -1.4160  1.8481
 4569SOL     OW25342   1.141   3.904   3.586 -0.9267 -0.4200 -0.4969
 4569SOL    HW125343   1.081   3.975   3.563 -0.1189  0.7702  1.0006
 4569SOL    HW225344   1.118   3.881   3.676  0.3405  0.4088  0.0443
 4570SOL     OW25345   0.161   1.025   4.895 -0.5388 -0.9071 -0.0678
 4570SOL    HW125346   0.114   0.965   4.954  2.4613 -1.4799  1.7324
 4570SOL    HW225347   0.251   0.992   4.889  0.1802  0.9796  0.4065
 4571SOL     OW25348   3.160   3.577   3.847 -0.2787  0.4193  0.8476
 4571SOL    HW125349   3.155   3.663   3.889  0.8336  1.0604 -0.3109
 4571SOL    HW225350   3.073   3.562   3.811  0.1500  0.0522 -0.0354
 4572SOL     OW25351   4.186   2.746   8.763 -0.0291  0.0829 -0.3829
 4572SOL    HW125352   4.222   2.742   8.852 -0.2316  0.6789 -0.2753
 4572SOL    HW225353   4.091   2.735   8.760  0.1673 -1.0499 -2.6022
 4573SOL     OW25354   2.154   0.094   1.153 -0.1582 -0.4004  0.2492
 4573SOL    HW125355   2.165   0.070   1.245 -1.8508  0.0747  0.5760
 4573SOL    HW225356   2.170   0.010   1.109  0.9545  0.7742 -1.6056
 4574SOL     OW25357   2.867   3.285   0.604 -0.4442 -0.7240 -0.3125
 4574SOL    HW125358   2.906   3.350   0.663 -3.7106  0.1667  0.9004
 4574SOL    HW225359   2.774   3.275   0.625 -0.9730  1.2827 -1.6360
 4575SOL     OW25360   3.530   1.726   1.311  0.1664  0.1887  0.0187
 4575SOL    HW125361   3.560   1.642   1.276 -0.4296  0.8957 -2.1681
 4575SOL    HW225362   3.599   1.742   1.376 -0.1578  0.9041  0.1881
 4576SOL     OW25363   1.726   1.674  13.189  0.8535 -0.1590  0.6070
 4576SOL    HW125364   1.648   1.693  13.138  0.0446 -3.7715  0.5527
 4576SOL    HW225365   1.718   1.580  13.205 -0.6987 -0.1827 -0.3308
 4577SOL     OW25366   0.381   1.541  17.046 -0.5360  0.2473  0.4555
 4577SOL    HW125367   0.305   1.563  17.100 -0.7205 -2.0637  1.1198
 4577SOL    HW225368   0.402   1.621  16.998  2.0018  0.8952  2.6501
 4578SOL     OW25369   1.458   1.445   8.893  0.1000  0.2167  0.3862
 4578SOL    HW125370   1.464   1.540   8.889 -0.9433  0.3309  1.3599
 4578SOL    HW225371   1.543   1.435   8.934  0.4592  0.4893 -0.3022
 4579SOL     OW25372   0.828   0.709  15.092 -0.5805  0.3405  0.3400
 4579SOL    HW125373   0.778   0.789  15.073 -3.0579 -1.0265  1.1665
 4579SOL    HW225374   0.767   0.641  15.065  1.0181 -0.3432 -1.5243
 4580SOL     OW25375   3.623   1.410   7.416 -0.5822 -0.1711 -0.0287
 4580SOL    HW125376   3.706   1.427   7.370  0.0427 -0.4436  0.9930
 4580SOL    HW225377   3.594   1.501   7.426 -0.9227 -0.2590 -0.2266
 4581SOL     OW25378   1.869   1.242  15.163 -0.2777 -0.0871  0.7376
 4581SOL    HW125379   1.805   1.229  15.234  0.0503  1.6938  1.3582
 4581SOL    HW225380   1.810   1.230  15.089  0.5934  1.6910 -0.2283
 4582SOL     OW25381   1.493   4.661  11.732 -0.0590 -0.0196 -0.1751
 4582SOL    HW125382   1.489   4.652  11.636 -0.1924 -0.9339 -0.0857
 4582SOL    HW225383   1.433   4.734  11.748  0.3737  0.0694  0.9988
 4583SOL     OW25384   1.713   4.268   5.595 -0.1902  0.4524 -0.2141
 4583SOL    HW125385   1.768   4.287   5.671 -0.3195  0.9250 -0.2376
 4583SOL    HW225386   1.639   4.329   5.602 -0.8801 -0.3309 -0.6353
 4584SOL     OW25387   4.690   3.466  12.737  0.0908 -0.2233 -0.6357
 4584SOL    HW125388   4.731   3.435  12.818  0.7603 -3.3473 -2.1744
 4584SOL    HW225389   4.715   3.390  12.685  0.6955 -0.3983 -0.0855
 4585SOL     OW25390   1.774   0.473  12.432  0.1518  0.7010  0.7825
 4585SOL    HW125391   1.700   0.533  12.418  0.8927  1.5468  0.4887
 4585SOL    HW225392   1.828   0.512  12.363 -0.4118 -0.6400 -0.4226
 4586SOL     OW25393   2.529   0.266   1.619 -0.6804 -0.1013  0.7094
 4586SOL    HW125394   2.617   0.305   1.619 -0.6695 -0.1158 -2.0042
 4586SOL    HW225395   2.553   0.174   1.611  1.3531  0.4338  0.6557
 4587SOL     OW25396   1.103   0.841   4.961  0.0411 -0.4580 -0.2971
 4587SOL    HW125397   1.194   0.827   4.984  0.5355  0.7848 -1.4845
 4587SOL    HW225398   1.112   0.858   4.868 -0.2471  1.7660  0.0733
 4588SOL     OW25399   1.995   0.490   0.978 -0.1104  0.1690 -0.3513
 4588SOL    HW125400   1.990   0.575   0.934  0.4832  0.6544  0.5259
 4588SOL    HW225401   1.917   0.484   1.032  0.0263  0.6407 -0.1019
 4589SOL     OW25402   3.099   2.336   3.926 -0.2982  0.2349 -0.1968
 4589SOL    HW125403   3.122   2.429   3.920  0.2240  0.0790 -0.6283
 4589SOL    HW225404   3.089   2.310   4.017  0.3666  0.6476 -0.0067
 4590SOL     OW25405   0.818   1.884   3.124 -0.0557 -0.9188 -0.2168
 4590SOL    HW125406   0.810   1.837   3.207  0.3009 -0.3112  0.1563
 4590SOL    HW225407   0.822   1.804   3.071 -2.6610 -0.7787 -0.6121
 4591SOL     OW25408   1.125   2.253   5.277  0.4527 -0.2006  0.1333
 4591SOL    HW125409   1.045   2.305   5.274 -0.3732 -1.2330  4.1206
 4591SOL    HW225410   1.152   2.286   5.191  0.7997  0.8348  0.6460
 4592SOL     OW25411   3.138   3.711   6.880  0.1413 -0.3738 -0.4871
 4592SOL    HW125412   3.056   3.662   6.878 -0.7382  1.0949 -0.8470
 4592SOL    HW225413   3.128   3.773   6.952 -0.5623  0.3446 -1.1936
 4593SOL     OW25414   1.215   4.333   0.311  0.1795 -0.2542  0.1428
 4593SOL    HW125415   1.265   4.412   0.334 -1.0104  0.3417  0.6422
 4593SOL    HW225416   1.172   4.316   0.394  2.5274  0.9424  1.6224
 4594SOL     OW25417   3.946   0.217   6.336 -0.4172  0.5039  0.3690
 4594SOL    HW125418   3.989   0.228   6.421  0.5267  0.1702 -0.0696
 4594SOL    HW225419   3.996   0.142   6.305 -2.5242 -0.8278  0.1501
 4595SOL     OW25420   0.315   1.597   7.005 -0.0324  0.1404  0.0003
 4595SOL    HW125421   0.341   1.510   7.034  3.1703  0.9499 -0.4806
 4595SOL    HW225422   0.360   1.647   7.073 -0.1471 -0.7338  0.7186
 4596SOL     OW25423   1.367   3.003   6.094 -0.2745 -0.3584 -0.4249
 4596SOL    HW125424   1.395   3.091   6.067  1.4127  0.5028  4.0749
 4596SOL    HW225425   1.371   2.956   6.011 -1.7348 -1.0429 -0.1041
 4597SOL     OW25426   3.681   3.957   2.446 -0.0825 -0.2822 -0.3099
 4597SOL    HW125427   3.670   3.862   2.459 -2.5578  0.1630  0.7767
 4597SOL    HW225428   3.759   3.970   2.393 -0.3875  1.4746 -0.3153
 4598SOL     OW25429   3.955   4.713  13.339  0.1660  0.5284 -0.3391
 4598SOL    HW125430   3.956   4.667  13.255 -0.7964 -1.4942  0.7373
 4598SOL    HW225431   3.982   4.656  13.411  0.0407  0.6347 -0.2095
 4599SOL     OW25432   2.588   1.753   3.425  0.1650 -0.2255 -0.2454
 4599SOL    HW125433   2.649   1.723   3.493  1.8609  1.6438 -0.9702
 4599SOL    HW225434   2.637   1.770   3.345  2.4809  0.5452  1.3558
 4600SOL     OW25435   1.245   0.172   4.512 -0.5168  0.1462 -0.3925
 4600SOL    HW125436   1.296   0.169   4.432  0.7041  1.9092  0.3232
 4600SOL    HW225437   1.315   0.180   4.577 -2.4389  3.1700  1.2861
 4601SOL     OW25438   4.258   4.483   4.167 -0.1556  0.8372 -0.0475
 4601SOL    HW125439   4.326   4.490   4.234  3.7602 -1.0555 -3.8149
 4601SOL    HW225440   4.186   4.446   4.218 -0.9710  0.7872 -1.2385
 4602SOL     OW25441   0.131   3.738   9.238  0.2108 -0.5873 -0.2431
 4602SOL    HW125442   0.173   3.659   9.203  3.2526  0.5767  0.7277
 4602SOL    HW225443   0.130   3.790   9.157  2.9518 -0.1445 -0.0112
 4603SOL     OW25444   4.024   3.019  12.778 -0.2040  0.6516 -0.5402
 4603SOL    HW125445   4.026   3.063  12.863 -4.5221  2.0854 -1.2004
 4603SOL    HW225446   3.930   3.026  12.762 -0.1038  0.2954 -1.2917
 4604SOL     OW25447   2.438   3.567   6.303 -0.0300  0.3008 -0.8354
 4604SOL    HW125448   2.409   3.621   6.377  2.5144  0.8744 -0.2716
 4604SOL    HW225449   2.481   3.628   6.243  1.6103  1.1288  1.1909
 4605SOL     OW25450   3.971   4.090   5.713  0.1389  0.0162  0.4237
 4605SOL    HW125451   3.929   4.009   5.685  0.6534 -0.3853  0.8055
 4605SOL    HW225452   4.010   4.053   5.792  0.5723 -0.3983  0.0187
 4606SOL     OW25453   1.909   1.614   3.818 -0.4095 -0.2686 -0.3590
 4606SOL    HW125454   1.874   1.601   3.906 -0.7981  2.1726 -0.1566
 4606SOL    HW225455   1.914   1.710   3.814 -1.7660 -0.2015 -0.3573
 4607SOL     OW25456   0.044   2.691  12.260  0.2887 -0.4840 -0.2543
 4607SOL    HW125457   0.061   2.641  12.340  2.3664  0.9907  0.2106
 4607SOL    HW225458   0.080   2.777  12.280 -0.4503 -0.5758  1.4709
 4608SOL     OW25459   0.181   3.910   7.034 -0.3360 -0.2884 -0.0320
 4608SOL    HW125460   0.095   3.917   6.992 -0.9416 -1.8991  0.9526
 4608SOL    HW225461   0.174   3.826   7.079  1.6736 -0.4003  0.0779
 4609SOL     OW25462   4.127   0.760   9.836  0.5981 -0.8333  0.0588
 4609SOL    HW125463   4.144   0.675   9.794  0.0384 -1.3823  0.9403
 4609SOL    HW225464   4.173   0.748   9.919  1.9257  0.6015 -0.4765
 4610SOL     OW25465   3.723   2.731  17.741 -0.1657  0.0208  0.3913
 4610SOL    HW125466   3.794   2.713  17.679 -2.1186  1.4442 -2.2366
 4610SOL    HW225467   3.773   2.745   0.074  0.1774  2.9459 -0.3531
 4611SOL     OW25468   4.025   1.942   5.187  0.3163 -0.0890  0.8771
 4611SOL    HW125469   4.056   1.997   5.260 -0.9128  2.4500 -0.4993
 4611SOL    HW225470   3.938   1.975   5.166  0.7838 -2.0468 -4.0607
 4612SOL     OW25471   0.786   2.287   5.210  0.6487 -0.8155 -0.0550
 4612SOL    HW125472   0.829   2.287   5.125 -0.2624  0.2319 -0.5280
 4612SOL    HW225473   0.836   2.361   5.246  0.6878  0.7452 -3.3228
 4613SOL     OW25474   2.132   4.546   5.156  0.1259 -0.3036  0.1636
 4613SOL    HW125475   2.145   4.458   5.191 -0.9251 -2.2115 -4.1972
 4613SOL    HW225476   2.221   4.582   5.150  0.2922 -1.0583 -1.7650
 4614SOL     OW25477   4.092   1.400   4.254  0.3802  0.2640 -0.5841
 4614SOL    HW125478   4.140   1.441   4.182 -0.6564  1.8561 -0.3641
 4614SOL    HW225479   4.083   1.311   4.220 -1.9848  1.1193 -2.2015
 4615SOL     OW25480   2.280   4.095   5.185 -0.1485 -0.5125 -0.3386
 4615SOL    HW125481   2.340   4.088   5.110 -0.3718  2.6492 -0.8133
 4615SOL    HW225482   2.337   4.126   5.256  1.1775 -0.6713 -1.3253
 4616SOL     OW25483   2.006   2.665   5.939 -0.0414 -0.2235  0.1400
 4616SOL    HW125484   2.037   2.590   5.989  1.4876  1.0347  1.0617
 4616SOL    HW225485   2.084   2.694   5.891 -0.0171  1.2807  1.1149
 4617SOL     OW25486   4.088   2.015  17.731  0.0247  0.2850  0.3411
 4617SOL    HW125487   4.090   2.111  17.731  1.3175  0.2719 -2.8437
 4617SOL    HW225488   4.085   1.984  17.641  2.6074 -2.3537  1.1609
 4618SOL     OW25489   1.388   0.094   6.343  0.0844 -0.1459 -0.1075
 4618SOL    HW125490   1.367   0.136   6.259  0.2331 -0.8361 -0.4876
 4618SOL    HW225491   1.306   0.104   6.392  1.2775  0.8799  1.6934
 4619SOL     OW25492   3.382   2.816  12.582  0.3901 -0.3949  0.0046
 4619SOL    HW125493   3.431   2.739  12.612  0.8929 -0.5721 -1.2759
 4619SOL    HW225494   3.293   2.781  12.580  0.3705 -0.4689  2.5547
 4620SOL     OW25495   0.017   2.576   2.512 -0.0071 -0.5553 -0.2878
 4620SOL    HW125496   0.026   2.652   2.570  1.1597 -0.0253 -1.1598
 4620SOL    HW225497   4.728   2.618   2.430  1.7235  2.4466  0.6934
 4621SOL     OW25498   3.407   1.649   5.829  0.0543 -0.1587  0.0961
 4621SOL    HW125499   3.417   1.744   5.824  1.8008 -0.5004 -2.9717
 4621SOL    HW225500   3.410   1.629   5.922  0.1111  0.1181  0.1539
 4622SOL     OW25501   1.313   2.708   2.786  0.7630  0.6574 -0.7250
 4622SOL    HW125502   1.258   2.737   2.859  0.2028 -0.5575 -0.6587
 4622SOL    HW225503   1.308   2.786   2.731 -1.5324 -0.1464 -1.6436
 4623SOL     OW25504   1.905   1.773   4.076 -0.5044  0.0044  0.0266
 4623SOL    HW125505   1.998   1.764   4.059 -0.2773  0.7693  0.8771
 4623SOL    HW225506   1.881   1.698   4.131  2.2587  0.1448  1.3889
 4624SOL     OW25507   3.582   3.517  11.800 -0.1583 -0.1738  0.2591
 4624SOL    HW125508   3.641   3.573  11.851  0.0597  0.7111 -0.9496
 4624SOL    HW225509   3.557   3.477  11.883 -0.6676 -0.5872 -0.0978
 4625SOL     OW25510   0.951   3.126  10.985  0.2955  0.1892 -0.4024
 4625SOL    HW125511   0.895   3.054  11.016 -0.2275  1.3833  1.4155
 4625SOL    HW225512   0.953   3.110  10.891 -0.8254 -0.5829 -0.2991
 4626SOL     OW25513   2.050   0.035   1.618  0.1493 -0.6137  0.6530
 4626SOL    HW125514   2.094   0.037   1.703  0.9368 -1.5379  0.2749
 4626SOL    HW225515   1.996   4.696   1.638  0.8288 -2.0890 -3.0394
 4627SOL     OW25516   2.207   0.015   1.399 -0.4192  0.0441  1.3852
 4627SOL    HW125517   2.264   4.712   1.465  0.7928 -1.7408 -0.7479
 4627SOL    HW225518   2.134   0.038   1.457 -0.3879  0.2858  1.3288
 4628SOL     OW25519   0.469   1.433  11.380 -0.1593  0.0798 -0.4413
 4628SOL    HW125520   0.428   1.518  11.394  1.3422  0.5489  1.0742
 4628SOL    HW225521   0.393   1.375  11.376  0.4588 -0.8450  1.2477
 4629SOL     OW25522   4.437   1.872  15.213  0.0829  0.0275  0.5048
 4629SOL    HW125523   4.350   1.832  15.214 -0.6678  1.6658 -0.1217
 4629SOL    HW225524   4.473   1.850  15.127 -0.1092 -0.6387  0.5954
 4630SOL     OW25525   2.774   0.457   8.948  0.0365 -0.0432 -0.2036
 4630SOL    HW125526   2.765   0.428   9.038  1.1155 -0.8646 -0.3604
 4630SOL    HW225527   2.770   0.372   8.903  0.9076 -0.3189  0.2407
 4631SOL     OW25528   0.566   3.776   7.921 -0.2300 -0.1643 -0.2352
 4631SOL    HW125529   0.525   3.729   7.994 -3.4244 -1.0086 -2.5621
 4631SOL    HW225530   0.642   3.719   7.907 -0.8195 -1.3475  1.3499
 4632SOL     OW25531   0.946   3.324   9.032 -0.1897 -0.0819  0.1360
 4632SOL    HW125532   1.035   3.360   9.024  0.8690 -2.6617  0.1183
 4632SOL    HW225533   0.889   3.394   9.000  0.5353  1.1150  1.4265
 4633SOL     OW25534   2.580   0.592   1.617  0.1448 -0.0808 -0.6435
 4633SOL    HW125535   2.561   0.523   1.681  1.6072  1.0129  0.9787
 4633SOL    HW225536   2.674   0.579   1.617 -0.0110 -1.2151  0.4681
 4634SOL     OW25537   0.632   4.712   5.452 -0.1512 -0.4809  0.0893
 4634SOL    HW125538   0.633   0.071   5.443  0.5752 -0.4867  0.0711
 4634SOL    HW225539   0.717   4.691   5.413 -0.0421 -1.9652  1.1587
 4635SOL     OW25540   2.622   1.153  12.467 -0.3269  0.1846  0.5536
 4635SOL    HW125541   2.706   1.146  12.422 -0.8279  2.0569 -0.6418
 4635SOL    HW225542   2.645   1.200  12.547  2.5666 -0.3651  0.0344
 4636SOL     OW25543   4.416   2.558  13.451 -0.1284 -0.3937 -0.0634
 4636SOL    HW125544   4.366   2.638  13.470  1.2682  0.4382  0.1279
 4636SOL    HW225545   4.460   2.596  13.375 -2.3902  1.2996 -0.5339
 4637SOL     OW25546   3.571   2.616   6.894 -0.1309 -0.1080  0.0843
 4637SOL    HW125547   3.572   2.702   6.853  3.2681  0.2833  1.0288
 4637SOL    HW225548   3.646   2.618   6.954 -1.0809 -0.8249  1.2963
 4638SOL     OW25549   0.467   1.179   0.536  0.2994 -0.1515  0.0167
 4638SOL    HW125550   0.475   1.271   0.508  0.3155 -0.0292  0.4337
 4638SOL    HW225551   0.450   1.196   0.628 -3.6191  1.8881 -1.0743
 4639SOL     OW25552   3.515   1.233   8.300  0.6011  0.0997  0.2181
 4639SOL    HW125553   3.518   1.157   8.242 -1.1459 -1.5732  2.3467
 4639SOL    HW225554   3.443   1.203   8.356 -0.2798  0.3302 -0.7781
 4640SOL     OW25555   3.346   1.470   6.344  0.0068  0.5430  0.0074
 4640SOL    HW125556   3.436   1.440   6.360  0.2541 -0.3041 -2.9122
 4640SOL    HW225557   3.306   1.439   6.425  1.1557  4.0334  1.8841
 4641SOL     OW25558   1.998   0.220   4.346  0.0323 -0.0109 -0.6145
 4641SOL    HW125559   1.994   0.204   4.251  1.2868  1.0753 -0.8608
 4641SOL    HW225560   2.092   0.236   4.343  0.3347 -1.6002  0.5081
 4642SOL     OW25561   3.327   1.767  14.158  0.5039  0.0968  0.6081
 4642SOL    HW125562   3.420   1.790  14.148 -0.1030  1.6726 -1.5191
 4642SOL    HW225563   3.327   1.742  14.250 -0.0909 -1.1693  0.2644
 4643SOL     OW25564   1.316   4.068   1.869 -0.1386  1.0164 -0.8410
 4643SOL    HW125565   1.235   4.018   1.858  0.3449  0.2668 -1.0184
 4643SOL    HW225566   1.350   4.042   1.954 -1.1370 -0.5047 -0.8970
 4644SOL     OW25567   2.469   2.629   8.453 -0.1666 -1.0103 -0.1118
 4644SOL    HW125568   2.412   2.675   8.392  0.1544  0.5346  0.7543
 4644SOL    HW225569   2.439   2.660   8.539  0.1513 -1.1690  0.0590
 4645SOL     OW25570   2.372   1.920   2.158 -0.3003 -0.2584 -1.1495
 4645SOL    HW125571   2.337   1.887   2.075  1.1665 -0.1119 -1.8287
 4645SOL    HW225572   2.328   1.873   2.228 -0.2045 -1.2882 -1.7769
 4646SOL     OW25573   0.914   1.163   4.138  0.0579 -0.3068 -0.1291
 4646SOL    HW125574   0.872   1.172   4.224  3.7557 -1.8315  1.8295
 4646SOL    HW225575   0.848   1.211   4.088 -0.4337  0.6547  1.4480
 4647SOL     OW25576   0.824   1.669   7.003  0.4460 -0.4874 -0.0126
 4647SOL    HW125577   0.879   1.644   6.928 -0.3198 -1.1257 -0.3555
 4647SOL    HW225578   0.804   1.753   6.963 -0.2119 -1.2074 -1.1950
 4648SOL     OW25579   2.795   0.929   5.527  0.0661 -0.4234  0.0166
 4648SOL    HW125580   2.753   1.005   5.568 -1.4051 -1.2874  0.1017
 4648SOL    HW225581   2.888   0.953   5.527 -0.5505  1.9960 -2.8632
 4649SOL     OW25582   0.884   2.228   5.534 -0.2501 -0.2770  0.0300
 4649SOL    HW125583   0.807   2.259   5.487  0.8520 -2.0023 -2.8461
 4649SOL    HW225584   0.903   2.308   5.583 -1.2564  0.3597 -0.6405
 4650SOL     OW25585   3.589   1.459   2.134 -0.5945 -0.0069  0.2389
 4650SOL    HW125586   3.542   1.543   2.131  1.7792  1.2081 -2.3190
 4650SOL    HW225587   3.554   1.413   2.210 -0.3789  0.4017  0.5872
 4651SOL     OW25588   0.004   0.989  11.804  0.3685  0.0547 -0.5066
 4651SOL    HW125589   0.044   0.910  11.768 -1.1467 -0.0322 -2.0274
 4651SOL    HW225590   0.035   1.054  11.741  0.3585 -0.3044 -0.8845
 4652SOL     OW25591   2.712   0.130   3.458 -0.0907 -0.3127  0.2246
 4652SOL    HW125592   2.791   0.181   3.438  0.7898 -0.7068  2.7481
 4652SOL    HW225593   2.649   0.189   3.418 -2.0493 -1.9251  0.9182
 4653SOL     OW25594   2.873   1.783  11.677 -0.7426 -0.7163 -0.1032
 4653SOL    HW125595   2.868   1.690  11.655 -1.4439 -0.5849 -0.4931
 4653SOL    HW225596   2.919   1.780  11.761 -0.2559 -1.4301 -0.3904
 4654SOL     OW25597   3.909   3.846   4.561  0.0339 -0.0467  0.2616
 4654SOL    HW125598   3.842   3.805   4.616  0.2506 -0.1202  0.4725
 4654SOL    HW225599   3.973   3.776   4.547 -0.4960 -0.8739  1.9979
 4655SOL     OW25600   2.926   1.449   5.908  0.3986  0.0752  0.0052
 4655SOL    HW125601   2.910   1.473   5.999 -1.2148 -1.0491  0.0383
 4655SOL    HW225602   2.845   1.400   5.892  0.9502 -0.4321 -1.2633
 4656SOL     OW25603   0.958   1.566   3.391  0.3400  0.1102 -0.1457
 4656SOL    HW125604   0.920   1.650   3.367 -0.3535 -0.5240 -1.3080
 4656SOL    HW225605   0.890   1.534   3.451  0.5618  2.1702  1.1685
 4657SOL     OW25606   2.609   1.301   2.032  0.3251  0.3162 -0.7400
 4657SOL    HW125607   2.625   1.289   1.938 -0.3026 -0.7147 -0.7073
 4657SOL    HW225608   2.701   1.313   2.056  0.8087 -4.5567 -0.1250
 4658SOL     OW25609   1.062   3.679   7.096 -0.0930 -0.2566  0.6161
 4658SOL    HW125610   1.072   3.586   7.080 -1.0376 -0.5219  1.5610
 4658SOL    HW225611   0.980   3.697   7.051  0.2037 -1.8460 -0.5346
 4659SOL     OW25612   2.765   4.497   8.947 -0.4586  0.1598  0.2339
 4659SOL    HW125613   2.804   4.455   8.871 -1.7365 -0.2242 -0.2063
 4659SOL    HW225614   2.831   4.560   8.976 -1.8696  1.1279  1.3575
 4660SOL     OW25615   1.438   4.689   1.181  0.5341 -0.5341 -0.1391
 4660SOL    HW125616   1.519   4.732   1.208 -0.2710 -0.2758  1.9005
 4660SOL    HW225617   1.418   0.001   1.101  1.0252  0.6818  0.4733
 4661SOL     OW25618   4.584   0.740   7.760 -0.4964 -0.1657 -0.3719
 4661SOL    HW125619   4.585   0.676   7.688 -0.4915  0.5809 -1.0338
 4661SOL    HW225620   4.492   0.740   7.786 -0.2375  1.7375  0.5196
 4662SOL     OW25621   1.330   1.073   7.092 -0.1195 -0.1229 -0.1687
 4662SOL    HW125622   1.276   1.151   7.099 -1.2996 -1.0120  0.4779
 4662SOL    HW225623   1.365   1.060   7.180  0.5328 -1.3039 -0.6027
 4663SOL     OW25624   4.143   1.049   2.570  0.2799 -0.1875  0.0773
 4663SOL    HW125625   4.172   0.958   2.562  1.0410  0.0982 -0.4607
 4663SOL    HW225626   4.199   1.090   2.504  1.1359 -0.1763  0.8080
 4664SOL     OW25627   3.018   4.135   7.046  0.1260  0.3138  0.5090
 4664SOL    HW125628   3.073   4.097   7.114 -2.3330 -0.8718  1.8387
 4664SOL    HW225629   3.073   4.117   6.970 -0.3170  5.4426 -1.0190
 4665SOL     OW25630   3.179   1.646   4.470 -0.2043  0.2644  0.3798
 4665SOL    HW125631   3.184   1.714   4.537  0.1442  0.3128  0.3088
 4665SOL    HW225632   3.100   1.670   4.421 -0.9702  3.4877  3.1728
 4666SOL     OW25633   1.267   2.509   2.000  1.1593 -0.5058 -0.3269
 4666SOL    HW125634   1.242   2.600   1.985  0.7274 -0.7573 -1.1784
 4666SOL    HW225635   1.333   2.487   1.933  1.9092  0.8851 -0.0406
 4667SOL     OW25636   3.233   2.412   4.507  0.2015 -0.3604  0.0101
 4667SOL    HW125637   3.181   2.483   4.469 -0.0553 -0.4092  0.2666
 4667SOL    HW225638   3.216   2.428   4.600 -1.8367 -2.8495  0.1027
 4668SOL     OW25639   3.556   3.606   1.750  0.1016  0.2273  0.0810
 4668SOL    HW125640   3.484   3.569   1.698 -0.9545  1.7261  0.4585
 4668SOL    HW225641   3.506   3.648   1.820 -2.0020 -1.6191 -0.3157
 4669SOL     OW25642   1.473   0.276   5.361 -0.6159  0.0222  0.1776
 4669SOL    HW125643   1.535   0.305   5.428 -0.2344 -0.1643 -0.1002
 4669SOL    HW225644   1.527   0.297   5.285  0.0077 -1.2163  0.2935
 4670SOL     OW25645   4.374   1.146   5.446 -0.7254 -0.3113  0.0819
 4670SOL    HW125646   4.395   1.166   5.537  0.0690 -0.8112  0.0090
 4670SOL    HW225647   4.303   1.082   5.448 -0.4495 -0.5926  0.8877
 4671SOL     OW25648   1.108   1.204   6.321  0.0088 -0.6506 -0.5990
 4671SOL    HW125649   1.200   1.223   6.304  0.1037 -0.8754 -0.3292
 4671SOL    HW225650   1.064   1.244   6.245 -0.0006  0.9068  0.2299
 4672SOL     OW25651   1.197   2.093   4.814 -0.3317  0.3220 -0.0012
 4672SOL    HW125652   1.163   2.015   4.770 -2.0414  1.3586 -0.4981
 4672SOL    HW225653   1.285   2.072   4.783 -0.5719  1.3208 -1.3391
 4673SOL     OW25654   3.443   1.667  11.840 -0.2641 -0.2885  0.1422
 4673SOL    HW125655   3.538   1.679  11.843 -0.5639  2.5424 -1.2154
 4673SOL    HW225656   3.417   1.668  11.932  2.3625  0.5287  0.8738
 4674SOL     OW25657   2.874   4.186   3.705 -0.0241 -0.5883 -0.5386
 4674SOL    HW125658   2.848   4.107   3.657  0.2924 -0.4317 -0.9627
 4674SOL    HW225659   2.862   4.254   3.639  0.2318 -0.1160 -0.1005
 4675SOL     OW25660   0.066   3.237  15.158  0.4896  0.1276  0.4614
 4675SOL    HW125661   0.097   3.152  15.127 -1.3170  0.0896 -1.2556
 4675SOL    HW225662   0.105   3.233  15.245 -1.4223 -0.9245  1.2691
 4676SOL     OW25663   1.495   1.962   4.571  0.5153 -1.0712 -0.6275
 4676SOL    HW125664   1.441   1.972   4.492 -0.8149  2.1863  0.6721
 4676SOL    HW225665   1.578   1.943   4.528  2.0079  2.9483  0.4267
 4677SOL     OW25666   0.565   2.488  13.126 -0.6018  0.4714  0.3752
 4677SOL    HW125667   0.493   2.535  13.167 -2.0402 -1.7898  0.4026
 4677SOL    HW225668   0.509   2.417  13.095 -0.1095 -0.1055  0.7901
 4678SOL     OW25669   2.940   4.193   4.780 -0.3974  0.2173 -0.2317
 4678SOL    HW125670   2.894   4.109   4.776 -1.0386  0.6335 -1.6675
 4678SOL    HW225671   2.868   4.245   4.814 -1.2139 -0.2469 -1.2669
 4679SOL     OW25672   1.397   4.344  10.708  0.1978 -0.6754  0.6438
 4679SOL    HW125673   1.370   4.389  10.788  0.1671 -2.0903  1.4267
 4679SOL    HW225674   1.455   4.275  10.741  0.8911 -1.0761 -1.4070
 4680SOL     OW25675   2.735   4.110  17.394 -0.1451  0.5624  0.3527
 4680SOL    HW125676   2.765   4.176  17.457 -1.6352  1.9670 -0.4231
 4680SOL    HW225677   2.669   4.162  17.349  0.0804 -1.7371 -2.6332
 4681SOL     OW25678   1.751   2.716   5.294 -0.5978  0.7532 -0.5073
 4681SOL    HW125679   1.752   2.811   5.292  0.1948  0.7469 -0.3107
 4681SOL    HW225680   1.725   2.695   5.384  2.2638  1.1686  0.3935
 4682SOL     OW25681   1.115   4.578   2.605 -0.1473 -0.1458  0.3871
 4682SOL    HW125682   1.109   4.485   2.626  0.8546 -0.1335  0.7301
 4682SOL    HW225683   1.064   4.622   2.673 -1.4363  0.0089 -0.6796
 4683SOL     OW25684   1.537   3.030   5.363 -0.3269 -0.1868  0.6930
 4683SOL    HW125685   1.614   3.064   5.409  0.2222  0.0954 -0.4410
 4683SOL    HW225686   1.491   2.991   5.438  2.1420 -2.9632  0.7474
 4684SOL     OW25687   2.640   0.308   4.453 -0.3776 -0.3280  1.0202
 4684SOL    HW125688   2.565   0.367   4.458  0.8181  1.1832  0.9058
 4684SOL    HW225689   2.697   0.345   4.519 -1.1123  0.5848  1.1385
 4685SOL     OW25690   3.173   1.082   3.853 -0.1487 -0.3511 -0.4830
 4685SOL    HW125691   3.207   0.995   3.873  1.5566  0.2254 -0.9216
 4685SOL    HW225692   3.092   1.053   3.811 -2.1621  3.6929  0.6443
 4686SOL     OW25693   4.503   4.103  13.964  0.3342  0.1870 -0.4071
 4686SOL    HW125694   4.444   4.166  13.922 -0.5927 -1.8178 -2.1473
 4686SOL    HW225695   4.491   4.124  14.057 -3.1181 -3.4938 -0.0239
 4687SOL     OW25696   4.607   0.060   0.079 -0.4949  0.5189  0.6762
 4687SOL    HW125697   4.628   0.004   0.003  1.4205  1.2227  0.6763
 4687SOL    HW225698   4.515   0.082   0.062 -0.7475 -0.7978  0.3011
 4688SOL     OW25699   1.121   0.273   0.415 -0.0709 -0.2440  0.1593
 4688SOL    HW125700   1.095   0.190   0.453  1.0671  0.0839  1.6381
 4688SOL    HW225701   1.197   0.254   0.359  0.8659 -0.9994  1.7007
 4689SOL     OW25702   3.695   3.552   3.297  0.0093  0.9468  0.2046
 4689SOL    HW125703   3.618   3.569   3.242 -0.6858  1.0036  1.1919
 4689SOL    HW225704   3.736   3.639   3.294  0.1928  0.8561  0.0858
 4690SOL     OW25705   2.090   4.107   0.763 -0.3488 -0.2545  0.0209
 4690SOL    HW125706   2.033   4.178   0.733  2.3120  0.9047 -2.3017
 4690SOL    HW225707   2.104   4.068   0.677 -0.6813 -2.3021  0.9038
 4691SOL     OW25708   3.226   2.619   2.896  0.2004 -0.6098  0.3762
 4691SOL    HW125709   3.231   2.674   2.975 -3.0505 -0.1222  0.2578
 4691SOL    HW225710   3.170   2.679   2.845  0.5399 -0.8832 -0.3206
 4692SOL     OW25711   4.457   2.561  12.548  0.8183  0.0405 -0.2577
 4692SOL    HW125712   4.450   2.576  12.454 -3.9712  0.2788  0.1580
 4692SOL    HW225713   4.511   2.637  12.570  2.2416 -0.7242 -1.0848
 4693SOL     OW25714   1.779   0.628   6.049  0.0609  0.0194 -0.1020
 4693SOL    HW125715   1.781   0.636   5.954  0.7246  0.2687 -0.0629
 4693SOL    HW225716   1.789   0.720   6.074 -3.6133  0.0604  1.2147
 4694SOL     OW25717   3.994   1.803   2.583 -0.4604  0.1943  0.0526
 4694SOL    HW125718   3.947   1.872   2.629  3.5335  2.2602  1.0297
 4694SOL    HW225719   4.078   1.844   2.566  0.8780 -2.5845 -0.0248
 4695SOL     OW25720   2.357   1.170  13.731  0.0348 -0.0334 -0.4840
 4695SOL    HW125721   2.398   1.233  13.791 -1.6324  0.4221  0.1767
 4695SOL    HW225722   2.351   1.092  13.785 -2.2609 -1.1419 -2.3460
 4696SOL     OW25723   3.265   0.847   5.005 -0.1313  0.5147  0.1831
 4696SOL    HW125724   3.314   0.775   5.045  0.2044  1.9251  2.3144
 4696SOL    HW225725   3.342   0.892   4.970  0.5898 -0.5365  0.4368
 4697SOL     OW25726   4.344   2.272  15.375  0.5364 -0.1584  0.4825
 4697SOL    HW125727   4.298   2.239  15.452  1.0171 -0.6384  0.5613
 4697SOL    HW225728   4.430   2.297  15.410 -1.7636  3.1629  3.8301
 4698SOL     OW25729   4.670   0.112   4.950  0.1726  0.4894 -0.4199
 4698SOL    HW125730   4.597   0.122   4.889 -0.3956  0.6258  0.2743
 4698SOL    HW225731   4.702   0.022   4.950 -1.5059 -0.1087  1.7200
 4699SOL     OW25732   2.578   1.894   7.264  0.4216  0.5353  0.0729
 4699SOL    HW125733   2.593   1.988   7.275 -1.0012  0.4479  2.7577
 4699SOL    HW225734   2.549   1.858   7.348 -0.8137  1.0553 -0.1278
 4700SOL     OW25735   3.896   2.283   3.182 -0.8723 -0.0064 -0.1486
 4700SOL    HW125736   3.857   2.238   3.107 -0.9509  0.3807 -0.3416
 4700SOL    HW225737   3.927   2.362   3.138 -1.0323 -0.0586 -0.3526
 4701SOL     OW25738   3.766   3.302   0.146 -0.0781 -0.4244  0.4811
 4701SOL    HW125739   3.737   3.224   0.099  1.1653  1.2342 -3.0934
 4701SOL    HW225740   3.809   3.353   0.076 -1.1037  1.4740  1.2482
 4702SOL     OW25741   4.390   4.564   9.061  0.0711 -0.2153  0.9105
 4702SOL    HW125742   4.304   4.576   9.022  1.3971 -0.1291 -2.0159
 4702SOL    HW225743   4.410   4.472   9.041 -0.7183  0.1026 -1.2804
 4703SOL     OW25744   1.249   2.748   9.518  0.0244 -0.3899  0.5147
 4703SOL    HW125745   1.256   2.670   9.463  1.0152  0.2622 -0.2930
 4703SOL    HW225746   1.196   2.806   9.464 -0.1316  0.0349  1.1162
 4704SOL     OW25747   3.941   1.988   4.389 -0.1481  0.5162  0.2042
 4704SOL    HW125748   4.012   2.043   4.356  1.7420 -2.4985 -0.7774
 4704SOL    HW225749   3.949   2.024   4.477  1.3612  0.0498  0.2636
 4705SOL     OW25750   0.108   0.441   2.079  0.0816  0.1531  0.0166
 4705SOL    HW125751   0.071   0.508   2.022  0.2789 -1.4952 -2.0354
 4705SOL    HW225752   0.107   0.493   2.160  0.4907 -1.8913  1.3214
 4706SOL     OW25753   1.726   0.089   8.375 -0.4987  0.1900 -0.0350
 4706SOL    HW125754   1.707   0.176   8.341  2.2404  1.0440  0.6243
 4706SOL    HW225755   1.717   0.094   8.470 -0.5430  3.1291 -0.2052
 4707SOL     OW25756   1.078   1.623   8.427 -0.6133 -0.4416  0.1067
 4707SOL    HW125757   1.163   1.666   8.435  0.7147 -2.3247 -3.7753
 4707SOL    HW225758   1.016   1.694   8.415 -1.2014 -1.0946 -0.6837
 4708SOL     OW25759   2.269   4.198   0.228 -0.2204  0.4709  0.1325
 4708SOL    HW125760   2.262   4.197   0.133  0.4705 -1.2497  0.0913
 4708SOL    HW225761   2.175   4.203   0.247  0.1061  2.7595  1.1523
 4709SOL     OW25762   2.678   2.474   8.562  0.3269  0.7315  0.0208
 4709SOL    HW125763   2.698   2.490   8.654  0.4066 -0.1636  0.1653
 4709SOL    HW225764   2.591   2.513   8.560 -0.6968 -1.4968  0.7511
 4710SOL     OW25765   4.003   2.110   4.044 -0.3063 -0.6350 -0.2324
 4710SOL    HW125766   4.077   2.100   4.104  1.4986 -2.1650 -2.7080
 4710SOL    HW225767   4.047   2.149   3.969  1.8324  2.5773  2.6796
 4711SOL     OW25768   0.562   1.068   7.267  0.2242  0.5123  0.0309
 4711SOL    HW125769   0.534   0.976   7.276 -0.4721  0.7826  0.6551
 4711SOL    HW225770   0.580   1.072   7.173  0.3381 -3.5612 -0.1307
 4712SOL     OW25771   0.754   4.685   7.247 -0.0943  0.3667  0.2501
 4712SOL    HW125772   0.824   4.649   7.191 -2.0842 -3.2625  0.0942
 4712SOL    HW225773   0.797   4.720   7.325 -1.2792 -1.1668  1.5837
 4713SOL     OW25774   3.229   1.278  15.253 -0.4397  0.5486 -0.0193
 4713SOL    HW125775   3.314   1.239  15.274  0.3399 -0.2444 -4.6514
 4713SOL    HW225776   3.171   1.209  15.285 -0.2765  1.0781  1.4087
 4714SOL     OW25777   0.168   4.361  11.677  0.2296  0.1887 -0.6874
 4714SOL    HW125778   0.121   4.279  11.669 -0.4960  0.4950  0.4995
 4714SOL    HW225779   0.172   4.375  11.771 -0.5246  1.9022 -0.8973
 4715SOL     OW25780   1.225   0.596   9.204  0.3388  0.4077  0.3382
 4715SOL    HW125781   1.282   0.521   9.187 -1.4106 -0.6804 -0.7109
 4715SOL    HW225782   1.179   0.564   9.282 -0.4084 -4.8133 -2.2402
 4716SOL     OW25783   3.077   1.784   3.339 -0.0399  0.1465  0.2064
 4716SOL    HW125784   3.137   1.719   3.375 -1.8208 -2.0587 -0.8476
 4716SOL    HW225785   2.998   1.738   3.367  0.7127 -0.9979  0.4560
 4717SOL     OW25786   1.543   1.861   8.407  0.2115 -0.1886  0.8545
 4717SOL    HW125787   1.610   1.815   8.356  2.7433  2.1053  2.0843
 4717SOL    HW225788   1.508   1.918   8.339  2.6356  0.1229 -0.1454
 4718SOL     OW25789   0.352   0.181   5.939 -0.3288  0.1273 -0.1169
 4718SOL    HW125790   0.413   0.131   5.993  0.6978  0.8670 -0.5972
 4718SOL    HW225791   0.374   0.273   5.951  0.0431  0.3145 -2.3065
 4719SOL     OW25792   0.426   1.777   3.742  0.4419 -0.3370 -0.1550
 4719SOL    HW125793   0.501   1.732   3.702  0.4651 -0.2433 -0.2171
 4719SOL    HW225794   0.475   1.837   3.799  0.9285 -0.7543 -0.1307
 4720SOL     OW25795   1.469   4.209   6.313  0.1235 -0.5189  0.4677
 4720SOL    HW125796   1.507   4.279   6.366  0.5875  1.5508 -2.6163
 4720SOL    HW225797   1.374   4.219   6.315  0.3296  1.3441  0.5972
 4721SOL     OW25798   0.042   4.653   7.282  0.5342 -0.0875 -0.4883
 4721SOL    HW125799   0.013   4.722   7.342 -1.3429 -2.2315  1.0909
 4721SOL    HW225800   0.071   4.585   7.344 -0.2711  0.4241  0.4464
 4722SOL     OW25801   1.901   4.294   6.867 -0.1169 -0.2545 -0.1354
 4722SOL    HW125802   1.924   4.370   6.813 -0.3313 -0.5456 -0.6341
 4722SOL    HW225803   1.820   4.263   6.827  0.3537 -0.7883 -0.6774
 4723SOL     OW25804   3.748   1.998   2.350 -0.6345  0.1847 -0.1540
 4723SOL    HW125805   3.745   1.992   2.445 -1.2494 -1.3246 -0.2808
 4723SOL    HW225806   3.657   2.021   2.330 -0.2639  0.7324 -1.2680
 4724SOL     OW25807   3.475   4.186  17.420  0.5539  0.5791 -0.0415
 4724SOL    HW125808   3.505   4.226  17.339 -0.0917  1.1621  0.0046
 4724SOL    HW225809   3.436   4.102  17.396  1.9145  0.0091 -0.2186
 4725SOL     OW25810   0.056   0.198   2.302  0.3757  0.4631 -0.3622
 4725SOL    HW125811   4.724   0.259   2.276 -1.0261  0.3468  3.0573
 4725SOL    HW225812   0.028   0.122   2.251 -0.9615  0.5280  0.2705
 4726SOL     OW25813   0.925   1.338   9.471 -0.2282 -0.1555  0.0981
 4726SOL    HW125814   0.945   1.310   9.382  0.4183  1.7365 -0.3657
 4726SOL    HW225815   1.004   1.383   9.504  0.5492 -0.4687 -1.3373
 4727SOL     OW25816   3.532   0.556  14.933  0.2854  0.0813 -0.3611
 4727SOL    HW125817   3.600   0.607  14.890  1.6568 -0.4986  1.1130
 4727SOL    HW225818   3.496   0.510  14.857  1.7351 -0.1536 -0.9095
 4728SOL     OW25819   4.725   4.720   2.074  0.0268  0.0774  0.1645
 4728SOL    HW125820   0.047   0.004   2.002  0.3269  1.4378  0.8280
 4728SOL    HW225821   4.691   4.637   2.039 -0.7315  0.5597 -0.2288
 4729SOL     OW25822   2.943   1.777   4.339 -0.1185  0.2859  0.4911
 4729SOL    HW125823   2.916   1.843   4.275  0.9131  1.1513  0.9204
 4729SOL    HW225824   2.996   1.835   4.395 -1.5396  0.4476  1.6675
 4730SOL     OW25825   1.965   0.793   2.882  0.5796 -0.0871 -0.0581
 4730SOL    HW125826   1.964   0.698   2.870 -0.7984 -0.0644 -0.1787
 4730SOL    HW225827   1.999   0.806   2.794  1.1802 -2.1550 -0.1430
 4731SOL     OW25828   2.245   0.963   0.853  0.7171  0.2896 -0.1075
 4731SOL    HW125829   2.253   0.914   0.770 -0.7464  1.1837 -0.7847
 4731SOL    HW225830   2.308   0.915   0.906  3.0387  3.0586 -0.3830
 4732SOL     OW25831   2.084   0.450   4.949 -0.6935 -0.2168  0.2097
 4732SOL    HW125832   2.031   0.416   4.878  1.1950  0.4953 -1.5460
 4732SOL    HW225833   2.157   0.388   4.940 -0.1102  0.3350  1.0729
 4733SOL     OW25834   2.857   4.082   3.041  0.6104 -0.5305 -0.6873
 4733SOL    HW125835   2.865   4.059   3.133  0.2880 -0.7058 -0.7036
 4733SOL    HW225836   2.936   4.137   3.036 -0.1897  0.6742 -0.0468
 4734SOL     OW25837   3.832   4.358   2.362 -0.0338  0.7581 -0.2923
 4734SOL    HW125838   3.900   4.402   2.311 -0.2210 -0.5016 -1.6347
 4734SOL    HW225839   3.858   4.375   2.453  1.5950  1.1249 -0.8260
 4735SOL     OW25840   4.202   2.323   9.254  0.1128  0.1903  0.9815
 4735SOL    HW125841   4.236   2.413   9.251 -1.4317  0.7922  1.1161
 4735SOL    HW225842   4.157   2.331   9.338  0.5396  2.5371  0.9911
 4736SOL     OW25843   4.326   4.051  11.891  0.1466  0.0234  0.3338
 4736SOL    HW125844   4.292   4.011  11.971 -0.5391 -1.8110 -0.8925
 4736SOL    HW225845   4.409   4.005  11.882 -1.7095 -3.2388 -0.1197
 4737SOL     OW25846   0.758   2.253   6.629 -0.1032 -0.0634  0.0826
 4737SOL    HW125847   0.663   2.255   6.633 -0.0687 -0.2077  1.0262
 4737SOL    HW225848   0.781   2.280   6.718  2.0632  0.4099 -0.6224
 4738SOL     OW25849   3.937   2.863  11.920  0.2866 -0.3885  0.5091
 4738SOL    HW125850   3.842   2.867  11.920  0.2598 -1.1015 -3.0015
 4738SOL    HW225851   3.960   2.879  12.011  1.5813 -2.0850  0.4786
 4739SOL     OW25852   0.938   3.300   9.308 -0.6054  0.3220  0.3754
 4739SOL    HW125853   1.022   3.268   9.341  0.1815  0.7303 -1.2146
 4739SOL    HW225854   0.949   3.303   9.213 -0.5238  0.3269  0.3852
 4740SOL     OW25855   4.308   3.447   0.119  0.4151 -0.3050 -0.2074
 4740SOL    HW125856   4.248   3.470   0.190  0.3946 -1.0321  0.0142
 4740SOL    HW225857   4.346   3.533   0.100 -2.1292  0.9193  0.1345
 4741SOL     OW25858   2.029   4.657   7.950  0.2306 -0.4210 -0.3545
 4741SOL    HW125859   2.087   4.582   7.947  1.7713  0.7959 -0.9658
 4741SOL    HW225860   1.973   4.639   8.026 -0.2148 -0.4270 -0.6800
 4742SOL     OW25861   0.994   2.673   0.687 -0.0929  0.2093 -0.5592
 4742SOL    HW125862   1.067   2.635   0.639  0.5687  2.7129 -1.5288
 4742SOL    HW225863   0.932   2.672   0.614  0.4647 -0.4570 -1.0168
 4743SOL     OW25864   1.519   4.268   6.952 -0.5802  0.2789  0.3523
 4743SOL    HW125865   1.548   4.350   6.912 -2.9320  0.6655 -0.5375
 4743SOL    HW225866   1.476   4.301   7.031 -2.1403  0.5841 -0.6354
 4744SOL     OW25867   0.872   3.068   2.559  0.1956 -0.1174  0.1776
 4744SOL    HW125868   0.943   3.132   2.567 -0.6020  1.2005 -3.0318
 4744SOL    HW225869   0.924   2.988   2.552  0.8580  0.3315 -0.0681
 4745SOL     OW25870   2.688   4.664   3.244 -0.5407 -0.0790 -0.5088
 4745SOL    HW125871   2.697   4.736   3.307  1.3075 -1.6570  1.0457
 4745SOL    HW225872   2.661   4.587   3.295  1.1514 -0.0949  0.3603
 4746SOL     OW25873   0.904   1.522   6.539  0.0030  0.3514  0.3707
 4746SOL    HW125874   0.824   1.475   6.562  0.2841  0.8430  2.3223
 4746SOL    HW225875   0.877   1.574   6.464 -0.0247 -1.0248 -0.5783
 4747SOL     OW25876   0.527   0.095   7.129 -0.3427  0.5321 -0.5378
 4747SOL    HW125877   0.603   0.052   7.169  0.6115  2.3429 -0.3838
 4747SOL    HW225878   0.570   0.128   7.050  1.1387  0.3913  0.2002
 4748SOL     OW25879   4.304   2.856   6.040  0.3225 -0.1019  0.0902
 4748SOL    HW125880   4.372   2.922   6.040 -0.9878  1.2150  2.1134
 4748SOL    HW225881   4.223   2.907   6.041  1.0769  1.0465  1.2923
 4749SOL     OW25882   1.686   1.684   3.226  0.0202 -0.3733  0.4354
 4749SOL    HW125883   1.623   1.620   3.193  0.7284  0.8494 -3.3056
 4749SOL    HW225884   1.742   1.694   3.148  2.7203 -0.6121  2.3551
 4750SOL     OW25885   0.734   3.508   5.275 -0.0532 -0.1261  0.2573
 4750SOL    HW125886   0.752   3.507   5.369 -2.4517 -1.0176  0.7065
 4750SOL    HW225887   0.650   3.552   5.282 -0.5089 -0.6208 -2.0957
 4751SOL     OW25888   3.985   2.235  17.128 -0.0224  1.2038  0.1945
 4751SOL    HW125889   3.963   2.241  17.221 -1.4159  0.7110 -0.0937
 4751SOL    HW225890   3.943   2.150  17.112  0.1131  1.0782  0.5044
 4752SOL     OW25891   4.714   2.697   8.387 -0.4721  0.1898 -0.4117
 4752SOL    HW125892   4.729   2.606   8.362  1.6328  0.5792 -0.6242
 4752SOL    HW225893   4.662   2.665   8.460  0.0340  1.6234  0.5736
 4753SOL     OW25894   1.781   2.483  10.031  0.1680  0.7270  0.4063
 4753SOL    HW125895   1.754   2.396  10.061  0.1041  0.1991 -1.1299
 4753SOL    HW225896   1.863   2.462   9.986 -0.2565 -1.2490  0.5481
 4754SOL     OW25897   1.537   3.657   3.227 -0.8527  0.1664 -0.1490
 4754SOL    HW125898   1.542   3.661   3.131  2.8767  0.3230  0.0738
 4754SOL    HW225899   1.466   3.595   3.242  0.7966 -1.9128 -1.0368
 4755SOL     OW25900   0.685   1.434   4.435 -0.4795 -0.1644  0.1243
 4755SOL    HW125901   0.760   1.462   4.488  0.0596 -0.9399 -0.2241
 4755SOL    HW225902   0.615   1.423   4.499  0.3941  1.8794  1.4082
 4756SOL     OW25903   3.890   1.049  14.775 -0.1044 -0.4683 -0.9031
 4756SOL    HW125904   3.895   0.971  14.720  2.6618 -0.4584 -0.6961
 4756SOL    HW225905   3.875   1.125  14.718 -0.5290 -1.1610 -1.7028
 4757SOL     OW25906   0.194   4.723   1.911  0.0599 -0.5242  0.7233
 4757SOL    HW125907   0.247   4.644   1.922  0.3000 -0.6007 -1.0188
 4757SOL    HW225908   0.257   0.057   1.915  0.8476 -1.1645 -0.3352
 4758SOL     OW25909   2.150   0.147   5.584 -0.2303 -0.1215 -0.3667
 4758SOL    HW125910   2.198   0.100   5.516 -1.1846  1.5586 -2.1505
 4758SOL    HW225911   2.169   0.240   5.576  3.3084 -0.7819  0.4452
 4759SOL     OW25912   3.125   3.664   2.482  0.2579 -0.4106  0.5193
 4759SOL    HW125913   3.109   3.659   2.388  0.0768 -1.1704  0.5829
 4759SOL    HW225914   3.053   3.720   2.510  2.1154  0.2177  4.0274
 4760SOL     OW25915   1.562   4.641  15.480  0.2803  0.2350 -0.1736
 4760SOL    HW125916   1.621   4.682  15.543  1.2215  0.1223 -0.9688
 4760SOL    HW225917   1.531   4.571  15.538  1.0200  1.0862  1.2564
 4761SOL     OW25918   2.582   1.115   5.364  0.6406  0.0034  0.2044
 4761SOL    HW125919   2.663   1.070   5.341  0.1954 -0.8634  0.3442
 4761SOL    HW225920   2.605   1.145   5.452  1.0137 -0.8375  0.3897
 4762SOL     OW25921   0.915   0.661   2.030  0.3795  0.4903  0.6875
 4762SOL    HW125922   0.890   0.573   2.000 -2.2387  0.2523  3.5720
 4762SOL    HW225923   0.980   0.687   1.965 -1.1901  0.3361 -0.9417
 4763SOL     OW25924   3.807   3.669  11.002  0.7741  0.4293  0.1494
 4763SOL    HW125925   3.898   3.699  11.001  1.1480 -0.7218 -0.7611
 4763SOL    HW225926   3.804   3.605  10.930 -0.2475  1.6125 -0.8659
 4764SOL     OW25927   4.582   4.210  14.229 -0.0192  0.5362 -0.4572
 4764SOL    HW125928   4.603   4.216  14.322 -0.2188 -2.4627 -0.2081
 4764SOL    HW225929   4.555   4.301  14.220  2.5531  1.3014 -0.2621
 4765SOL     OW25930   4.386   4.057   8.231 -0.3119  0.0510 -0.1929
 4765SOL    HW125931   4.410   4.014   8.148 -1.7001 -1.8667  0.4039
 4765SOL    HW225932   4.469   4.052   8.278  0.4601 -1.4078 -1.6970
 4766SOL     OW25933   3.875   3.118   9.695 -0.3779 -0.7460 -0.3701
 4766SOL    HW125934   3.781   3.134   9.702 -0.3685 -0.4353 -1.0345
 4766SOL    HW225935   3.896   3.134   9.787 -0.6403  0.9665 -0.6074
 4767SOL     OW25936   4.112   4.714  17.129 -0.0645 -0.1298  0.1636
 4767SOL    HW125937   4.170   4.643  17.157 -1.2417 -1.3399 -0.4677
 4767SOL    HW225938   4.064   4.733  17.209 -0.7474 -1.3345  0.0407
 4768SOL     OW25939   1.103   0.982   8.714 -0.6561 -0.9447  0.2170
 4768SOL    HW125940   1.133   0.943   8.632 -2.0292 -0.9370 -0.2853
 4768SOL    HW225941   1.173   0.959   8.775  0.3677 -1.6800 -1.2295
 4769SOL     OW25942   3.198   4.468   6.177 -0.1035 -0.4049 -0.2279
 4769SOL    HW125943   3.230   4.384   6.207 -0.3554  0.1852  1.6654
 4769SOL    HW225944   3.230   4.475   6.087 -0.3566 -1.0243 -0.3665
 4770SOL     OW25945   3.379   1.482   5.597  0.5026 -0.5705  0.1838
 4770SOL    HW125946   3.386   1.566   5.552  0.4493  0.5786  2.3474
 4770SOL    HW225947   3.385   1.512   5.687  1.4171 -1.1805  0.3252
 4771SOL     OW25948   3.198   1.450   5.921  0.6218  0.5248  0.5985
 4771SOL    HW125949   3.105   1.433   5.908  1.4397 -2.1710 -1.8714
 4771SOL    HW225950   3.186   1.541   5.949  0.3774  0.2806  1.2763
 4772SOL     OW25951   3.587   3.972   0.616 -0.3313 -0.5994 -0.2347
 4772SOL    HW125952   3.604   4.056   0.658  0.1384 -0.5048 -0.6180
 4772SOL    HW225953   3.678   3.953   0.594  0.1395  2.2239 -0.7218
 4773SOL     OW25954   3.286   0.433   3.065  0.1356 -0.6042 -1.0116
 4773SOL    HW125955   3.288   0.403   2.974 -0.3195 -1.0090 -0.8845
 4773SOL    HW225956   3.369   0.480   3.075 -0.7682  1.0940 -1.4700
 4774SOL     OW25957   2.970   1.078   4.338  0.3152 -0.1738  0.1366
 4774SOL    HW125958   2.884   1.117   4.354 -1.2687 -3.6249 -0.1406
 4774SOL    HW225959   2.965   1.028   4.257 -0.6714 -1.3478  0.9291
 4775SOL     OW25960   4.167   0.212   1.882  0.0299  0.0608  0.0637
 4775SOL    HW125961   4.115   0.261   1.818 -0.3802 -0.9515 -0.3739
 4775SOL    HW225962   4.239   0.171   1.835 -1.0341  2.7675 -3.9437
 4776SOL     OW25963   1.505   2.169   2.150  0.5115 -0.6947 -0.2308
 4776SOL    HW125964   1.495   2.259   2.181  0.5529 -0.0613 -2.1081
 4776SOL    HW225965   1.543   2.129   2.228 -0.0758 -2.4496 -0.8378
 4777SOL     OW25966   4.681   0.055   5.813 -0.1831  0.0333 -0.0469
 4777SOL    HW125967   4.637   0.140   5.815 -0.5490 -0.1598  0.1381
 4777SOL    HW225968   0.027   0.074   5.770  0.0922 -3.4631 -1.0443
 4778SOL     OW25969   0.766   0.835   3.197 -0.5986 -0.1461 -0.1300
 4778SOL    HW125970   0.688   0.792   3.161 -1.4990  0.6424  0.8938
 4778SOL    HW225971   0.809   0.753   3.221  1.8323  0.6189 -1.9328
 4779SOL     OW25972   2.132   0.882   3.945  0.4487 -0.2318 -0.4974
 4779SOL    HW125973   2.060   0.944   3.958  0.2323 -0.8815  1.3979
 4779SOL    HW225974   2.208   0.924   3.985  1.0043 -0.2665 -1.5309
 4780SOL     OW25975   3.256   3.142   7.176 -0.0612 -0.2461 -0.2559
 4780SOL    HW125976   3.279   3.087   7.102  0.2605  0.5607 -0.7603
 4780SOL    HW225977   3.333   3.199   7.187 -0.3481  0.1759 -0.4042
 4781SOL     OW25978   1.450   4.261   1.725 -0.2826  0.3364  0.6343
 4781SOL    HW125979   1.386   4.240   1.793 -0.6600  0.2113  0.2406
 4781SOL    HW225980   1.483   4.179   1.689  0.2891 -0.3003  2.5957
 4782SOL     OW25981   1.853   1.902   1.472  0.2509 -0.2129  0.4333
 4782SOL    HW125982   1.803   1.980   1.497  1.9308  1.0696 -0.2507
 4782SOL    HW225983   1.798   1.834   1.511  0.3421 -1.5139 -1.7266
 4783SOL     OW25984   3.869   0.489   1.998 -0.1078 -0.2175  0.1255
 4783SOL    HW125985   3.844   0.431   2.070  1.9804 -0.4746  0.6395
 4783SOL    HW225986   3.819   0.467   1.920 -1.6398 -0.7368  1.2544
 4784SOL     OW25987   3.960   1.462  14.417 -0.8187 -0.5538 -0.5004
 4784SOL    HW125988   4.003   1.500  14.494 -0.9746 -1.4179  0.0147
 4784SOL    HW225989   4.035   1.463  14.359  1.0439 -1.4070  1.9091
 4785SOL     OW25990   2.988   4.727   7.208 -0.0021 -0.0907 -0.1401
 4785SOL    HW125991   3.037   4.683   7.278 -0.4651 -0.8870 -0.3146
 4785SOL    HW225992   2.902   4.686   7.218  0.7791 -1.4411  1.0487
 4786SOL     OW25993   0.108   2.980   3.997 -1.0312 -0.4717 -0.4280
 4786SOL    HW125994   0.124   3.055   4.054 -0.1300 -2.4630  1.9468
 4786SOL    HW225995   0.045   2.932   4.051 -1.1590  0.0249 -0.1351
 4787SOL     OW25996   2.561   3.704   3.403  0.4098 -0.4524 -0.0232
 4787SOL    HW125997   2.474   3.721   3.439  0.6374  1.6120 -0.4310
 4787SOL    HW225998   2.599   3.680   3.488  0.3800 -0.8823 -0.1285
 4788SOL     OW25999   2.070   3.559   7.051 -0.1272  0.5403  0.5496
 4788SOL    HW126000   2.108   3.579   6.966  0.7797 -0.7095  0.6536
 4788SOL    HW226001   2.071   3.463   7.056 -2.2498  0.5191  0.4839
 4789SOL     OW26002   2.204   1.047   7.685  0.1966 -0.3086  0.0125
 4789SOL    HW126003   2.124   0.999   7.708  1.0181 -0.5377  2.4005
 4789SOL    HW226004   2.207   1.112   7.755 -0.8024 -0.0311 -0.2090
 4790SOL     OW26005   0.532   3.642   6.221 -0.1830 -0.0804  0.2599
 4790SOL    HW126006   0.608   3.662   6.165  0.2903 -1.2572  0.4876
 4790SOL    HW226007   0.470   3.709   6.194  0.4625 -0.3162 -1.8048
 4791SOL     OW26008   2.598   1.992   5.571 -0.1062 -0.1723  0.1395
 4791SOL    HW126009   2.641   1.995   5.656 -0.5355 -0.8293  0.3846
 4791SOL    HW226010   2.508   1.982   5.602 -0.0558 -0.8276  0.0876
 4792SOL     OW26011   3.071   3.850   5.001  0.0562  0.0651  0.4515
 4792SOL    HW126012   2.996   3.891   5.044  0.8031  3.5187 -1.6040
 4792SOL    HW226013   3.101   3.913   4.936 -1.2078  0.3646  0.1519
 4793SOL     OW26014   4.493   2.578  12.288  0.7717  0.4988  0.0689
 4793SOL    HW126015   4.553   2.523  12.239  0.2399 -0.9876  1.0797
 4793SOL    HW226016   4.519   2.661  12.248  0.1733  1.0180  0.7541
 4794SOL     OW26017   3.111   4.122   7.681 -0.2744  0.0318 -0.5369
 4794SOL    HW126018   3.163   4.200   7.701 -0.1896 -0.1559 -0.0078
 4794SOL    HW226019   3.081   4.112   7.772 -0.0111 -2.7749 -0.7524
 4795SOL     OW26020   3.495   3.862  14.248 -0.3613  0.2628  0.0647
 4795SOL    HW126021   3.435   3.937  14.246 -0.9407 -0.2244 -0.6968
 4795SOL    HW226022   3.441   3.783  14.241 -0.1319  0.2206 -1.3119
 4796SOL     OW26023   2.068   1.299   2.297  0.2266  0.2413  0.7894
 4796SOL    HW126024   2.050   1.284   2.204 -1.5375 -0.3023  1.2031
 4796SOL    HW226025   2.009   1.370   2.320  1.6187  1.8805 -0.7128
 4797SOL     OW26026   2.698   3.419  10.376 -0.5359  0.3437  0.4122
 4797SOL    HW126027   2.784   3.441  10.411  2.1018 -4.9672 -2.7777
 4797SOL    HW226028   2.653   3.401  10.459 -1.7816  0.6948 -0.1830
 4798SOL     OW26029   4.589   3.945  17.005  0.9542 -0.3985  0.7857
 4798SOL    HW126030   4.574   3.978  16.916  0.2854 -2.5517  0.0905
 4798SOL    HW226031   4.565   3.853  16.997  3.0144 -0.8462 -0.4784
 4799SOL     OW26032   1.501   4.662  11.453  0.3488  0.0243  0.3987
 4799SOL    HW126033   1.591   4.631  11.444  0.4669  0.8552 -1.3888
 4799SOL    HW226034   1.503   0.009  11.407  2.9276  0.9993  2.3028
 4800SOL     OW26035   3.381   1.930   8.627  0.0701 -0.0628 -0.3858
 4800SOL    HW126036   3.417   1.911   8.713  1.6077 -1.8819 -1.4444
 4800SOL    HW226037   3.390   1.848   8.579 -1.2806  0.7944 -2.1269
 4801SOL     OW26038   4.644   4.689   8.985 -0.1480  0.6862 -0.0280
 4801SOL    HW126039   4.553   4.686   8.954 -0.2162 -1.5492  0.4033
 4801SOL    HW226040   4.639   0.034   9.035  0.4357  1.4476 -1.2032
 4802SOL     OW26041   0.169   4.182   6.478 -0.1713  0.2135  0.5773
 4802SOL    HW126042   0.169   4.168   6.573  1.2202 -1.7030  0.2906
 4802SOL    HW226043   0.115   4.107   6.451 -0.1980 -0.1537  1.6478
 4803SOL     OW26044   2.522   2.275  11.426  0.3566 -0.2856 -0.8925
 4803SOL    HW126045   2.454   2.319  11.477 -0.1825 -2.2944  0.1323
 4803SOL    HW226046   2.574   2.237  11.497 -0.2687 -0.8199 -0.7138
 4804SOL     OW26047   0.724   4.062   5.753  0.3198  0.7582 -0.5078
 4804SOL    HW126048   0.672   4.141   5.764 -1.8467 -0.7814  0.2969
 4804SOL    HW226049   0.792   4.066   5.685  0.4063 -1.0982 -0.5436
 4805SOL     OW26050   3.671   3.300   7.871  0.0629  0.2723 -0.2152
 4805SOL    HW126051   3.753   3.303   7.821  1.6410 -0.1261  2.3429
 4805SOL    HW226052   3.698   3.320   7.961 -1.8472  1.7675  0.0008
 4806SOL     OW26053   0.204   4.342   7.233 -0.2049  0.0004 -0.5677
 4806SOL    HW126054   0.249   4.421   7.204  1.7435 -1.6442 -1.9581
 4806SOL    HW226055   0.167   4.373   7.316  1.9639  0.1383  0.3467
 4807SOL     OW26056   0.640   3.810   3.872  0.4956  0.4349  0.6524
 4807SOL    HW126057   0.698   3.759   3.929  1.2680  0.3771 -0.1787
 4807SOL    HW226058   0.713   3.855   3.830  0.5968  0.0186  0.3796
 4808SOL     OW26059   3.834   1.742   3.714 -0.1717 -0.2667 -0.5676
 4808SOL    HW126060   3.904   1.807   3.704 -1.8347  1.6546  0.2781
 4808SOL    HW226061   3.790   1.749   3.629 -0.0122  1.8145 -0.4809
 4809SOL     OW26062   3.830   1.649   8.640  0.1758 -0.4755 -0.2204
 4809SOL    HW126063   3.758   1.596   8.606  0.0642 -0.6958  0.3682
 4809SOL    HW226064   3.811   1.733   8.599 -1.5157 -0.3622  0.8219
 4810SOL     OW26065   1.276   0.144   5.489  0.0364 -0.5809 -0.7065
 4810SOL    HW126066   1.248   0.228   5.526  0.4264 -0.5641 -0.4548
 4810SOL    HW226067   1.353   0.163   5.436  0.3605 -0.7942 -0.3107
 4811SOL     OW26068   4.479   0.030   8.122  0.2099  0.0979  0.0983
 4811SOL    HW126069   4.495   0.102   8.061 -0.5918 -0.8023 -1.1619
 4811SOL    HW226070   4.551   4.707   8.102  1.0870  1.8712 -2.1001
 4812SOL     OW26071   2.094   4.011   9.682  0.1234  0.3557 -0.1788
 4812SOL    HW126072   2.008   3.999   9.723 -0.9748 -0.2147 -2.6790
 4812SOL    HW226073   2.154   3.958   9.735 -2.2602 -2.6057 -0.4590
 4813SOL     OW26074   2.127   3.692   1.110 -0.4488 -0.2943  0.3658
 4813SOL    HW126075   2.161   3.759   1.169 -2.6479  0.3450  0.9360
 4813SOL    HW226076   2.032   3.708   1.114 -0.3621  0.1683  0.5596
 4814SOL     OW26077   2.062   2.473   0.343  0.5528 -0.4857  0.2037
 4814SOL    HW126078   2.023   2.558   0.364 -0.0132 -0.5031 -0.8026
 4814SOL    HW226079   2.041   2.421   0.421 -1.8163  0.6150  0.2662
 4815SOL     OW26080   1.535   2.480   7.932  0.2413  0.2549  0.5113
 4815SOL    HW126081   1.615   2.432   7.952  0.7282  0.4934 -0.8277
 4815SOL    HW226082   1.570   2.566   7.955  1.3835 -0.0233 -0.1613
 4816SOL     OW26083   1.541   4.573   6.791 -0.0695  0.2124  0.6848
 4816SOL    HW126084   1.616   4.590   6.734 -2.1495  0.4156 -1.9558
 4816SOL    HW226085   1.576   4.593   6.878 -1.4936 -1.1116  1.5534
 4817SOL     OW26086   4.258   4.400   3.351 -0.8313  0.7950 -0.3421
 4817SOL    HW126087   4.191   4.405   3.420 -1.8803  1.7759 -1.4181
 4817SOL    HW226088   4.310   4.477   3.373 -0.3325  0.3476  0.0441
 4818SOL     OW26089   3.134   4.565   7.442 -0.0815  0.0637 -0.0268
 4818SOL    HW126090   3.201   4.620   7.481  2.0917 -1.3056 -1.7986
 4818SOL    HW226091   3.182   4.488   7.410  1.6045  0.4481  1.5919
 4819SOL     OW26092   4.418   1.731   8.865 -0.0749 -0.2551  0.3546
 4819SOL    HW126093   4.397   1.639   8.850  0.6855 -0.9368  3.3724
 4819SOL    HW226094   4.504   1.724   8.907  1.4634  2.0469 -2.3873
 4820SOL     OW26095   3.683   4.405   2.791  0.0796  0.2546 -0.9143
 4820SOL    HW126096   3.632   4.355   2.856  0.4959  0.6207 -0.3033
 4820SOL    HW226097   3.700   4.479   2.850  0.7860 -0.0622 -0.7093
 4821SOL     OW26098   2.631   1.834  15.179  0.4472  0.0338  0.2265
 4821SOL    HW126099   2.718   1.818  15.214  0.3438  0.0427  0.4885
 4821SOL    HW226100   2.646   1.894  15.106 -1.3639 -1.4710 -1.4097
 4822SOL     OW26101   2.005   2.752  11.229 -0.0217  0.0563 -1.0645
 4822SOL    HW126102   2.087   2.714  11.260  0.4234  2.1689  0.3634
 4822SOL    HW226103   1.994   2.704  11.147 -0.3135  0.6980 -1.3984
 4823SOL     OW26104   0.942   0.450   5.967 -0.0426  0.3837  0.3138
 4823SOL    HW126105   0.899   0.510   6.028  0.6730  0.9078  0.3023
 4823SOL    HW226106   0.969   0.375   6.020 -1.3951 -0.4670 -0.2015
 4824SOL     OW26107   1.788   0.226   5.178 -0.5446  0.2321 -0.0403
 4824SOL    HW126108   1.861   0.167   5.160  0.5498  1.8241 -0.8129
 4824SOL    HW226109   1.797   0.232   5.273 -2.1729 -1.3587  0.2101
 4825SOL     OW26110   0.649   4.289   3.423  0.5404 -0.2103 -0.0347
 4825SOL    HW126111   0.710   4.362   3.429  0.3639 -0.0511 -0.1680
 4825SOL    HW226112   0.652   4.262   3.331 -3.8424 -0.5429 -0.0760
 4826SOL     OW26113   3.706   3.797   4.761  0.1226 -0.3452  0.2460
 4826SOL    HW126114   3.651   3.875   4.754  0.6682 -0.1242 -1.7091
 4826SOL    HW226115   3.639   3.731   4.781  1.0496 -1.2850  0.2554
 4827SOL     OW26116   1.622   2.434   5.729 -0.1600  0.4124 -0.2957
 4827SOL    HW126117   1.607   2.416   5.822  2.0962 -2.6541 -0.5475
 4827SOL    HW226118   1.532   2.445   5.697  0.2940  1.4246 -1.2280
 4828SOL     OW26119   0.405   1.400   3.438 -0.2799 -0.8476  0.8013
 4828SOL    HW126120   0.496   1.412   3.410 -1.4308  0.7794 -2.1683
 4828SOL    HW226121   0.418   1.401   3.533 -0.2177  0.7646  0.7902
 4829SOL     OW26122   1.900   1.793   8.540  0.8796  0.0049 -1.0745
 4829SOL    HW126123   1.846   1.833   8.608  1.9033 -1.9516  0.8853
 4829SOL    HW226124   1.975   1.762   8.591  1.6983 -0.3380 -2.4604
 4830SOL     OW26125   1.635   1.642   6.474  0.4784 -0.0992  0.0400
 4830SOL    HW126126   1.641   1.730   6.512 -2.3863  0.7471 -1.5123
 4830SOL    HW226127   1.544   1.625   6.497  0.4065 -0.5447 -0.5983
 4831SOL     OW26128   4.555   0.913   3.588  0.7286 -0.2599 -0.1114
 4831SOL    HW126129   4.646   0.907   3.560  1.0337  1.0249  0.6456
 4831SOL    HW226130   4.525   0.823   3.572  0.1312 -0.2471  0.8949
 4832SOL     OW26131   1.208   3.734   8.233 -0.8895  0.9740 -0.1097
 4832SOL    HW126132   1.151   3.676   8.283  0.2205 -2.2246 -2.5663
 4832SOL    HW226133   1.152   3.812   8.224 -1.7043  0.0751 -2.7675
 4833SOL     OW26134   1.874   0.005   9.215  0.2976 -0.2389 -0.1414
 4833SOL    HW126135   1.947   0.038   9.162 -0.3197 -1.1378 -1.5386
 4833SOL    HW226136   1.796   0.045   9.178 -0.0103  0.8578  1.7034
 4834SOL     OW26137   2.280   2.491  10.275 -0.2388 -0.1667 -0.4692
 4834SOL    HW126138   2.318   2.573  10.243 -1.5205  0.8460  0.6030
 4834SOL    HW226139   2.319   2.482  10.362  1.5630  1.3580 -1.1273
 4835SOL     OW26140   0.804   1.650   6.336 -0.0590 -0.5827  0.1460
 4835SOL    HW126141   0.801   1.745   6.325  2.3738 -0.6239 -0.8792
 4835SOL    HW226142   0.734   1.624   6.276  1.0795 -1.8394 -0.6185
 4836SOL     OW26143   4.562   0.869   4.322 -0.3233 -0.3647  0.0568
 4836SOL    HW126144   4.546   0.817   4.243 -0.8517 -0.9171  0.5224
 4836SOL    HW226145   4.469   0.888   4.338 -0.5757  0.8888 -2.9744
 4837SOL     OW26146   3.790   4.643  13.594  0.2693 -0.1956 -1.0942
 4837SOL    HW126147   3.768   4.717  13.537  0.0637  0.9087  0.4261
 4837SOL    HW226148   3.739   4.571  13.558 -2.2395  0.4088  1.2901
 4838SOL     OW26149   3.233   2.425   0.634  0.0096  0.5735 -0.5260
 4838SOL    HW126150   3.150   2.430   0.588 -0.5031 -0.1094  0.3281
 4838SOL    HW226151   3.292   2.454   0.565  2.5789 -1.9455  0.5647
 4839SOL     OW26152   2.448   2.399   6.977  0.0072  0.0739  0.3485
 4839SOL    HW126153   2.522   2.339   6.987 -0.2824  0.1521  2.7836
 4839SOL    HW226154   2.382   2.344   7.018 -0.1276 -0.5718 -0.7106
 4840SOL     OW26155   1.901   3.784  14.967  0.1176  0.3892  0.2615
 4840SOL    HW126156   1.830   3.847  14.979 -1.5418 -1.1521 -1.5344
 4840SOL    HW226157   1.914   3.754  15.057 -0.6388  3.7169  1.4937
 4841SOL     OW26158   1.391   2.109  14.361  0.3999  0.4531  0.0202
 4841SOL    HW126159   1.386   2.202  14.339 -5.0341 -0.4942 -2.8396
 4841SOL    HW226160   1.448   2.110  14.438  2.1746 -3.9099 -1.2637
 4842SOL     OW26161   0.902   2.855   9.163  0.0823  0.5006 -0.1702
 4842SOL    HW126162   0.807   2.859   9.175  0.0914 -1.0141  0.4330
 4842SOL    HW226163   0.917   2.932   9.109  1.5010  0.2191 -0.1648
 4843SOL     OW26164   1.809   4.028   8.576  1.0143 -0.2026 -0.2812
 4843SOL    HW126165   1.791   3.965   8.507  1.5430  0.9264 -1.4521
 4843SOL    HW226166   1.753   3.990   8.644 -1.1975  0.8045 -1.5375
 4844SOL     OW26167   2.333   1.877   6.697 -0.3627  0.1426 -0.1495
 4844SOL    HW126168   2.319   1.843   6.609 -1.3677 -0.3226  0.1924
 4844SOL    HW226169   2.374   1.805   6.744  0.2051  0.4504 -0.1760
 4845SOL     OW26170   4.360   0.458   3.666  0.4258  0.0093 -0.0506
 4845SOL    HW126171   4.275   0.485   3.633  1.1337  1.1299 -0.9680
 4845SOL    HW226172   4.325   0.400   3.734 -1.1721  0.3386 -0.5955
 4846SOL     OW26173   0.241   3.127   4.174  0.5639  0.2944 -0.0954
 4846SOL    HW126174   0.311   3.095   4.117 -1.8541  0.6899 -3.2055
 4846SOL    HW226175   0.290   3.130   4.257  1.6507 -1.1242 -0.6845
 4847SOL     OW26176   0.601   4.293  11.376  0.1594  0.0455  0.3643
 4847SOL    HW126177   0.601   4.204  11.342  0.0868 -0.3689  1.4416
 4847SOL    HW226178   0.537   4.333  11.317 -0.8507 -0.4310  1.1479
 4848SOL     OW26179   4.501   0.764  10.132 -0.5635 -0.4698 -0.4379
 4848SOL    HW126180   4.528   0.810  10.053 -2.6055  2.1193  0.3538
 4848SOL    HW226181   4.582   0.749  10.180 -0.5334  0.1265 -0.2961
 4849SOL     OW26182   3.727   0.852   5.153 -0.2153  0.0082  0.3532
 4849SOL    HW126183   3.662   0.863   5.223 -1.0372 -2.1206 -0.1027
 4849SOL    HW226184   3.673   0.814   5.085 -0.5836  3.4323 -1.2957
 4850SOL     OW26185   0.164   2.683   8.009  0.0478 -0.1785  0.1801
 4850SOL    HW126186   0.187   2.648   8.095  0.7681  1.6013  0.7042
 4850SOL    HW226187   0.169   2.606   7.953 -3.6230  0.7133 -1.3857
 4851SOL     OW26188   2.240   4.473  10.885 -0.6735  0.7570 -0.2694
 4851SOL    HW126189   2.257   4.394  10.833  1.6202  1.0184  0.0543
 4851SOL    HW226190   2.304   4.534  10.848  1.9593 -1.3842  0.7380
 4852SOL     OW26191   4.345   3.323   2.950 -0.5266 -0.0487  0.0413
 4852SOL    HW126192   4.364   3.232   2.972 -1.8495 -0.2398  0.4182
 4852SOL    HW226193   4.256   3.333   2.984 -0.9030  1.0257 -1.2430
 4853SOL     OW26194   3.249   0.235   4.567  0.5856  0.6839 -0.0619
 4853SOL    HW126195   3.190   0.187   4.508  1.1153  0.2696 -0.2469
 4853SOL    HW226196   3.173   0.239   4.626 -0.4043  0.2937 -1.3077
 4854SOL     OW26197   1.056   1.794  11.169 -0.6641  0.7248  0.3570
 4854SOL    HW126198   1.130   1.782  11.228 -0.0636 -0.3481 -0.6103
 4854SOL    HW226199   0.983   1.793  11.231 -0.2508  2.9802  0.8496
 4855SOL     OW26200   2.068   4.634   8.494 -0.2453  0.4374  0.4533
 4855SOL    HW126201   2.069   4.729   8.494 -4.6033  0.4793 -0.2312
 4855SOL    HW226202   1.990   4.608   8.445 -0.3416  0.7897  0.4224
 4856SOL     OW26203   4.628   2.335   9.634 -0.2002 -0.2756 -0.4280
 4856SOL    HW126204   4.666   2.396   9.698 -0.5865 -0.4254 -0.0587
 4856SOL    HW226205   4.674   2.254   9.654  1.7371  1.0618  0.5845
 4857SOL     OW26206   1.770   3.952   2.355 -0.0682 -0.4357  0.2513
 4857SOL    HW126207   1.864   3.944   2.336  0.1958  2.0493  0.4677
 4857SOL    HW226208   1.726   3.907   2.283  1.0907  0.8505 -1.2684
 4858SOL     OW26209   2.457   4.096   5.401 -0.1258  0.1316 -0.1602
 4858SOL    HW126210   2.417   4.105   5.488  2.1670 -2.2999  1.1674
 4858SOL    HW226211   2.550   4.114   5.416 -0.3653  2.5115 -1.5801
 4859SOL     OW26212   0.708   2.643   5.866  0.4453  0.8541 -0.2122
 4859SOL    HW126213   0.746   2.555   5.871 -0.8535  0.2173 -1.4706
 4859SOL    HW226214   0.627   2.631   5.816  0.4149  2.6990 -0.5843
 4860SOL     OW26215   0.006   2.689  15.228  0.4215 -0.1640  0.5911
 4860SOL    HW126216   4.705   2.730  15.151  4.1111  0.0328 -1.1534
 4860SOL    HW226217   4.664   2.658  15.272  1.5295  1.1826  3.5516
 4861SOL     OW26218   3.017   1.359   5.112  0.2290  0.8387  0.0030
 4861SOL    HW126219   3.104   1.391   5.138 -0.4002  1.4912  1.3341
 4861SOL    HW226220   3.030   1.337   5.020  0.1661 -0.4575  0.3151
 4862SOL     OW26221   0.704   0.862   4.789 -0.1288  0.1226 -0.3684
 4862SOL    HW126222   0.739   0.898   4.708 -1.1470 -0.6735 -1.1507
 4862SOL    HW226223   0.709   0.767   4.777 -1.6963 -0.0553  0.3420
 4863SOL     OW26224   3.231   0.106  10.782  0.5088 -0.4601  0.3857
 4863SOL    HW126225   3.327   0.111  10.787  0.3916  2.2608 -0.0755
 4863SOL    HW226226   3.217   0.087  10.689  2.7197 -1.8800  0.3253
 4864SOL     OW26227   4.238   2.575   3.751 -0.5668 -0.2545 -0.7718
 4864SOL    HW126228   4.194   2.648   3.795 -0.0226  0.1877 -0.9640
 4864SOL    HW226229   4.319   2.576   3.801 -1.8974 -2.1329  1.3988
 4865SOL     OW26230   0.398   3.197   3.342 -0.3211 -0.7251 -0.1172
 4865SOL    HW126231   0.433   3.198   3.432 -1.9967 -1.5153  0.5376
 4865SOL    HW226232   0.304   3.188   3.355 -0.5687  0.8324 -0.8532
 4866SOL     OW26233   1.131   4.180   8.248  0.3289 -0.4840  0.2088
 4866SOL    HW126234   1.118   4.193   8.154 -0.8133  0.5413  0.5047
 4866SOL    HW226235   1.145   4.271   8.274  1.0821  0.1664 -2.4497
 4867SOL     OW26236   0.291   2.559   8.540  0.6952 -0.2565 -0.4091
 4867SOL    HW126237   0.206   2.514   8.543  0.4414  0.1931 -0.7396
 4867SOL    HW226238   0.328   2.531   8.623 -2.0914 -1.3130  0.4575
 4868SOL     OW26239   1.545   1.461   4.033 -0.0049  0.4652  0.6713
 4868SOL    HW126240   1.487   1.386   4.051  1.2461 -1.7321 -4.3038
 4868SOL    HW226241   1.486   1.520   3.987  0.2494 -0.0943 -0.3876
 4869SOL     OW26242   1.417   1.068   7.351  0.1603 -0.1728  0.3101
 4869SOL    HW126243   1.512   1.064   7.341  0.2467  1.3237  0.5409
 4869SOL    HW226244   1.402   1.152   7.395  2.0949  0.0072  0.6221
 4870SOL     OW26245   1.363   1.888   6.144 -0.1892  0.3783 -0.6386
 4870SOL    HW126246   1.287   1.836   6.118 -0.2113 -0.4713  1.1048
 4870SOL    HW226247   1.427   1.879   6.074 -0.2274 -0.1449 -0.6067
 4871SOL     OW26248   2.163   3.885  15.678 -0.3368 -0.0055 -0.2442
 4871SOL    HW126249   2.078   3.874  15.634  0.6553 -0.5090 -2.0189
 4871SOL    HW226250   2.227   3.858  15.612  0.0941 -0.5229  0.3980
 4872SOL     OW26251   1.450   0.927   1.245 -0.7611 -0.0426 -0.0946
 4872SOL    HW126252   1.522   0.969   1.292  0.1132 -0.4978 -1.0516
 4872SOL    HW226253   1.457   0.992   1.175 -0.3969  0.8652  0.7851
 4873SOL     OW26254   1.034   1.093   2.056 -0.4512  0.2132  0.1898
 4873SOL    HW126255   1.090   1.053   2.122  1.0733 -0.2435 -1.3772
 4873SOL    HW226256   1.007   1.015   2.008 -0.7962  0.6460 -0.3207
 4874SOL     OW26257   3.411   3.644  10.970  0.1433 -0.3977  0.0550
 4874SOL    HW126258   3.489   3.591  10.982  1.0554  0.8974 -0.0690
 4874SOL    HW226259   3.347   3.614  11.033  0.7470  1.3612  1.5160
 4875SOL     OW26260   0.748   4.241   3.692  0.0192  1.0501  0.2432
 4875SOL    HW126261   0.720   4.264   3.603  1.3512 -0.2045 -0.4982
 4875SOL    HW226262   0.678   4.284   3.741 -0.3367 -0.7470  1.3102
 4876SOL     OW26263   0.077   0.715   5.256  0.4449  0.8701 -0.2458
 4876SOL    HW126264   0.054   0.769   5.180  0.3550 -0.0783 -0.8948
 4876SOL    HW226265   0.123   0.648   5.205 -2.3182  0.3325 -1.9886
 4877SOL     OW26266   1.626   1.596   2.093 -0.1811  0.3127  0.0935
 4877SOL    HW126267   1.585   1.674   2.056  0.5373  0.6007 -0.0904
 4877SOL    HW226268   1.607   1.607   2.187  0.5441 -0.1882  0.2980
 4878SOL     OW26269   2.061   3.184  16.390  0.4568  0.2278 -0.8251
 4878SOL    HW126270   1.987   3.172  16.449  0.4057  1.2498 -0.6888
 4878SOL    HW226271   2.050   3.119  16.321 -1.7311 -0.5735  0.2696
 4879SOL     OW26272   3.440   4.673   4.523 -0.3477 -0.1420  0.2830
 4879SOL    HW126273   3.446   0.031   4.530 -1.9841  0.1998 -2.8043
 4879SOL    HW226274   3.453   4.655   4.430 -0.5086 -0.8742  0.3996
 4880SOL     OW26275   2.400   3.828  14.070  0.2513 -0.4695  0.2414
 4880SOL    HW126276   2.384   3.843  13.977  0.9387  1.7879  0.5007
 4880SOL    HW226277   2.342   3.754  14.088 -0.0700 -0.3911 -0.4911
 4881SOL     OW26278   4.146   2.720   6.252  0.2115 -0.0994  0.1201
 4881SOL    HW126279   4.195   2.648   6.290 -1.2869 -1.5272 -0.6413
 4881SOL    HW226280   4.200   2.744   6.177  1.3894  1.4035  1.4315
 4882SOL     OW26281   3.652   0.249   6.347  0.3881  0.3426 -0.4670
 4882SOL    HW126282   3.667   0.342   6.368  2.1080 -0.9080  3.7399
 4882SOL    HW226283   3.741   0.217   6.328  0.5048 -1.1098  2.6406
 4883SOL     OW26284   1.650   2.322   8.544  0.1514 -0.3481 -0.2149
 4883SOL    HW126285   1.729   2.286   8.503  0.1861  0.2759 -0.6832
 4883SOL    HW226286   1.678   2.403   8.585  2.4911 -0.6973 -1.1303
 4884SOL     OW26287   4.695   4.463   3.336  0.4366  0.0532  0.3331
 4884SOL    HW126288   4.701   4.540   3.280  0.5996 -0.8923 -0.9384
 4884SOL    HW226289   4.621   4.424   3.290  0.1065 -0.7612  1.5473
 4885SOL     OW26290   3.044   0.175   4.741  0.2481 -0.6207 -0.5426
 4885SOL    HW126291   2.983   0.107   4.716  1.8314 -1.9865 -0.6917
 4885SOL    HW226292   3.084   0.130   4.815  0.4458  0.3211 -0.0694
 4886SOL     OW26293   4.077   2.556  15.619 -0.2533  0.6741  0.3053
 4886SOL    HW126294   3.988   2.557  15.655 -0.3402  0.2277  0.1020
 4886SOL    HW226295   4.131   2.573  15.696 -0.8932 -0.3675  0.9774
 4887SOL     OW26296   4.309   2.446  14.587 -0.3053 -0.1469 -0.3007
 4887SOL    HW126297   4.389   2.404  14.556 -0.8599 -0.2507 -1.6038
 4887SOL    HW226298   4.318   2.429  14.680  0.8498  2.1118  0.0123
 4888SOL     OW26299   1.594   2.709  12.427 -0.2201 -0.5802 -0.0362
 4888SOL    HW126300   1.631   2.659  12.355 -0.4935 -1.8755  0.7240
 4888SOL    HW226301   1.655   2.782  12.439  0.5558 -1.1090 -0.8856
 4889SOL     OW26302   0.998   3.756   7.352 -0.0436  0.2560  0.4038
 4889SOL    HW126303   1.022   3.745   7.260  0.1678  0.8561  0.3874
 4889SOL    HW226304   1.065   3.693   7.380  0.0906 -0.1095 -0.7595
 4890SOL     OW26305   4.372   2.056   7.625  0.0652 -0.9364 -0.7611
 4890SOL    HW126306   4.419   2.013   7.554 -0.7116 -0.8090 -1.3577
 4890SOL    HW226307   4.413   2.015   7.701 -2.5008 -0.6416  0.7844
 4891SOL     OW26308   3.315   1.942   5.828 -0.6953  0.1399 -0.1466
 4891SOL    HW126309   3.340   2.003   5.758 -0.6753  0.4204  0.1028
 4891SOL    HW226310   3.221   1.935   5.814 -0.8443 -0.2569  1.1009
 4892SOL     OW26311   1.580   1.754  17.677 -0.1057 -0.0088  1.0307
 4892SOL    HW126312   1.618   1.788   0.010  0.9162 -1.5822  1.2130
 4892SOL    HW226313   1.530   1.822  17.632 -2.0115 -2.7838 -1.1189
 4893SOL     OW26314   2.129   2.810   2.241 -0.6615  0.1922  0.1426
 4893SOL    HW126315   2.089   2.724   2.251 -1.6658  0.5411 -0.9076
 4893SOL    HW226316   2.179   2.806   2.160 -2.2808 -0.4318 -0.8328
 4894SOL     OW26317   3.496   0.313  15.109 -0.1506 -1.2329 -0.2474
 4894SOL    HW126318   3.493   0.398  15.063  2.7004 -1.3424 -0.6131
 4894SOL    HW226319   3.556   0.328  15.181 -1.9449 -0.5944  1.1245
 4895SOL     OW26320   2.336   3.736   4.286  0.4395  0.4461 -0.2779
 4895SOL    HW126321   2.287   3.658   4.259  1.8762 -0.3763 -0.4793
 4895SOL    HW226322   2.329   3.803   4.217 -4.9045  1.0511  0.8587
 4896SOL     OW26323   1.858   3.660  13.415 -0.0730  0.5231  0.0406
 4896SOL    HW126324   1.946   3.664  13.451 -1.1346 -0.0389  2.6988
 4896SOL    HW226325   1.849   3.572  13.380 -0.7715  1.0302 -1.0651
 4897SOL     OW26326   1.766   1.798  14.194  0.0951 -0.4547 -0.3820
 4897SOL    HW126327   1.850   1.818  14.234 -0.9157 -0.0653  1.5262
 4897SOL    HW226328   1.747   1.709  14.226 -1.4118  0.3728  1.0035
 4898SOL     OW26329   2.159   2.458  14.193  0.2264 -0.3484  0.2046
 4898SOL    HW126330   2.214   2.419  14.262 -0.4493 -2.2749 -0.3621
 4898SOL    HW226331   2.071   2.431  14.216  0.1352  1.0491  1.5392
 4899SOL     OW26332   0.495   3.065   4.088 -0.6735  0.1404  0.1944
 4899SOL    HW126333   0.496   3.122   4.011 -2.2302  1.7420  1.3737
 4899SOL    HW226334   0.574   3.109   4.122 -0.4666  0.0446 -0.1683
 4900SOL     OW26335   3.939   1.593  11.528 -0.5618  0.0591  0.4837
 4900SOL    HW126336   4.008   1.658  11.535  0.6211 -1.1941  0.5231
 4900SOL    HW226337   3.989   1.514  11.507 -0.1810 -0.0545  1.8040
 4901SOL     OW26338   1.425   3.098   2.698 -0.3530 -0.5016  0.2138
 4901SOL    HW126339   1.345   3.115   2.747 -0.7163 -0.3128 -0.4490
 4901SOL    HW226340   1.490   3.087   2.767  0.5721  0.7850 -0.4617
 4902SOL     OW26341   3.574   4.352   6.203 -0.2631 -0.2162  0.0784
 4902SOL    HW126342   3.604   4.306   6.125  0.4467  0.2868  0.0533
 4902SOL    HW226343   3.587   4.445   6.184  0.8513 -0.6389 -1.1775
 4903SOL     OW26344   2.252   0.825   7.534  0.1437 -0.2978  0.1694
 4903SOL    HW126345   2.322   0.836   7.598 -0.8388  1.9513  0.8487
 4903SOL    HW226346   2.190   0.892   7.561  0.5903  0.8000 -1.5273
 4904SOL     OW26347   3.884   1.419  15.953 -0.0832 -0.2084  0.2555
 4904SOL    HW126348   3.801   1.423  16.001 -0.4180  0.4343 -0.3739
 4904SOL    HW226349   3.951   1.429  16.021  0.5028  0.4257 -0.4124
 4905SOL     OW26350   0.376   4.413   3.465  0.1757  0.0787  0.5735
 4905SOL    HW126351   0.379   4.319   3.486  0.6718  0.7749  3.5016
 4905SOL    HW226352   0.285   4.439   3.481  0.6082  2.4089 -0.8028
 4906SOL     OW26353   0.776   2.683   4.197 -0.2492  0.5392  0.0770
 4906SOL    HW126354   0.734   2.627   4.132  0.0462 -0.3328  0.6416
 4906SOL    HW226355   0.863   2.698   4.160 -0.1743  2.8668  1.2157
 4907SOL     OW26356   1.807   2.977   5.290  0.1102 -0.0277  0.3033
 4907SOL    HW126357   1.859   3.051   5.322 -1.0174  1.3557 -1.0434
 4907SOL    HW226358   1.732   3.025   5.256 -0.5122 -1.2112 -0.0018
 4908SOL     OW26359   1.787   0.556   9.265  0.6360  0.5564  0.4080
 4908SOL    HW126360   1.692   0.541   9.270  0.4542  0.9668 -1.9667
 4908SOL    HW226361   1.804   0.577   9.357  0.5766  1.9434  0.0914
 4909SOL     OW26362   3.850   3.492  10.750  0.2090 -0.0387 -0.1009
 4909SOL    HW126363   3.898   3.413  10.725 -2.4214 -1.9870  1.0402
 4909SOL    HW226364   3.760   3.459  10.738  0.8526 -1.1662 -1.8841
 4910SOL     OW26365   4.343   0.520   7.767 -0.0301 -0.2733 -0.6822
 4910SOL    HW126366   4.407   0.509   7.837 -1.7110  1.7024  1.1405
 4910SOL    HW226367   4.288   0.442   7.778 -1.0305  0.7996  1.7923
 4911SOL     OW26368   2.773   3.392   6.402 -0.1393 -0.1624 -0.4071
 4911SOL    HW126369   2.829   3.331   6.451 -0.8020  0.2533  0.8534
 4911SOL    HW226370   2.791   3.470   6.454 -0.8247  0.6319 -1.3849
 4912SOL     OW26371   2.693   4.301   5.345  0.7078 -0.0248 -0.0576
 4912SOL    HW126372   2.619   4.336   5.395  0.7455  0.4701 -0.3564
 4912SOL    HW226373   2.736   4.380   5.313  2.0212 -0.4418  0.6741
 4913SOL     OW26374   1.412   1.788   1.928 -0.2095 -0.5279 -0.6616
 4913SOL    HW126375   1.340   1.845   1.952  0.1700 -0.7081  0.9768
 4913SOL    HW226376   1.382   1.746   1.848  0.0962 -1.4391 -0.3105
 4914SOL     OW26377   3.940   2.271  17.389  0.1129 -0.3154  0.1999
 4914SOL    HW126378   3.865   2.211  17.386  1.3121 -1.9034  1.5986
 4914SOL    HW226379   3.995   2.241  17.462 -0.6863 -2.4776 -0.0749
 4915SOL     OW26380   4.008   1.217   8.028 -0.5211  0.0458  0.6493
 4915SOL    HW126381   3.931   1.229   7.973 -0.6356 -0.8366  0.6157
 4915SOL    HW226382   3.968   1.226   8.115 -0.3312  1.6571  0.5823
 4916SOL     OW26383   1.615   0.742  15.274  0.1977 -0.1825 -0.1854
 4916SOL    HW126384   1.605   0.792  15.193 -1.3466 -2.8427 -1.6487
 4916SOL    HW226385   1.566   0.663  15.249  0.9983 -0.6131 -0.3768
 4917SOL     OW26386   0.088   0.923   8.414  0.2445 -0.4348  0.2911
 4917SOL    HW126387   0.110   1.011   8.383  1.1706 -0.8155 -0.1362
 4917SOL    HW226388   0.141   0.880   8.347 -1.3449 -0.0954 -1.1918
 4918SOL     OW26389   2.442   3.832   0.577 -0.0412  0.3456  0.2041
 4918SOL    HW126390   2.508   3.838   0.508 -0.8351 -0.2383 -0.6085
 4918SOL    HW226391   2.426   3.921   0.608  1.7964  0.4242  0.9169
 4919SOL     OW26392   4.158   4.618  11.539 -0.0173 -0.3565  0.3381
 4919SOL    HW126393   4.161   4.615  11.443  3.3318 -0.6626  0.4457
 4919SOL    HW226394   4.246   4.650  11.556  0.3222  0.1479 -2.3105
 4920SOL     OW26395   1.402   1.936  17.574  0.0666 -0.0807 -0.1063
 4920SOL    HW126396   1.386   2.029  17.585 -0.5057 -0.2339  0.3266
 4920SOL    HW226397   1.350   1.900  17.503  2.5987 -4.2373  0.1381
 4921SOL     OW26398   0.861   4.293   4.352  0.2076 -0.0568  0.2137
 4921SOL    HW126399   0.770   4.273   4.375 -0.2420  0.6116 -0.9353
 4921SOL    HW226400   0.867   4.379   4.392  0.1741  1.2883 -2.6258
 4922SOL     OW26401   2.193   4.292   7.635 -0.1858  0.3164  0.4990
 4922SOL    HW126402   2.152   4.288   7.548 -0.2848  3.3661  0.4090
 4922SOL    HW226403   2.285   4.291   7.608  0.2084  1.1913  1.8450
 4923SOL     OW26404   0.883   2.434   1.809 -0.1510 -0.4512  0.3198
 4923SOL    HW126405   0.885   2.455   1.902 -1.6459  1.9510 -0.1944
 4923SOL    HW226406   0.825   2.358   1.811  0.1306 -0.6445  0.8704
 4924SOL     OW26407   2.639   1.876  17.518 -0.4519  0.8734  0.2017
 4924SOL    HW126408   2.568   1.935  17.542 -0.3753  1.3661 -0.7768
 4924SOL    HW226409   2.613   1.794  17.561  0.7931  0.7980  0.8139
 4925SOL     OW26410   1.710   0.977   5.222  0.2134 -0.1265  0.3690
 4925SOL    HW126411   1.739   0.914   5.288 -0.1009  0.3366  0.9535
 4925SOL    HW226412   1.726   0.920   5.147  1.6423  1.9586 -0.9175
 4926SOL     OW26413   4.213   3.049   3.879  0.2129 -0.1015 -0.6623
 4926SOL    HW126414   4.160   3.033   3.957  1.8157  0.6819  0.5931
 4926SOL    HW226415   4.224   3.144   3.882  0.5524 -0.1675  0.0987
 4927SOL     OW26416   0.984   2.116   2.368 -0.2932 -0.5759 -0.1510
 4927SOL    HW126417   1.049   2.128   2.299  0.9208 -0.8448  0.9308
 4927SOL    HW226418   0.962   2.203   2.402 -1.5133 -0.2712 -1.7563
 4928SOL     OW26419   0.998   0.399  17.692  0.0132  0.3239 -0.3413
 4928SOL    HW126420   0.918   0.439  17.659 -0.9722 -1.1825  0.2238
 4928SOL    HW226421   0.998   0.445   0.030 -2.3865  0.9590 -0.6907
 4929SOL     OW26422   0.467   2.673   9.988  0.2877  0.0324  0.5313
 4929SOL    HW126423   0.426   2.753   9.956  0.1209  0.9238  3.0345
 4929SOL    HW226424   0.559   2.691   9.968  0.3998 -0.5258  0.5396
 4930SOL     OW26425   1.525   4.250   7.886  0.0717 -0.7438  0.3441
 4930SOL    HW126426   1.582   4.179   7.858 -0.0915 -0.5867 -0.3844
 4930SOL    HW226427   1.438   4.210   7.874 -0.5149  0.0801  1.8685
 4931SOL     OW26428   0.227   4.315   6.206 -0.1166 -0.1592  0.5530
 4931SOL    HW126429   0.240   4.308   6.300 -3.5458  0.7776  1.0881
 4931SOL    HW226430   0.280   4.246   6.165  0.5367  0.2676  0.6756
 4932SOL     OW26431   3.453   2.776   4.556  0.4427 -0.4309  0.6544
 4932SOL    HW126432   3.403   2.696   4.538  0.1951 -0.1827  0.2365
 4932SOL    HW226433   3.483   2.805   4.470  0.1926 -0.5122  0.5402
 4933SOL     OW26434   3.869   2.715   3.269 -0.0063 -0.2643  0.0498
 4933SOL    HW126435   3.901   2.805   3.269 -1.4498  0.2466  1.5660
 4933SOL    HW226436   3.795   2.719   3.208 -2.5617  2.0258  3.3297
 4934SOL     OW26437   2.499   4.150   8.127 -0.4808 -0.0153 -0.4424
 4934SOL    HW126438   2.586   4.180   8.100 -0.4973  1.0439  0.7122
 4934SOL    HW226439   2.496   4.166   8.221 -2.6400  2.9299 -1.0038
 4935SOL     OW26440   1.356   1.616  15.629  0.5916  0.0324 -0.2477
 4935SOL    HW126441   1.342   1.521  15.634 -1.0251  0.2326 -0.8808
 4935SOL    HW226442   1.277   1.643  15.580  0.4712  1.3504  0.6767
 4936SOL     OW26443   3.813   1.824  10.259  0.2098 -0.1020  0.5615
 4936SOL    HW126444   3.774   1.804  10.344  0.0356  0.9050  0.7244
 4936SOL    HW226445   3.810   1.739  10.216  1.5869  0.5326 -0.7837
 4937SOL     OW26446   4.064   1.117   6.467  0.2968 -0.4606  0.1187
 4937SOL    HW126447   4.159   1.107   6.474  0.3929 -0.0978 -0.6371
 4937SOL    HW226448   4.050   1.148   6.557  3.3671  1.1875  0.0419
 4938SOL     OW26449   1.908   2.082   4.473 -0.2015 -0.4230 -0.1216
 4938SOL    HW126450   1.916   2.119   4.561 -0.5930 -3.5879  1.2139
 4938SOL    HW226451   1.974   2.131   4.424  0.4922 -1.4859 -0.2381
 4939SOL     OW26452   3.744   2.997  10.214  0.1730 -0.3447 -0.2118
 4939SOL    HW126453   3.669   2.986  10.156  0.2338 -2.5889  0.1574
 4939SOL    HW226454   3.753   2.915  10.263  0.1402 -0.0893  0.2271
 4940SOL     OW26455   2.292   1.796   5.141  0.1707  0.2440  0.5720
 4940SOL    HW126456   2.220   1.748   5.102 -0.7244  2.0954 -0.0883
 4940SOL    HW226457   2.334   1.731   5.198 -0.7632  1.0248  2.1458
 4941SOL     OW26458   3.855   1.677   3.970 -0.0963 -0.0898 -0.1623
 4941SOL    HW126459   3.830   1.697   3.880  0.0739  0.2110 -0.1424
 4941SOL    HW226460   3.800   1.727   4.029 -0.5958  1.1859 -1.7132
 4942SOL     OW26461   3.204   2.367  13.993 -0.2341 -0.6186 -0.4103
 4942SOL    HW126462   3.265   2.416  14.048 -1.7775  1.6754 -0.7474
 4942SOL    HW226463   3.250   2.372  13.909 -1.2048  0.0086 -0.9068
 4943SOL     OW26464   4.026   1.810   7.621 -0.1243  0.1069  0.1779
 4943SOL    HW126465   3.937   1.775   7.630 -0.3987  0.6817 -0.2534
 4943SOL    HW226466   4.002   1.898   7.592 -0.4461  0.3231  1.1159
 4944SOL     OW26467   1.492   4.257   0.292  0.6742 -0.5635  0.6846
 4944SOL    HW126468   1.501   4.170   0.330  1.2017 -1.3194 -1.1552
 4944SOL    HW226469   1.397   4.260   0.283  0.8834  0.8759 -1.0130
 4945SOL     OW26470   4.666   2.550   3.355 -0.9199  0.1671  0.2864
 4945SOL    HW126471   4.672   2.457   3.332 -1.4777  0.2125 -0.0398
 4945SOL    HW226472   4.722   2.564   3.431 -0.3955 -1.6304  0.2240
 4946SOL     OW26473   2.492   0.597  10.387  1.2021  0.7559 -0.1375
 4946SOL    HW126474   2.496   0.673  10.329 -1.0646  0.4260 -0.7215
 4946SOL    HW226475   2.398   0.584  10.377  1.2356  0.3452  0.0639
 4947SOL     OW26476   4.426   1.859   9.259 -0.1054 -0.0068 -1.1132
 4947SOL    HW126477   4.379   1.908   9.191 -0.7661  0.0215 -0.6288
 4947SOL    HW226478   4.390   1.770   9.259  2.0143 -0.8585 -2.5697
 4948SOL     OW26479   2.412   2.061   4.302  0.1650 -0.3914  0.3998
 4948SOL    HW126480   2.499   2.094   4.323 -1.0964  2.6504  0.7545
 4948SOL    HW226481   2.434   1.988   4.244 -0.1408 -1.6855  1.9085
 4949SOL     OW26482   1.369   1.075   4.808  0.2669  0.4063  0.0557
 4949SOL    HW126483   1.353   1.035   4.723  0.0241  0.0469  0.2705
 4949SOL    HW226484   1.448   1.128   4.804  2.0693 -2.3831 -0.7740
 4950SOL     OW26485   2.071   3.274   1.776 -0.0424 -0.1135 -0.2452
 4950SOL    HW126486   1.995   3.288   1.833 -0.4695 -0.9006 -0.6176
 4950SOL    HW226487   2.034   3.226   1.702  0.9193 -1.1595 -0.0542
 4951SOL     OW26488   0.938   3.247   1.144  0.1882 -0.3500 -0.0643
 4951SOL    HW126489   0.962   3.262   1.235  0.1879  1.1005 -0.3017
 4951SOL    HW226490   0.968   3.157   1.127  3.2135  0.9257 -1.3776
 4952SOL     OW26491   1.774   4.565   3.624  0.4948 -0.0212  0.7251
 4952SOL    HW126492   1.865   4.544   3.642 -0.0520 -1.5612  1.6297
 4952SOL    HW226493   1.749   4.483   3.581 -0.7562  0.3740  0.6837
 4953SOL     OW26494   4.441   0.877   5.109  0.5546 -0.0527 -0.4615
 4953SOL    HW126495   4.374   0.871   5.178  0.2975  0.4534 -0.6637
 4953SOL    HW226496   4.458   0.784   5.098  0.8980 -0.0911  0.3591
 4954SOL     OW26497   3.117   0.248   5.616 -0.3269  0.2213  0.2954
 4954SOL    HW126498   3.086   0.285   5.699  0.4803 -0.3745  0.8617
 4954SOL    HW226499   3.064   0.171   5.600  1.0640 -0.2637 -1.9874
 4955SOL     OW26500   0.702   3.251   8.773  0.5458  0.6107 -0.1109
 4955SOL    HW126501   0.619   3.243   8.820  1.0481 -0.3612  0.6078
 4955SOL    HW226502   0.673   3.251   8.682  1.2497  0.2924 -0.3308
 4956SOL     OW26503   2.114   3.185   9.074 -0.0549  0.4906  0.8723
 4956SOL    HW126504   2.080   3.176   8.984  4.1960 -0.9072 -0.5642
 4956SOL    HW226505   2.123   3.094   9.101  1.3895  0.1809 -0.6707
 4957SOL     OW26506   0.432   4.228   8.742 -0.0360 -0.4405 -0.4763
 4957SOL    HW126507   0.489   4.247   8.817  0.3293 -2.0762 -0.3494
 4957SOL    HW226508   0.389   4.308   8.712 -1.7381 -0.3422  2.1873
 4958SOL     OW26509   0.374   0.392   6.364 -0.1653 -0.4587  0.4318
 4958SOL    HW126510   0.423   0.474   6.357 -1.5318  0.2411 -1.0770
 4958SOL    HW226511   0.446   0.337   6.334  1.1921  0.0279  2.8162
 4959SOL     OW26512   3.363   3.805   3.711 -0.4235  0.3985  0.1259
 4959SOL    HW126513   3.381   3.835   3.800 -1.0779 -1.7196  0.9732
 4959SOL    HW226514   3.324   3.718   3.717 -1.0836  0.5811 -1.3094
 4960SOL     OW26515   0.313   2.543   5.969  0.6344 -0.0084 -0.3852
 4960SOL    HW126516   0.369   2.548   5.891  1.4537  2.1119  0.3319
 4960SOL    HW226517   0.286   2.634   5.980  4.8538  1.4828 -2.1159
 4961SOL     OW26518   1.209   0.772   5.939 -0.3193 -0.1627 -0.1826
 4961SOL    HW126519   1.150   0.818   5.999 -0.2567 -2.4887  1.6235
 4961SOL    HW226520   1.292   0.768   5.986 -0.8076  0.1646  0.7036
 4962SOL     OW26521   3.124   1.174   5.509  0.6711  0.0783 -0.3164
 4962SOL    HW126522   3.098   1.239   5.574  0.0344 -0.7509  0.2489
 4962SOL    HW226523   3.209   1.211   5.484  1.3124 -1.7603 -0.8391
 4963SOL     OW26524   3.503   3.877   5.181 -0.1354  0.5036 -0.5274
 4963SOL    HW126525   3.521   3.841   5.094  0.3505  0.3772 -0.3698
 4963SOL    HW226526   3.492   3.967   5.150 -2.4048 -0.0794 -1.4094
 4964SOL     OW26527   3.351   4.731   6.225 -0.5176 -0.6127  0.5163
 4964SOL    HW126528   3.351   0.062   6.157 -0.2813 -2.4735 -1.3288
 4964SOL    HW226529   3.307   4.657   6.184  0.2646 -1.2131  0.7654
 4965SOL     OW26530   3.622   0.896   2.644  0.2844  0.1507 -0.2284
 4965SOL    HW126531   3.574   0.929   2.568 -1.0701 -1.7328 -0.1715
 4965SOL    HW226532   3.556   0.848   2.694 -1.8734  0.9134 -2.3427
 4966SOL     OW26533   4.676   0.049   7.497  1.0833 -0.0858 -0.3024
 4966SOL    HW126534   4.701   0.013   7.582  1.3161  2.7894  0.8500
 4966SOL    HW226535   4.585   0.022   7.484  0.5370  0.9261  1.4832
 4967SOL     OW26536   2.953   0.963   8.278 -0.0979 -0.0610 -0.1346
 4967SOL    HW126537   2.966   0.938   8.369  2.1421  2.1943  0.1459
 4967SOL    HW226538   2.907   1.045   8.299  1.8307  1.4752 -1.8657
 4968SOL     OW26539   3.329   0.898  12.186 -0.0242  0.8437 -0.4329
 4968SOL    HW126540   3.249   0.859  12.223  1.9088 -2.5741  0.2266
 4968SOL    HW226541   3.388   0.823  12.192  0.9603  1.4892 -2.2612
 4969SOL     OW26542   3.605   1.638   6.488  0.1057  0.3007 -1.0135
 4969SOL    HW126543   3.628   1.598   6.404 -2.1091 -0.0046 -1.4773
 4969SOL    HW226544   3.618   1.564   6.548  1.1014  1.3727  0.0717
 4970SOL     OW26545   3.212   1.173   7.758  0.0977  0.1493  0.0487
 4970SOL    HW126546   3.126   1.207   7.785 -1.3296 -2.0723 -1.7507
 4970SOL    HW226547   3.230   1.129   7.841 -1.7700  0.1233  0.4432
 4971SOL     OW26548   1.282   1.997  11.836 -0.2013 -0.9921  0.3467
 4971SOL    HW126549   1.192   2.009  11.864 -0.1568 -1.0354  0.5079
 4971SOL    HW226550   1.271   1.910  11.797 -2.6806 -0.9828  1.0336
 4972SOL     OW26551   0.530   4.621   3.310  0.1183 -0.8451 -0.0853
 4972SOL    HW126552   0.625   4.617   3.317  0.1251 -1.2347 -0.4138
 4972SOL    HW226553   0.505   4.529   3.312  1.4350 -1.2363 -1.7185
 4973SOL     OW26554   2.880   1.618   0.492  0.1558  0.2619  0.4034
 4973SOL    HW126555   2.894   1.652   0.580  0.2490  0.4189  0.3277
 4973SOL    HW226556   2.901   1.693   0.436  0.7603 -0.0889  0.1562
 4974SOL     OW26557   0.852   4.267   0.352  0.1817 -0.0952  0.8212
 4974SOL    HW126558   0.904   4.264   0.271 -0.9905  0.6302  0.0439
 4974SOL    HW226559   0.915   4.291   0.419 -0.4239 -0.2820  1.4538
 4975SOL     OW26560   1.008   2.535   6.023  0.2450  0.0541 -0.1806
 4975SOL    HW126561   0.953   2.468   6.065 -1.6431  0.3189 -2.1820
 4975SOL    HW226562   1.022   2.599   6.093  0.9114 -1.2450  0.8770
 4976SOL     OW26563   3.103   2.891   5.615  0.0688 -0.2818 -0.2893
 4976SOL    HW126564   3.088   2.949   5.540 -0.7184  1.0205  0.8630
 4976SOL    HW226565   3.162   2.821   5.590  0.1821 -0.7852  1.3786
 4977SOL     OW26566   3.866   3.128   9.989  0.2053 -0.1730  0.1701
 4977SOL    HW126567   3.952   3.167  10.004 -0.0384  0.7050 -0.7732
 4977SOL    HW226568   3.837   3.091  10.073 -0.3099  0.5584  0.3155
 4978SOL     OW26569   2.056   1.516   6.451  0.1120 -0.3187 -0.1917
 4978SOL    HW126570   2.022   1.605   6.463  2.7427  0.8480 -1.3874
 4978SOL    HW226571   1.982   1.473   6.494  0.7602 -1.5607 -0.3202
 4979SOL     OW26572   1.401   0.628   2.452  0.0981 -0.1039 -0.4607
 4979SOL    HW126573   1.389   0.722   2.464 -0.1822 -0.3026  0.7199
 4979SOL    HW226574   1.496   0.626   2.436  0.2875 -2.4074  1.0080
 4980SOL     OW26575   1.447   1.051   9.402  0.0780  0.7686 -0.3648
 4980SOL    HW126576   1.354   1.064   9.424  0.4600  0.5168  1.3451
 4980SOL    HW226577   1.462   1.112   9.329 -0.1422 -1.7817 -2.5550
 4981SOL     OW26578   1.875   2.190   8.477  0.3611 -0.4412  0.5782
 4981SOL    HW126579   1.944   2.232   8.426 -0.0232 -0.4246  0.0703
 4981SOL    HW226580   1.871   2.113   8.421 -3.1821  0.5543 -0.5423
 4982SOL     OW26581   1.115   0.595  13.209 -0.2072  0.6316 -0.1076
 4982SOL    HW126582   1.120   0.680  13.253 -0.5799  0.4432  0.3053
 4982SOL    HW226583   1.115   0.530  13.279  1.4960 -1.9783 -2.5077
 4983SOL     OW26584   0.218   2.522  17.709 -0.3401 -0.1370 -0.1581
 4983SOL    HW126585   0.310   2.538  17.731 -0.9932  0.4917  2.1182
 4983SOL    HW226586   0.196   2.615  17.703  1.8534  0.5535  2.3155
 4984SOL     OW26587   0.519   0.594   3.863  0.5025  0.5861  0.4043
 4984SOL    HW126588   0.605   0.636   3.856 -0.7801  3.2119  0.3686
 4984SOL    HW226589   0.525   0.509   3.905 -0.3663 -0.9094 -2.4833
 4985SOL     OW26590   3.317   2.831  11.374  0.1085  0.0431  0.4337
 4985SOL    HW126591   3.377   2.897  11.409  1.0354 -0.9623  0.7676
 4985SOL    HW226592   3.299   2.791  11.460 -0.0144 -3.6152 -1.2866
 4986SOL     OW26593   1.152   1.717  10.162 -0.3185  0.2520 -0.3342
 4986SOL    HW126594   1.221   1.780  10.142 -0.4353  0.6427  0.5320
 4986SOL    HW226595   1.205   1.639  10.180  0.2807  0.4124 -1.3792
 4987SOL     OW26596   2.710   2.206   3.267  0.3125 -0.0837 -0.2213
 4987SOL    HW126597   2.632   2.236   3.312  0.1515 -1.8675  0.6929
 4987SOL    HW226598   2.715   2.269   3.195  1.5078 -1.3650 -1.2577
 4988SOL     OW26599   4.149   3.750   8.261  0.2433 -0.1429 -0.7306
 4988SOL    HW126600   4.135   3.842   8.285  3.7887  0.5381 -1.3488
 4988SOL    HW226601   4.115   3.701   8.336  1.5830 -1.7946 -1.2167
 4989SOL     OW26602   2.641   0.741   6.413  0.2060 -0.6981 -0.0416
 4989SOL    HW126603   2.602   0.829   6.418  1.4313 -0.0196 -2.1412
 4989SOL    HW226604   2.688   0.758   6.331  0.7558 -0.1833  0.3779
 4990SOL     OW26605   4.431   1.714  11.972 -0.4632 -0.1472 -0.6394
 4990SOL    HW126606   4.361   1.677  12.026 -0.3528 -0.1267 -0.4821
 4990SOL    HW226607   4.506   1.668  12.012  0.2352  1.8091  0.3097
 4991SOL     OW26608   3.028   0.686  16.949  0.4085 -0.2126  0.3955
 4991SOL    HW126609   3.029   0.636  17.031 -0.7913 -0.2602  0.3900
 4991SOL    HW226610   2.936   0.712  16.950  0.8606  1.2994  1.8987
 4992SOL     OW26611   0.762   2.139   7.466 -0.3807 -0.0133  0.5369
 4992SOL    HW126612   0.729   2.049   7.477 -1.6172  0.6116  1.8493
 4992SOL    HW226613   0.819   2.157   7.540 -0.3964 -0.4488  0.6568
 4993SOL     OW26614   0.080   2.612   5.331  0.2394  0.0338  0.4158
 4993SOL    HW126615   0.114   2.570   5.252  0.0640 -0.9307  0.8488
 4993SOL    HW226616   0.100   2.538   5.389  1.1559 -1.3145 -1.6056
 4994SOL     OW26617   4.554   2.108   7.213 -0.2243  0.1329  0.0146
 4994SOL    HW126618   4.592   2.020   7.211 -0.9558 -0.1562 -1.0907
 4994SOL    HW226619   4.583   2.137   7.127  0.9106  0.8819  0.6485
 4995SOL     OW26620   4.252   4.602   2.633  0.1095  0.3877  0.3978
 4995SOL    HW126621   4.168   4.622   2.674  0.2906 -0.5469  1.2085
 4995SOL    HW226622   4.270   4.515   2.670  2.5616  0.3413 -0.8767
 4996SOL     OW26623   2.277   3.470   4.262 -0.0595  0.5574 -0.1531
 4996SOL    HW126624   2.336   3.404   4.297  1.9002  2.0591 -0.6454
 4996SOL    HW226625   2.197   3.440   4.306  0.9069 -1.9825 -0.0884
 4997SOL     OW26626   4.053   2.279   6.180  0.3013 -0.3228 -0.3307
 4997SOL    HW126627   4.103   2.358   6.157 -0.2619 -0.0323 -0.5810
 4997SOL    HW226628   3.972   2.278   6.129  0.4521 -0.1198 -0.5777
 4998SOL     OW26629   2.591   2.784   0.493  0.4110 -0.0381  0.1858
 4998SOL    HW126630   2.631   2.841   0.560 -1.3538 -1.9830  2.8971
 4998SOL    HW226631   2.612   2.699   0.532  1.6793  0.1195 -0.1548
 4999SOL     OW26632   0.644   3.415   6.903 -0.2411  0.1813  0.4291
 4999SOL    HW126633   0.591   3.455   6.834 -1.5686 -0.9955  0.7670
 4999SOL    HW226634   0.696   3.363   6.841  0.1241  0.4445  0.5136
 5000SOL     OW26635   3.712   2.506   6.538 -0.4296 -0.1134  0.3000
 5000SOL    HW126636   3.757   2.478   6.458 -2.2620 -3.7795  0.5494
 5000SOL    HW226637   3.665   2.429   6.570  1.4334 -0.7800  1.3795
 5001SOL     OW26638   0.226   1.856   0.731  0.4523 -0.1391 -0.2132
 5001SOL    HW126639   0.241   1.766   0.702  2.0682 -0.0956  0.4737
 5001SOL    HW226640   0.135   1.854   0.701 -0.1683  0.2315  1.6219
 5002SOL     OW26641   1.412   0.668   5.430 -0.3135  0.1273  0.2443
 5002SOL    HW126642   1.368   0.754   5.428 -0.4544 -0.0284 -2.8870
 5002SOL    HW226643   1.385   0.633   5.345 -0.4532 -0.1464  0.4032
 5003SOL     OW26644   4.270   1.771   3.230  0.1029  0.3350 -0.1187
 5003SOL    HW126645   4.319   1.836   3.280 -0.5836  0.9079 -0.1913
 5003SOL    HW226646   4.213   1.823   3.174  1.0994  2.2021  0.6207
 5004SOL     OW26647   2.592   2.240   5.906  0.0259  0.5749 -0.4875
 5004SOL    HW126648   2.559   2.218   5.993 -1.6314 -0.6009 -1.4217
 5004SOL    HW226649   2.534   2.311   5.879  0.2157  0.5496 -0.9513
 5005SOL     OW26650   0.728   2.550   5.068 -0.2912 -0.3934 -0.0772
 5005SOL    HW126651   0.742   2.476   5.008  0.7383  0.1470 -0.4986
 5005SOL    HW226652   0.810   2.542   5.116 -0.0659 -2.2325 -0.7508
 5006SOL     OW26653   4.590   4.694   4.136 -0.1695  0.0837  0.0921
 5006SOL    HW126654   4.657   4.672   4.202 -0.3745 -0.7439  0.0322
 5006SOL    HW226655   4.560   4.608   4.107  1.5926  0.3895 -2.6082
 5007SOL     OW26656   1.367   4.105   6.775 -0.1570 -0.4152  0.0159
 5007SOL    HW126657   1.294   4.122   6.834 -1.4326 -1.3437 -1.3123
 5007SOL    HW226658   1.435   4.166   6.803 -1.0811  0.3245  0.6454
 5008SOL     OW26659   3.032   0.821   3.695  0.2172 -0.3114 -0.1322
 5008SOL    HW126660   2.996   0.833   3.607  2.4151 -0.3911 -1.0302
 5008SOL    HW226661   2.969   0.873   3.745 -0.3336  0.6405 -1.8048
 5009SOL     OW26662   0.984   3.896  10.209 -0.1025 -0.1576  0.2376
 5009SOL    HW126663   1.008   3.906  10.301  0.3384  0.7585  0.0287
 5009SOL    HW226664   1.050   3.830  10.186 -0.8142  0.3633 -3.2593
 5010SOL     OW26665   3.656   2.820  15.454  0.5257  0.3602  0.2441
 5010SOL    HW126666   3.637   2.878  15.381 -1.7352 -3.9138 -2.5366
 5010SOL    HW226667   3.633   2.876  15.528 -2.6507 -1.3481  0.5771
 5011SOL     OW26668   0.896   1.409   8.497 -0.4212  0.7782  0.6854
 5011SOL    HW126669   0.954   1.480   8.468 -0.3987 -0.0502 -1.2963
 5011SOL    HW226670   0.940   1.333   8.459  3.0655  2.5673  1.1757
 5012SOL     OW26671   2.745   3.772   1.388  0.0092  0.0347  0.2223
 5012SOL    HW126672   2.820   3.722   1.357  0.4788  2.3053 -2.2780
 5012SOL    HW226673   2.735   3.840   1.321 -2.6465 -0.8705 -0.2768
 5013SOL     OW26674   3.211   4.596   6.648  0.4868 -0.6678 -0.8019
 5013SOL    HW126675   3.176   4.547   6.722  1.1201 -0.7668 -0.5618
 5013SOL    HW226676   3.162   4.559   6.575 -1.3909 -0.9156  0.5977
 5014SOL     OW26677   0.017   3.248   6.319  0.0180 -0.3240  0.6274
 5014SOL    HW126678   0.101   3.275   6.357  0.4310 -3.0319  1.6826
 5014SOL    HW226679   0.049   3.166   6.280 -0.6195  0.4378 -1.4880
 5015SOL     OW26680   0.879   2.134   4.200  0.0725  0.3447  0.0246
 5015SOL    HW126681   0.957   2.113   4.150 -0.9931 -1.7497 -0.7386
 5015SOL    HW226682   0.871   2.227   4.175  0.5869 -0.0451 -1.5611
 5016SOL     OW26683   0.888   1.674   0.534 -0.8256  0.0060 -0.2146
 5016SOL    HW126684   0.833   1.682   0.457 -1.2371  0.5638  0.1322
 5016SOL    HW226685   0.846   1.603   0.582 -0.3139 -1.5079 -2.0306
 5017SOL     OW26686   4.498   1.712   7.463  0.4577 -0.3006  0.0870
 5017SOL    HW126687   4.425   1.734   7.404  0.4850 -1.9431 -0.5509
 5017SOL    HW226688   4.548   1.651   7.409  0.0985 -1.4843  1.0789
 5018SOL     OW26689   0.605   0.542   6.378 -0.0678  0.1396  0.4414
 5018SOL    HW126690   0.638   0.595   6.451  0.2572 -1.5990  1.5530
 5018SOL    HW226691   0.589   0.610   6.313  0.7216  0.1323  0.2452
 5019SOL     OW26692   2.552   0.444   1.866 -0.4449  0.4655  0.1398
 5019SOL    HW126693   2.561   0.378   1.935  0.3481  0.6995  0.2676
 5019SOL    HW226694   2.511   0.394   1.796 -2.6485  3.7031 -0.9113
 5020SOL     OW26695   4.547   0.602   0.800 -0.3263  0.1630  0.2309
 5020SOL    HW126696   4.582   0.668   0.859  0.3010  0.0867 -0.0537
 5020SOL    HW226697   4.622   0.603   0.739 -0.3898  1.0920  0.1658
 5021SOL     OW26698   1.465   0.163   4.682  0.3725 -0.1059 -0.6384
 5021SOL    HW126699   1.497   0.237   4.630  0.9184 -0.2679 -0.5327
 5021SOL    HW226700   1.553   0.128   4.693 -0.2698 -1.2750  0.7616
 5022SOL     OW26701   3.756   1.812   8.877 -0.1749 -0.4366  0.2609
 5022SOL    HW126702   3.825   1.876   8.858 -1.6697  0.3504 -2.4811
 5022SOL    HW226703   3.752   1.771   8.791  0.9409  0.2839 -0.1377
 5023SOL     OW26704   1.624   2.766   7.985 -0.2914  0.0575  0.2270
 5023SOL    HW126705   1.675   2.847   7.979 -0.6325  0.1967 -0.7435
 5023SOL    HW226706   1.573   2.787   8.064 -2.1755  0.5146 -1.1257
 5024SOL     OW26707   4.450   3.070  15.018 -0.5885 -0.1410  0.1313
 5024SOL    HW126708   4.385   3.030  14.959  0.9116 -1.7449 -0.4332
 5024SOL    HW226709   4.400   3.099  15.094 -1.9466 -1.7441 -0.1550
 5025SOL     OW26710   2.636   3.387   4.335 -0.0375  0.1564  0.1226
 5025SOL    HW126711   2.623   3.430   4.250 -1.2724  0.9642  0.7254
 5025SOL    HW226712   2.579   3.310   4.330  1.0716 -0.6551 -0.2283
 5026SOL     OW26713   1.858   4.573   8.316 -0.4832  0.5928  0.1391
 5026SOL    HW126714   1.831   4.664   8.304  2.0014  0.9461 -2.7257
 5026SOL    HW226715   1.814   4.561   8.400  0.9879  0.0345  0.8176
 5027SOL     OW26716   0.045   1.681  11.796 -0.2704 -0.5588 -0.7232
 5027SOL    HW126717   0.100   1.735  11.852 -1.0189 -0.4262 -0.1109
 5027SOL    HW226718   0.083   1.594  11.786  1.3941  0.2253 -1.0988
 5028SOL     OW26719   2.076   1.253  11.897 -0.0087 -0.5223 -0.3406
 5028SOL    HW126720   2.163   1.217  11.883 -1.3041 -3.6404 -0.3345
 5028SOL    HW226721   2.062   1.230  11.989 -1.3784 -0.3273 -0.4933
 5029SOL     OW26722   2.833   2.331   0.671  0.3060 -0.4925 -0.0722
 5029SOL    HW126723   2.901   2.396   0.656  1.6791 -1.9427 -0.1678
 5029SOL    HW226724   2.865   2.260   0.615  3.0150  2.8108 -2.6934
 5030SOL     OW26725   2.156   0.750  13.135 -0.0019  0.0550 -0.0261
 5030SOL    HW126726   2.143   0.824  13.195 -0.4735 -0.5019  0.5534
 5030SOL    HW226727   2.248   0.766  13.112  0.0965 -1.6256 -0.7490
 5031SOL     OW26728   4.234   0.087   3.455 -0.1539 -0.2250  0.1799
 5031SOL    HW126729   4.242   0.103   3.549 -0.7575 -1.3168  0.4103
 5031SOL    HW226730   4.159   0.029   3.443 -0.1699  0.3374 -2.4815
 5032SOL     OW26731   3.538   0.066   1.609  0.2182  0.0264  0.0451
 5032SOL    HW126732   3.554   4.712   1.585  2.0166 -0.4531  2.9735
 5032SOL    HW226733   3.537   0.111   1.525 -1.7626  1.4063  0.8220
 5033SOL     OW26734   1.631   4.379   9.146 -0.1368  0.2716  0.3470
 5033SOL    HW126735   1.658   4.460   9.104 -0.8999 -0.6672 -1.9832
 5033SOL    HW226736   1.586   4.418   9.221  0.0985  0.9397  0.1364
 5034SOL     OW26737   3.953   4.212  12.781 -0.3062  0.2135  0.0890
 5034SOL    HW126738   4.020   4.150  12.753  1.5828  1.3991  2.0302
 5034SOL    HW226739   3.908   4.212  12.696 -2.0203 -0.6291  1.0081
 5035SOL     OW26740   3.969   0.683  11.937  0.2747 -0.0326 -0.0565
 5035SOL    HW126741   3.898   0.739  11.969  0.1615 -1.4596  2.2301
 5035SOL    HW226742   4.000   0.655  12.024  0.7765  0.1747 -0.1681
 5036SOL     OW26743   2.452   2.671   6.967  0.0128  0.2375  0.2917
 5036SOL    HW126744   2.475   2.663   6.874 -0.2710  0.2489  0.2198
 5036SOL    HW226745   2.463   2.579   6.991  0.8286 -0.5790 -3.1660
 5037SOL     OW26746   2.652   0.840   9.213  0.2204 -0.3734  0.7886
 5037SOL    HW126747   2.656   0.799   9.127 -2.2955  1.7884 -0.3564
 5037SOL    HW226748   2.697   0.769   9.260  3.3425  1.5468  0.6826
 5038SOL     OW26749   2.357   1.308   8.762 -0.1094  0.0426  0.2010
 5038SOL    HW126750   2.287   1.349   8.813 -1.3625  1.5119 -2.7658
 5038SOL    HW226751   2.306   1.264   8.694 -1.4114  1.7646  0.0599
 5039SOL     OW26752   2.893   3.612   4.626 -0.3744 -0.7452 -1.2098
 5039SOL    HW126753   2.818   3.616   4.684  0.8801  1.1566  0.3114
 5039SOL    HW226754   2.910   3.519   4.612  0.1187 -0.4623 -2.5212
 5040SOL     OW26755   1.823   3.445   8.033 -0.3790  0.1353  0.0348
 5040SOL    HW126756   1.808   3.385   8.106 -0.3253 -1.0293 -0.9115
 5040SOL    HW226757   1.878   3.396   7.971  0.4410  2.6048 -1.2282
 5041SOL     OW26758   4.038   0.210  10.021  0.2079  0.1753 -0.0617
 5041SOL    HW126759   4.065   0.127  10.060 -1.1013 -1.6595 -3.0399
 5041SOL    HW226760   4.091   0.204   9.942 -0.9230 -1.8142 -0.6678
 5042SOL     OW26761   4.557   1.839   8.664 -0.0363  0.1841 -0.5373
 5042SOL    HW126762   4.500   1.798   8.730 -0.2701 -1.6498 -1.8977
 5042SOL    HW226763   4.534   1.931   8.678  1.1800  0.6704 -1.8117
 5043SOL     OW26764   1.423   0.025   0.278 -0.0926 -0.1545 -0.3707
 5043SOL    HW126765   1.362   0.032   0.205  0.0793  1.3229 -0.3579
 5043SOL    HW226766   1.371   0.008   0.357  2.5114  0.0591  1.4083
 5044SOL     OW26767   3.373   1.793   2.988  0.5310  0.0693 -0.3684
 5044SOL    HW126768   3.400   1.739   3.062 -1.8758  0.4067  0.7333
 5044SOL    HW226769   3.344   1.875   3.028 -0.1590  0.3982 -1.5392
 5045SOL     OW26770   2.575   3.335   5.638  0.0984 -0.2696 -0.9971
 5045SOL    HW126771   2.624   3.365   5.715  0.9103 -1.4797 -1.0538
 5045SOL    HW226772   2.637   3.327   5.566  1.6416  0.4020  0.2638
 5046SOL     OW26773   0.708   3.391   1.403 -0.3118 -0.1654  0.0352
 5046SOL    HW126774   0.669   3.401   1.316 -2.7956 -0.1002  1.1347
 5046SOL    HW226775   0.801   3.388   1.383 -0.1785 -1.4448  0.8923
 5047SOL     OW26776   3.841   0.540  15.518  0.3526  0.1939 -0.2178
 5047SOL    HW126777   3.937   0.531  15.513  0.1557 -2.4556  0.8686
 5047SOL    HW226778   3.828   0.532  15.613 -2.1321  1.5715 -0.4738
 5048SOL     OW26779   2.793   2.347  11.327 -0.2018  0.0902  0.2499
 5048SOL    HW126780   2.768   2.407  11.397  2.4434  2.1892 -0.5879
 5048SOL    HW226781   2.709   2.303  11.316 -1.0188  1.1687  2.2290
 5049SOL     OW26782   1.525   2.965   3.708  0.1744 -0.2139 -0.0224
 5049SOL    HW126783   1.514   3.017   3.788 -1.5822  0.7192 -0.8705
 5049SOL    HW226784   1.500   2.878   3.738  0.4164 -0.0608  0.6407
 5050SOL     OW26785   0.031   1.179  16.582  0.0569 -0.0094  0.5339
 5050SOL    HW126786   0.013   1.168  16.675 -1.2677  0.0126  0.2850
 5050SOL    HW226787   0.126   1.179  16.581  0.0612  0.1040  2.7067
 5051SOL     OW26788   0.954   0.189   1.969  0.3152  0.1305  0.1644
 5051SOL    HW126789   0.869   0.173   2.010  0.7162 -0.8442  0.6128
 5051SOL    HW226790   0.970   0.113   1.914  0.6370  0.9413 -0.8656
 5052SOL     OW26791   2.481   2.730   4.110 -0.3099 -0.0922 -0.5594
 5052SOL    HW126792   2.482   2.661   4.043  0.8921  0.7557 -1.4201
 5052SOL    HW226793   2.500   2.676   4.187  0.4554  0.2876 -0.4751
 5053SOL     OW26794   2.888   4.071   3.326  0.2731  0.5671  0.3941
 5053SOL    HW126795   2.843   4.066   3.411  0.9648 -0.3519  0.7024
 5053SOL    HW226796   2.980   4.063   3.354  0.0731 -3.4653 -0.0613
 5054SOL     OW26797   1.964   2.300   1.857 -0.1825 -0.7616  0.5184
 5054SOL    HW126798   1.895   2.333   1.915 -0.8721 -1.6351  0.1944
 5054SOL    HW226799   2.021   2.259   1.922  1.1811  0.5712  0.1816
 5055SOL     OW26800   0.091   3.560   2.867 -0.0068  0.0783 -0.3249
 5055SOL    HW126801   0.033   3.601   2.932  1.5430 -0.2423  1.2652
 5055SOL    HW226802   0.032   3.562   2.792  1.1441  0.2801 -1.2367
 5056SOL     OW26803   1.932   1.402   6.774 -0.3545  0.3879 -0.2807
 5056SOL    HW126804   1.886   1.436   6.698  1.1098  3.7242  0.3297
 5056SOL    HW226805   1.920   1.309   6.755 -2.9674  0.8439 -0.7987
 5057SOL     OW26806   1.177   3.481   4.460 -0.5503  0.2518  0.2530
 5057SOL    HW126807   1.212   3.489   4.548  2.1481  0.6812 -0.8653
 5057SOL    HW226808   1.158   3.388   4.457  2.4490 -0.3360  0.1067
 5058SOL     OW26809   0.261   2.083   9.229 -0.1736  0.0179  0.2166
 5058SOL    HW126810   0.213   2.002   9.210 -1.4393  0.7598  0.2750
 5058SOL    HW226811   0.322   2.078   9.156  1.9093 -1.4899  2.0532
 5059SOL     OW26812   4.139   3.725   5.747 -0.0539  0.1760  0.1391
 5059SOL    HW126813   4.109   3.637   5.721  1.2580 -0.4591  0.7644
 5059SOL    HW226814   4.121   3.782   5.673 -0.4757 -1.6595 -1.1899
 5060SOL     OW26815   0.297   0.345  15.864 -0.1339 -0.4262  0.6266
 5060SOL    HW126816   0.374   0.298  15.829 -0.7699 -0.1337 -1.1411
 5060SOL    HW226817   0.289   0.308  15.952 -1.3790 -0.7329  0.3794
 5061SOL     OW26818   3.558   1.653   3.223  0.0455  0.2925 -0.3575
 5061SOL    HW126819   3.652   1.650   3.240 -0.1355  4.2084  1.3918
 5061SOL    HW226820   3.546   1.595   3.148 -0.8607 -0.0278  0.0347
 5062SOL     OW26821   3.461   3.414  12.025  0.8366  0.1118  0.2733
 5062SOL    HW126822   3.457   3.445  12.116  0.4525  0.5380  0.1087
 5062SOL    HW226823   3.372   3.426  11.993  1.3647 -0.4504 -1.3727
 5063SOL     OW26824   3.707   3.675   8.987  0.1778  0.5473  0.2669
 5063SOL    HW126825   3.727   3.748   8.928 -0.3304 -1.1402 -2.0335
 5063SOL    HW226826   3.616   3.666   8.960  0.5585  0.3388 -0.9784
 5064SOL     OW26827   2.783   1.593   3.550  0.3365 -0.2501  0.0250
 5064SOL    HW126828   2.872   1.586   3.583  0.5426  2.6375  0.1358
 5064SOL    HW226829   2.793   1.563   3.459  0.0097 -2.0922  0.6022
 5065SOL     OW26830   3.980   4.660   0.663  0.3547 -0.0403 -0.4089
 5065SOL    HW126831   3.917   4.661   0.591 -1.3652 -0.3014  1.0730
 5065SOL    HW226832   3.989   4.566   0.678 -0.2529  0.0307  0.4467
 5066SOL     OW26833   0.523   0.829   4.216 -0.2141 -0.0995  0.0655
 5066SOL    HW126834   0.602   0.775   4.228 -0.0740 -0.2159 -1.3776
 5066SOL    HW226835   0.476   0.790   4.143 -1.1579  1.8575 -0.3567
 5067SOL     OW26836   1.535   3.227   9.176  0.6185 -0.0869  0.5757
 5067SOL    HW126837   1.532   3.301   9.237  0.8268  0.8421 -0.5368
 5067SOL    HW226838   1.452   3.181   9.189 -0.1161  1.2731  0.6925
 5068SOL     OW26839   1.304   0.851   3.435 -0.4451  0.8243  0.3523
 5068SOL    HW126840   1.255   0.908   3.376  0.4374  2.2144  0.9677
 5068SOL    HW226841   1.379   0.827   3.380 -0.1501  3.6598 -0.4826
 5069SOL     OW26842   4.154   1.555  14.590 -0.2143  0.6275 -0.2290
 5069SOL    HW126843   4.162   1.620  14.520  0.6069  0.3554 -0.3896
 5069SOL    HW226844   4.248   1.536  14.599  0.0259  2.7899  1.9095
 5070SOL     OW26845   2.245   1.570   1.944  0.1350 -0.0320 -0.6913
 5070SOL    HW126846   2.253   1.660   1.914  0.7268  0.4125  0.7725
 5070SOL    HW226847   2.163   1.581   1.991 -0.3932 -1.5371 -1.2552
 5071SOL     OW26848   0.944   4.097   5.291  0.2019 -0.3869 -0.0162
 5071SOL    HW126849   0.877   4.034   5.313 -1.0457  0.7819 -0.4851
 5071SOL    HW226850   0.957   4.135   5.379 -0.0547 -0.1423 -0.0857
 5072SOL     OW26851   4.019   0.137   7.884  0.1556 -0.4084 -0.0529
 5072SOL    HW126852   4.005   0.105   7.974  0.0676  0.1453  0.1321
 5072SOL    HW226853   4.111   0.161   7.896 -0.3721  0.9074  1.4524
 5073SOL     OW26854   4.714   2.761   4.222  0.3199 -0.0204  0.3540
 5073SOL    HW126855   4.725   2.666   4.213  0.3686  0.3451 -3.2611
 5073SOL    HW226856   4.651   2.758   4.295 -0.0588  0.3493  0.0408
 5074SOL     OW26857   4.456   0.472  13.823 -0.0412  0.0021 -0.2153
 5074SOL    HW126858   4.520   0.518  13.876 -0.2300  0.1376 -0.1042
 5074SOL    HW226859   4.457   0.386  13.865 -0.2939  0.1209  0.0316
 5075SOL     OW26860   3.835   3.419   8.521  0.3070  0.1295 -0.2544
 5075SOL    HW126861   3.803   3.508   8.536 -1.8610 -0.5506 -0.9304
 5075SOL    HW226862   3.845   3.377   8.607  2.5075 -0.4160 -0.7699
 5076SOL     OW26863   4.469   2.291   9.193 -0.3095  0.0203 -0.3755
 5076SOL    HW126864   4.375   2.288   9.178 -0.3481  1.5166 -0.4068
 5076SOL    HW226865   4.466   2.228   9.265 -0.3805  0.2516 -0.1764
 5077SOL     OW26866   1.608   0.316  14.059 -0.3744 -0.2637  0.6541
 5077SOL    HW126867   1.528   0.349  14.019 -0.9332 -2.2236  0.1459
 5077SOL    HW226868   1.565   0.285  14.139 -0.0886 -0.0328  0.8966
 5078SOL     OW26869   1.774   0.481  13.440  0.2630 -0.3168  0.0841
 5078SOL    HW126870   1.808   0.555  13.390 -1.7778  0.3444 -0.3373
 5078SOL    HW226871   1.681   0.498  13.422  0.9039  3.0987 -0.0229
 5079SOL     OW26872   3.360   1.453   4.480 -0.2383  0.4346 -0.1692
 5079SOL    HW126873   3.304   1.376   4.469  1.0213 -0.3396 -1.0890
 5079SOL    HW226874   3.299   1.526   4.465  0.8857  1.6380  1.1870
 5080SOL     OW26875   3.116   0.342   3.252 -0.0126  0.4203  0.2325
 5080SOL    HW126876   3.207   0.322   3.270 -0.4124 -1.6146 -0.0621
 5080SOL    HW226877   3.132   0.423   3.203  1.1118  0.5705  0.8460
 5081SOL     OW26878   0.252   2.897   1.787  0.6641  0.3242  0.4783
 5081SOL    HW126879   0.234   2.934   1.700 -0.3274  1.4030  1.1489
 5081SOL    HW226880   0.347   2.902   1.800  0.7797 -2.2607  0.6365
 5082SOL     OW26881   0.296   4.509   8.765 -0.4646 -0.3420 -0.2484
 5082SOL    HW126882   0.290   4.536   8.856  0.2773 -0.2485 -0.2281
 5082SOL    HW226883   0.214   4.537   8.723  0.6975 -0.9045 -2.9226
 5083SOL     OW26884   3.744   0.500   5.805  0.3234  0.2005  0.9852
 5083SOL    HW126885   3.729   0.594   5.791 -0.5268 -0.3639 -1.8537
 5083SOL    HW226886   3.826   0.494   5.756  0.1191 -0.7311  0.7677
 5084SOL     OW26887   4.620   4.125   7.144  0.3598 -0.0130  0.0995
 5084SOL    HW126888   4.633   4.054   7.082  1.0574  0.1644  0.0455
 5084SOL    HW226889   4.524   4.122   7.141  0.4763 -1.8497 -1.7062
 5085SOL     OW26890   1.320   0.311   6.856 -0.4909  0.0777  0.0395
 5085SOL    HW126891   1.374   0.255   6.912  0.1278  0.5889 -0.0474
 5085SOL    HW226892   1.334   0.262   6.775  0.0943  1.3738 -0.6445
 5086SOL     OW26893   4.006   1.847   9.842  0.5440 -0.0059  1.1820
 5086SOL    HW126894   3.938   1.909   9.815  1.4063  0.5813  0.3668
 5086SOL    HW226895   3.998   1.789   9.767  1.7181  1.7569 -0.3006
 5087SOL     OW26896   1.902   3.032  12.578  0.0014  0.5328 -0.2814
 5087SOL    HW126897   1.858   2.994  12.503  0.2715  0.4520 -0.3989
 5087SOL    HW226898   1.880   2.980  12.655  0.6145 -2.2258 -1.9983
 5088SOL     OW26899   2.080   1.196   6.255  0.0929 -0.3273  0.1306
 5088SOL    HW126900   2.124   1.197   6.340 -0.9742 -2.3508  0.7119
 5088SOL    HW226901   2.001   1.148   6.279  0.3664  0.1776  2.0661
 5089SOL     OW26902   0.797   2.156   1.796  0.1920  0.1944  0.0369
 5089SOL    HW126903   0.714   2.203   1.783  0.6496  1.3619  1.2700
 5089SOL    HW226904   0.796   2.153   1.892  1.2273 -0.1419  0.0333
 5090SOL     OW26905   2.723   3.694   5.637 -0.2902  0.0968  0.0760
 5090SOL    HW126906   2.630   3.714   5.627  0.1524  1.8481 -0.5171
 5090SOL    HW226907   2.762   3.674   5.552 -0.8411 -1.7565  0.2731
 5091SOL     OW26908   3.312   2.387   3.016 -0.0527  0.3776  0.0061
 5091SOL    HW126909   3.311   2.423   3.104 -0.2572  0.5022 -0.0471
 5091SOL    HW226910   3.277   2.457   2.961  1.6753  0.5053 -0.9406
 5092SOL     OW26911   3.968   0.621   5.727  0.0228 -0.4975  0.3583
 5092SOL    HW126912   4.042   0.577   5.768  1.1127  0.9303 -0.0651
 5092SOL    HW226913   3.983   0.706   5.768 -0.7193 -0.1613 -0.0517
 5093SOL     OW26914   4.310   4.144   6.844 -0.3453 -0.0989 -0.0479
 5093SOL    HW126915   4.264   4.225   6.867  1.6451  0.7772  0.8418
 5093SOL    HW226916   4.327   4.114   6.933  1.6756 -0.1360 -0.4576
 5094SOL     OW26917   2.066   1.339   0.604  0.1663  0.4855 -0.1967
 5094SOL    HW126918   2.130   1.283   0.647  0.6081  2.2603  1.4754
 5094SOL    HW226919   2.013   1.375   0.675  1.5999  4.5416 -1.1696
 5095SOL     OW26920   1.640   3.049   2.333 -0.5227 -0.1262  0.0809
 5095SOL    HW126921   1.702   3.045   2.260  0.8953  1.3081  1.2051
 5095SOL    HW226922   1.573   2.982   2.320 -0.3579  0.0821 -1.8464
 5096SOL     OW26923   3.717   2.921   6.191 -0.5800  0.4226 -0.1994
 5096SOL    HW126924   3.780   2.983   6.228 -1.1838  1.2382 -0.5523
 5096SOL    HW226925   3.696   2.859   6.261 -0.8972  0.2794 -0.4260
 5097SOL     OW26926   0.369   2.223   3.366 -0.5889  0.4409  0.1363
 5097SOL    HW126927   0.408   2.136   3.353 -1.5206 -0.0382  0.5793
 5097SOL    HW226928   0.313   2.244   3.291  0.6261  1.2335 -0.5472
 5098SOL     OW26929   0.143   2.072   3.166  0.5176 -0.1331 -0.0693
 5098SOL    HW126930   0.146   2.106   3.077  1.1664 -0.0767 -0.0291
 5098SOL    HW226931   0.205   2.002   3.147  1.8100  0.0261  3.5104
 5099SOL     OW26932   0.717   0.772   3.763 -0.1245  0.0012  0.0580
 5099SOL    HW126933   0.751   0.763   3.674  0.5088 -0.7961  0.3744
 5099SOL    HW226934   0.694   0.865   3.762  0.7366  0.2055 -0.2194
 5100SOL     OW26935   2.464   3.910   4.129  0.0806 -0.6231  0.3376
 5100SOL    HW126936   2.557   3.926   4.117  0.1132 -2.2754 -1.7132
 5100SOL    HW226937   2.454   3.821   4.095  0.1078 -0.0182 -1.2182
 5101SOL     OW26938   3.453   1.112   1.646 -0.3131  0.3049  0.1230
 5101SOL    HW126939   3.484   1.022   1.637 -1.1115  0.2253 -1.9555
 5101SOL    HW226940   3.441   1.115   1.740 -0.1784  1.3347  0.1113
 5102SOL     OW26941   2.910   0.728   6.867  0.4085 -0.6931 -0.4883
 5102SOL    HW126942   2.979   0.673   6.832  1.6216 -0.0035  0.8158
 5102SOL    HW226943   2.842   0.661   6.877 -1.0795  1.1477  1.8631
 5103SOL     OW26944   4.269   0.390   9.006 -0.2413 -0.1180  0.7781
 5103SOL    HW126945   4.354   0.364   8.970 -1.2172 -1.6937 -0.4107
 5103SOL    HW226946   4.259   0.480   8.978  3.4131  0.0750  0.0848
 5104SOL     OW26947   2.684   2.492  11.018 -0.2367 -0.1869  0.2877
 5104SOL    HW126948   2.603   2.535  10.991 -0.3909 -1.9056 -1.8948
 5104SOL    HW226949   2.701   2.545  11.097  0.3864  2.8246 -1.8546
 5105SOL     OW26950   1.419   3.482   3.629 -0.2439  0.1850 -0.6421
 5105SOL    HW126951   1.434   3.393   3.597 -2.3099 -0.3384 -0.1448
 5105SOL    HW226952   1.337   3.507   3.587 -1.7977 -0.5648  1.8990
 5106SOL     OW26953   0.313   0.305   8.749 -0.2187  0.2881  0.3225
 5106SOL    HW126954   0.360   0.229   8.715 -2.3039 -0.2503 -1.3235
 5106SOL    HW226955   0.236   0.308   8.692 -1.0107  1.1007  1.4328
 5107SOL     OW26956   2.388   1.361   3.040 -0.2038 -0.2639 -0.4835
 5107SOL    HW126957   2.395   1.451   3.007  3.5044 -0.5740 -0.5521
 5107SOL    HW226958   2.323   1.374   3.109  0.2277 -0.2404 -0.0839
 5108SOL     OW26959   2.407   0.295  16.211  0.1960 -0.3784 -0.1727
 5108SOL    HW126960   2.493   0.303  16.253  0.4465  3.0136 -1.3207
 5108SOL    HW226961   2.380   0.386  16.221  1.6554  0.1863 -1.4733
 5109SOL     OW26962   4.328   0.083  17.731 -0.1588 -0.0274  0.0619
 5109SOL    HW126963   4.257   0.089   0.048 -0.9979  2.1890 -1.0897
 5109SOL    HW226964   4.280   0.047  17.657 -3.4690  2.2140  1.1260
 5110SOL     OW26965   1.066   3.733   4.387 -0.0051 -0.5225  0.0344
 5110SOL    HW126966   1.121   3.756   4.312 -1.6009  0.7760 -0.7215
 5110SOL    HW226967   1.091   3.641   4.400 -0.4121 -0.8519 -1.5060
 5111SOL     OW26968   2.322   4.074   7.931 -0.2311 -0.5421 -0.3052
 5111SOL    HW126969   2.359   4.020   7.860  2.8415  0.2881  0.6609
 5111SOL    HW226970   2.398   4.102   7.981 -1.7980  2.2053  0.5228
 5112SOL     OW26971   0.257   2.812  16.701  0.2012  0.0553  0.2251
 5112SOL    HW126972   0.316   2.738  16.717  0.3687 -0.0595 -0.9379
 5112SOL    HW226973   0.301   2.858  16.630  2.4445 -1.7147  0.4808
 5113SOL     OW26974   3.066   1.675   8.428 -0.6102  0.0120 -0.2915
 5113SOL    HW126975   3.099   1.590   8.457 -0.0082  0.7621  1.1755
 5113SOL    HW226976   3.071   1.729   8.506  0.1442 -2.4143  1.3535
 5114SOL     OW26977   0.721   0.503   8.408  0.1401 -0.2360 -0.0522
 5114SOL    HW126978   0.777   0.441   8.361  1.0327  0.3517  0.2408
 5114SOL    HW226979   0.682   0.552   8.336 -0.1196 -1.1759 -0.5472
 5115SOL     OW26980   1.663   2.481  16.420 -0.3096  0.0439  0.1312
 5115SOL    HW126981   1.622   2.568  16.426  1.3316  0.6693  2.1753
 5115SOL    HW226982   1.684   2.475  16.513  0.7348 -4.6039 -0.4189
 5116SOL     OW26983   3.737   2.378  12.623 -0.3334 -0.0819 -0.0016
 5116SOL    HW126984   3.695   2.386  12.537 -1.7229 -0.9520  0.5998
 5116SOL    HW226985   3.817   2.331  12.596 -0.2285  0.7760 -1.1880
 5117SOL     OW26986   0.104   2.734   9.386  0.5949 -0.0134 -0.5792
 5117SOL    HW126987   0.102   2.709   9.293  0.7657 -2.5016  0.0948
 5117SOL    HW226988   0.107   2.646   9.423 -1.7189 -0.4323 -1.3793
 5118SOL     OW26989   1.951   2.589   3.215  0.5121 -0.1936  0.6595
 5118SOL    HW126990   2.030   2.606   3.164 -0.4495  3.3725  0.4100
 5118SOL    HW226991   1.922   2.509   3.170  1.4449  0.3759 -0.9498
 5119SOL     OW26992   0.661   2.098   5.719  0.4228 -0.2534 -0.3290
 5119SOL    HW126993   0.737   2.042   5.704  1.6334  0.9665  1.3185
 5119SOL    HW226994   0.639   2.134   5.633 -0.7776  0.5474  0.2984
 5120SOL     OW26995   4.529   2.263   5.635 -0.0357  0.3064 -0.1260
 5120SOL    HW126996   4.542   2.357   5.643  0.7846  0.0590  1.4602
 5120SOL    HW226997   4.551   2.235   5.724 -2.3705  2.1161  1.0084
 5121SOL     OW26998   0.060   4.524   5.585 -0.1046  0.2780  0.1499
 5121SOL    HW126999   4.722   4.526   5.645  0.0403  3.4566  0.1872
 5121SOL    HW227000   0.093   4.611   5.606  2.8676 -0.3310 -2.0252
 5122SOL     OW27001   3.327   0.507   9.072  0.1505 -0.5818  0.0691
 5122SOL    HW127002   3.234   0.520   9.054  0.3174  0.0907 -0.3071
 5122SOL    HW227003   3.379   0.544   9.001  1.7259  0.0498  1.5470
 5123SOL     OW27004   0.488   4.614  15.279 -0.1731  0.3118 -0.5895
 5123SOL    HW127005   0.572   4.585  15.314 -1.2273 -2.2721 -0.1976
 5123SOL    HW227006   0.419   4.595  15.342  2.0517 -2.3731  1.0204
 5124SOL     OW27007   0.760   0.262   3.064 -0.2292  0.3415  0.0691
 5124SOL    HW127008   0.754   0.290   3.155 -1.5728 -3.4596  1.1347
 5124SOL    HW227009   0.702   0.186   3.053 -0.1546  0.6066 -2.2025
 5125SOL     OW27010   0.974   2.027   8.209 -0.5417 -0.3845  0.7805
 5125SOL    HW127011   0.953   1.936   8.229 -3.0219  0.1717  0.7210
 5125SOL    HW227012   1.065   2.016   8.181 -0.8371 -0.0655 -0.3211
 5126SOL     OW27013   2.272   0.803   8.592  0.3912  0.2429 -0.2952
 5126SOL    HW127014   2.304   0.815   8.681 -0.8177 -1.3507  0.3562
 5126SOL    HW227015   2.235   0.886   8.562  3.2951  1.2632 -1.0467
 5127SOL     OW27016   2.131   2.430   6.027 -0.0684 -0.0155  0.5282
 5127SOL    HW127017   2.219   2.414   5.993 -0.0660 -0.1831  0.6160
 5127SOL    HW227018   2.120   2.366   6.097 -2.0442 -2.7648 -2.2812
 5128SOL     OW27019   4.011   2.719  17.279  0.2399  0.7448  1.0442
 5128SOL    HW127020   4.079   2.765  17.230 -0.8643 -0.0504 -1.2293
 5128SOL    HW227021   3.994   2.652  17.213  2.8963  1.5838 -0.4583
 5129SOL     OW27022   0.624   4.308  16.441 -0.0693 -0.1089  0.4803
 5129SOL    HW127023   0.570   4.236  16.406  0.7312 -0.5468  0.1523
 5129SOL    HW227024   0.640   4.362  16.364 -2.6096  0.3760  0.2946
 5130SOL     OW27025   4.249   1.005   3.116  0.2100  0.3563  0.4594
 5130SOL    HW127026   4.180   0.951   3.154 -0.0606 -0.0392 -0.5942
 5130SOL    HW227027   4.194   1.045   3.049 -0.5791 -0.5765  0.5546
 5131SOL     OW27028   1.745   2.477   6.039 -0.3390  0.2675 -0.2008
 5131SOL    HW127029   1.775   2.389   6.018  0.2228  0.2472  0.6977
 5131SOL    HW227030   1.798   2.496   6.116  1.3010  2.7198 -1.9128
 5132SOL     OW27031   4.674   4.599   2.555 -0.2252 -0.2720  0.1733
 5132SOL    HW127032   4.655   4.667   2.619  0.2579 -0.4022  0.4553
 5132SOL    HW227033   4.653   4.522   2.608 -0.4129 -1.6256 -1.8955
 5133SOL     OW27034   2.982   4.670   6.881  0.6742 -0.3292  0.3424
 5133SOL    HW127035   3.010   4.703   6.966  0.5522 -0.1392  0.3087
 5133SOL    HW227036   3.017   4.581   6.880  1.6327  0.0464  0.7435
 5134SOL     OW27037   0.114   2.973   6.835  0.0668  0.3366  0.5238
 5134SOL    HW127038   0.077   2.990   6.748  1.0887 -0.7157 -0.1126
 5134SOL    HW227039   0.145   2.883   6.828 -1.0954  0.0570 -1.1536
 5135SOL     OW27040   4.696   0.390  12.630 -0.0360  0.5649 -0.1433
 5135SOL    HW127041   4.651   0.471  12.655  1.2249  0.8261  1.2965
 5135SOL    HW227042   4.696   0.336  12.709 -1.1835  0.7644 -0.0054
 5136SOL     OW27043   1.850   2.134  11.237  0.1135  0.1518  0.2921
 5136SOL    HW127044   1.814   2.214  11.199 -1.6049 -0.9028 -0.2943
 5136SOL    HW227045   1.898   2.170  11.311  1.5611 -1.0009 -0.0928
 5137SOL     OW27046   2.886   2.070  11.691  0.7483  0.2320 -0.1266
 5137SOL    HW127047   2.871   1.980  11.662 -0.8084  0.3026  0.4948
 5137SOL    HW227048   2.957   2.052  11.752  0.8243  0.5743 -0.1157
 5138SOL     OW27049   1.523   2.427   5.333  0.0037 -0.2842 -0.4410
 5138SOL    HW127050   1.486   2.422   5.421  0.0158 -1.0576 -0.4791
 5138SOL    HW227051   1.551   2.335   5.326 -1.1636 -0.6081 -0.7145
 5139SOL     OW27052   2.783   0.966   3.114  0.5985  0.1603 -0.6340
 5139SOL    HW127053   2.710   0.991   3.171  0.4066 -0.5325 -0.5815
 5139SOL    HW227054   2.742   0.895   3.065 -2.1338  0.9365  0.5636
 5140SOL     OW27055   2.978   1.361  12.429 -0.5659  0.0483  0.0003
 5140SOL    HW127056   3.072   1.375  12.444 -0.5156  1.0533 -1.1967
 5140SOL    HW227057   2.953   1.420  12.500 -2.1827 -2.0618  1.1817
 5141SOL     OW27058   0.071   4.058  17.081 -0.2217  0.5218 -0.1592
 5141SOL    HW127059   4.721   4.033  17.049 -0.1650 -0.4845  0.4478
 5141SOL    HW227060   0.064   4.010  17.164  0.2905 -1.3511 -1.1944
 5142SOL     OW27061   4.606   2.742   4.920  0.2379  0.0261  0.6968
 5142SOL    HW127062   4.578   2.831   4.896 -1.5985 -0.6064  0.4597
 5142SOL    HW227063   4.693   2.730   4.883  0.4290  1.8015  0.5699
 5143SOL     OW27064   3.080   3.494   5.729 -0.0821 -0.2318  0.4206
 5143SOL    HW127065   3.061   3.439   5.652  0.4683  2.6087 -1.7150
 5143SOL    HW227066   3.015   3.462   5.792 -1.3081 -0.3467 -0.9155
 5144SOL     OW27067   0.119   3.464  15.023 -0.4174 -0.2828 -0.7875
 5144SOL    HW127068   0.089   3.427  14.940 -0.4797 -2.1707  0.0695
 5144SOL    HW227069   0.101   3.391  15.082  3.7848 -1.2447 -0.7192
 5145SOL     OW27070   2.944   3.936  15.212  0.0996  0.5974 -0.0987
 5145SOL    HW127071   2.900   3.903  15.290  0.4385  0.1716 -0.0829
 5145SOL    HW227072   3.018   3.875  15.207  0.5097  1.0019  1.0482
 5146SOL     OW27073   1.838   2.358   3.045 -0.1502  0.1565  0.6824
 5146SOL    HW127074   1.767   2.419   3.029  1.1686  1.5847  0.2417
 5146SOL    HW227075   1.839   2.322   2.957 -0.4742 -1.3792  1.3062
 5147SOL     OW27076   1.817   0.368   8.323 -0.4305  0.0485  0.2690
 5147SOL    HW127077   1.804   0.432   8.252 -0.4748  0.1413  0.3611
 5147SOL    HW227078   1.773   0.403   8.401 -0.4638  1.2120 -0.2628
 5148SOL     OW27079   0.989   1.686   7.927 -0.3645 -0.1604 -0.1798
 5148SOL    HW127080   1.065   1.716   7.878 -1.3548 -3.5727 -3.8149
 5148SOL    HW227081   0.921   1.744   7.891 -0.8055 -1.0150 -0.7255
 5149SOL     OW27082   0.328   3.233   2.273 -0.0964 -0.0824  0.1514
 5149SOL    HW127083   0.408   3.284   2.283 -0.4355  0.2582  1.1666
 5149SOL    HW227084   0.285   3.274   2.199  1.5664 -2.4548 -2.1299
 5150SOL     OW27085   2.090   3.279   4.703  0.9345  0.7027  0.6779
 5150SOL    HW127086   2.175   3.234   4.707  0.5332  0.1391  2.9486
 5150SOL    HW227087   2.036   3.203   4.681  2.9054 -0.6646  0.4609
 5151SOL     OW27088   0.830   1.073   7.351  0.1997 -0.3583  0.2181
 5151SOL    HW127089   0.855   1.151   7.400  1.3245 -0.7940  0.3292
 5151SOL    HW227090   0.739   1.092   7.327 -0.3219  0.3962  2.7467
 5152SOL     OW27091   0.778   0.733   7.822  0.5707  0.0269  0.0282
 5152SOL    HW127092   0.763   0.811   7.875 -1.2792 -0.2577 -0.0780
 5152SOL    HW227093   0.783   0.762   7.731  0.5013 -0.9788 -0.2991
 5153SOL     OW27094   1.366   3.900   8.040  0.2635  0.2789 -0.1903
 5153SOL    HW127095   1.272   3.907   8.028 -0.2085 -3.0593  1.5803
 5153SOL    HW227096   1.365   3.846   8.119  1.0342  1.4082  0.5980
 5154SOL     OW27097   0.910   4.720   5.794 -0.2267  0.4504  0.6063
 5154SOL    HW127098   0.840   4.661   5.767 -0.7426  0.2332  2.4212
 5154SOL    HW227099   0.938   0.026   5.713  0.0397  0.4708  0.7076
 5155SOL     OW27100   3.727   4.337   7.389  0.8865  0.1410 -0.2094
 5155SOL    HW127101   3.801   4.281   7.412  0.8356  0.9552  1.9554
 5155SOL    HW227102   3.681   4.354   7.472 -0.2921 -2.4423 -0.3265
 5156SOL     OW27103   4.309   2.147   8.242  0.0379 -0.0379 -0.0143
 5156SOL    HW127104   4.278   2.128   8.154  0.5034  2.0557 -0.6209
 5156SOL    HW227105   4.388   2.095   8.229 -0.8132 -1.1382 -0.7261
 5157SOL     OW27106   0.949   3.108   8.063 -0.1268  0.7355 -0.4390
 5157SOL    HW127107   0.996   3.032   8.099  0.6893  1.4494 -0.0129
 5157SOL    HW227108   0.978   3.189   8.105 -1.0159 -0.0278  1.6479
 5158SOL     OW27109   1.689   1.755  11.893  0.3934  0.9525 -0.7256
 5158SOL    HW127110   1.665   1.833  11.843  0.7922  0.0792 -2.2882
 5158SOL    HW227111   1.743   1.711  11.827  1.3176  0.5289  0.3229
 5159SOL     OW27112   1.376   0.162   4.269  0.1812 -0.2763 -0.1289
 5159SOL    HW127113   1.323   0.199   4.198 -0.6429 -0.5178  0.3568
 5159SOL    HW227114   1.419   0.243   4.295 -0.7417  0.4684 -0.9382
 5160SOL     OW27115   4.399   0.002  11.557 -0.1465  0.5890  0.2257
 5160SOL    HW127116   4.483   0.042  11.580 -0.2183  2.6575 -3.0786
 5160SOL    HW227117   4.380   0.052  11.478 -3.3568  1.6016  1.6709
 5161SOL     OW27118   3.207   1.320  15.861 -0.5337 -0.2527  0.2812
 5161SOL    HW127119   3.258   1.273  15.795  0.7265  1.7275 -0.1522
 5161SOL    HW227120   3.257   1.307  15.942 -0.3906  1.2157  0.4223
 5162SOL     OW27121   2.012   3.710   5.695 -0.2474 -0.3059  0.2905
 5162SOL    HW127122   1.971   3.638   5.646  0.5526  0.6947 -1.8626
 5162SOL    HW227123   2.000   3.686   5.786  0.3106 -0.5271  0.3099
 5163SOL     OW27124   1.251   2.190   7.478  0.2626  0.0610  0.3852
 5163SOL    HW127125   1.269   2.192   7.384  0.7645 -0.6991  0.4607
 5163SOL    HW227126   1.324   2.140   7.514 -1.1349 -1.4199  1.1659
 5164SOL     OW27127   1.390   1.876   9.448  0.0380  0.6092  0.2557
 5164SOL    HW127128   1.429   1.961   9.430  1.8977 -0.4349 -0.6427
 5164SOL    HW227129   1.449   1.854   9.520  0.5128  1.7317  0.2089
 5165SOL     OW27130   2.704   4.041  17.051  0.0353  0.2912 -0.2479
 5165SOL    HW127131   2.699   3.972  17.117  0.5462 -0.2809 -0.8074
 5165SOL    HW227132   2.737   4.117  17.099  2.5792 -2.1790  1.8927
 5166SOL     OW27133   2.837   1.086  16.519  0.0753 -0.2907  0.4005
 5166SOL    HW127134   2.744   1.083  16.496  0.6103 -2.0191 -1.5282
 5166SOL    HW227135   2.840   1.118  16.610  2.5448  0.6866 -0.0308
 5167SOL     OW27136   2.434   0.792   5.379  0.2126 -0.7318  0.5869
 5167SOL    HW127137   2.439   0.887   5.374 -2.4771 -0.5854  1.0596
 5167SOL    HW227138   2.462   0.766   5.467  0.8471  0.8316  0.8515
 5168SOL     OW27139   3.190   2.548   6.376 -0.7503 -0.0321 -0.6215
 5168SOL    HW127140   3.234   2.614   6.321 -0.9433 -0.1811 -0.9551
 5168SOL    HW227141   3.257   2.507   6.431  0.0405 -1.9407 -3.0141
 5169SOL     OW27142   4.647   4.447   9.158  0.1676 -0.4458  0.3629
 5169SOL    HW127143   4.671   4.413   9.073  1.3733  0.4101  0.3612
 5169SOL    HW227144   4.610   4.529   9.126  2.0481 -0.6500 -2.3365
 5170SOL     OW27145   1.670   4.399   4.399 -0.1805  0.3477 -0.7936
 5170SOL    HW127146   1.668   4.304   4.414 -2.4247  0.2975 -1.5050
 5170SOL    HW227147   1.578   4.418   4.385 -0.3134 -1.9086 -2.9642
 5171SOL     OW27148   0.227   3.111  10.369 -0.8502 -0.6248 -0.8874
 5171SOL    HW127149   0.309   3.084  10.326 -0.1389  0.5328 -0.2292
 5171SOL    HW227150   0.206   3.198  10.336 -1.1621 -1.1942 -2.1877
 5172SOL     OW27151   1.992   1.337   2.658 -0.1543 -0.8848  0.0348
 5172SOL    HW127152   1.909   1.323   2.703  0.2950 -0.2142  1.0691
 5172SOL    HW227153   2.055   1.346   2.729 -1.6301  0.6416  1.1679
 5173SOL     OW27154   4.489   3.115   0.969 -0.0121  0.2159  0.4066
 5173SOL    HW127155   4.512   3.120   1.062  0.0893  1.3201  0.3266
 5173SOL    HW227156   4.521   3.202   0.944 -0.7187 -0.5184 -3.1229
 5174SOL     OW27157   1.577   3.957   5.718 -0.1592 -0.6549 -0.2092
 5174SOL    HW127158   1.666   3.968   5.683  0.7266 -0.0330  2.2359
 5174SOL    HW227159   1.597   3.873   5.758  2.6244  0.8575  1.5807
 5175SOL     OW27160   0.501   2.716  16.874  0.0797 -0.8573 -0.4723
 5175SOL    HW127161   0.475   2.723  16.966 -0.1163 -2.2279 -0.4284
 5175SOL    HW227162   0.547   2.633  16.879 -3.2081 -2.4816  2.5033
 5176SOL     OW27163   4.507   2.382  15.130 -0.1942 -0.0437  0.4408
 5176SOL    HW127164   4.537   2.313  15.189 -0.9582 -0.8610 -0.1098
 5176SOL    HW227165   4.413   2.374  15.146 -0.2625 -2.0387 -1.0236
 5177SOL     OW27166   0.918   2.682   9.502 -0.0784  0.4727 -0.7330
 5177SOL    HW127167   0.836   2.726   9.481 -0.6622  0.4987  1.6474
 5177SOL    HW227168   0.884   2.593   9.495 -0.3802  0.4020  1.6063
 5178SOL     OW27169   1.901   4.376   0.816  0.3303 -0.4412  0.2122
 5178SOL    HW127170   1.836   4.361   0.748 -0.4383  2.5311  0.3046
 5178SOL    HW227171   1.964   4.435   0.775 -0.7943  0.9432  0.4802
 5179SOL     OW27172   4.235   2.269   3.903  0.1642  0.0901  0.2887
 5179SOL    HW127173   4.293   2.223   3.963 -0.3392 -1.4677 -0.4063
 5179SOL    HW227174   4.242   2.354   3.945 -1.0263 -0.0416  0.7386
 5180SOL     OW27175   2.905   1.166   3.297 -0.4346 -0.4397 -0.2911
 5180SOL    HW127176   2.995   1.183   3.268 -0.1062 -2.7345 -0.5504
 5180SOL    HW227177   2.862   1.143   3.214 -0.5815  0.8500 -0.5840
 5181SOL     OW27178   4.354   1.481   3.161 -0.2437  0.0177 -0.3205
 5181SOL    HW127179   4.284   1.495   3.097 -1.2269 -0.5713  0.6344
 5181SOL    HW227180   4.343   1.558   3.216  0.6186 -0.3563  0.3685
 5182SOL     OW27181   0.062   2.260  14.866  0.4532 -0.1452 -0.6463
 5182SOL    HW127182   0.152   2.289  14.880 -0.1208  1.0039  0.6764
 5182SOL    HW227183   0.015   2.341  14.888  0.8292 -0.0917 -0.0626
 5183SOL     OW27184   1.593   2.266   6.184 -0.1694 -0.3615  0.3043
 5183SOL    HW127185   1.562   2.279   6.094 -1.2332 -0.2630  0.6762
 5183SOL    HW227186   1.687   2.276   6.177 -0.2939  1.9423  1.5748
 5184SOL     OW27187   3.132   1.345   1.985 -0.5172  0.3694  0.1321
 5184SOL    HW127188   3.161   1.256   1.968  0.4809  0.8406 -0.6049
 5184SOL    HW227189   3.059   1.333   2.046  0.8131 -0.3009  1.5895
 5185SOL     OW27190   0.694   3.426  14.460 -0.4066  0.0463  0.4839
 5185SOL    HW127191   0.642   3.419  14.380  1.0355 -0.5302 -0.4086
 5185SOL    HW227192   0.646   3.356  14.504 -1.9781  0.8057 -0.0357
 5186SOL     OW27193   2.973   4.629  13.720 -0.8370  0.9775 -0.2318
 5186SOL    HW127194   2.878   4.618  13.723 -0.4299 -2.1027  1.5034
 5186SOL    HW227195   2.982   4.704  13.779  3.7277  0.2922 -0.0484
 5187SOL     OW27196   0.280   2.389   4.215 -0.2073  0.0414  0.4859
 5187SOL    HW127197   0.355   2.377   4.157 -1.7167 -3.2712 -0.7776
 5187SOL    HW227198   0.306   2.451   4.282 -0.2449  0.7634 -0.1605
 5188SOL     OW27199   0.247   1.771   4.622 -0.2101  0.6085  0.4850
 5188SOL    HW127200   0.311   1.837   4.594 -0.4942  1.0053  0.7774
 5188SOL    HW227201   0.207   1.732   4.544 -2.6303  2.2980  0.8874
 5189SOL     OW27202   2.007   3.700   3.897  0.6175  0.6212 -0.5502
 5189SOL    HW127203   2.065   3.628   3.922  0.1505 -0.3811 -2.3367
 5189SOL    HW227204   2.027   3.697   3.803  0.9020 -0.7660 -0.4540
 5190SOL     OW27205   0.108   0.572  17.072 -0.1331  0.6757  0.1783
 5190SOL    HW127206   0.099   0.595  17.164 -0.8345  0.5947  0.1227
 5190SOL    HW227207   0.019   0.579  17.037  0.0538 -0.6708 -0.5918
 5191SOL     OW27208   1.819   4.298   2.761 -0.2316  0.1803 -0.4014
 5191SOL    HW127209   1.855   4.241   2.693 -0.4610 -0.7885  0.2910
 5191SOL    HW227210   1.843   4.256   2.844  1.8498  0.2457 -0.9897
 5192SOL     OW27211   4.156   0.908   1.207  0.0691  0.1191 -0.0876
 5192SOL    HW127212   4.143   0.837   1.144 -1.0977  3.0093 -3.1211
 5192SOL    HW227213   4.243   0.891   1.245 -0.6464 -2.7273  0.2491
 5193SOL     OW27214   1.370   0.972  16.430 -0.2033  0.5382  0.3172
 5193SOL    HW127215   1.287   0.973  16.479 -1.6713  0.8906 -2.1905
 5193SOL    HW227216   1.371   0.880  16.406 -0.8379  1.5612 -3.7174
 5194SOL     OW27217   2.503   0.257   6.181 -0.1786  0.1523 -0.7294
 5194SOL    HW127218   2.593   0.271   6.211 -0.7274  1.3443  0.3024
 5194SOL    HW227219   2.458   0.275   6.263  1.9520 -1.0326  0.7283
 5195SOL     OW27220   2.862   1.399   7.557 -0.1820 -0.4743 -0.0878
 5195SOL    HW127221   2.867   1.479   7.505 -3.4456 -0.9691 -1.1792
 5195SOL    HW227222   2.817   1.348   7.490 -0.3209  0.0488 -0.3910
 5196SOL     OW27223   3.723   2.499   3.685 -0.0986 -0.0974  0.0132
 5196SOL    HW127224   3.696   2.583   3.648  1.0627 -0.3926 -1.4833
 5196SOL    HW227225   3.640   2.476   3.726 -0.3025 -3.2639 -2.1885
 5197SOL     OW27226   3.797   3.402   4.807  0.2965 -0.4498  0.0802
 5197SOL    HW127227   3.806   3.433   4.897  0.0229 -1.7000  0.5365
 5197SOL    HW227228   3.712   3.435   4.778 -0.4114 -1.8651  0.5569
 5198SOL     OW27229   3.172   2.332   9.502 -0.0788  0.0640  0.2756
 5198SOL    HW127230   3.180   2.236   9.499 -1.2671 -0.0191 -0.2599
 5198SOL    HW227231   3.100   2.364   9.448  0.3064 -1.1129 -0.9381
 5199SOL     OW27232   3.893   1.146   2.616 -0.1547  0.2571 -0.4200
 5199SOL    HW127233   3.986   1.130   2.602  0.5262  3.5132  0.3054
 5199SOL    HW227234   3.863   1.055   2.619 -0.8890  0.5252  0.3992
 5200SOL     OW27235   4.320   1.816   5.746  0.1509 -0.0159 -0.2253
 5200SOL    HW127236   4.380   1.752   5.785  1.1916  1.4527  0.6211
 5200SOL    HW227237   4.266   1.754   5.697  0.2582 -0.6134  0.4076
 5201SOL     OW27238   4.157   2.021  15.343  0.2794  0.2745  0.5064
 5201SOL    HW127239   4.218   1.956  15.379  0.0176 -0.3180 -0.1378
 5201SOL    HW227240   4.168   2.088  15.410 -1.8311  0.4041  0.7235
 5202SOL     OW27241   1.701   1.093   7.365 -0.3479  0.2933  0.3584
 5202SOL    HW127242   1.737   1.117   7.450 -0.9848 -0.3823  0.8179
 5202SOL    HW227243   1.736   1.004   7.371  1.0237  0.9615  2.3901
 5203SOL     OW27244   0.278   0.151   7.303 -0.1448 -0.0320  0.1620
 5203SOL    HW127245   0.365   0.144   7.263 -0.6743 -1.1055 -0.7806
 5203SOL    HW227246   0.298   0.116   7.390 -0.8996 -1.0208 -0.0639
 5204SOL     OW27247   1.180   0.709   6.582  0.1921  0.2048 -0.2599
 5204SOL    HW127248   1.234   0.765   6.637 -1.2883  0.0185  1.3686
 5204SOL    HW227249   1.094   0.728   6.620 -0.2281 -1.3402 -0.4246
 5205SOL     OW27250   3.281   2.429   8.106 -0.1284  0.1107 -0.7925
 5205SOL    HW127251   3.224   2.352   8.114 -0.5979  0.5907  0.4609
 5205SOL    HW227252   3.286   2.444   8.011  0.1494  1.0998 -0.6159
 5206SOL     OW27253   2.736   4.454   2.388  0.7140  0.0235  0.2033
 5206SOL    HW127254   2.794   4.379   2.382  1.8050  0.9447 -0.7372
 5206SOL    HW227255   2.688   4.433   2.468 -1.7151  1.8333 -0.7483
 5207SOL     OW27256   1.513   3.555  12.331 -0.1273 -0.1267  0.0419
 5207SOL    HW127257   1.418   3.546  12.329 -0.2673  1.5603 -0.8228
 5207SOL    HW227258   1.509   3.613  12.406 -1.5249 -1.0170  0.6609
 5208SOL     OW27259   0.930   4.075   4.760  0.0202 -0.1645 -0.3134
 5208SOL    HW127260   0.940   4.005   4.696  0.0360 -1.2751  0.9117
 5208SOL    HW227261   0.901   4.026   4.837 -0.0977  0.7517  0.2197
 5209SOL     OW27262   1.824   1.213   8.508 -0.3089  0.0216  0.3341
 5209SOL    HW127263   1.887   1.146   8.537  1.9452  1.6659 -0.7852
 5209SOL    HW227264   1.737   1.183   8.536 -0.2761 -2.6126 -2.4032
 5210SOL     OW27265   2.386   0.848   8.834 -0.3694 -0.8959  0.3449
 5210SOL    HW127266   2.342   0.841   8.918 -0.4750  0.4174  0.3843
 5210SOL    HW227267   2.465   0.900   8.852  0.4974 -1.9231 -0.4388
 5211SOL     OW27268   3.831   3.475   7.176 -0.4528  0.2006 -0.2313
 5211SOL    HW127269   3.925   3.461   7.187 -0.4170  0.3950 -0.2990
 5211SOL    HW227270   3.824   3.422   7.097 -1.9824 -0.0172  0.0466
 5212SOL     OW27271   3.182   2.641   3.950  0.2247  0.1201 -0.1112
 5212SOL    HW127272   3.221   2.693   4.019 -1.6227 -0.5883  1.4700
 5212SOL    HW227273   3.099   2.684   3.929  0.1482 -0.0913 -0.2441
 5213SOL     OW27274   3.915   3.969   3.098  0.1185  0.2868 -0.1437
 5213SOL    HW127275   3.956   3.894   3.055 -1.4048  0.7359 -2.4053
 5213SOL    HW227276   3.932   4.033   3.029  1.0926 -0.0464 -0.2153
 5214SOL     OW27277   3.955   0.258  15.084  0.4585 -0.3084  0.1326
 5214SOL    HW127278   3.994   0.335  15.123 -1.1232 -0.0004  1.1022
 5214SOL    HW227279   4.033   0.212  15.051  0.9741  0.2242  0.6202
 5215SOL     OW27280   3.120   4.445   6.875  0.0854  0.6651  0.4359
 5215SOL    HW127281   3.173   4.403   6.943 -1.6462 -0.8406  0.8692
 5215SOL    HW227282   3.049   4.380   6.873  0.0075  0.7757 -0.5034
 5216SOL     OW27283   0.433   1.588   4.787  0.3113 -0.2406  0.1704
 5216SOL    HW127284   0.342   1.590   4.756 -0.5078  2.3348  2.7623
 5216SOL    HW227285   0.480   1.650   4.732  0.7071 -1.8193 -1.2912
 5217SOL     OW27286   0.205   0.603   6.901 -0.2020  0.2467 -0.3556
 5217SOL    HW127287   0.248   0.594   6.816  1.9603  1.8488  0.5721
 5217SOL    HW227288   0.285   0.602   6.954 -0.6457 -1.2490  0.2965
 5218SOL     OW27289   1.152   1.188   1.332  0.1587  0.3011 -0.2715
 5218SOL    HW127290   1.195   1.264   1.294  3.3115 -1.4876 -0.2467
 5218SOL    HW227291   1.210   1.113   1.321  0.6118  0.8207 -1.3531
 5219SOL     OW27292   2.595   0.599   8.012  0.1061 -0.4851  0.2427
 5219SOL    HW127293   2.645   0.518   8.023 -0.8467 -0.9683  0.9637
 5219SOL    HW227294   2.633   0.656   8.079 -1.9069 -0.5462  1.4179
 5220SOL     OW27295   3.373   0.606   2.739  0.3615 -0.0022 -0.1654
 5220SOL    HW127296   3.355   0.514   2.758 -1.0361 -0.4677 -3.7083
 5220SOL    HW227297   3.441   0.598   2.672 -0.0766 -1.7611 -0.3981
 5221SOL     OW27298   2.248   3.373  13.366  0.2445  0.2599 -0.1828
 5221SOL    HW127299   2.241   3.440  13.434 -0.8251  0.0057 -0.0474
 5221SOL    HW227300   2.272   3.420  13.286 -0.4513  0.3273 -0.3548
 5222SOL     OW27301   3.964   4.328   8.193  0.3157 -0.4794 -0.2798
 5222SOL    HW127302   4.004   4.362   8.113 -0.8956 -0.7283 -0.9866
 5222SOL    HW227303   3.873   4.352   8.177  1.4374  2.7593 -1.7154
 5223SOL     OW27304   0.505   2.644   3.455  0.3644 -0.5612 -0.4654
 5223SOL    HW127305   0.498   2.724   3.403 -1.9988 -0.8552 -0.5741
 5223SOL    HW227306   0.585   2.659   3.506  0.4046  1.4847 -1.1435
 5224SOL     OW27307   0.316   3.163   6.669 -0.4089  0.0276 -0.4858
 5224SOL    HW127308   0.261   3.234   6.634 -0.8098  0.7694  1.6555
 5224SOL    HW227309   0.277   3.081   6.639  1.2135 -1.2222  0.8586
 5225SOL     OW27310   2.842   1.509  11.643 -0.9143 -0.3478 -0.3580
 5225SOL    HW127311   2.864   1.437  11.701  1.2322 -0.3341 -1.1264
 5225SOL    HW227312   2.777   1.462  11.591 -0.0513  0.6816 -2.3878
 5226SOL     OW27313   1.963   4.190  12.633 -0.1243  0.0277 -0.6969
 5226SOL    HW127314   2.043   4.235  12.660 -0.5074  1.3982 -1.8447
 5226SOL    HW227315   1.995   4.121  12.575  0.0251  0.1968 -0.8176
 5227SOL     OW27316   1.152   4.342   1.868  0.6133  0.1296 -0.0634
 5227SOL    HW127317   1.211   4.267   1.883 -1.6213 -1.5965  0.0687
 5227SOL    HW227318   1.091   4.324   1.939 -0.0739 -1.1676 -0.9647
 5228SOL     OW27319   3.060   1.321   8.887 -0.1061 -0.4019  0.3005
 5228SOL    HW127320   3.062   1.319   8.791 -2.1955 -0.7158  0.2644
 5228SOL    HW227321   2.977   1.367   8.897  1.1027  1.9146 -0.4278
 5229SOL     OW27322   2.557   1.911  16.386  0.2266  0.3564 -0.6223
 5229SOL    HW127323   2.490   1.978  16.401 -0.0597 -0.1167  0.1862
 5229SOL    HW227324   2.607   1.941  16.310  1.6382 -1.3800 -0.3708
 5230SOL     OW27325   1.959   1.047   1.527 -0.1120 -0.0467  0.2916
 5230SOL    HW127326   1.998   0.983   1.467  1.6451 -0.1341  1.5029
 5230SOL    HW227327   2.020   1.039   1.600  0.8905  0.5633 -0.4696
 5231SOL     OW27328   4.284   0.441   7.232  0.1135  0.9149 -0.0972
 5231SOL    HW127329   4.190   0.461   7.239 -0.3123 -0.6073 -1.4125
 5231SOL    HW227330   4.308   0.480   7.148  0.3220 -1.1556 -0.9815
 5232SOL     OW27331   0.366   1.201   2.976 -0.3611 -0.2282 -0.3970
 5232SOL    HW127332   0.367   1.174   3.068 -2.1521 -2.9444 -1.1820
 5232SOL    HW227333   0.395   1.126   2.925 -0.5321 -1.6443  1.5908
 5233SOL     OW27334   4.224   1.973   9.632 -0.2335  0.3174 -0.1658
 5233SOL    HW127335   4.232   1.896   9.689  0.6639  0.4724 -0.0878
 5233SOL    HW227336   4.302   1.950   9.581 -0.2949 -3.3434  1.3805
 5234SOL     OW27337   4.096   1.347   5.768  0.1439 -0.8890 -0.2335
 5234SOL    HW127338   4.105   1.346   5.673  1.3569 -0.0424 -0.1230
 5234SOL    HW227339   4.175   1.297   5.791  0.5350 -1.3589 -2.6384
 5235SOL     OW27340   0.437   1.310   7.317 -0.3421  0.6845  0.1222
 5235SOL    HW127341   0.475   1.222   7.326 -0.7938  0.4515 -0.2483
 5235SOL    HW227342   0.409   1.314   7.226 -1.9883  0.2078  0.6034
 5236SOL     OW27343   3.132   0.084  10.017 -0.0412 -0.6188  0.0168
 5236SOL    HW127344   3.129   0.168   9.971 -0.2734 -0.6515 -0.0262
 5236SOL    HW227345   3.201   0.040   9.967 -2.1095 -1.7948 -1.7788
 5237SOL     OW27346   1.030   3.945  10.982 -0.4000  0.0235  0.3134
 5237SOL    HW127347   0.954   3.931  10.926  1.4479 -1.7838 -1.7706
 5237SOL    HW227348   1.077   4.015  10.937 -0.6280  0.5565  0.9104
 5238SOL     OW27349   3.906   0.488   1.025  0.1555  0.0969  0.2765
 5238SOL    HW127350   3.854   0.483   0.944 -3.0122  3.7295  2.0771
 5238SOL    HW227351   3.965   0.555   0.990  0.0785 -1.0734 -2.1514
 5239SOL     OW27352   1.445   4.138   3.837  0.2685 -0.4270 -0.3192
 5239SOL    HW127353   1.519   4.130   3.778 -1.0251 -1.6143 -1.7735
 5239SOL    HW227354   1.399   4.214   3.802 -1.1796 -1.6857 -1.1623
 5240SOL     OW27355   4.347   4.037   3.976 -0.8318 -0.0441  0.0772
 5240SOL    HW127356   4.303   3.983   3.910  1.1418  0.2258 -1.4574
 5240SOL    HW227357   4.413   4.083   3.925 -1.0065 -0.9950 -1.0208
 5241SOL     OW27358   3.026   2.553   2.362 -0.3067  0.2780 -0.5652
 5241SOL    HW127359   2.956   2.580   2.421 -0.2979 -0.5517 -0.1824
 5241SOL    HW227360   3.073   2.493   2.419 -1.0402 -1.1029 -1.4372
 5242SOL     OW27361   3.574   0.898   3.234  0.2661  0.7703 -0.0868
 5242SOL    HW127362   3.514   0.829   3.205  0.5182  1.0078 -1.1754
 5242SOL    HW227363   3.518   0.957   3.283  0.7179 -0.0712  1.4292
 5243SOL     OW27364   4.624   4.069   1.575  0.6413 -0.2115 -0.4281
 5243SOL    HW127365   4.573   4.039   1.650  0.2097 -0.8093 -0.9561
 5243SOL    HW227366   4.695   4.116   1.617  0.9752 -0.6612 -0.4923
 5244SOL     OW27367   1.735   0.937   5.707  0.4859  0.6245  0.2982
 5244SOL    HW127368   1.809   0.977   5.753  0.5848  1.0816 -0.2598
 5244SOL    HW227369   1.751   0.962   5.616 -0.0673  0.4995  0.1638
 5245SOL     OW27370   1.811   2.717   0.437  0.3633  0.1921 -0.7142
 5245SOL    HW127371   1.902   2.747   0.440 -0.5039  2.8045 -1.2258
 5245SOL    HW227372   1.769   2.784   0.490  0.8722  1.4012 -1.8530
 5246SOL     OW27373   2.367   3.756   2.743 -0.5300  0.5802 -0.0528
 5246SOL    HW127374   2.303   3.726   2.679 -0.2299 -0.8931  0.3425
 5246SOL    HW227375   2.428   3.682   2.736 -1.8845 -0.6193  0.8571
 5247SOL     OW27376   1.449   0.596   3.630 -0.0141  0.3958  0.2169
 5247SOL    HW127377   1.495   0.600   3.714 -1.7821  0.1826  1.1955
 5247SOL    HW227378   1.515   0.637   3.574 -1.5004  0.8811 -1.1876
 5248SOL     OW27379   3.065   4.474   3.634 -0.0029  0.0939  0.4938
 5248SOL    HW127380   3.029   4.396   3.593  1.3288  0.0864 -0.6515
 5248SOL    HW227381   3.056   4.536   3.562  0.9926 -0.6244 -0.2602
 5249SOL     OW27382   1.342   1.565   2.320 -0.6144  0.3994 -0.0506
 5249SOL    HW127383   1.290   1.604   2.249  1.6494 -0.2035 -2.0341
 5249SOL    HW227384   1.332   1.639   2.381  0.0302 -0.1211  0.6825
 5250SOL     OW27385   1.467   1.735  10.032 -0.1084  0.3391  0.2518
 5250SOL    HW127386   1.434   1.824  10.040  3.1123  1.6025 -0.5982
 5250SOL    HW227387   1.490   1.707  10.121 -1.8921 -0.4974  0.4534
 5251SOL     OW27388   2.689   1.487  10.345 -0.3746  1.0567  0.0447
 5251SOL    HW127389   2.784   1.503  10.344 -0.3306  0.8033  0.2831
 5251SOL    HW227390   2.698   1.392  10.341  0.9297  1.2073 -0.6320
 5252SOL     OW27391   1.608   3.711   2.931  0.0743 -0.4452 -0.0937
 5252SOL    HW127392   1.685   3.754   2.893  1.1564 -0.6848  1.8249
 5252SOL    HW227393   1.558   3.788   2.957  0.4532 -0.8294  1.7713
 5253SOL     OW27394   2.316   1.537   6.348 -0.1504 -0.1023 -0.3916
 5253SOL    HW127395   2.378   1.464   6.354  1.2679  1.3106  2.1520
 5253SOL    HW227396   2.231   1.493   6.342 -0.4125  0.5469 -1.4349
 5254SOL     OW27397   3.277   3.077   2.075 -0.4896 -0.4051 -0.3241
 5254SOL    HW127398   3.188   3.050   2.096 -1.1782  3.1990  1.4409
 5254SOL    HW227399   3.313   2.999   2.033 -2.1636 -1.7412  0.7406
 5255SOL     OW27400   3.251   1.582   3.422 -0.1892 -0.3529 -0.3033
 5255SOL    HW127401   3.328   1.596   3.477 -1.8234  2.8198  1.1841
 5255SOL    HW227402   3.275   1.499   3.381 -2.1037 -1.1397  0.1797
 5256SOL     OW27403   4.552   3.641   9.320 -0.0085  0.2451  0.5491
 5256SOL    HW127404   4.606   3.710   9.358  0.2411 -0.5419  1.6254
 5256SOL    HW227405   4.611   3.567   9.338 -1.7257 -1.4048 -0.7057
 5257SOL     OW27406   3.512   0.979   5.913  0.3898 -0.2616 -0.4073
 5257SOL    HW127407   3.588   1.006   5.965  0.1079  1.3771 -0.8370
 5257SOL    HW227408   3.455   1.055   5.931  0.1859 -0.1901 -1.3641
 5258SOL     OW27409   4.481   1.880   0.322  0.1859  0.3421 -0.1441
 5258SOL    HW127410   4.402   1.900   0.271  0.8869 -1.2315 -1.8548
 5258SOL    HW227411   4.547   1.904   0.257  2.8779 -0.1840  2.4127
 5259SOL     OW27412   4.241   1.471   4.472 -0.2854  0.2996 -0.5269
 5259SOL    HW127413   4.313   1.474   4.410  0.4565  0.8078  0.3523
 5259SOL    HW227414   4.164   1.465   4.415 -0.8035 -0.0668  0.2136
 5260SOL     OW27415   1.817   0.819   5.425  0.0331 -0.1981 -0.4417
 5260SOL    HW127416   1.902   0.857   5.445 -0.3352 -1.2246  2.9955
 5260SOL    HW227417   1.834   0.725   5.419 -0.2484 -0.3395  1.0272
 5261SOL     OW27418   0.259   1.215   8.846 -0.1708 -0.2917 -0.7840
 5261SOL    HW127419   0.249   1.130   8.804 -1.0158  0.3620 -1.8994
 5261SOL    HW227420   0.355   1.217   8.841 -0.2052  0.4532 -1.2845
 5262SOL     OW27421   4.557   0.229   2.533 -0.2214 -0.6560  0.3161
 5262SOL    HW127422   4.477   0.216   2.585 -1.0913  0.8481 -0.6429
 5262SOL    HW227423   4.559   0.140   2.497  4.4751 -0.0376 -0.9698
 5263SOL     OW27424   1.214   2.470   2.670 -0.3544 -0.2340  0.4355
 5263SOL    HW127425   1.120   2.461   2.687 -0.4922  0.8431  0.1931
 5263SOL    HW227426   1.220   2.565   2.679 -1.5097  0.1361 -2.7277
 5264SOL     OW27427   1.864   1.265   0.434  0.6898 -0.4028  0.1652
 5264SOL    HW127428   1.928   1.294   0.499 -0.2398  0.0341  0.8731
 5264SOL    HW227429   1.887   1.172   0.426 -0.6187 -0.5901 -1.3242
 5265SOL     OW27430   3.468   0.942   8.843  0.2208 -0.3595  0.0415
 5265SOL    HW127431   3.449   1.029   8.878 -2.0915 -1.6066  1.9069
 5265SOL    HW227432   3.502   0.953   8.754 -0.7848 -0.0256 -0.3013
 5266SOL     OW27433   4.189   3.749  12.219 -0.0514 -0.4943  0.1589
 5266SOL    HW127434   4.209   3.656  12.207  0.7824 -0.1239 -1.2727
 5266SOL    HW227435   4.110   3.765  12.167 -0.8403 -2.1112  0.8338
 5267SOL     OW27436   0.462   2.694  17.740  0.3299 -0.2691  0.2800
 5267SOL    HW127437   0.525   2.745  17.689  0.3566  0.5214  1.0985
 5267SOL    HW227438   0.403   2.762   0.025  0.1235 -0.4947  0.3810
 5268SOL     OW27439   3.142   4.168  10.277 -0.1415 -0.1707 -0.4793
 5268SOL    HW127440   3.233   4.139  10.287  0.5201  1.8044 -0.7087
 5268SOL    HW227441   3.143   4.252  10.322 -1.2980  0.5815 -1.8471
 5269SOL     OW27442   1.998   4.663   3.745 -0.2078  0.0357 -0.0361
 5269SOL    HW127443   2.054   4.673   3.822 -0.1658 -2.8295  0.2961
 5269SOL    HW227444   1.977   0.019   3.739  0.4697  0.2327  0.6040
 5270SOL     OW27445   1.765   2.924  12.375  0.6388 -0.5413  0.1912
 5270SOL    HW127446   1.850   2.906  12.335  1.9528 -0.3042  2.9532
 5270SOL    HW227447   1.726   2.980  12.307 -1.0469  0.8990  2.3577
 5271SOL     OW27448   1.611   1.310   5.954 -0.4567  0.4230 -0.0198
 5271SOL    HW127449   1.518   1.288   5.963  0.1968 -1.1537  2.5484
 5271SOL    HW227450   1.647   1.229   5.989  0.9286  0.1147 -2.1271
 5272SOL     OW27451   0.417   0.841   8.431 -0.9082 -0.2573 -0.4347
 5272SOL    HW127452   0.415   0.894   8.351 -0.9365  1.5716  0.7875
 5272SOL    HW227453   0.501   0.861   8.471 -1.4184  2.6505 -0.7854
 5273SOL     OW27454   3.007   2.330   7.819 -0.0737  0.3192  0.8417
 5273SOL    HW127455   3.033   2.421   7.836 -2.3253  1.2561 -0.6286
 5273SOL    HW227456   3.088   2.287   7.793 -1.0603 -1.3099  0.4726
 5274SOL     OW27457   4.084   3.284   3.402  0.6695 -0.0017  0.3416
 5274SOL    HW127458   4.130   3.300   3.485 -1.1762 -1.4315  1.6337
 5274SOL    HW227459   3.995   3.282   3.437  0.0697  1.0419 -1.1246
 5275SOL     OW27460   4.598   0.969   5.442  0.1700 -0.0719  0.1719
 5275SOL    HW127461   4.534   1.022   5.394  0.6958 -0.8126 -1.3345
 5275SOL    HW227462   4.676   1.020   5.421  0.8072 -0.3621  1.8923
 5276SOL     OW27463   0.372   1.651   8.454  0.4861 -0.0363 -0.3051
 5276SOL    HW127464   0.384   1.692   8.540 -0.9078 -2.6539  1.1510
 5276SOL    HW227465   0.383   1.729   8.400 -3.2255 -0.1309 -1.2031
 5277SOL     OW27466   2.412   3.876   5.024  0.1660 -0.5926  0.4066
 5277SOL    HW127467   2.339   3.824   5.059  0.4793 -1.3492 -0.0675
 5277SOL    HW227468   2.435   3.831   4.942 -0.3402  0.7374 -0.4619
 5278SOL     OW27469   3.499   1.545   7.841  0.3945 -0.3147  0.3454
 5278SOL    HW127470   3.497   1.640   7.846  2.1200 -0.3876  2.1984
 5278SOL    HW227471   3.518   1.525   7.933 -0.1052  1.0587  0.7381
 5279SOL     OW27472   1.403   2.943   8.093  0.3607 -0.4857 -0.1182
 5279SOL    HW127473   1.409   3.038   8.104  0.1045 -0.4802 -0.0244
 5279SOL    HW227474   1.325   2.923   8.146  0.2035 -0.1432 -0.2184
 5280SOL     OW27475   2.454   4.075   6.940 -0.0478  0.1176  0.0659
 5280SOL    HW127476   2.538   4.120   6.954  0.5205 -0.2057 -2.3173
 5280SOL    HW227477   2.474   3.985   6.914 -0.4487  0.2901 -0.8303
 5281SOL     OW27478   4.426   0.168   4.459  0.1045 -0.8595 -0.7286
 5281SOL    HW127479   4.474   0.251   4.467 -0.1149 -0.8153  0.1151
 5281SOL    HW227480   4.479   0.110   4.513  0.0555 -0.4973 -0.2962
 5282SOL     OW27481   0.857   3.196   3.786 -0.2010 -0.1246 -0.1331
 5282SOL    HW127482   0.906   3.272   3.755 -1.2443  0.9847  0.9388
 5282SOL    HW227483   0.874   3.131   3.719 -0.4813 -1.7892  1.4039
 5283SOL     OW27484   0.985   3.648  17.638  0.0408 -0.1378  0.5355
 5283SOL    HW127485   0.927   3.574  17.654 -0.8876  0.6688  0.8489
 5283SOL    HW227486   1.063   3.614  17.683  0.7649  1.4611  0.4881
 5284SOL     OW27487   4.295   4.032  15.571 -0.7174 -0.0321  0.2829
 5284SOL    HW127488   4.374   4.031  15.518  0.0645  0.7650  1.4192
 5284SOL    HW227489   4.218   4.044  15.515 -0.2322 -0.3921 -0.4473
 5285SOL     OW27490   1.889   2.946  17.224  0.0104  0.4256 -0.3217
 5285SOL    HW127491   1.906   2.859  17.258 -1.0317  1.8417  3.8146
 5285SOL    HW227492   1.908   2.995  17.304 -0.8577  1.6805 -0.8764
 5286SOL     OW27493   3.962   1.169  10.537  0.3416 -0.0858  0.2068
 5286SOL    HW127494   3.919   1.245  10.498  0.1150 -0.6008 -0.5318
 5286SOL    HW227495   4.051   1.200  10.517  0.4951 -0.6024  0.0967
 5287SOL     OW27496   2.852   2.692   5.604  0.4180 -0.3851 -0.0176
 5287SOL    HW127497   2.882   2.773   5.646 -1.9071 -0.2146  1.3217
 5287SOL    HW227498   2.921   2.667   5.543  0.0867 -1.1481 -0.0806
 5288SOL     OW27499   1.268   3.094   3.632  0.0341  0.3965 -0.3598
 5288SOL    HW127500   1.347   3.085   3.684 -1.1745  0.2646  1.4621
 5288SOL    HW227501   1.283   3.021   3.572 -0.1376 -0.1597  0.2694
 5289SOL     OW27502   1.583   4.097   4.863 -0.3192 -0.1037 -0.4219
 5289SOL    HW127503   1.579   4.039   4.787 -1.3688  0.4145 -0.7738
 5289SOL    HW227504   1.521   4.065   4.928 -3.8755  1.4822 -3.0006
 5290SOL     OW27505   1.993   3.906   3.162 -0.0994  0.4317  0.2937
 5290SOL    HW127506   1.921   3.844   3.147  1.3260 -1.0620 -0.3786
 5290SOL    HW227507   2.044   3.890   3.083 -2.3662 -2.1413 -0.6564
 5291SOL     OW27508   2.018   4.435  13.719 -0.5291 -0.1863 -0.0995
 5291SOL    HW127509   1.974   4.380  13.654 -1.0014  0.7767 -0.6072
 5291SOL    HW227510   1.969   4.517  13.723  1.5926  0.9472  2.2932
 5292SOL     OW27511   3.251   3.136   5.434 -0.6890  0.0554  0.2818
 5292SOL    HW127512   3.331   3.113   5.482  0.6349  2.4744 -0.7398
 5292SOL    HW227513   3.287   3.121   5.346  1.1799  1.7360  0.7659
 5293SOL     OW27514   3.597   2.080   9.083 -0.0185 -0.3356 -0.1461
 5293SOL    HW127515   3.588   2.172   9.106  0.4341 -0.8698  2.2310
 5293SOL    HW227516   3.575   2.036   9.165  0.0199 -1.5831 -0.7974
 5294SOL     OW27517   4.374   0.380   3.166 -0.0346 -0.1804  0.0170
 5294SOL    HW127518   4.405   0.466   3.196 -0.3040 -0.9735  2.5472
 5294SOL    HW227519   4.399   0.337   3.248  0.6070 -2.4254 -1.3646
 5295SOL     OW27520   4.231   4.713   5.530 -0.2920  0.2068 -0.1974
 5295SOL    HW127521   4.248   0.064   5.563  0.1044 -0.4162  1.2552
 5295SOL    HW227522   4.139   4.721   5.504 -1.0598  0.9079  2.7212
 5296SOL     OW27523   1.091   0.417  10.496 -0.0054 -0.4092  0.6015
 5296SOL    HW127524   1.160   0.366  10.453  0.4449  1.0543 -0.4122
 5296SOL    HW227525   1.058   0.454  10.415 -0.2978 -4.4299 -1.1031
 5297SOL     OW27526   1.963   0.201   2.115  0.2235  0.1847  0.3260
 5297SOL    HW127527   1.946   0.258   2.040 -3.2795 -1.1020  0.1435
 5297SOL    HW227528   2.041   0.234   2.160 -0.1169  0.9472  0.3637
 5298SOL     OW27529   1.368   2.949  11.306 -0.0601  0.2393 -0.6738
 5298SOL    HW127530   1.303   2.911  11.365  3.4482  0.1544  3.1141
 5298SOL    HW227531   1.312   2.987  11.239  0.4552  0.6353 -0.8813
 5299SOL     OW27532   4.438   3.051   2.916 -0.4204  0.3386  0.2913
 5299SOL    HW127533   4.533   3.054   2.923 -0.3055 -2.4378 -0.1302
 5299SOL    HW227534   4.432   3.010   2.830  2.2486 -0.1938  0.3617
 5300SOL     OW27535   3.794   1.292   8.238 -0.2260 -0.0988  0.4398
 5300SOL    HW127536   3.702   1.284   8.262 -0.4811 -0.1493 -0.5582
 5300SOL    HW227537   3.788   1.377   8.195 -1.2612 -2.1592 -3.4379
 5301SOL     OW27538   2.277   1.350   1.320 -0.1735 -0.0331  0.2273
 5301SOL    HW127539   2.232   1.434   1.309 -1.1493 -0.4877  0.7114
 5301SOL    HW227540   2.350   1.376   1.377  0.1337  0.8067 -0.5685
 5302SOL     OW27541   1.769   0.225   2.456 -0.3556 -0.1901  0.2852
 5302SOL    HW127542   1.835   0.167   2.419 -0.5320 -0.4381  0.3609
 5302SOL    HW227543   1.700   0.163   2.480  0.5927 -1.0490  0.7872
 5303SOL     OW27544   1.015   0.112   4.896  0.1196 -0.7508 -0.4171
 5303SOL    HW127545   1.083   0.176   4.874  0.1070 -0.5644  0.0884
 5303SOL    HW227546   0.957   0.167   4.948  0.9991 -1.2023  1.0324
 5304SOL     OW27547   0.824   0.609   6.142  0.1189 -0.5369  0.4065
 5304SOL    HW127548   0.730   0.619   6.130 -0.1242 -1.1485  1.7363
 5304SOL    HW227549   0.828   0.605   6.238  3.3279 -0.6382  0.2818
 5305SOL     OW27550   2.862   0.504  10.837  0.0847  0.1249  0.1916
 5305SOL    HW127551   2.850   0.433  10.774  0.1515 -1.0208  1.5027
 5305SOL    HW227552   2.859   0.469  10.925  0.9563  2.2608  1.0731
 5306SOL     OW27553   1.716   0.976   6.924  0.1129  0.6444  0.3871
 5306SOL    HW127554   1.752   1.051   6.878 -1.7119  1.4965  0.3480
 5306SOL    HW227555   1.625   1.002   6.911  0.2583  1.5546  1.1626
 5307SOL     OW27556   0.449   4.097  10.349 -0.0819  0.3864  0.5883
 5307SOL    HW127557   0.477   4.147  10.273  0.2086  0.6374  0.8598
 5307SOL    HW227558   0.523   4.114  10.407  1.7083 -0.0761 -1.5794
 5308SOL     OW27559   4.428   0.173   5.251  0.0054  0.1045  0.1024
 5308SOL    HW127560   4.416   0.264   5.281 -0.5360  0.1213 -0.1548
 5308SOL    HW227561   4.509   0.188   5.202 -0.9256 -0.5137 -1.6443
 5309SOL     OW27562   3.561   1.668   7.442  0.2458 -0.0415 -0.3130
 5309SOL    HW127563   3.566   1.744   7.384  0.8934  0.5341  0.4834
 5309SOL    HW227564   3.469   1.644   7.434  0.3717 -0.7289  0.3263
 5310SOL     OW27565   0.792   3.640   7.852 -0.1396 -0.3596 -0.0314
 5310SOL    HW127566   0.842   3.636   7.933  3.2081  0.4614 -2.0761
 5310SOL    HW227567   0.764   3.548   7.844 -0.6623 -0.0164 -2.2750
 5311SOL     OW27568   0.934   1.149   3.665  0.2806  0.0185 -0.1181
 5311SOL    HW127569   0.970   1.225   3.620  0.6014 -0.5584 -0.8436
 5311SOL    HW227570   0.840   1.159   3.652  0.1625 -0.1564  0.6291
 5312SOL     OW27571   2.675   0.525   7.598 -0.1925 -0.4331  0.1797
 5312SOL    HW127572   2.732   0.602   7.607 -0.3980  0.0253 -2.4919
 5312SOL    HW227573   2.615   0.565   7.536  0.3514  0.4298  0.1919
 5313SOL     OW27574   0.014   2.678   2.271 -0.4185 -0.7280 -0.2105
 5313SOL    HW127575   0.096   2.724   2.288 -0.5126 -0.4902 -0.4017
 5313SOL    HW227576   0.004   2.692   2.177  1.7790 -0.5402 -0.3996
 5314SOL     OW27577   3.570   1.092   4.204 -0.1983  0.1106 -0.2917
 5314SOL    HW127578   3.568   1.022   4.270 -4.8328  0.7363  0.2313
 5314SOL    HW227579   3.482   1.130   4.203 -0.6800 -1.0570 -1.4188
 5315SOL     OW27580   2.422   4.633   0.340 -0.0472  0.1106 -0.1051
 5315SOL    HW127581   2.441   4.539   0.344 -3.2422 -0.5468 -0.1404
 5315SOL    HW227582   2.327   4.632   0.348 -0.4455  4.1219 -4.0829
 5316SOL     OW27583   4.473   1.641   4.914 -0.2923 -0.3175  0.2098
 5316SOL    HW127584   4.532   1.681   4.850 -0.4411 -0.8288 -0.2490
 5316SOL    HW227585   4.501   1.690   4.991  1.5876 -0.0630 -0.6183
 5317SOL     OW27586   2.866   2.679  15.152 -0.1136  0.2229 -0.0545
 5317SOL    HW127587   2.803   2.688  15.225  0.4296 -0.6730  0.5237
 5317SOL    HW227588   2.904   2.766  15.148  0.3828  0.0510  0.8604
 5318SOL     OW27589   0.711   4.381   2.039  0.3347  0.7265 -0.0115
 5318SOL    HW127590   0.646   4.424   1.983 -1.3172 -2.3006 -0.4132
 5318SOL    HW227591   0.669   4.389   2.125 -0.3008  2.7305 -0.5113
 5319SOL     OW27592   2.176   4.586  15.903 -0.6586 -0.0431  0.1193
 5319SOL    HW127593   2.135   4.522  15.961 -1.5828  0.0562 -0.4274
 5319SOL    HW227594   2.097   4.640  15.898  0.5534  1.5819 -1.4250
 5320SOL     OW27595   3.267   1.755   1.378  0.9816 -0.5048 -0.6041
 5320SOL    HW127596   3.233   1.666   1.367 -1.2565  0.4950 -1.9379
 5320SOL    HW227597   3.359   1.747   1.352  1.5803  1.6356  0.8995
 5321SOL     OW27598   3.953   0.764  17.104 -0.2416 -0.2395  0.1178
 5321SOL    HW127599   3.966   0.783  17.197 -0.5518  0.6047 -0.0169
 5321SOL    HW227600   3.917   0.846  17.071 -0.9504 -1.3086 -1.7835
 5322SOL     OW27601   0.898   0.615   6.941 -0.1569  0.6570 -0.1206
 5322SOL    HW127602   0.963   0.548   6.922  0.3766  1.2382 -0.3469
 5322SOL    HW227603   0.900   0.622   7.036 -3.2879 -1.0777  0.0716
 5323SOL     OW27604   3.326   0.038  13.299  0.1961 -0.0939  0.2453
 5323SOL    HW127605   3.274   4.719  13.357 -0.1532  0.7890  0.7889
 5323SOL    HW227606   3.256   0.102  13.284 -0.1754 -0.3483  0.8685
 5324SOL     OW27607   1.872   0.919  17.043  0.3024 -0.0782 -0.6338
 5324SOL    HW127608   1.829   1.001  17.066 -0.2590 -0.8233  0.9673
 5324SOL    HW227609   1.822   0.898  16.965 -0.5310 -0.8303  0.1109
 5325SOL     OW27610   1.910   0.600  17.137  0.4251 -0.1627 -0.2456
 5325SOL    HW127611   1.986   0.557  17.178  0.8053  0.3478 -0.4048
 5325SOL    HW227612   1.847   0.586  17.207 -0.4937  1.6838 -0.7023
 5326SOL     OW27613   0.989   1.202  11.907  0.8127  0.4072  0.3113
 5326SOL    HW127614   0.941   1.146  11.846  1.6971  0.7584 -0.7114
 5326SOL    HW227615   0.964   1.288  11.873 -0.0511  0.6722  1.6569
 5327SOL     OW27616   2.450   1.847   8.053 -0.3180 -0.0233  0.4191
 5327SOL    HW127617   2.541   1.868   8.072 -0.9949  1.6207  1.8763
 5327SOL    HW227618   2.444   1.761   8.094 -0.6777  0.4910  1.4550
 5328SOL     OW27619   0.368   3.482   3.970 -0.0642  0.0464  0.1185
 5328SOL    HW127620   0.460   3.492   3.944 -0.5659  0.0326 -1.6011
 5328SOL    HW227621   0.353   3.550   4.036  0.2995 -1.5645  1.8503
 5329SOL     OW27622   2.204   2.956   7.388 -0.6043 -0.1172 -0.1167
 5329SOL    HW127623   2.110   2.947   7.372 -0.3614 -0.8127 -1.1631
 5329SOL    HW227624   2.235   2.867   7.398  0.4043  0.5739  2.6869
 5330SOL     OW27625   4.588   1.040   7.043 -0.2911 -0.2221  0.3915
 5330SOL    HW127626   4.579   0.983   7.119  0.3129 -1.9528 -0.8483
 5330SOL    HW227627   4.538   1.115   7.075 -0.4077  0.4713 -1.4323
 5331SOL     OW27628   4.703   3.692   5.872  0.7886 -0.1122 -0.3638
 5331SOL    HW127629   4.709   3.620   5.936  1.2821 -0.1269 -0.4223
 5331SOL    HW227630   0.039   3.664   5.817 -0.1595  0.6548 -1.9768
 5332SOL     OW27631   2.278   0.352   8.702 -0.4796  0.2670 -0.3605
 5332SOL    HW127632   2.304   0.260   8.695 -0.1238  0.3398 -0.0164
 5332SOL    HW227633   2.232   0.362   8.619 -0.1250  1.0554 -0.4661
 5333SOL     OW27634   0.025   1.262   6.476 -0.5855  0.5608 -0.1119
 5333SOL    HW127635   4.711   1.258   6.557  0.0473  1.9794  0.3546
 5333SOL    HW227636   0.111   1.280   6.514 -0.7696 -0.1632  0.6353
 5334SOL     OW27637   4.154   2.699   6.643 -0.1564  0.7931  0.6046
 5334SOL    HW127638   4.231   2.647   6.665  1.4332  3.4881  1.5144
 5334SOL    HW227639   4.181   2.787   6.670  0.1258  0.2413  2.1473
 5335SOL     OW27640   1.911   2.368   2.472  0.5722  0.5949 -0.2090
 5335SOL    HW127641   1.865   2.412   2.543 -0.0866 -1.2418  0.4872
 5335SOL    HW227642   2.002   2.367   2.501  0.7673  0.3265 -0.8341
 5336SOL     OW27643   1.324   2.947   7.623 -0.2214  0.4473  0.8544
 5336SOL    HW127644   1.351   2.923   7.534 -2.6121  0.5330  0.1022
 5336SOL    HW227645   1.266   2.876   7.650  0.2606  0.7654  2.7277
 5337SOL     OW27646   1.357   2.353   3.551  0.3710  0.2338  0.0422
 5337SOL    HW127647   1.405   2.286   3.502  2.2298  1.9714 -0.5273
 5337SOL    HW227648   1.305   2.310   3.619 -0.0328 -0.4431 -0.7009
 5338SOL     OW27649   0.636   4.733   9.491 -0.8804 -1.0939 -0.3293
 5338SOL    HW127650   0.730   4.717   9.480 -0.9725 -1.0265 -1.2282
 5338SOL    HW227651   0.607   4.647   9.521 -0.9364 -0.1813  2.1806
 5339SOL     OW27652   3.025   1.288   4.814 -0.2662  0.0433  0.0459
 5339SOL    HW127653   2.990   1.200   4.801  0.2364 -0.0444 -0.6614
 5339SOL    HW227654   2.957   1.342   4.774 -0.6732 -0.9943 -0.6649
 5340SOL     OW27655   1.385   1.959   5.768 -0.4175  0.2376 -0.7289
 5340SOL    HW127656   1.440   1.972   5.691  0.5724  0.6637  0.0347
 5340SOL    HW227657   1.452   1.977   5.834 -0.4419  0.5837 -0.7992
 5341SOL     OW27658   0.276   4.035   4.494  0.0164 -0.2078 -0.1893
 5341SOL    HW127659   0.311   4.012   4.580 -0.2277  1.0547  0.2591
 5341SOL    HW227660   0.328   3.981   4.435  0.4507  0.2877 -0.2667
 5342SOL     OW27661   0.582   1.471   4.192 -0.1092 -0.6755 -0.2029
 5342SOL    HW127662   0.511   1.523   4.232 -1.2534 -3.3602  1.2307
 5342SOL    HW227663   0.634   1.457   4.271 -1.9961 -1.1000  0.9842
 5343SOL     OW27664   4.642   3.641   6.986 -0.2008  0.3393 -0.6635
 5343SOL    HW127665   4.719   3.589   6.964 -0.2766  1.1289 -2.7901
 5343SOL    HW227666   4.680   3.706   7.045 -0.3550 -0.1261 -0.0503
 5344SOL     OW27667   1.828   1.220  16.785  0.1554 -0.4731 -0.0971
 5344SOL    HW127668   1.916   1.223  16.823 -0.3943  2.2692  0.9836
 5344SOL    HW227669   1.849   1.281  16.714 -2.5237 -0.3207 -0.7754
 5345SOL     OW27670   4.064   2.787  16.420 -0.3760 -0.0666  0.1675
 5345SOL    HW127671   4.050   2.862  16.363  1.2818 -0.4649 -0.7637
 5345SOL    HW227672   3.988   2.800  16.477 -1.0236  1.6573 -1.0857
 5346SOL     OW27673   4.179   3.372   7.603 -0.5356 -0.1118  0.4175
 5346SOL    HW127674   4.176   3.350   7.696 -0.1325 -3.9602 -0.4906
 5346SOL    HW227675   4.185   3.467   7.599 -1.6212  0.0093  1.5856
 5347SOL     OW27676   0.436   2.431  11.452 -0.4142  0.7965  0.3352
 5347SOL    HW127677   0.397   2.515  11.477 -1.1739  0.1302  1.3214
 5347SOL    HW227678   0.360   2.375  11.442 -1.4610  3.0854 -4.7970
 5348SOL     OW27679   4.500   1.114   4.636 -0.0554  0.4412 -0.0031
 5348SOL    HW127680   4.576   1.142   4.585  0.9264 -0.8558  0.7757
 5348SOL    HW227681   4.526   1.146   4.722  1.4402  1.2135 -0.7390
 5349SOL     OW27682   4.090   2.667   9.661 -0.2217 -0.2596  0.3542
 5349SOL    HW127683   4.060   2.651   9.750  0.7576  0.5870  0.8322
 5349SOL    HW227684   4.034   2.604   9.615 -0.5248  0.3513 -0.1246
 5350SOL     OW27685   1.664   4.422   0.122 -0.1066  0.2092 -0.5242
 5350SOL    HW127686   1.608   4.364   0.174  2.0999 -2.0149 -0.6550
 5350SOL    HW227687   1.616   4.437   0.040 -2.2925 -1.5232  0.4346
 5351SOL     OW27688   2.872   0.314   3.339 -0.8340  0.1792 -0.4474
 5351SOL    HW127689   2.818   0.341   3.265  0.2732  2.1035 -0.5549
 5351SOL    HW227690   2.964   0.316   3.311 -0.8500 -0.2871 -0.5307
 5352SOL     OW27691   1.416   1.674  15.917 -0.0164  0.1722 -0.1271
 5352SOL    HW127692   1.485   1.714  15.865  1.2788 -2.2019 -0.2595
 5352SOL    HW227693   1.361   1.641  15.846  0.4717  0.4382 -0.6272
 5353SOL     OW27694   2.027   1.785   6.551  0.1954 -0.3351  0.3509
 5353SOL    HW127695   1.951   1.843   6.555 -0.8646 -1.6915 -0.1549
 5353SOL    HW227696   2.035   1.741   6.636 -0.7867  1.6952  1.4950
 5354SOL     OW27697   3.270   4.578   3.986 -0.1107  0.2678  0.7391
 5354SOL    HW127698   3.233   4.536   4.063 -2.3759  1.2699  0.1886
 5354SOL    HW227699   3.189   4.595   3.938  0.2862  1.7799  0.6076
 5355SOL     OW27700   4.021   2.408   1.972 -0.7662  0.5591 -0.8200
 5355SOL    HW127701   4.099   2.352   1.973 -2.0693 -1.2282 -0.8891
 5355SOL    HW227702   4.022   2.441   2.062  2.4225 -0.5777 -0.4143
 5356SOL     OW27703   0.646   2.794   3.823  0.0437 -0.5900 -0.1039
 5356SOL    HW127704   0.561   2.837   3.830  1.7010  2.5283  0.7311
 5356SOL    HW227705   0.695   2.832   3.895  1.6626  0.2620 -1.6747
 5357SOL     OW27706   2.502   2.592   2.128  0.1723 -0.5047 -0.0700
 5357SOL    HW127707   2.561   2.663   2.153  0.0109 -0.7231  0.9446
 5357SOL    HW227708   2.465   2.629   2.048  1.3959 -1.1700 -0.9515
 5358SOL     OW27709   0.694   0.929   5.604 -0.6428  0.3397 -0.9327
 5358SOL    HW127710   0.707   0.841   5.569  1.6703  0.1967  0.2901
 5358SOL    HW227711   0.624   0.963   5.547 -2.0066 -1.7798 -0.5378
 5359SOL     OW27712   0.891   1.717   2.213 -1.0562  0.7627 -0.0766
 5359SOL    HW127713   0.972   1.690   2.168 -0.8003 -0.5698  1.1940
 5359SOL    HW227714   0.851   1.777   2.150 -0.6128  0.4776 -0.6378
 5360SOL     OW27715   3.381   2.136   2.939 -0.4453 -0.2351 -0.1862
 5360SOL    HW127716   3.384   2.232   2.941 -0.3352 -0.2006 -1.5080
 5360SOL    HW227717   3.428   2.119   3.020  2.3406  1.0421 -1.5359
 5361SOL     OW27718   0.770   4.580   2.775 -0.0624 -0.1546  0.1222
 5361SOL    HW127719   0.857   4.612   2.798  0.0950  0.8655 -1.8660
 5361SOL    HW227720   0.784   4.500   2.724  0.4942  1.5292 -2.3726
 5362SOL     OW27721   0.438   3.895   4.698  0.1814  0.0113 -0.3605
 5362SOL    HW127722   0.511   3.839   4.724  0.2941  0.0225 -0.6431
 5362SOL    HW227723   0.438   3.959   4.769 -1.1394 -0.4194  0.0159
 5363SOL     OW27724   2.375   1.073   2.432 -0.5372  0.3185 -0.0823
 5363SOL    HW127725   2.282   1.084   2.454 -0.1921  2.2251  0.4900
 5363SOL    HW227726   2.379   1.113   2.345 -0.7805  0.9000  0.1677
 5364SOL     OW27727   4.631   0.377   5.049  0.3577  0.1611 -0.7376
 5364SOL    HW127728   4.661   0.418   4.968  2.9004  1.9415  1.1203
 5364SOL    HW227729   4.636   0.285   5.023  1.2920  0.2614 -0.8977
 5365SOL     OW27730   3.488   1.382   5.026 -0.3303 -0.2465 -0.7830
 5365SOL    HW127731   3.534   1.458   4.989  0.5054  0.4037  1.6006
 5365SOL    HW227732   3.440   1.337   4.956 -2.4471  1.1491 -0.2333
 5366SOL     OW27733   4.656   3.417   3.373 -0.0235  0.2085  0.0414
 5366SOL    HW127734   4.607   3.362   3.312 -2.6069 -0.0129  2.3143
 5366SOL    HW227735   4.671   3.353   3.443 -2.8002 -1.8165 -1.2262
 5367SOL     OW27736   4.407   1.757   3.950  0.1409  0.0729 -0.4923
 5367SOL    HW127737   4.396   1.776   4.043  2.3032  1.1445 -0.4708
 5367SOL    HW227738   4.366   1.834   3.911  2.5493  1.7549  0.3375
 5368SOL     OW27739   1.862   4.343   1.433  0.5104  0.0715 -0.2468
 5368SOL    HW127740   1.933   4.340   1.369  1.1778 -0.3930  0.5147
 5368SOL    HW227741   1.803   4.408   1.396  1.3286  1.8084  1.5421
 5369SOL     OW27742   1.090   0.108   7.537  0.5920 -0.1307  0.0069
 5369SOL    HW127743   1.071   0.201   7.550 -0.8475 -0.6580  1.7790
 5369SOL    HW227744   1.156   0.102   7.606  0.6585  1.9174  0.1281
 5370SOL     OW27745   0.226   2.386  12.167  0.3229  0.4914  0.1339
 5370SOL    HW127746   0.218   2.395  12.262  0.9617  1.6482  0.0787
 5370SOL    HW227747   0.313   2.424  12.152  0.8800 -0.6483  0.4845
 5371SOL     OW27748   1.385   0.501  13.964 -1.0988 -0.1771 -1.0293
 5371SOL    HW127749   1.388   0.543  14.050 -0.0426 -1.7796 -0.2761
 5371SOL    HW227750   1.348   0.567  13.906  0.1537  1.6040  0.1841
 5372SOL     OW27751   2.434   1.309   5.812 -0.2663  0.6521 -0.9101
 5372SOL    HW127752   2.357   1.364   5.831  1.0968  2.4439 -0.6386
 5372SOL    HW227753   2.487   1.301   5.891 -0.5765 -1.3899 -0.9154
 5373SOL     OW27754   1.217   1.538   4.901 -0.7323 -0.5254  0.5841
 5373SOL    HW127755   1.140   1.594   4.888 -0.5814  0.0850  2.3118
 5373SOL    HW227756   1.184   1.449   4.911 -1.6337 -0.2612 -0.0528
 5374SOL     OW27757   1.727   4.609  17.215  0.3345 -0.1913 -0.3706
 5374SOL    HW127758   1.654   4.660  17.179  0.1684  0.5356  0.9952
 5374SOL    HW227759   1.776   4.675  17.265 -0.5158 -0.0432  0.2683
 5375SOL     OW27760   4.135   2.006   8.689  1.3885 -0.2839 -0.5679
 5375SOL    HW127761   4.087   2.068   8.633 -2.0775 -1.5328  1.0555
 5375SOL    HW227762   4.126   1.929   8.632  0.3005 -0.7197  0.2068
 5376SOL     OW27763   0.831   0.412   5.324 -0.5300  0.3547  0.3038
 5376SOL    HW127764   0.903   0.416   5.387 -0.2033  1.5343 -0.1385
 5376SOL    HW227765   0.849   0.501   5.294  0.4106 -0.6177 -1.9794
 5377SOL     OW27766   4.714   3.826   5.319 -0.3521 -0.3321 -0.0053
 5377SOL    HW127767   4.632   3.874   5.330 -0.6582 -1.0860  1.0868
 5377SOL    HW227768   4.683   3.738   5.343  0.4760 -0.7889 -0.6389
 5378SOL     OW27769   1.813   0.340  13.869 -0.4255  0.3224 -0.7344
 5378SOL    HW127770   1.731   0.328  13.918 -0.4917  0.2476 -0.8635
 5378SOL    HW227771   1.837   0.427  13.899  0.5013 -0.3697  0.5282
 5379SOL     OW27772   3.698   3.752  11.915  1.0185  0.2307 -0.1454
 5379SOL    HW127773   3.765   3.741  11.983 -0.0001  2.1091  1.1894
 5379SOL    HW227774   3.742   3.814  11.857  2.0501 -1.4418 -1.1161
 5380SOL     OW27775   4.247   1.960   0.201 -0.6060 -0.4474 -0.2598
 5380SOL    HW127776   4.186   1.932   0.269  0.3576  1.2451  1.3245
 5380SOL    HW227777   4.184   1.965   0.129 -1.0868 -0.2220  0.1814
 5381SOL     OW27778   1.425   3.736   8.739 -0.3501 -0.0669 -0.3997
 5381SOL    HW127779   1.491   3.669   8.719  0.7938  0.7131  0.7583
 5381SOL    HW227780   1.387   3.753   8.653  1.4741 -1.4412 -1.4612
 5382SOL     OW27781   3.712   4.002   7.639 -0.3121 -0.4423 -0.0520
 5382SOL    HW127782   3.748   3.948   7.570 -0.5184 -0.4051 -0.1903
 5382SOL    HW227783   3.626   4.026   7.603 -1.2451 -1.5460  1.4151
 5383SOL     OW27784   2.050   3.139   1.310 -0.1767  0.0785  0.3196
 5383SOL    HW127785   2.034   3.073   1.243  0.4073  0.3071 -0.0405
 5383SOL    HW227786   2.136   3.170   1.281  0.1165 -0.9432  0.1107
 5384SOL     OW27787   1.744   3.461  11.320  0.0923 -0.0870  0.6775
 5384SOL    HW127788   1.701   3.414  11.392 -0.9714  1.3994  1.0085
 5384SOL    HW227789   1.791   3.394  11.270 -0.3456 -0.5400  0.8744
 5385SOL     OW27790   0.398   1.651   4.324  0.2267 -0.1154  0.2752
 5385SOL    HW127791   0.335   1.706   4.277 -1.0680 -0.9731  0.9958
 5385SOL    HW227792   0.358   1.614   4.403 -1.4622 -0.8074 -0.8959
 5386SOL     OW27793   0.284   3.138   9.759  0.0011 -0.1369 -0.0661
 5386SOL    HW127794   0.277   3.196   9.683  0.1413  0.4959  0.3929
 5386SOL    HW227795   0.257   3.057   9.717  0.8756 -1.1772  1.3854
 5387SOL     OW27796   2.848   1.847   5.478 -0.0989 -1.0022 -0.5368
 5387SOL    HW127797   2.768   1.814   5.517  0.2504 -0.1379  0.9011
 5387SOL    HW227798   2.827   1.940   5.468  0.1881 -0.8775  0.0440
 5388SOL     OW27799   0.914   2.939   1.962 -0.9126  0.4922 -0.2256
 5388SOL    HW127800   0.920   2.992   2.041 -0.4520  0.1408 -0.0274
 5388SOL    HW227801   0.978   2.980   1.903  0.6040 -0.9008  0.4371
 5389SOL     OW27802   0.031   1.135  10.718  0.0257 -0.4436  0.6571
 5389SOL    HW127803   4.702   1.070  10.694  2.0790 -2.1469 -0.4642
 5389SOL    HW227804   0.088   1.128  10.641 -0.1579  0.8139  0.4140
 5390SOL     OW27805   0.364   2.625  13.207  0.2403 -0.4780 -0.3686
 5390SOL    HW127806   0.270   2.605  13.214  0.7979 -2.0502  2.8751
 5390SOL    HW227807   0.350   2.716  13.179  0.4015 -0.5840 -0.7902
 5391SOL     OW27808   0.901   0.625   6.437  0.9023  0.2854 -0.2274
 5391SOL    HW127809   0.898   0.538   6.476  0.6190  0.8722  1.0670
 5391SOL    HW227810   0.878   0.678   6.513  2.3780  0.0112  0.4203
 5392SOL     OW27811   0.253   3.698   8.642 -0.4090 -0.0342 -0.4133
 5392SOL    HW127812   0.221   3.760   8.577  0.9071 -0.5417 -1.5447
 5392SOL    HW227813   0.180   3.706   8.702 -0.8067  0.4537 -0.9639
 5393SOL     OW27814   3.059   1.330   0.234 -0.6536 -0.5156 -0.2261
 5393SOL    HW127815   3.154   1.335   0.234 -0.6961  0.1795 -2.1302
 5393SOL    HW227816   3.046   1.237   0.252 -2.1042 -0.3830 -0.5480
 5394SOL     OW27817   2.649   2.992   4.380  0.4126  0.4154 -0.0746
 5394SOL    HW127818   2.556   3.015   4.369 -0.5498 -2.1570  2.7844
 5394SOL    HW227819   2.643   2.897   4.368 -1.4648  0.4418  0.5720
 5395SOL     OW27820   4.437   0.276   3.404  0.5197 -0.0233  0.4309
 5395SOL    HW127821   4.354   0.227   3.403 -0.4571  1.6258  0.2446
 5395SOL    HW227822   4.428   0.349   3.465 -1.3826 -0.9009  1.2221
 5396SOL     OW27823   2.282   2.808   9.202 -0.2257  0.1451 -0.5197
 5396SOL    HW127824   2.303   2.746   9.133  1.8812 -0.7533  0.9112
 5396SOL    HW227825   2.197   2.830   9.164  0.1869  3.3018  0.3671
 5397SOL     OW27826   1.469   0.403  12.752 -0.7800  0.4700  0.0914
 5397SOL    HW127827   1.419   0.448  12.684 -1.4185  0.2208  0.4007
 5397SOL    HW227828   1.423   0.319  12.741 -0.9552  0.5713  0.0522
 5398SOL     OW27829   4.368   1.157  10.646 -0.6225 -0.3269 -0.6150
 5398SOL    HW127830   4.362   1.172  10.741  0.3494 -1.6783 -0.3338
 5398SOL    HW227831   4.440   1.095  10.632  0.0257  0.8811 -2.5461
 5399SOL     OW27832   4.029   1.940   3.716 -0.0351  0.3929  0.5152
 5399SOL    HW127833   4.000   2.029   3.736 -1.5377 -0.0946  0.5090
 5399SOL    HW227834   4.034   1.948   3.621  0.8568 -1.6799  0.3956
 5400SOL     OW27835   3.137   2.437  16.615 -0.1625  0.1059 -0.2466
 5400SOL    HW127836   3.127   2.497  16.689  2.1026 -1.2423  1.1616
 5400SOL    HW227837   3.158   2.489  16.538  3.0488  0.0499  0.5640
 5401SOL     OW27838   0.591   4.217   6.592 -0.2770 -0.1659  0.7451
 5401SOL    HW127839   0.573   4.311   6.584 -0.8121 -0.3689 -0.4608
 5401SOL    HW227840   0.524   4.192   6.655 -1.8625  0.3957 -0.6935
 5402SOL     OW27841   1.702   4.209   9.466  0.2293  0.2395  0.1998
 5402SOL    HW127842   1.657   4.277   9.516  1.0492  0.3350  0.8138
 5402SOL    HW227843   1.792   4.234   9.490  0.2238  0.2771  0.1813
 5403SOL     OW27844   2.018   2.982   4.708  0.4893 -0.4596 -0.0117
 5403SOL    HW127845   1.945   2.921   4.697 -0.5783  1.2128 -2.2376
 5403SOL    HW227846   1.995   3.015   4.795 -1.9679  0.4748 -0.9945
 5404SOL     OW27847   1.511   4.376  13.420 -0.7260  0.2261  0.3272
 5404SOL    HW127848   1.502   4.366  13.514 -0.4205  2.6411  0.6132
 5404SOL    HW227849   1.504   4.290  13.378  2.8007 -0.1705  0.5307
 5405SOL     OW27850   2.385   4.544   7.549 -0.0879  0.2390  0.4879
 5405SOL    HW127851   2.409   4.585   7.466 -1.4752 -1.1376 -0.6021
 5405SOL    HW227852   2.394   4.453   7.522 -2.2482 -0.0941  0.8653
 5406SOL     OW27853   4.074   1.533   3.018  0.7380  0.5326  0.2308
 5406SOL    HW127854   4.059   1.569   2.931 -0.5789 -1.6908 -0.4443
 5406SOL    HW227855   4.019   1.456   3.004  2.6184 -0.5805 -0.9232
 5407SOL     OW27856   3.697   2.673  12.477  0.0272 -0.1350  0.6019
 5407SOL    HW127857   3.671   2.593  12.523 -0.1642 -1.1741 -1.3102
 5407SOL    HW227858   3.717   2.642  12.389 -1.9406 -2.8115  1.0675
 5408SOL     OW27859   1.208   0.376   5.630 -0.0697 -0.6427 -0.1304
 5408SOL    HW127860   1.289   0.413   5.664 -0.1590 -1.8046  1.3641
 5408SOL    HW227861   1.142   0.435   5.667 -0.4793 -1.7408  0.8831
 5409SOL     OW27862   3.080   4.568   6.406  0.0882  0.1205  0.1362
 5409SOL    HW127863   3.099   4.530   6.320 -2.9318 -2.0646  0.4387
 5409SOL    HW227864   3.042   4.492   6.451  1.5566  0.0618  1.2959
 5410SOL     OW27865   3.512   3.685  13.416 -0.3283  0.8369  0.1052
 5410SOL    HW127866   3.561   3.708  13.495 -1.2191  1.7652  0.3872
 5410SOL    HW227867   3.506   3.590  13.425  0.4154  0.7113 -0.7224
 5411SOL     OW27868   4.505   2.935   6.782 -0.0394  0.0527  0.2723
 5411SOL    HW127869   4.413   2.956   6.768  0.1599  1.2566  0.7425
 5411SOL    HW227870   4.489   2.884   6.861  2.1769  0.5375  1.0424
 5412SOL     OW27871   4.368   4.486  14.723 -0.4719 -0.3813 -0.2510
 5412SOL    HW127872   4.342   4.420  14.659  0.6641  0.1201 -1.2178
 5412SOL    HW227873   4.444   4.450  14.770 -0.0340  0.6599 -0.1628
 5413SOL     OW27874   2.602   2.597  13.933  0.7373  0.2501  0.4916
 5413SOL    HW127875   2.545   2.565  14.003 -0.4549 -1.4967 -1.2655
 5413SOL    HW227876   2.555   2.676  13.908  2.2235  2.0092  3.2550
 5414SOL     OW27877   2.975   4.551   1.749  0.0722  0.3030  0.6246
 5414SOL    HW127878   3.068   4.539   1.768  0.0592  0.3602  0.7221
 5414SOL    HW227879   2.975   4.509   1.662 -0.7672  0.7796  0.3909
 5415SOL     OW27880   1.579   0.118  15.915 -0.1881  0.2178 -0.1881
 5415SOL    HW127881   1.581   0.213  15.911  2.1002  0.0780 -2.0703
 5415SOL    HW227882   1.619   0.088  15.997 -0.0174 -1.3511 -0.8521
 5416SOL     OW27883   2.354   0.105  10.282  0.0600  0.1239  0.1223
 5416SOL    HW127884   2.347   0.171  10.350  0.9211  0.7567 -0.4072
 5416SOL    HW227885   2.365   0.161  10.205  0.6273 -1.6650 -1.1044
 5417SOL     OW27886   4.318   0.149   9.559  0.0541  0.7259  0.0977
 5417SOL    HW127887   4.315   0.062   9.518 -0.2543  1.8084 -2.1749
 5417SOL    HW227888   4.407   0.156   9.594  0.3110 -0.1152 -0.3878
 5418SOL     OW27889   1.367   0.283   0.910  0.0239 -0.0607  0.7821
 5418SOL    HW127890   1.344   0.374   0.893  0.9161  0.0977  0.4031
 5418SOL    HW227891   1.339   0.272   1.001  0.0454 -0.0021  0.7962
 5419SOL     OW27892   1.799   0.840   8.716 -0.4384 -0.5941  0.1283
 5419SOL    HW127893   1.781   0.861   8.807 -1.3801 -0.5665 -0.0566
 5419SOL    HW227894   1.826   0.748   8.718  2.4058  0.1722 -2.1177
 5420SOL     OW27895   1.900   3.118   8.003 -0.3335  0.2724 -0.6081
 5420SOL    HW127896   1.951   3.192   7.972  1.7105 -0.5869  0.6816
 5420SOL    HW227897   1.904   3.049   7.936  2.3556 -0.4412  0.3183
 5421SOL     OW27898   0.897   1.456   4.140  0.7831  0.0425  0.4240
 5421SOL    HW127899   0.984   1.450   4.100 -0.0369 -2.9900 -0.8498
 5421SOL    HW227900   0.846   1.505   4.075  1.3741 -0.5424 -0.4766
 5422SOL     OW27901   3.585   1.553  14.309 -0.3983  0.5293  0.1519
 5422SOL    HW127902   3.527   1.541  14.385 -1.4721 -1.2625 -0.9499
 5422SOL    HW227903   3.609   1.645  14.312  0.7183  0.2579 -0.7377
 5423SOL     OW27904   1.288   1.188   1.045  0.3102  0.5709  0.0314
 5423SOL    HW127905   1.200   1.162   1.018  0.1601 -1.0900  2.0697
 5423SOL    HW227906   1.339   1.137   0.983  0.8898  1.9136 -0.5830
 5424SOL     OW27907   1.361   0.341  14.279 -0.6867 -0.1235  0.0439
 5424SOL    HW127908   1.408   0.258  14.291 -0.5271  0.1042  0.9631
 5424SOL    HW227909   1.274   0.314  14.250 -0.7475  0.4216 -0.2804
 5425SOL     OW27910   2.554   3.686   4.478 -0.3314  0.2413 -0.0635
 5425SOL    HW127911   2.540   3.597   4.511  0.1881 -0.4490 -1.7473
 5425SOL    HW227912   2.505   3.696   4.397 -0.1385  0.0809 -0.1986
 5426SOL     OW27913   3.772   4.237   0.007 -0.0755 -0.0573 -0.3137
 5426SOL    HW127914   3.800   4.149  17.732  0.9207  0.8681 -2.7989
 5426SOL    HW227915   3.745   4.276  17.670 -0.7308 -1.0092 -0.5424
 5427SOL     OW27916   0.344   4.467   6.752 -0.2549  0.2470  0.1621
 5427SOL    HW127917   0.310   4.552   6.779 -1.2488 -0.4441  1.0977
 5427SOL    HW227918   0.425   4.465   6.803  0.9407  0.1287 -1.7481
 5428SOL     OW27919   3.287   2.077   0.038  0.0684 -0.2885  0.1562
 5428SOL    HW127920   3.278   2.145   0.104 -0.7163 -0.4685  0.2318
 5428SOL    HW227921   3.263   2.123  17.705  1.1839  0.0087 -0.0052
 5429SOL     OW27922   4.571   1.192   1.980 -0.0034  0.3065  0.7274
 5429SOL    HW127923   4.523   1.271   2.006 -2.6580 -1.0818  0.0538
 5429SOL    HW227924   4.499   1.129   1.972 -0.7540  1.2376  0.1788
 5430SOL     OW27925   1.039   3.195   4.695 -0.2794 -0.3473  0.6309
 5430SOL    HW127926   1.036   3.125   4.630  2.4634  0.2898 -0.1717
 5430SOL    HW227927   1.046   3.151   4.780  0.7617 -0.5268  0.4482
 5431SOL     OW27928   2.517   2.223   6.170 -0.0872 -0.1306 -0.1982
 5431SOL    HW127929   2.586   2.199   6.232 -0.5539 -0.6101  0.1347
 5431SOL    HW227930   2.480   2.293   6.223  0.0974 -0.6307  0.5917
 5432SOL     OW27931   0.008   2.776  13.596 -0.0566  0.5367 -0.0828
 5432SOL    HW127932   4.683   2.782  13.524 -0.0346  2.6958  0.0863
 5432SOL    HW227933   0.087   2.755  13.547 -1.3734 -0.6991 -1.6673
 5433SOL     OW27934   3.880   3.385   7.684 -0.5466  0.1701  0.1659
 5433SOL    HW127935   3.858   3.472   7.718  2.7616  0.7280  0.8235
 5433SOL    HW227936   3.894   3.415   7.594  2.2120 -0.1626  0.4867
 5434SOL     OW27937   0.314   1.817  15.358  0.1625 -0.0797  0.5378
 5434SOL    HW127938   0.256   1.882  15.399 -0.4223 -0.8301  0.8952
 5434SOL    HW227939   0.310   1.745  15.420  1.1028  0.0761  0.7721
 5435SOL     OW27940   3.389   4.238   8.623  0.1257  0.2340 -0.1729
 5435SOL    HW127941   3.370   4.310   8.563 -0.6847  0.2775  0.1219
 5435SOL    HW227942   3.449   4.284   8.681  1.9649 -1.6499 -0.5863
 5436SOL     OW27943   2.328   2.666   9.911  0.2651  0.1025 -0.2084
 5436SOL    HW127944   2.314   2.654  10.004  1.4602  1.4786  0.1493
 5436SOL    HW227945   2.423   2.676   9.907  0.3000  0.2653  1.2370
 5437SOL     OW27946   1.461   1.633  13.466 -0.4519 -0.1474  0.4829
 5437SOL    HW127947   1.408   1.584  13.403  2.9624 -2.1316 -0.8545
 5437SOL    HW227948   1.505   1.559  13.507  2.2832  1.0936 -0.1823
 5438SOL     OW27949   4.418   0.550   2.623 -0.6269  0.1683  0.1114
 5438SOL    HW127950   4.479   0.547   2.696  1.6522  2.1369 -1.6780
 5438SOL    HW227951   4.462   0.609   2.561 -0.2115  0.2852  0.5231
 5439SOL     OW27952   0.989   4.577   4.387  0.6158  0.0596 -0.1544
 5439SOL    HW127953   1.030   4.592   4.302 -3.1159 -2.1593 -2.3486
 5439SOL    HW227954   1.023   4.648   4.441 -2.0882  0.5992  0.8412
 5440SOL     OW27955   3.003   2.739   3.353 -0.0387 -0.0991  0.5178
 5440SOL    HW127956   2.968   2.652   3.370  2.3177 -0.9442  1.1209
 5440SOL    HW227957   3.096   2.714   3.348  0.3760  1.2672  1.3448
 5441SOL     OW27958   0.348   0.981   1.794 -0.3930 -0.0786  0.6597
 5441SOL    HW127959   0.321   1.072   1.808  1.1863  0.6559 -1.1043
 5441SOL    HW227960   0.442   0.983   1.809 -0.0365  0.4432 -1.6988
 5442SOL     OW27961   2.420   1.900  11.495 -0.7139  0.8379  0.5895
 5442SOL    HW127962   2.448   1.959  11.424  1.4876 -0.5299  0.3159
 5442SOL    HW227963   2.505   1.904  11.540 -1.3651 -0.2583  1.8956
 5443SOL     OW27964   4.352   1.669  12.772  0.3619  0.4470 -0.1297
 5443SOL    HW127965   4.433   1.623  12.750 -0.4985 -1.1475  0.0263
 5443SOL    HW227966   4.386   1.753  12.802  0.9164  0.7656 -1.6650
 5444SOL     OW27967   0.223   3.449   5.144  0.5401 -0.4557 -0.1759
 5444SOL    HW127968   0.175   3.477   5.066  0.9961 -0.3000 -0.4051
 5444SOL    HW227969   0.257   3.536   5.167  2.6681 -2.0925  2.8396
 5445SOL     OW27970   0.239   0.712   2.145 -0.1648 -0.4514  0.4614
 5445SOL    HW127971   0.174   0.716   2.074 -1.2157  1.9902  1.5784
 5445SOL    HW227972   0.293   0.789   2.128 -1.7405  1.3242  3.6282
 5446SOL     OW27973   1.402   1.949  13.574 -0.7950 -0.1827 -0.4819
 5446SOL    HW127974   1.322   1.908  13.606 -1.1077  2.6857  2.3951
 5446SOL    HW227975   1.385   2.042  13.560  1.4011 -0.0195 -2.0703
 5447SOL     OW27976   1.077   0.777   9.371 -0.6202  0.4610 -0.1905
 5447SOL    HW127977   1.130   0.857   9.373 -0.5272  0.3827  0.7070
 5447SOL    HW227978   1.076   0.760   9.277  1.2954  0.7181 -0.2690
 5448SOL     OW27979   3.991   2.381  13.395  0.2413  0.8271 -0.2031
 5448SOL    HW127980   3.963   2.313  13.457  1.1935  0.8890  0.2824
 5448SOL    HW227981   4.010   2.453  13.454  2.1911 -0.6072  0.9214
 5449SOL     OW27982   3.071   2.641   2.092 -0.6242  0.2924 -0.0921
 5449SOL    HW127983   3.063   2.607   2.181  1.1098  1.5132  0.5178
 5449SOL    HW227984   3.021   2.723   2.097 -2.2199 -0.4394 -3.6485
 5450SOL     OW27985   2.389   3.552   0.017  0.2483 -0.2996  0.0013
 5450SOL    HW127986   2.427   3.464   0.018  1.2084  0.1162  0.3092
 5450SOL    HW227987   2.404   3.579   0.108  0.3735 -0.1105 -0.0749
 5451SOL     OW27988   3.949   3.902  10.722 -0.2122  0.0761 -0.5604
 5451SOL    HW127989   3.873   3.940  10.679 -0.0216 -1.1178 -1.9845
 5451SOL    HW227990   4.008   3.975  10.741 -0.9078  0.2291  0.9893
 5452SOL     OW27991   3.661   2.532   4.453  0.1728 -0.0966 -0.6817
 5452SOL    HW127992   3.722   2.603   4.473  0.4525  0.0212 -1.9842
 5452SOL    HW227993   3.703   2.464   4.506 -1.2586 -0.7952 -0.4355
 5453SOL     OW27994   1.616   0.951   4.506 -0.5549 -0.0210  0.8867
 5453SOL    HW127995   1.691   1.010   4.499 -1.4508  1.1057  0.6681
 5453SOL    HW227996   1.626   0.888   4.435  1.7414 -0.5268  1.6742
 5454SOL     OW27997   2.209   4.329   9.475  0.0077  0.5273 -0.5432
 5454SOL    HW127998   2.196   4.419   9.506  2.5395  0.5874  0.3686
 5454SOL    HW227999   2.195   4.334   9.380  0.6498 -0.4959 -0.6794
 5455SOL     OW28000   2.780   4.088  11.715  0.4145  0.1305  0.1458
 5455SOL    HW128001   2.821   4.041  11.787  2.3706 -1.8636 -2.2533
 5455SOL    HW228002   2.828   4.056  11.638  0.8005 -0.3228  0.5801
 5456SOL     OW28003   1.154   1.374   6.514 -0.1598 -0.3291  0.1426
 5456SOL    HW128004   1.071   1.421   6.528  1.6300  1.9951  2.8644
 5456SOL    HW228005   1.124   1.305   6.455 -0.9009  1.0517 -1.1131
 5457SOL     OW28006   2.036   0.933   8.265  0.6195 -0.6204 -0.6523
 5457SOL    HW128007   2.016   0.957   8.356  1.6612  2.2795 -1.1979
 5457SOL    HW228008   1.971   0.864   8.254  0.5106 -1.2023  3.3934
 5458SOL     OW28009   2.769   1.842   3.232 -0.0004 -0.4486 -0.0633
 5458SOL    HW128010   2.687   1.891   3.228  0.4874  0.5390  1.9298
 5458SOL    HW228011   2.828   1.896   3.179  1.5064 -1.8256  0.2241
 5459SOL     OW28012   0.535   1.172   2.526 -0.0311 -0.1492  0.5005
 5459SOL    HW128013   0.613   1.177   2.581  0.9520  2.5372 -1.1724
 5459SOL    HW228014   0.473   1.237   2.560 -0.9328 -0.3282 -0.8002
 5460SOL     OW28015   1.948   0.237   0.471 -0.4866 -0.2585 -0.1102
 5460SOL    HW128016   1.885   0.282   0.526  0.9870 -0.4502  1.7172
 5460SOL    HW228017   2.033   0.251   0.513  0.3462  1.6817 -2.4350
 5461SOL     OW28018   3.519   0.719   8.248  0.2973 -0.1652  0.7024
 5461SOL    HW128019   3.516   0.636   8.202 -1.4108 -0.0378  0.5864
 5461SOL    HW228020   3.563   0.688   8.327 -0.4985 -0.8985  0.8543
 5462SOL     OW28021   3.228   1.190   3.128  0.0035  0.6187  0.3934
 5462SOL    HW128022   3.248   1.219   3.039  2.0433 -1.2897  0.2402
 5462SOL    HW228023   3.172   1.117   3.104  1.7728 -0.7464  0.4518
 5463SOL     OW28024   3.581   3.769  13.149  0.1846 -0.6700  0.0699
 5463SOL    HW128025   3.535   3.739  13.228 -0.6922 -0.4765 -0.3636
 5463SOL    HW228026   3.636   3.694  13.125  0.1060 -0.7526  0.1475
 5464SOL     OW28027   2.059   2.088   5.801 -0.9207  0.4248  0.5202
 5464SOL    HW128028   2.000   2.077   5.875 -1.4319  2.3289  0.3821
 5464SOL    HW228029   2.000   2.046   5.738 -1.0303  0.3741  0.6568
 5465SOL     OW28030   4.323   0.142   6.859 -0.2176  0.3629 -0.6882
 5465SOL    HW128031   4.268   0.111   6.788 -0.7318 -1.0549  0.3302
 5465SOL    HW228032   4.374   0.209   6.814  0.0257  2.4109  2.6179
 5466SOL     OW28033   3.878   4.327  14.994 -0.1418  0.5287 -0.3943
 5466SOL    HW128034   3.851   4.418  15.003  0.5908  1.0076 -2.9856
 5466SOL    HW228035   3.903   4.326  14.902 -0.8115  0.3243 -0.5722
 5467SOL     OW28036   4.383   0.127   2.692 -0.3341  0.4250  0.1461
 5467SOL    HW128037   4.384   0.157   2.783 -2.2682 -1.5483  0.8473
 5467SOL    HW228038   4.345   0.039   2.695 -1.3644  0.8127 -1.6930
 5468SOL     OW28039   3.698   0.240   0.503 -0.3231 -0.2721  0.6364
 5468SOL    HW128040   3.780   0.279   0.532 -0.3815 -2.2219  3.4847
 5468SOL    HW228041   3.673   0.310   0.442  0.1515 -1.0539 -0.4611
 5469SOL     OW28042   4.549   2.267  10.524  0.0558  0.7521 -0.1368
 5469SOL    HW128043   4.502   2.221  10.594  0.3255  1.7206  0.6892
 5469SOL    HW228044   4.486   2.271  10.452 -2.6563 -0.0690  2.1868
 5470SOL     OW28045   2.025   3.341   4.306 -0.2302  0.1788 -0.6019
 5470SOL    HW128046   1.984   3.395   4.238 -0.1614  2.2809  1.0285
 5470SOL    HW228047   1.948   3.287   4.323  1.0144 -1.1682  0.7074
 5471SOL     OW28048   3.209   2.158   7.679  0.0766 -0.1392 -0.3657
 5471SOL    HW128049   3.150   2.083   7.670  2.0205 -1.7405  0.2357
 5471SOL    HW228050   3.176   2.219   7.613  2.2534  1.0273 -0.3694
 5472SOL     OW28051   3.343   3.321   5.793 -0.2129 -0.5066 -0.4829
 5472SOL    HW128052   3.358   3.393   5.854  0.1904 -0.6142 -0.4529
 5472SOL    HW228053   3.248   3.308   5.791 -0.5177  1.4467  2.5174
 5473SOL     OW28054   0.808   1.800   5.511  0.2225 -0.3365  0.2723
 5473SOL    HW128055   0.741   1.759   5.566 -0.0773  1.3409  1.1655
 5473SOL    HW228056   0.756   1.810   5.432  0.1573  0.6219  0.4365
 5474SOL     OW28057   3.304   0.859   3.972  0.4832  0.3475 -0.7083
 5474SOL    HW128058   3.295   0.798   3.899 -4.2367  1.8974 -1.4082
 5474SOL    HW228059   3.254   0.801   4.030 -2.4104  3.4735 -0.0512
 5475SOL     OW28060   2.480   2.262  14.077  0.3430 -0.4927 -0.3247
 5475SOL    HW128061   2.389   2.238  14.061  0.1346  0.1339 -0.0957
 5475SOL    HW228062   2.474   2.346  14.124  0.6044 -0.8622  0.3759
 5476SOL     OW28063   0.275   3.590   9.490 -0.3214 -0.2712  0.3436
 5476SOL    HW128064   0.318   3.656   9.546 -1.9597 -0.6154  2.0191
 5476SOL    HW228065   0.329   3.614   9.415  0.7974 -1.4335  0.7698
 5477SOL     OW28066   4.583   1.004   8.479 -0.3416  0.3946  0.0239
 5477SOL    HW128067   4.630   1.044   8.552 -1.4127  1.0489  0.3438
 5477SOL    HW228068   4.655   0.955   8.438 -2.7085  0.2285 -4.0015
 5478SOL     OW28069   2.319   1.337  16.870 -0.1301  0.3459 -0.1209
 5478SOL    HW128070   2.297   1.326  16.778  0.5932 -0.6174 -0.1706
 5478SOL    HW228071   2.249   1.290  16.914  0.6788 -2.1014 -1.4804
 5479SOL     OW28072   2.546   3.196  12.384 -0.3710 -0.7781  0.5619
 5479SOL    HW128073   2.607   3.267  12.363 -1.2122 -1.0187 -2.7119
 5479SOL    HW228074   2.603   3.124  12.357 -0.4364  0.2225 -2.1859
 5480SOL     OW28075   2.124   1.237   4.028  0.0673  0.3639 -0.5480
 5480SOL    HW128076   2.069   1.160   4.012 -0.7413  0.7257  0.4664
 5480SOL    HW228077   2.111   1.293   3.952 -1.1434  4.1249  2.4040
 5481SOL     OW28078   4.575   4.523   5.708 -0.0129 -0.0116 -0.6340
 5481SOL    HW128079   4.610   4.603   5.747  0.4977  0.5637 -2.2694
 5481SOL    HW228080   4.511   4.496   5.773  0.4368  0.1716 -0.1158
 5482SOL     OW28081   3.058   1.187   6.768  0.2128 -0.4963 -0.7626
 5482SOL    HW128082   3.094   1.140   6.844  2.7712  1.0155 -1.0353
 5482SOL    HW228083   3.096   1.274   6.774  0.5569 -0.5678 -1.8730
 5483SOL     OW28084   3.581   1.690   4.181 -0.0310  0.3440 -0.2106
 5483SOL    HW128085   3.643   1.760   4.157  0.1892  0.2570  0.1085
 5483SOL    HW228086   3.599   1.704   4.274  1.5780 -4.0893  0.1137
 5484SOL     OW28087   3.500   1.171   1.921  0.3306 -0.1149 -0.8028
 5484SOL    HW128088   3.592   1.147   1.931  0.4028  0.9746  1.1061
 5484SOL    HW228089   3.513   1.264   1.902  0.6016 -0.1867 -0.9640
 5485SOL     OW28090   2.115   2.519   1.771 -0.1906 -0.6718 -0.1264
 5485SOL    HW128091   2.055   2.453   1.805 -2.2802  0.5387 -1.4317
 5485SOL    HW228092   2.188   2.508   1.831  0.3498 -1.5671 -0.9486
 5486SOL     OW28093   0.885   3.213   5.288  0.1835  0.2202  0.2943
 5486SOL    HW128094   0.805   3.264   5.285 -0.8663 -1.3753  1.2942
 5486SOL    HW228095   0.945   3.283   5.262  0.5689  0.0452  0.7115
 5487SOL     OW28096   0.606   1.195   9.188 -0.1962 -0.1933  0.6975
 5487SOL    HW128097   0.636   1.108   9.162  1.6193  0.6889 -0.0997
 5487SOL    HW228098   0.514   1.189   9.163 -0.4289 -1.0007  1.7168
 5488SOL     OW28099   4.295   3.218   7.237 -0.3371  0.4920  0.2657
 5488SOL    HW128100   4.296   3.156   7.164 -0.4056  1.7083 -0.7679
 5488SOL    HW228101   4.370   3.269   7.208 -0.4138  0.9283  0.8315
 5489SOL     OW28102   0.395   1.370  16.639 -0.4109 -0.2472  0.6639
 5489SOL    HW128103   0.370   1.279  16.626 -0.9477  0.1797 -1.3694
 5489SOL    HW228104   0.480   1.357  16.680  0.0275  0.5588  0.0069
 5490SOL     OW28105   2.513   2.385   1.417  0.3749 -0.0831 -0.0856
 5490SOL    HW128106   2.445   2.319   1.428  0.5531 -0.1866  0.3909
 5490SOL    HW228107   2.584   2.363   1.478  1.9488  1.4581 -1.3280
 5491SOL     OW28108   4.709   2.964  15.080  0.3186  0.2425 -1.2155
 5491SOL    HW128109   4.631   3.007  15.045 -0.6267  1.2618  2.0805
 5491SOL    HW228110   4.683   2.958  15.172 -0.7149 -2.7350 -1.6906
 5492SOL     OW28111   0.234   3.075   0.016  0.0783 -0.1461 -0.6519
 5492SOL    HW128112   0.239   3.150   0.075  4.3688 -0.0214 -1.1980
 5492SOL    HW228113   0.313   3.028   0.042  0.3423  0.5146 -0.2436
 5493SOL     OW28114   3.102   0.005   1.362 -0.2877 -0.1543 -0.3584
 5493SOL    HW128115   3.094   0.036   1.452 -1.5843 -2.4528  0.3310
 5493SOL    HW228116   3.195   0.021   1.348 -0.3962  1.2341  0.5061
 5494SOL     OW28117   3.716   2.928   2.982 -0.2083 -0.3661 -0.5511
 5494SOL    HW128118   3.642   2.868   2.983  0.7303 -1.5025  0.3074
 5494SOL    HW228119   3.736   2.920   2.889 -0.5333  1.2436 -0.7676
 5495SOL     OW28120   1.762   3.850   4.792  0.2089  0.6972  0.0825
 5495SOL    HW128121   1.679   3.826   4.835 -0.8731  0.1097 -2.3319
 5495SOL    HW228122   1.794   3.897   4.869 -0.0960  1.0608 -0.0123
 5496SOL     OW28123   2.794   2.268   5.095  0.0004 -0.3778 -0.1300
 5496SOL    HW128124   2.703   2.241   5.080  0.1394  0.0433 -1.7694
 5496SOL    HW228125   2.816   2.231   5.180 -1.1803  1.2332  0.8794
 5497SOL     OW28126   0.990   4.676   1.538  0.0277  0.7178  1.0008
 5497SOL    HW128127   1.035   4.594   1.557  0.5976  0.6532 -0.6400
 5497SOL    HW228128   1.061   0.003   1.541  0.4416  0.1911  2.4250
 5498SOL     OW28129   4.442   2.345  15.746  0.3190 -0.1553 -0.1581
 5498SOL    HW128130   4.368   2.294  15.712  1.8799 -1.1315 -2.0904
 5498SOL    HW228131   4.496   2.273  15.775 -0.7013 -0.7666  0.2236
 5499SOL     OW28132   2.937   3.284  12.116  0.2624  0.1373 -0.3227
 5499SOL    HW128133   3.031   3.305  12.122 -0.5273  3.3600  0.4696
 5499SOL    HW228134   2.922   3.245  12.202 -1.2513 -0.0197 -0.6720
 5500SOL     OW28135   2.904   2.317   2.946  0.2299 -0.3786 -0.2356
 5500SOL    HW128136   2.943   2.243   2.898 -0.8188  0.4353 -2.3391
 5500SOL    HW228137   2.935   2.284   3.031 -0.3781 -0.5252 -0.0679
 5501SOL     OW28138   3.985   3.823   7.722  0.8432 -0.2959  0.3111
 5501SOL    HW128139   3.984   3.845   7.629 -0.0612 -0.4172  0.2938
 5501SOL    HW228140   3.917   3.879   7.760 -1.0089 -2.2975 -0.0277
 5502SOL     OW28141   1.339   0.001   4.864  0.2770  0.3737 -0.5241
 5502SOL    HW128142   1.296   0.069   4.916 -0.8305 -0.9066  0.2277
 5502SOL    HW228143   1.374   0.052   4.790 -1.2460  0.9656 -0.8382
 5503SOL     OW28144   2.630   3.723   7.565  0.4629 -0.7800 -0.4736
 5503SOL    HW128145   2.627   3.819   7.569 -1.3520 -0.8384 -0.1028
 5503SOL    HW228146   2.537   3.708   7.548  0.3342 -1.1761  0.5326
 5504SOL     OW28147   4.560   0.233   4.118  0.5659  0.1861 -0.1184
 5504SOL    HW128148   4.641   0.273   4.151  1.9480 -1.0168 -2.0711
 5504SOL    HW228149   4.576   0.139   4.125  0.4325  0.2260  0.6477
 5505SOL     OW28150   1.571   4.362   6.491  0.0962 -0.4520  0.7056
 5505SOL    HW128151   1.643   4.415   6.525 -1.7604  0.5601  3.0520
 5505SOL    HW228152   1.498   4.423   6.502  2.6944  2.7215  0.3197
 5506SOL     OW28153   2.633   2.384   6.618 -0.2688 -0.1578  0.3815
 5506SOL    HW128154   2.663   2.368   6.529  0.1091  3.6823 -0.1833
 5506SOL    HW228155   2.553   2.333   6.609 -0.4483  0.5240 -1.8358
 5507SOL     OW28156   3.859   4.396  11.711  0.4498 -0.1912 -0.1542
 5507SOL    HW128157   3.814   4.341  11.776  0.1188 -0.6026 -0.7354
 5507SOL    HW228158   3.930   4.338  11.686  0.3907 -1.2994  2.1819
 5508SOL     OW28159   1.918   2.818  12.766  0.5748  0.0060  0.0701
 5508SOL    HW128160   1.905   2.732  12.728  1.8074 -0.4485  0.6556
 5508SOL    HW228161   2.013   2.824  12.773  0.5478 -0.3665  0.8005
 5509SOL     OW28162   4.736   2.369   8.002 -0.1734  0.5292 -0.4985
 5509SOL    HW128163   4.655   2.347   7.955  0.9035  1.2859 -2.6970
 5509SOL    HW228164   0.065   2.392   7.937 -0.2668  3.8447  0.5437
 5510SOL     OW28165   4.638   3.498   2.687 -0.1727  0.4723  0.5019
 5510SOL    HW128166   4.547   3.525   2.675  0.1836  1.4256 -0.1042
 5510SOL    HW228167   4.627   3.409   2.718  0.0706  0.0159 -0.7232
 5511SOL     OW28168   2.813   4.452   8.219  0.3875  0.0986  0.5041
 5511SOL    HW128169   2.751   4.509   8.265  0.7577 -0.2946  1.4720
 5511SOL    HW228170   2.898   4.460   8.261  0.7206 -1.2998  0.0711
 5512SOL     OW28171   0.511   2.269   7.686 -0.1772  0.3477 -0.3414
 5512SOL    HW128172   0.482   2.295   7.773 -0.8655  0.5559 -0.6379
 5512SOL    HW228173   0.589   2.216   7.705 -1.5063 -1.0987  1.0290
 5513SOL     OW28174   2.345   0.704  12.672  0.2529 -0.1607  0.6200
 5513SOL    HW128175   2.290   0.730  12.746  0.9023  1.4066  0.5507
 5513SOL    HW228176   2.403   0.637  12.709 -1.1867 -1.5366  0.4057
 5514SOL     OW28177   1.134   2.112  14.790 -0.2439  0.2247 -0.4007
 5514SOL    HW128178   1.086   2.171  14.732  0.4823  2.2210  1.0315
 5514SOL    HW228179   1.113   2.155  14.873  1.8923 -0.6747  0.6024
 5515SOL     OW28180   4.626   4.627   9.513  0.0022  0.2545 -0.2255
 5515SOL    HW128181   4.568   4.581   9.452  0.3811 -1.6438  0.8344
 5515SOL    HW228182   4.662   4.551   9.560 -0.6368  0.2995  0.3322
 5516SOL     OW28183   2.086   1.138  16.866  0.1750  0.2223  0.0980
 5516SOL    HW128184   2.100   1.158  16.958  0.8529 -0.9225  0.2432
 5516SOL    HW228185   2.096   1.043  16.872  2.4910  0.4045 -1.0666
 5517SOL     OW28186   2.984   1.254   2.756  0.2108 -0.1463 -0.2084
 5517SOL    HW128187   2.889   1.253   2.748  0.0630  0.9880  1.4649
 5517SOL    HW228188   3.008   1.275   2.846 -3.1803 -0.7961  0.8447
 5518SOL     OW28189   2.578   4.325   4.400 -0.2570  0.0855 -0.3267
 5518SOL    HW128190   2.513   4.385   4.362  0.5804  1.7677  0.8638
 5518SOL    HW228191   2.543   4.243   4.366  0.1266  0.6236 -1.9985
 5519SOL     OW28192   3.420   3.997  15.823 -0.0106 -0.3585 -0.1328
 5519SOL    HW128193   3.371   3.954  15.894 -0.9663 -0.6379 -0.9673
 5519SOL    HW228194   3.379   3.959  15.746 -0.0640 -1.0241  0.2272
 5520SOL     OW28195   0.086   1.166   8.273  0.2804  0.0558  0.7356
 5520SOL    HW128196   0.148   1.238   8.285  0.5023 -0.2112  1.1996
 5520SOL    HW228197   0.067   1.188   8.182 -2.4858  0.9382  1.5359
 5521SOL     OW28198   2.183   4.189  17.714 -0.3660  0.1622  0.5318
 5521SOL    HW128199   2.251   4.255  17.703  1.0357 -1.1821  1.1799
 5521SOL    HW228200   2.199   4.145  17.631  3.6359  1.4044  0.6687
 5522SOL     OW28201   4.149   1.159   2.181 -0.1216  0.1674 -0.3649
 5522SOL    HW128202   4.074   1.131   2.234  0.9427 -0.1915  0.9676
 5522SOL    HW228203   4.217   1.154   2.249 -0.6548 -1.1501  0.0764
 5523SOL     OW28204   0.367   1.849   9.042  0.5208 -0.3134  0.3570
 5523SOL    HW128205   0.371   1.827   9.135 -0.5415 -0.4566  0.3697
 5523SOL    HW228206   0.411   1.772   9.007  0.0537 -0.4195  0.0033
 5524SOL     OW28207   2.089   3.758   2.963  0.6696  0.3889  0.4214
 5524SOL    HW128208   2.077   3.725   2.874  0.7159  0.1608  0.4989
 5524SOL    HW228209   2.032   3.706   3.019  0.4269 -1.1170 -1.1987
 5525SOL     OW28210   0.345   1.684  11.325 -0.2880  0.2695  0.9985
 5525SOL    HW128211   0.266   1.707  11.374 -0.5013 -1.0218  1.2639
 5525SOL    HW228212   0.307   1.655  11.242  0.5734  1.5052  0.1642
 5526SOL     OW28213   0.242   0.796   3.099 -0.0834 -0.1050  0.2065
 5526SOL    HW128214   0.197   0.845   3.031  0.0998  0.4856  0.5110
 5526SOL    HW228215   0.248   0.869   3.161  0.7856  0.2587 -0.3024
 5527SOL     OW28216   3.469   0.962   8.499  0.4195  0.1660 -0.5701
 5527SOL    HW128217   3.443   0.875   8.532 -1.3654  1.0806  0.4020
 5527SOL    HW228218   3.538   0.944   8.434  1.9823 -0.4180  1.2413
 5528SOL     OW28219   4.213   0.535   3.357 -0.1651  0.2519 -0.4415
 5528SOL    HW128220   4.149   0.506   3.421  1.1977 -2.1748 -0.1657
 5528SOL    HW228221   4.185   0.499   3.273  1.2821  1.8111 -1.6065
 5529SOL     OW28222   2.338   2.541  17.166 -0.8739 -0.0882  0.3924
 5529SOL    HW128223   2.350   2.631  17.135  1.2450 -0.5207 -0.0674
 5529SOL    HW228224   2.264   2.511  17.113 -0.2482  1.3910 -1.3004
 5530SOL     OW28225   4.200   1.291   8.313 -0.4391 -0.3485 -0.3898
 5530SOL    HW128226   4.164   1.203   8.304  0.3961 -0.7831  0.5661
 5530SOL    HW228227   4.285   1.261   8.346 -0.2420 -0.0340 -0.6064
 5531SOL     OW28228   4.218   4.646  10.639 -0.3680  0.2143  0.5399
 5531SOL    HW128229   4.199   4.724  10.587 -2.3955 -0.7644 -0.1668
 5531SOL    HW228230   4.242   4.579  10.576 -3.7045 -0.4943  0.0536
 5532SOL     OW28231   4.534   1.622  13.063 -0.8535 -0.2187 -0.1183
 5532SOL    HW128232   4.558   1.609  13.154 -0.2430  1.5268 -0.0289
 5532SOL    HW228233   4.490   1.707  13.064  1.2544  0.8259  2.8850
 5533SOL     OW28234   2.230   0.331   3.986 -0.0129  0.1479 -0.1488
 5533SOL    HW128235   2.295   0.272   3.948 -1.1577 -1.0975 -0.1601
 5533SOL    HW228236   2.285   0.406   4.007 -0.7606 -0.1418  2.8723
 5534SOL     OW28237   4.304   2.257  17.196  0.0352 -0.5731 -0.3764
 5534SOL    HW128238   4.213   2.253  17.165 -0.4277 -0.0283  0.9565
 5534SOL    HW228239   4.290   2.274  17.289  2.9557 -1.0603  0.1422
 5535SOL     OW28240   3.436   2.423   0.253 -0.2517  0.4536  0.0391
 5535SOL    HW128241   3.490   2.345   0.237  0.0448 -0.3341  4.8680
 5535SOL    HW228242   3.490   2.477   0.311  2.6367 -1.7176 -0.6293
 5536SOL     OW28243   4.526   2.633   8.626  0.3212  0.1183 -0.5255
 5536SOL    HW128244   4.431   2.626   8.614  0.3580 -0.1879 -0.6365
 5536SOL    HW228245   4.541   2.539   8.637  0.0525 -0.2371 -2.9990
 5537SOL     OW28246   2.736   4.436   5.631  0.3257  0.3988  0.2284
 5537SOL    HW128247   2.691   4.515   5.602  1.2299  0.7999 -0.0829
 5537SOL    HW228248   2.743   4.453   5.724 -2.5896 -1.2651  0.7470
 5538SOL     OW28249   1.025   0.381   6.905  0.4328 -0.5321 -0.0371
 5538SOL    HW128250   0.984   0.303   6.940 -0.0558 -0.9573 -1.5388
 5538SOL    HW228251   1.115   0.348   6.902  0.9520  0.7588  1.6506
 5539SOL     OW28252   2.194   2.049   5.423  0.4617  0.2295 -0.1574
 5539SOL    HW128253   2.124   2.030   5.361 -0.1920  2.1361 -0.0100
 5539SOL    HW228254   2.209   1.964   5.464 -3.4481 -0.5996 -0.4936
 5540SOL     OW28255   2.038   1.199  12.747  0.7840  0.4882 -0.0617
 5540SOL    HW128256   1.998   1.129  12.799 -0.2999  1.1888  0.0408
 5540SOL    HW228257   2.069   1.146  12.673  0.0789 -0.1021  0.0750
 5541SOL     OW28258   2.759   3.775   6.751 -0.1923 -0.7126 -0.0906
 5541SOL    HW128259   2.669   3.754   6.775  0.4919 -1.3381  1.8902
 5541SOL    HW228260   2.802   3.691   6.766 -0.0643 -0.6129  0.0897
 5542SOL     OW28261   2.470   2.681  10.205  0.4037  0.1601  0.2594
 5542SOL    HW128262   2.541   2.666  10.143 -1.0203  0.4241 -1.4285
 5542SOL    HW228263   2.516   2.744  10.261 -1.4204  1.9797 -0.2808
 5543SOL     OW28264   0.887   2.261   8.455  0.4449 -0.5143  0.3870
 5543SOL    HW128265   0.836   2.336   8.486 -2.0953 -1.8551 -0.4959
 5543SOL    HW228266   0.954   2.288   8.393 -0.8640  0.6448 -0.5371
 5544SOL     OW28267   0.208   2.056  15.492  0.0916 -0.7477 -0.2335
 5544SOL    HW128268   0.128   2.075  15.443  1.2635  1.6649 -1.1980
 5544SOL    HW228269   0.254   2.138  15.473  1.4811 -1.5462 -0.3740
 5545SOL     OW28270   3.154   0.911   7.257  0.1841 -0.1948 -0.3059
 5545SOL    HW128271   3.154   0.968   7.334  0.9449 -0.9387  0.2442
 5545SOL    HW228272   3.183   0.830   7.298  1.7450 -0.3599 -1.7453
 5546SOL     OW28273   4.690   3.167  13.798  0.6688 -0.4211  0.1162
 5546SOL    HW128274   4.693   3.073  13.816 -2.3532 -0.7925 -1.3662
 5546SOL    HW228275   4.644   3.188  13.879  0.5594  0.4316 -0.1624
 5547SOL     OW28276   2.688   4.711   2.966 -0.1423  0.3481  0.3283
 5547SOL    HW128277   2.779   4.732   2.947  0.0566  0.0367  0.9570
 5547SOL    HW228278   2.678   4.728   3.059 -4.1451  0.6705 -0.1520
 5548SOL     OW28279   4.065   1.059   8.569  0.2541  0.3999  0.3253
 5548SOL    HW128280   3.980   1.054   8.526  0.2898 -2.3049  0.5396
 5548SOL    HW228281   4.107   0.979   8.537 -0.4585 -0.0088  0.4183
 5549SOL     OW28282   0.891   0.190  16.847  0.2155 -0.0132  0.0447
 5549SOL    HW128283   0.920   0.103  16.821 -1.0323 -0.2199 -0.6704
 5549SOL    HW228284   0.802   0.179  16.882  1.1782 -0.8766  2.2291
 5550SOL     OW28285   0.792   1.219   3.008 -0.1374  0.2576 -0.3809
 5550SOL    HW128286   0.762   1.160   2.938  2.0916 -0.3831 -0.8022
 5550SOL    HW228287   0.750   1.304   2.994  3.6192  2.0950 -0.3375
 5551SOL     OW28288   2.241   4.706   2.192  0.5187 -0.3559 -0.5303
 5551SOL    HW128289   2.325   4.716   2.236 -0.4070  0.0534  1.1546
 5551SOL    HW228290   2.261   0.025   2.117  0.6021  1.5885  0.9213
 5552SOL     OW28291   0.551   3.590   3.425  0.6727  0.4388 -0.4690
 5552SOL    HW128292   0.604   3.670   3.424 -1.6739  1.9978  1.4351
 5552SOL    HW228293   0.464   3.620   3.450  0.1545 -1.4228 -0.0153
 5553SOL     OW28294   3.930   4.042   8.472 -0.0928 -0.9771  0.1199
 5553SOL    HW128295   3.995   4.042   8.402  1.0169 -0.1825  1.1563
 5553SOL    HW228296   3.845   4.018   8.435  0.7133 -1.4283 -1.4442
 5554SOL     OW28297   1.734   3.532   1.952  0.1528  0.6632 -0.2880
 5554SOL    HW128298   1.674   3.606   1.940  0.9895  1.3901 -0.0850
 5554SOL    HW228299   1.691   3.454   1.917 -0.6109  1.1014 -0.3354
 5555SOL     OW28300   0.309   0.150  10.635 -0.0764 -0.2326  0.1254
 5555SOL    HW128301   0.271   0.183  10.717 -0.6639  1.7878 -0.9547
 5555SOL    HW228302   0.335   0.059  10.644 -1.4894 -0.6718 -0.2107
 5556SOL     OW28303   0.035   2.715   7.167  0.1421  0.1904 -0.0399
 5556SOL    HW128304   4.698   2.775   7.161  2.2493  2.7805 -0.3212
 5556SOL    HW228305   0.110   2.764   7.202 -0.8116  0.0045  2.2731
 5557SOL     OW28306   2.492   3.287  17.730 -0.0368 -0.8645  0.0576
 5557SOL    HW128307   2.544   3.234  17.670  2.3975 -0.5317  1.8808
 5557SOL    HW228308   2.449   3.214   0.029 -1.3343  0.9235  1.6690
 5558SOL     OW28309   2.303   1.287   5.075 -0.1691  0.0338 -0.5246
 5558SOL    HW128310   2.305   1.377   5.044 -2.8506 -0.7927 -3.1597
 5558SOL    HW228311   2.265   1.245   4.998  0.8657 -1.6637 -0.1181
 5559SOL     OW28312   1.465   0.621   4.264 -0.4395 -0.5637  0.2290
 5559SOL    HW128313   1.459   0.639   4.170  0.5401 -1.4508  0.0047
 5559SOL    HW228314   1.550   0.657   4.290 -0.5531 -0.7867  0.9089
 5560SOL     OW28315   1.952   4.535   4.852  0.2253  0.3358  0.3622
 5560SOL    HW128316   2.002   4.453   4.855 -1.0291 -0.4875 -1.4477
 5560SOL    HW228317   1.869   4.499   4.821  0.5735 -1.6520  1.7339
 5561SOL     OW28318   3.919   4.673   7.297  0.2351 -0.3505  0.6513
 5561SOL    HW128319   3.843   4.662   7.354  0.9945 -3.8900  0.9799
 5561SOL    HW228320   3.973   4.710   7.367  1.1043 -2.1736  0.9233
 5562SOL     OW28321   0.308   3.191  12.242  0.4694 -0.2864  0.4086
 5562SOL    HW128322   0.275   3.280  12.254 -2.5852 -1.0543 -2.1074
 5562SOL    HW228323   0.390   3.183  12.290  0.3557  0.1588  0.6745
 5563SOL     OW28324   0.076   1.246   5.974 -0.6997 -0.4688 -0.3166
 5563SOL    HW128325   0.167   1.265   5.999 -1.5440  1.5826  1.1139
 5563SOL    HW228326   0.046   1.209   6.057 -1.7802 -0.1695 -0.5731
 5564SOL     OW28327   1.207   2.822  13.863  0.3763 -0.0437 -0.3432
 5564SOL    HW128328   1.145   2.754  13.837 -0.2107  0.6936 -0.8645
 5564SOL    HW228329   1.288   2.775  13.840  1.7254  1.0448  2.1546
 5565SOL     OW28330   1.254   3.462   1.300  0.3293 -0.6344  0.1198
 5565SOL    HW128331   1.288   3.537   1.251  0.2960  1.0268  2.6351
 5565SOL    HW228332   1.201   3.511   1.363  1.6087  3.5940 -2.0910
 5566SOL     OW28333   1.117   4.333   5.485  0.3523 -0.1284  0.1591
 5566SOL    HW128334   1.134   4.421   5.518 -1.2950  0.2275  0.0474
 5566SOL    HW228335   1.091   4.350   5.395  2.2481  2.3976  0.0909
 5567SOL     OW28336   2.502   0.593   3.398  0.2410 -0.2311  0.1782
 5567SOL    HW128337   2.567   0.559   3.459  0.2491  1.3743  1.0713
 5567SOL    HW228338   2.531   0.684   3.391 -2.5828  0.6882  0.2517
 5568SOL     OW28339   4.698   2.195   5.156  0.1681 -0.1782 -0.0521
 5568SOL    HW128340   4.622   2.138   5.165  0.6746 -0.4551  2.5013
 5568SOL    HW228341   4.678   2.262   5.222  1.9960 -0.9059  1.2437
 5569SOL     OW28342   3.124   1.025  14.621 -0.2920  0.6819 -0.0129
 5569SOL    HW128343   3.080   1.070  14.548 -1.0893  1.4653  0.9409
 5569SOL    HW228344   3.129   1.096  14.685  1.5875  0.0929  0.4873
 5570SOL     OW28345   4.157   0.537  14.981 -0.4386 -0.5909 -0.0398
 5570SOL    HW128346   4.214   0.608  15.011 -0.2730 -0.9782  0.5757
 5570SOL    HW228347   4.124   0.512  15.067  1.9491 -1.1701  0.7305
 5571SOL     OW28348   3.560   2.097   4.284  0.1258  0.1779  0.3210
 5571SOL    HW128349   3.513   2.179   4.272 -0.4479 -0.2247 -0.1575
 5571SOL    HW228350   3.635   2.126   4.231  0.2769 -1.6538 -0.4498
 5572SOL     OW28351   1.383   0.502   4.623  0.0352 -0.2576 -0.4515
 5572SOL    HW128352   1.304   0.531   4.668 -1.2092 -0.0834 -2.7283
 5572SOL    HW228353   1.387   0.571   4.556 -1.7135  1.6559  1.3904
 5573SOL     OW28354   1.037   1.071   0.303  0.2410  0.0368 -0.0871
 5573SOL    HW128355   1.118   1.121   0.305 -0.1109  0.5702  1.0069
 5573SOL    HW228356   0.996   1.117   0.377 -0.5400  0.0321 -0.5098
 5574SOL     OW28357   0.973   3.638   6.249  0.7676  0.6089  0.8821
 5574SOL    HW128358   0.965   3.543   6.238  1.3431  0.7530 -0.7562
 5574SOL    HW228359   0.885   3.667   6.223  1.2357  1.1212 -0.0989
 5575SOL     OW28360   2.396   0.279   8.965 -0.1858 -0.1684 -0.1575
 5575SOL    HW128361   2.386   0.328   8.883 -1.4291  0.9198  0.6371
 5575SOL    HW228362   2.470   0.219   8.955  0.2694  0.6128 -1.4502
 5576SOL     OW28363   0.203   4.186   5.854  0.2098  0.3482 -0.5452
 5576SOL    HW128364   0.272   4.217   5.796  0.7375 -2.1097 -1.2672
 5576SOL    HW228365   0.187   4.098   5.819 -0.4190  0.3313 -0.2264
 5577SOL     OW28366   1.193   4.486  17.414 -0.0359  0.1133  0.0027
 5577SOL    HW128367   1.239   4.432  17.350  0.8067  0.1920  0.5422
 5577SOL    HW228368   1.261   4.550  17.436 -0.3066  0.1834  0.6541
 5578SOL     OW28369   4.017   2.336   8.837 -0.1474 -0.2912  0.2467
 5578SOL    HW128370   3.947   2.400   8.823  0.7261  0.1949 -1.8092
 5578SOL    HW228371   3.986   2.252   8.803  0.3066  0.2583 -1.5271
 5579SOL     OW28372   3.980   0.033   5.118 -0.2554 -0.0766 -0.0463
 5579SOL    HW128373   4.059   0.077   5.086  1.0342 -4.3142 -2.8006
 5579SOL    HW228374   3.943   4.737   5.036  0.7514 -0.9815 -0.1437
 5580SOL     OW28375   2.706   2.698  15.380  0.1235  0.5088 -0.1376
 5580SOL    HW128376   2.688   2.605  15.395  0.3967  0.5044  0.1775
 5580SOL    HW228377   2.618   2.732  15.364 -0.1653  0.9168  2.3294
 5581SOL     OW28378   2.341   4.444  15.763 -0.2318  0.2391 -0.3206
 5581SOL    HW128379   2.364   4.369  15.818  1.6697  1.5513  0.6958
 5581SOL    HW228380   2.281   4.497  15.815 -2.3219 -3.4783  1.0741
 5582SOL     OW28381   1.341   3.699   5.611 -0.7940 -0.0508  0.0213
 5582SOL    HW128382   1.430   3.729   5.594 -0.2175 -1.3514  0.7460
 5582SOL    HW228383   1.302   3.785   5.629  2.9801  1.1859  2.3671
 5583SOL     OW28384   0.397   4.379  10.002  0.6961  0.2263  0.0297
 5583SOL    HW128385   0.360   4.292   9.985 -1.0905  0.6926  1.4655
 5583SOL    HW228386   0.455   4.360  10.076 -1.3781 -0.8739  1.3844
 5584SOL     OW28387   0.290   2.280   6.853 -0.2479  0.2359 -0.0635
 5584SOL    HW128388   0.367   2.238   6.815 -1.5179 -0.9745 -1.2985
 5584SOL    HW228389   0.270   2.245   6.940  0.9707  1.6526  0.7811
 5585SOL     OW28390   0.325   3.634   7.164 -0.0578  0.4920  0.3372
 5585SOL    HW128391   0.413   3.662   7.190  0.9842 -0.5318 -2.0204
 5585SOL    HW228392   0.316   3.561   7.226 -2.2835 -0.6311 -1.3296
 5586SOL     OW28393   2.564   2.154   3.508  0.4397  0.1666 -0.1584
 5586SOL    HW128394   2.490   2.095   3.522  1.1768 -0.0982  2.6763
 5586SOL    HW228395   2.594   2.184   3.594 -0.6268 -1.0280  0.6361
 5587SOL     OW28396   4.172   1.142   3.404 -0.4928 -0.3628  0.0920
 5587SOL    HW128397   4.199   1.102   3.321  1.4558  1.4817 -0.1552
 5587SOL    HW228398   4.084   1.176   3.389 -0.6272  0.0921  1.9790
 5588SOL     OW28399   2.176   0.595  15.331  0.2840 -0.0297  0.1082
 5588SOL    HW128400   2.218   0.552  15.404 -1.0468 -1.6865 -0.0925
 5588SOL    HW228401   2.227   0.676  15.340  0.2808  0.0129 -0.2273
 5589SOL     OW28402   2.716   0.167  10.404 -0.0494  0.4224 -0.1581
 5589SOL    HW128403   2.682   0.250  10.370 -0.9650 -0.8586 -2.4114
 5589SOL    HW228404   2.810   0.178  10.390 -0.0235 -1.2321 -1.3309
 5590SOL     OW28405   4.296   3.446   6.701 -0.6752  0.4636 -0.4858
 5590SOL    HW128406   4.202   3.466   6.705 -0.9390 -0.8794 -0.0090
 5590SOL    HW228407   4.334   3.530   6.675 -0.7264 -0.1000 -2.4041
 5591SOL     OW28408   4.681   1.514   7.299  0.3007 -1.0822 -0.2227
 5591SOL    HW128409   0.031   1.533   7.266 -0.8623  1.3504 -1.9494
 5591SOL    HW228410   4.703   1.435   7.348  2.9543 -1.2239 -1.6684
 5592SOL     OW28411   0.705   0.079   4.131  0.2021 -0.6602  0.3882
 5592SOL    HW128412   0.727   0.100   4.040 -1.5036  0.0863  0.1420
 5592SOL    HW228413   0.611   0.062   4.125 -0.1485  1.3465  0.2021
 5593SOL     OW28414   0.308   0.562   4.240  0.1053  0.2710 -0.8444
 5593SOL    HW128415   0.313   0.634   4.176  2.7198  0.7091 -0.1379
 5593SOL    HW228416   0.249   0.602   4.304 -2.5122 -1.6138 -2.0494
 5594SOL     OW28417   0.576   3.514   3.780 -0.0062 -0.0472  0.6747
 5594SOL    HW128418   0.627   3.595   3.788  1.4977 -0.9888  0.5976
 5594SOL    HW228419   0.559   3.503   3.687  0.0302 -0.9224  0.7748
 5595SOL     OW28420   0.404   0.056   1.193 -0.6925  0.6345 -0.1912
 5595SOL    HW128421   0.389   0.143   1.229 -2.1976 -0.0718  0.9238
 5595SOL    HW228422   0.476   0.068   1.131  0.2221  0.7020  0.8814
 5596SOL     OW28423   2.932   0.229  13.674 -0.1274 -0.0681 -0.7461
 5596SOL    HW128424   2.919   0.293  13.743 -1.5176 -1.8978  0.7011
 5596SOL    HW228425   2.842   0.229  13.642 -0.2775  1.5865 -0.2962
 5597SOL     OW28426   2.486   1.839   2.982  0.1741  0.2190  0.4049
 5597SOL    HW128427   2.505   1.748   3.007 -2.2968 -0.3341  0.2572
 5597SOL    HW228428   2.497   1.881   3.068 -0.3109  1.7983 -0.3208
 5598SOL     OW28429   2.283   4.632   2.643  0.1700  0.2636 -0.3465
 5598SOL    HW128430   2.230   4.576   2.700  0.9723  0.8284  0.9655
 5598SOL    HW228431   2.357   4.619   2.702 -0.2366 -2.2431 -0.3882
 5599SOL     OW28432   2.994   2.378   8.570 -0.0386  0.0747 -0.4639
 5599SOL    HW128433   3.020   2.464   8.602 -0.5608  0.1874 -0.3364
 5599SOL    HW228434   2.992   2.340   8.659 -1.3901  0.5273 -0.3025
 5600SOL     OW28435   3.046   0.567   2.353  0.0389 -0.0873  0.6830
 5600SOL    HW128436   3.021   0.476   2.338 -0.6360  0.4239 -1.2561
 5600SOL    HW228437   3.134   0.558   2.315 -0.1372  0.9371  0.0398
 5601SOL     OW28438   0.005   0.302   0.763  0.4096  0.0472 -0.0811
 5601SOL    HW128439   4.652   0.295   0.794  0.0863  0.9293 -0.7999
 5601SOL    HW228440   0.016   0.396   0.751  0.7455  0.2417  1.8977
 5602SOL     OW28441   0.847   3.643   6.706 -0.5551  0.3823 -0.5938
 5602SOL    HW128442   0.868   3.591   6.628 -2.5599  1.1433 -1.6475
 5602SOL    HW228443   0.936   3.674   6.722 -0.1742 -0.9224 -0.1907
 5603SOL     OW28444   4.436   0.288   6.583  0.0248  0.5213 -0.1760
 5603SOL    HW128445   4.449   0.347   6.509  1.9335 -0.9123 -0.9786
 5603SOL    HW228446   4.529   0.269   6.595 -0.3921 -0.6432  1.2418
 5604SOL     OW28447   3.415   2.131   1.935  0.2605 -0.3348  0.1044
 5604SOL    HW128448   3.394   2.177   1.854 -0.8093 -4.3375 -1.9228
 5604SOL    HW228449   3.438   2.041   1.909  1.5602 -0.7794  2.7985
 5605SOL     OW28450   0.804   4.105   6.218  0.2200  0.3738 -0.3848
 5605SOL    HW128451   0.760   4.190   6.226 -1.1113 -0.3732  0.3407
 5605SOL    HW228452   0.888   4.140   6.190  0.0695  1.8625  1.0121
 5606SOL     OW28453   4.211   1.614   8.338 -0.1718  0.2125  0.3766
 5606SOL    HW128454   4.288   1.572   8.376 -0.6800  0.7147  1.9629
 5606SOL    HW228455   4.207   1.577   8.250 -1.1984 -1.3015  1.0565
 5607SOL     OW28456   3.903   3.992   2.284  0.1444 -0.0885 -0.2633
 5607SOL    HW128457   3.922   4.079   2.320 -2.1483  0.5232 -0.5646
 5607SOL    HW228458   3.890   4.015   2.192 -2.7352  0.6106  0.3164
 5608SOL     OW28459   3.086   4.052  17.314  0.1770 -0.3564  0.0354
 5608SOL    HW128460   3.051   4.009  17.392 -0.6631  2.3366  1.1352
 5608SOL    HW228461   3.178   4.035  17.334  0.4994  0.1284 -1.0343
 5609SOL     OW28462   0.810   1.827   4.042 -0.2119 -0.1974  0.5029
 5609SOL    HW128463   0.748   1.814   4.113  1.4817  1.0724  2.2144
 5609SOL    HW228464   0.824   1.921   4.053 -1.7733  0.2575 -1.3853
 5610SOL     OW28465   2.739   4.182   8.813 -0.0897 -0.3834  0.0605
 5610SOL    HW128466   2.654   4.187   8.856 -0.0067  1.9081 -0.0237
 5610SOL    HW228467   2.778   4.104   8.852 -1.2393 -0.9290  0.1031
 5611SOL     OW28468   2.267   4.232   7.127  0.2262 -0.5940  0.0866
 5611SOL    HW128469   2.217   4.179   7.065 -1.4736  0.1966  0.7971
 5611SOL    HW228470   2.349   4.210   7.082 -1.1827 -3.2676 -1.1755
 5612SOL     OW28471   1.524   2.675  15.015 -0.4388  0.0691  0.0363
 5612SOL    HW128472   1.594   2.612  14.996  1.1854  1.1223  2.5408
 5612SOL    HW228473   1.499   2.703  14.927  1.1123 -1.6459 -0.9606
 5613SOL     OW28474   2.481   4.515  13.624 -0.0931 -0.1162  0.0380
 5613SOL    HW128475   2.502   4.433  13.580  1.3638 -1.0146  2.3945
 5613SOL    HW228476   2.563   4.514  13.674 -0.4214 -0.1949  0.5858
 5614SOL     OW28477   4.021   1.351  14.885  0.5203  0.1578  0.2876
 5614SOL    HW128478   4.011   1.444  14.870 -0.2455  0.2481  1.4431
 5614SOL    HW228479   3.991   1.327  14.797  0.8546 -0.3565  0.3120
 5615SOL     OW28480   0.764   0.635   1.353 -0.2058  0.2748 -0.2839
 5615SOL    HW128481   0.776   0.551   1.397  1.8895  0.0213 -1.3229
 5615SOL    HW228482   0.694   0.632   1.288  0.5847  0.9079 -1.1731
 5616SOL     OW28483   4.664   3.825   7.733 -0.0160  0.2116  0.6843
 5616SOL    HW128484   4.700   3.744   7.698  0.0711  0.6293 -0.2038
 5616SOL    HW228485   4.642   3.789   7.819  0.9938 -0.2035  0.7638
 5617SOL     OW28486   1.707   0.746   4.298  0.6882  0.2281 -0.4559
 5617SOL    HW128487   1.723   0.808   4.227 -0.2768  0.1818 -0.7146
 5617SOL    HW228488   1.797   0.718   4.319 -0.0835 -2.6831 -1.0550
 5618SOL     OW28489   4.520   4.698   7.794 -0.1396 -0.0082  0.1148
 5618SOL    HW128490   4.611   4.676   7.816  0.3695  1.9287  0.0118
 5618SOL    HW228491   4.483   4.615   7.765 -0.8246  0.1219  0.6261
 5619SOL     OW28492   0.959   2.331  16.258  0.3508  0.1323  0.1690
 5619SOL    HW128493   0.933   2.244  16.228 -0.4906  0.7036 -0.7768
 5619SOL    HW228494   0.932   2.337  16.349 -0.0732 -1.8905  0.1759
 5620SOL     OW28495   0.565   4.466   0.681  0.1191  0.1583  0.0418
 5620SOL    HW128496   0.597   4.421   0.603 -1.9829  0.2013 -0.8465
 5620SOL    HW228497   0.584   4.555   0.651 -2.3194  1.0090  0.9926
 5621SOL     OW28498   1.356   2.526   9.155 -0.0609  0.2781 -0.0776
 5621SOL    HW128499   1.277   2.569   9.186  1.8074  1.9913  2.2953
 5621SOL    HW228500   1.428   2.578   9.192  0.9075 -0.4898 -0.8625
 5622SOL     OW28501   1.269   4.379   6.208  0.5235  0.4395 -0.0753
 5622SOL    HW128502   1.233   4.467   6.194  0.2040  0.5119  1.2619
 5622SOL    HW228503   1.192   4.323   6.206  2.0273 -1.5680 -0.8874
 5623SOL     OW28504   1.338   1.207   5.050 -0.0338  0.2612 -0.7081
 5623SOL    HW128505   1.242   1.209   5.048 -0.0128 -0.2710 -2.5872
 5623SOL    HW228506   1.361   1.169   4.965 -0.5997 -0.6149 -0.4697
 5624SOL     OW28507   3.925   0.823   3.637  0.1840  0.3921 -0.9107
 5624SOL    HW128508   3.883   0.866   3.563 -1.0292  0.8510  0.0381
 5624SOL    HW228509   4.014   0.838   3.605  0.2009  1.5340 -0.3211
 5625SOL     OW28510   4.097   3.342   3.026  0.1458 -0.5942  0.2975
 5625SOL    HW128511   4.069   3.281   2.959  0.4390  0.1688 -0.5243
 5625SOL    HW228512   4.015   3.360   3.072 -0.5169  0.4668 -1.2977
 5626SOL     OW28513   4.042   1.971   2.854  0.0638  0.3056  0.6496
 5626SOL    HW128514   3.974   1.951   2.918 -0.0686 -2.1412 -0.2346
 5626SOL    HW228515   3.997   2.043   2.811  1.3282 -0.7141 -2.4145
 5627SOL     OW28516   2.242   2.673  11.554  0.4300 -0.2129 -0.0564
 5627SOL    HW128517   2.231   2.765  11.580 -1.2487  0.2317 -2.3740
 5627SOL    HW228518   2.270   2.677  11.463  0.6382 -1.2166 -0.0343
 5628SOL     OW28519   2.231   3.340   1.497  0.1341  0.1861 -0.0745
 5628SOL    HW128520   2.200   3.358   1.586 -0.6544 -0.0138 -0.3033
 5628SOL    HW228521   2.303   3.401   1.488  1.6058 -1.5206  0.1536
 5629SOL     OW28522   1.805   0.471   1.384 -0.0746  0.0021  0.1477
 5629SOL    HW128523   1.766   0.555   1.410  1.3550  0.8413 -0.4437
 5629SOL    HW228524   1.876   0.460   1.447  0.4267  0.8891 -0.2615
 5630SOL     OW28525   3.729   1.137   5.014  0.4425  1.0865  0.3691
 5630SOL    HW128526   3.693   1.100   4.933  1.7024  1.7434 -0.5028
 5630SOL    HW228527   3.661   1.120   5.079  1.7777 -0.1938  1.4101
 5631SOL     OW28528   2.409   1.286   0.510  0.4757  0.2079  0.8550
 5631SOL    HW128529   2.433   1.261   0.599 -0.0696 -1.0276  0.6474
 5631SOL    HW228530   2.413   1.381   0.525  0.3338  0.3566 -0.0146
 5632SOL     OW28531   1.088   3.645   3.965  0.1134 -0.3546  0.3638
 5632SOL    HW128532   1.107   3.695   3.886  0.7074  0.7550  1.2020
 5632SOL    HW228533   1.178   3.629   3.995  0.1526  1.2293  1.1056
 5633SOL     OW28534   1.755   0.641   3.072 -0.0929  0.3361 -0.1066
 5633SOL    HW128535   1.718   0.560   3.037  0.1115  0.2014 -0.0146
 5633SOL    HW228536   1.824   0.656   3.008  0.7327 -1.2936  0.3996
 5634SOL     OW28537   2.722   2.735   6.496 -0.1465 -0.0448 -0.5401
 5634SOL    HW128538   2.813   2.713   6.477  0.3323  1.1928  0.3019
 5634SOL    HW228539   2.735   2.810   6.554 -2.0339 -0.1292 -0.0033
 5635SOL     OW28540   2.998   0.020  10.952 -0.4615 -0.0216  0.2104
 5635SOL    HW128541   2.974   0.095  11.007  0.7991  1.6973 -1.5825
 5635SOL    HW228542   3.065   0.058  10.895  0.3143 -0.5032  0.7972
 5636SOL     OW28543   4.367   3.621   8.081  0.4466  0.2766  0.1468
 5636SOL    HW128544   4.299   3.676   8.120 -0.0752 -0.1674 -0.1380
 5636SOL    HW228545   4.342   3.537   8.119 -1.1404  0.8366  0.3326
 5637SOL     OW28546   4.167   4.286   6.013  0.4359  0.0124 -0.5686
 5637SOL    HW128547   4.094   4.346   5.994  0.1619 -0.2834 -0.4605
 5637SOL    HW228548   4.135   4.226   6.081  1.0419  0.3043 -0.0352
 5638SOL     OW28549   0.434   0.930   9.672  0.1734  0.4337  0.3398
 5638SOL    HW128550   0.393   0.961   9.753  3.1813 -1.7873  2.7013
 5638SOL    HW228551   0.496   1.000   9.653  1.6521 -1.1557 -0.5708
 5639SOL     OW28552   4.113   0.105  10.439 -0.3874  0.2669  0.0325
 5639SOL    HW128553   4.056   0.029  10.436 -2.3742  1.6385  2.1753
 5639SOL    HW228554   4.069   0.170  10.385  0.7570  1.4615  0.5291
 5640SOL     OW28555   4.163   4.120  15.361  0.1140 -0.4060  0.0108
 5640SOL    HW128556   4.097   4.050  15.359 -0.0570 -0.1974 -1.4370
 5640SOL    HW228557   4.141   4.160  15.277 -2.4367 -1.2889  0.2408
 5641SOL     OW28558   2.838   1.429   3.329  0.6363 -0.2744  0.0289
 5641SOL    HW128559   2.749   1.398   3.311  2.1132 -3.5966 -1.6194
 5641SOL    HW228560   2.877   1.344   3.307  0.1784 -0.8134  1.3451
 5642SOL     OW28561   1.960   1.736   6.832 -0.3287 -0.3133  0.5612
 5642SOL    HW128562   1.964   1.669   6.900  1.1999 -0.4562  0.3269
 5642SOL    HW228563   1.869   1.766   6.833 -0.6512 -1.1949 -1.0022
 5643SOL     OW28564   0.939   2.977  13.383 -0.2648 -0.1958 -0.2728
 5643SOL    HW128565   0.881   2.917  13.430  1.9702 -1.2843  1.0968
 5643SOL    HW228566   1.012   2.920  13.358 -0.4000 -1.2500  1.7205
 5644SOL     OW28567   1.436   3.342   7.474 -0.3054  0.4997  0.4337
 5644SOL    HW128568   1.351   3.335   7.516 -0.5914  0.8016 -0.0903
 5644SOL    HW228569   1.467   3.424   7.512  2.2654 -0.7016  0.9099
 5645SOL     OW28570   4.008   2.969   3.204 -0.2685 -0.1228  0.3038
 5645SOL    HW128571   4.073   2.960   3.134 -0.5887 -3.1797  0.3807
 5645SOL    HW228572   4.075   2.980   3.272 -0.0382  0.0927  0.0401
 5646SOL     OW28573   3.436   2.058   5.619 -0.8486 -0.1917  0.0928
 5646SOL    HW128574   3.455   1.965   5.606 -0.4956 -0.0505 -0.4000
 5646SOL    HW228575   3.355   2.057   5.568  0.7818 -0.2699 -2.4832
 5647SOL     OW28576   3.685   2.451  17.075  0.3080 -0.2575 -0.4156
 5647SOL    HW128577   3.639   2.469  17.157  2.2246  1.6238  0.2575
 5647SOL    HW228578   3.764   2.501  17.093 -0.1722  0.1548  0.5365
 5648SOL     OW28579   2.818   0.833  15.409 -0.6870 -0.2791 -0.0489
 5648SOL    HW128580   2.727   0.828  15.436 -0.7855 -0.4602 -0.4107
 5648SOL    HW228581   2.825   0.928  15.423  0.9909  0.0089 -2.8901
 5649SOL     OW28582   1.276   3.823   9.018  0.1998 -0.0733 -0.2761
 5649SOL    HW128583   1.297   3.775   8.938  2.1072  0.4611 -0.1043
 5649SOL    HW228584   1.363   3.834   9.057 -1.0276  1.0157  2.1792
 5650SOL     OW28585   1.256   3.793   4.202  0.2298 -0.2384 -0.1031
 5650SOL    HW128586   1.278   3.723   4.140 -1.1980  1.6241 -2.7325
 5650SOL    HW228587   1.256   3.862   4.134  0.2600  1.3130  1.4757
 5651SOL     OW28588   2.214   4.011   6.715  0.4001 -0.1118  0.0606
 5651SOL    HW128589   2.174   4.000   6.801 -1.7857 -2.1424 -1.2328
 5651SOL    HW228590   2.148   3.971   6.658  1.4363  1.0112 -1.9596
 5652SOL     OW28591   0.784   3.453   7.350  0.1409 -0.1247  0.7515
 5652SOL    HW128592   0.762   3.526   7.408 -0.8504 -0.0511  0.2795
 5652SOL    HW228593   0.762   3.492   7.266 -0.0316  1.3083  1.4613
 5653SOL     OW28594   3.425   1.967   7.090 -1.0593  0.3653  0.6622
 5653SOL    HW128595   3.420   2.022   7.012 -2.1413 -0.8652 -0.1332
 5653SOL    HW228596   3.441   1.887   7.040 -1.5398 -0.3656  1.6678
 5654SOL     OW28597   1.694   1.019   4.183  0.2317 -0.1629  0.1127
 5654SOL    HW128598   1.605   0.991   4.202  0.3862 -1.8411 -1.5580
 5654SOL    HW228599   1.665   1.070   4.107 -0.8138 -1.8418 -0.6257
 5655SOL     OW28600   3.068   3.687   9.684  0.1041  0.0851  0.2623
 5655SOL    HW128601   3.093   3.604   9.644 -0.3647 -0.3518  0.8750
 5655SOL    HW228602   3.119   3.701   9.764  0.4802  0.3380 -0.0206
 5656SOL     OW28603   2.834   2.006  16.257 -0.1522  0.2293  0.1036
 5656SOL    HW128604   2.828   1.926  16.204 -0.8492 -0.0585  0.6116
 5656SOL    HW228605   2.808   2.071  16.192  0.3108  2.2651  1.9504
 5657SOL     OW28606   0.406   0.733   5.274 -0.7435  0.0919  0.1266
 5657SOL    HW128607   0.490   0.759   5.312 -1.4949 -0.6844  2.3162
 5657SOL    HW228608   0.370   0.816   5.240 -0.3306  0.0843 -0.3278
 5658SOL     OW28609   4.486   4.737   3.184  0.2135 -0.1303  1.1067
 5658SOL    HW128610   4.519   0.088   3.166 -0.4158  0.0957  1.0685
 5658SOL    HW228611   4.512   4.730   3.276 -1.8175  1.2188  1.7674
 5659SOL     OW28612   1.695   1.719   8.115 -0.0859 -0.0784 -0.4513
 5659SOL    HW128613   1.708   1.625   8.124 -2.7076 -0.3875  0.1362
 5659SOL    HW228614   1.768   1.753   8.167 -2.6809 -0.2632  3.4003
 5660SOL     OW28615   4.660   1.982   0.097  0.2247  0.3815  0.0807
 5660SOL    HW128616   4.664   2.076   0.114  2.0751  0.1745  0.7455
 5660SOL    HW228617   4.606   1.980   0.018 -2.1716  0.0313  1.7292
 5661SOL     OW28618   1.539   4.501  17.372  0.1640 -0.0904 -0.5674
 5661SOL    HW128619   1.484   4.453  17.309  0.9940 -1.5612 -0.1810
 5661SOL    HW228620   1.613   4.544  17.330  0.2897  0.5697  0.3449
 5662SOL     OW28621   3.813   3.346   8.100 -0.1975  0.6940  0.4160
 5662SOL    HW128622   3.847   3.263   8.132 -0.7007  1.0552  1.9057
 5662SOL    HW228623   3.832   3.401   8.176  1.5771  0.7422 -0.0658
 5663SOL     OW28624   1.798   4.412   9.740 -0.1663  0.0037  0.2263
 5663SOL    HW128625   1.861   4.461   9.792 -0.6053  1.4198 -0.5910
 5663SOL    HW228626   1.853   4.351   9.690  1.6623  0.5240  1.6052
 5664SOL     OW28627   0.536   2.428  16.502  0.0052 -0.6129 -0.4826
 5664SOL    HW128628   0.472   2.368  16.463 -1.8418  0.9851  0.1262
 5664SOL    HW228629   0.533   2.394  16.591 -0.5994  0.3699 -0.1323
 5665SOL     OW28630   2.307   2.721   0.757  0.3155  0.0330 -0.1574
 5665SOL    HW128631   2.293   2.653   0.691  2.1558 -0.1811 -0.3094
 5665SOL    HW228632   2.400   2.703   0.765  0.4166  1.0080  0.9103
 5666SOL     OW28633   0.173   0.754   4.090  0.1384  0.0523 -0.8110
 5666SOL    HW128634   0.174   0.844   4.123  0.0487  0.3333 -1.5761
 5666SOL    HW228635   0.078   0.746   4.076  0.1984 -0.7015 -0.8240
 5667SOL     OW28636   1.561   3.375   7.205  0.1658  0.6397 -0.1164
 5667SOL    HW128637   1.526   3.330   7.282 -1.7832  2.1785 -0.1207
 5667SOL    HW228638   1.543   3.313   7.133 -2.5488 -0.6458  1.6509
 5668SOL     OW28639   4.439   1.246   5.677 -0.1195 -0.0963 -0.3501
 5668SOL    HW128640   4.429   1.341   5.679 -2.9300 -0.3989  0.8234
 5668SOL    HW228641   4.514   1.227   5.733 -1.3621 -1.2881  0.9541
 5669SOL     OW28642   2.079   0.722  10.471 -0.1876  0.4034 -0.1031
 5669SOL    HW128643   1.986   0.697  10.465 -0.2343  0.0154  2.2749
 5669SOL    HW228644   2.068   0.812  10.500  1.2987  0.3157  0.7050
 5670SOL     OW28645   2.020   0.643  17.604 -0.5583  0.3322  0.4489
 5670SOL    HW128646   2.022   0.603  17.691  1.2859 -2.9526 -1.1140
 5670SOL    HW228647   1.953   0.710  17.615 -2.7143 -1.5101 -1.2972
 5671SOL     OW28648   2.304   2.389   5.321 -0.7062 -0.6899 -0.1648
 5671SOL    HW128649   2.318   2.355   5.409 -1.4226  1.2310  0.6867
 5671SOL    HW228650   2.210   2.403   5.309 -0.6854 -1.3108 -1.0562
 5672SOL     OW28651   0.192   4.579  17.440  0.4367  0.1867 -0.0655
 5672SOL    HW128652   0.274   4.626  17.426  1.1290 -0.3295  2.3177
 5672SOL    HW228653   0.227   4.491  17.453 -0.1511  0.0879  0.8414
 5673SOL     OW28654   0.514   3.950   5.371  0.4147  0.0273 -0.0360
 5673SOL    HW128655   0.525   4.045   5.380  1.8834 -0.1556  0.1085
 5673SOL    HW228656   0.434   3.948   5.423 -0.0484  2.0785 -0.6474
 5674SOL     OW28657   0.981   0.543   4.280  0.0095 -0.0785 -0.0760
 5674SOL    HW128658   1.041   0.491   4.334  1.5276  1.8780  0.1373
 5674SOL    HW228659   1.029   0.536   4.198  0.1620 -1.4687  0.1363
 5675SOL     OW28660   2.690   3.854  17.262  0.0939 -0.3872 -1.1609
 5675SOL    HW128661   2.658   3.796  17.331  0.0917  0.2574 -0.6222
 5675SOL    HW228662   2.720   3.927  17.315  3.3017  0.0488 -3.5798
 5676SOL     OW28663   0.934   0.730   8.115  0.2475  0.6287 -0.2754
 5676SOL    HW128664   0.880   0.763   8.043 -0.0152 -0.5788 -0.6353
 5676SOL    HW228665   0.877   0.673   8.168 -0.1021 -0.2599 -1.6122
 5677SOL     OW28666   0.834   3.908   4.426  0.4618  0.2837  0.3681
 5677SOL    HW128667   0.879   3.848   4.366  1.5368 -1.2867  2.7818
 5677SOL    HW228668   0.863   3.884   4.514 -1.6055  2.1622  1.5551
 5678SOL     OW28669   3.849   2.217  14.755 -0.6938 -0.5040  0.0807
 5678SOL    HW128670   3.782   2.206  14.822 -0.0371  1.3451  1.0431
 5678SOL    HW228671   3.922   2.178  14.802 -0.4014 -1.0656 -0.8315
 5679SOL     OW28672   3.009   4.575   3.132  0.4728  0.1192 -0.3994
 5679SOL    HW128673   3.014   4.537   3.044  0.3700 -0.6379 -0.0769
 5679SOL    HW228674   2.973   4.662   3.114 -0.9104 -0.6209 -1.1892
 5680SOL     OW28675   4.490   2.122   8.655  0.4175  0.1367  0.4125
 5680SOL    HW128676   4.438   2.136   8.734  1.4446  0.5253  1.0245
 5680SOL    HW228677   4.425   2.156   8.594 -0.6660  0.8301  1.9532
 5681SOL     OW28678   4.371   3.305   8.474 -0.3844 -0.3263 -0.0025
 5681SOL    HW128679   4.391   3.399   8.482  2.4957 -1.0352  1.2329
 5681SOL    HW228680   4.334   3.304   8.386 -3.0967  0.2315  1.1540
 5682SOL     OW28681   1.898   0.518   5.431 -0.2283 -0.2614 -0.7621
 5682SOL    HW128682   1.981   0.473   5.446 -0.3033 -0.6286 -1.4345
 5682SOL    HW228683   1.900   0.537   5.337 -4.1265  0.3254 -0.7409
 5683SOL     OW28684   4.681   4.215  13.794 -0.1130 -0.0534 -0.2298
 5683SOL    HW128685   4.627   4.181  13.866  0.6941  0.6232  0.7008
 5683SOL    HW228686   0.004   4.141  13.787  1.4123  1.1480  0.0924
 5684SOL     OW28687   4.282   2.096   2.965  0.0851 -0.5986 -0.3144
 5684SOL    HW128688   4.203   2.091   2.911 -0.6137  1.3282  0.5120
 5684SOL    HW228689   4.346   2.037   2.925  0.3977  0.5474 -1.5122
 5685SOL     OW28690   3.816   0.749   1.442  0.0434 -0.1938  0.0033
 5685SOL    HW128691   3.885   0.806   1.477  0.5126 -0.3409 -0.6801
 5685SOL    HW228692   3.865   0.678   1.400 -0.1494  0.3163 -1.0821
 5686SOL     OW28693   3.980   4.677   1.678  0.1759 -0.2191  0.0903
 5686SOL    HW128694   3.928   4.599   1.659  2.4906 -1.6692 -0.3362
 5686SOL    HW228695   4.066   4.633   1.675 -0.5453 -1.4866 -2.3344
 5687SOL     OW28696   4.511   2.782   7.547  0.3332  0.6365  0.0720
 5687SOL    HW128697   4.531   2.737   7.465 -1.1736 -0.9251  0.5640
 5687SOL    HW228698   4.547   2.731   7.620  2.2548 -1.0287 -2.0600
 5688SOL     OW28699   3.901   3.370  15.401 -0.2522 -1.1709 -0.2132
 5688SOL    HW128700   3.854   3.288  15.418  1.6457 -2.3301 -0.6190
 5688SOL    HW228701   3.839   3.416  15.344  1.8728 -1.3239 -2.6521
 5689SOL     OW28702   3.602   3.620  14.077 -0.2238  0.0847 -0.1620
 5689SOL    HW128703   3.608   3.695  14.136  0.1390  0.4490 -0.6527
 5689SOL    HW228704   3.687   3.634  14.035 -0.2078  2.6030  0.7183
 5690SOL     OW28705   1.044   3.984   6.363 -0.7340 -0.1353 -0.1050
 5690SOL    HW128706   0.990   3.921   6.316 -0.3834 -0.9952  0.6655
 5690SOL    HW228707   1.131   3.944   6.356 -1.1853 -0.9747 -0.8484
 5691SOL     OW28708   3.072   1.192  11.519  0.5598 -0.1995  0.3999
 5691SOL    HW128709   3.080   1.204  11.613  0.9743  0.6661  0.2478
 5691SOL    HW228710   3.119   1.271  11.492 -0.8499  1.1309  1.8737
 5692SOL     OW28711   1.416   0.317   9.513 -0.1149 -0.0570 -0.0989
 5692SOL    HW128712   1.358   0.242   9.528  1.4126 -1.1267  0.4698
 5692SOL    HW228713   1.433   0.329   9.606  0.4120 -1.4924 -0.0042
 5693SOL     OW28714   0.360   1.051   8.216  0.2985 -0.3401 -0.0964
 5693SOL    HW128715   0.350   1.094   8.301 -0.8338  0.9230 -0.8615
 5693SOL    HW228716   0.369   1.127   8.160 -1.0190  0.6138  0.9994
 5694SOL     OW28717   0.258   3.697   7.566  0.0788  0.2145 -0.0851
 5694SOL    HW128718   0.309   3.616   7.572 -1.8191 -0.8937  1.0791
 5694SOL    HW228719   0.324   3.758   7.601 -0.6669  1.2797 -0.5417
 5695SOL     OW28720   2.479   0.376   5.848  0.2788  0.0581  0.1457
 5695SOL    HW128721   2.394   0.380   5.806  0.2400  1.6285  0.3845
 5695SOL    HW228722   2.453   0.388   5.939  1.2052 -1.0654  0.5587
 5696SOL     OW28723   1.521   2.307   4.683 -0.1251  0.8008  0.3315
 5696SOL    HW128724   1.614   2.293   4.703 -0.8292 -0.2475  2.8762
 5696SOL    HW228725   1.495   2.358   4.759  1.3757  1.7661  0.2064
 5697SOL     OW28726   0.744   4.139   8.739  0.0542  0.4189  0.5316
 5697SOL    HW128727   0.825   4.142   8.687  0.4822 -0.8236  1.1032
 5697SOL    HW228728   0.777   4.088   8.813 -0.1410 -0.7419 -0.1812
 5698SOL     OW28729   1.258   0.065   9.451 -0.0675  0.4593 -0.1764
 5698SOL    HW128730   1.196   4.734   9.426  1.0136 -0.4509 -0.3670
 5698SOL    HW228731   1.326   0.019   9.502 -2.0717 -2.9747 -0.6014
 5699SOL     OW28732   0.686   0.143   8.322  0.2883  0.4958 -0.0495
 5699SOL    HW128733   0.705   0.050   8.331 -0.7107  0.3045  0.0684
 5699SOL    HW228734   0.646   0.156   8.408  0.7147  1.4941 -0.0039
 5700SOL     OW28735   3.929   1.622  10.452 -0.0211  0.0377  0.4749
 5700SOL    HW128736   3.844   1.661  10.471 -0.5432 -1.5383  1.3390
 5700SOL    HW228737   3.945   1.590  10.540 -3.7700 -0.3498  1.0043
 5701SOL     OW28738   0.795   3.128   2.284  0.3274 -0.0184 -0.0174
 5701SOL    HW128739   0.811   3.123   2.379  1.1387  2.6976 -0.0162
 5701SOL    HW228740   0.878   3.098   2.247  0.2510  0.6527 -0.7170
 5702SOL     OW28741   1.188   2.244  17.176  0.0417  0.0394 -0.4847
 5702SOL    HW128742   1.228   2.241  17.089 -3.3649  1.5131 -2.0957
 5702SOL    HW228743   1.267   2.226  17.226 -1.1827  0.1616  1.4822
 5703SOL     OW28744   4.372   2.453  12.940  0.0556  0.3555  0.7858
 5703SOL    HW128745   4.310   2.517  12.903  0.2571  0.3795  0.4921
 5703SOL    HW228746   4.311   2.381  12.958  0.0996 -0.4031 -2.0990
 5704SOL     OW28747   2.689   1.562  11.900  0.3588 -0.3621  0.1380
 5704SOL    HW128748   2.776   1.522  11.905  0.0859 -1.1237 -1.0215
 5704SOL    HW228749   2.640   1.505  11.959  0.4270 -0.4291  0.1292
 5705SOL     OW28750   0.599   0.356   3.960 -0.2199  0.4024  0.0352
 5705SOL    HW128751   0.672   0.298   3.940 -0.4331 -0.5055  1.8272
 5705SOL    HW228752   0.567   0.331   4.047 -1.2188 -1.0177 -0.7266
 5706SOL     OW28753   3.968   4.566  10.629 -0.0737  0.7507 -0.7167
 5706SOL    HW128754   4.060   4.594  10.625 -0.0072  0.3863 -1.7050
 5706SOL    HW228755   3.976   4.503  10.701  0.0097  1.5764 -0.0144
 5707SOL     OW28756   1.477   4.449   4.637  0.1838  0.5078 -0.1016
 5707SOL    HW128757   1.475   4.353   4.628 -0.7966  0.4945  0.3678
 5707SOL    HW228758   1.465   4.480   4.547 -2.4636  2.9414  1.1008
 5708SOL     OW28759   1.904   4.695   0.426 -0.2229 -0.0815 -0.1152
 5708SOL    HW128760   1.849   4.702   0.349  0.9042  2.7816 -0.6433
 5708SOL    HW228761   1.910   0.052   0.439 -1.3588 -0.3807  2.6987
 5709SOL     OW28762   1.605   3.366  15.240  0.2594  0.1780  0.0565
 5709SOL    HW128763   1.692   3.383  15.276  0.1949  2.9143 -1.0842
 5709SOL    HW228764   1.634   3.303  15.174 -3.6607 -0.2174 -1.2480
 5710SOL     OW28765   2.146   1.661   3.402  0.2487  0.0131  0.2025
 5710SOL    HW128766   2.086   1.699   3.466  0.9259  0.6995  0.4241
 5710SOL    HW228767   2.078   1.617   3.352  2.5088 -1.1104 -1.9037
 5711SOL     OW28768   4.537   0.725   3.015  0.7481  0.0041  0.1354
 5711SOL    HW128769   4.536   0.674   3.096  0.0734  2.9921  2.0460
 5711SOL    HW228770   4.546   0.813   3.053 -1.0129 -1.2276  3.4474
 5712SOL     OW28771   4.458   1.255   0.371  0.4295  0.2978 -0.0699
 5712SOL    HW128772   4.460   1.175   0.318 -0.9585 -0.3424  0.8390
 5712SOL    HW228773   4.546   1.273   0.403  0.9432 -0.2697 -1.1652
 5713SOL     OW28774   2.148   1.389   8.923 -0.6139 -0.2998  0.1569
 5713SOL    HW128775   2.063   1.414   8.887 -0.4809  0.0246  0.0730
 5713SOL    HW228776   2.167   1.459   8.985  3.8684 -0.5086 -1.0037
 5714SOL     OW28777   4.116   1.160  14.451  0.3735  0.3359  0.1273
 5714SOL    HW128778   4.171   1.085  14.472  1.3604  0.8589 -0.6151
 5714SOL    HW228779   4.180   1.218  14.410 -0.1069  0.5632 -0.3142
 5715SOL     OW28780   1.848   0.463   2.616  0.4111  0.3226 -0.1472
 5715SOL    HW128781   1.798   0.406   2.558 -1.5300  1.0864  0.7426
 5715SOL    HW228782   1.770   0.504   2.655  0.6349  1.6098 -1.0455
 5716SOL     OW28783   0.436   3.213   3.628  0.3209 -0.2223  0.6591
 5716SOL    HW128784   0.378   3.252   3.692 -0.7206  0.9888 -1.0375
 5716SOL    HW228785   0.517   3.197   3.678  0.8768  1.8911  0.4456
 5717SOL     OW28786   1.496   4.163  13.787 -0.9182 -0.1987 -0.6718
 5717SOL    HW128787   1.577   4.196  13.747 -0.1191 -1.5176 -0.1408
 5717SOL    HW228788   1.460   4.130  13.705 -0.1035 -0.7140 -0.8217
 5718SOL     OW28789   3.265   2.516   7.270 -0.0098 -0.1146  0.5980
 5718SOL    HW128790   3.232   2.475   7.349  0.0358 -1.5096 -0.1163
 5718SOL    HW228791   3.351   2.546   7.299  0.2301 -0.8875  0.6729
 5719SOL     OW28792   2.913   0.247  11.059 -0.3115  0.1722  0.3182
 5719SOL    HW128793   2.874   0.266  11.144 -2.0240  0.5686 -0.5554
 5719SOL    HW228794   2.844   0.203  11.009 -0.5932  1.2012 -0.2050
 5720SOL     OW28795   3.592   3.709   3.093  0.4437 -0.7084  0.8675
 5720SOL    HW128796   3.509   3.691   3.049  0.3509  0.2005  0.6675
 5720SOL    HW228797   3.651   3.739   3.024 -1.6190  3.4334  0.8884
 5721SOL     OW28798   1.793   2.278   4.019 -0.6014  0.4192 -0.1801
 5721SOL    HW128799   1.824   2.355   4.067  1.3479 -0.9817  0.8140
 5721SOL    HW228800   1.787   2.218   4.093  2.1201  1.0398  0.5604
 5722SOL     OW28801   2.800   0.951   2.562  0.2285  0.1806  0.1114
 5722SOL    HW128802   2.724   0.985   2.609  0.5227 -1.7221  1.9786
 5722SOL    HW228803   2.770   0.991   2.480  0.9705 -2.0751 -1.2893
 5723SOL     OW28804   0.827   1.323   6.803 -0.6524 -0.2535  0.4141
 5723SOL    HW128805   0.792   1.408   6.776  1.1305  0.2438 -0.2963
 5723SOL    HW228806   0.866   1.343   6.889  0.0054 -0.3738  0.1408
 5724SOL     OW28807   4.025   1.662  17.330 -0.1631  0.5877  0.4873
 5724SOL    HW128808   3.946   1.664  17.276 -0.5713  0.4288  1.0717
 5724SOL    HW228809   4.094   1.647  17.265 -0.9694 -1.1702  0.0287
 5725SOL     OW28810   4.375   1.730  16.689 -0.2507  0.1147  0.0742
 5725SOL    HW128811   4.384   1.636  16.700 -0.4977  0.3735  2.5251
 5725SOL    HW228812   4.323   1.743  16.610 -0.0101  1.6588  0.1550
 5726SOL     OW28813   0.734   3.967   6.449 -0.0813 -0.4896  0.5374
 5726SOL    HW128814   0.746   3.980   6.355  1.0490 -2.4198  0.4036
 5726SOL    HW228815   0.697   4.054   6.464  1.9955  0.3299  0.9108
 5727SOL     OW28816   3.193   3.388   8.497 -0.6989  0.1735  0.0779
 5727SOL    HW128817   3.121   3.327   8.511  1.0937 -1.9689 -0.1736
 5727SOL    HW228818   3.213   3.362   8.408 -2.0909 -0.3806 -0.0754
 5728SOL     OW28819   3.212   1.918   6.079  0.7571 -0.4641 -0.1167
 5728SOL    HW128820   3.161   1.843   6.048  0.6111 -1.0476  1.5480
 5728SOL    HW228821   3.255   1.932   5.994  0.1576  1.2370 -0.1305
 5729SOL     OW28822   4.064   3.651   3.300  0.8721  0.0363 -0.0516
 5729SOL    HW128823   4.158   3.665   3.314  0.6568  3.3209 -1.8061
 5729SOL    HW228824   4.062   3.562   3.265 -1.4050 -0.1184  0.5099
 5730SOL     OW28825   2.694   1.129   7.729 -0.0760  0.3771  0.4195
 5730SOL    HW128826   2.624   1.070   7.758 -0.9680  0.2199 -2.0378
 5730SOL    HW228827   2.693   1.108   7.636 -2.0883  1.7651  0.1275
 5731SOL     OW28828   0.531   2.860   7.259  0.2589 -0.6143  0.7280
 5731SOL    HW128829   0.577   2.810   7.326  1.1251  0.5723  1.0367
 5731SOL    HW228830   0.592   2.926   7.225  2.2983 -2.3888  0.9877
 5732SOL     OW28831   0.781   2.438  17.628  0.1462  0.2864 -0.2475
 5732SOL    HW128832   0.772   2.419  17.534  2.2801  0.8935 -0.5716
 5732SOL    HW228833   0.847   2.507  17.625 -0.2566  0.5492 -3.3060
 5733SOL     OW28834   2.896   4.213  10.138 -0.6239  0.1699 -0.4150
 5733SOL    HW128835   2.940   4.155  10.201 -1.2607  1.3927  1.1438
 5733SOL    HW228836   2.919   4.304  10.154 -3.1022  0.8108 -0.5908
 5734SOL     OW28837   0.015   4.129   4.436 -0.1746 -0.1197 -0.1248
 5734SOL    HW128838   0.018   4.123   4.340 -2.4085 -1.0756 -0.1484
 5734SOL    HW228839   0.099   4.085   4.445 -0.0889  0.2119  0.6912
 5735SOL     OW28840   4.440   4.067  10.000 -0.3763  0.1475 -0.3784
 5735SOL    HW128841   4.412   4.159   9.994  1.3055  0.7558  0.8096
 5735SOL    HW228842   4.358   4.023  10.021 -1.1300  0.8445 -1.8962
 5736SOL     OW28843   0.288   0.253   1.968 -0.0597  0.0078 -0.0026
 5736SOL    HW128844   0.210   0.308   1.971 -0.1408 -0.0254 -1.6665
 5736SOL    HW228845   0.342   0.290   1.898  0.4520 -1.7164 -0.5158
 5737SOL     OW28846   0.281   0.797   6.456 -0.0339  0.3070  0.5510
 5737SOL    HW128847   0.287   0.854   6.533 -1.6973 -0.6378  1.3642
 5737SOL    HW228848   0.269   0.714   6.502 -0.4036  0.6811  1.1328
 5738SOL     OW28849   1.224   2.160   8.535  0.1690  0.3171 -0.2260
 5738SOL    HW128850   1.202   2.163   8.441 -3.1137 -0.4394  0.5009
 5738SOL    HW228851   1.192   2.244   8.565 -0.3915  0.1601 -0.3787
 5739SOL     OW28852   0.964   4.668   5.089  0.0214  0.1174  0.4257
 5739SOL    HW128853   1.054   4.656   5.122  1.4211  1.4746 -2.8914
 5739SOL    HW228854   0.978   4.725   5.014 -1.1274 -1.1160 -0.7098
 5740SOL     OW28855   2.126   2.296  17.503  0.3084  0.3716 -0.0151
 5740SOL    HW128856   2.063   2.308  17.574 -1.8389  1.3698 -2.1238
 5740SOL    HW228857   2.187   2.243  17.555  0.7792  0.6745 -0.2599
 5741SOL     OW28858   1.019   3.616   5.855 -0.0714 -0.2515  0.0575
 5741SOL    HW128859   1.077   3.540   5.855 -0.2890 -0.4171  0.1693
 5741SOL    HW228860   1.082   3.674   5.898  0.2677 -0.3789 -0.2775
 5742SOL     OW28861   2.673   3.480  16.156 -0.4685 -0.3762 -0.2981
 5742SOL    HW128862   2.703   3.512  16.242  2.9280 -3.6121 -0.2948
 5742SOL    HW228863   2.579   3.483  16.172  0.1444 -1.5997  3.6075
 5743SOL     OW28864   2.858   3.075   8.703  0.2614  0.0330  0.1818
 5743SOL    HW128865   2.779   3.029   8.673  0.5401  1.2561 -2.4773
 5743SOL    HW228866   2.891   3.010   8.765  0.8896  1.0425  0.9109
 5744SOL     OW28867   0.577   0.705  13.619  0.0997  0.4036 -0.0529
 5744SOL    HW128868   0.590   0.654  13.699 -2.9556  1.0114  0.8379
 5744SOL    HW228869   0.584   0.639  13.550 -0.9588  1.0919 -0.8023
 5745SOL     OW28870   0.076   2.765   4.556 -0.4492  0.2852  0.3941
 5745SOL    HW128871   0.016   2.703   4.515  1.4702 -1.1168 -0.3126
 5745SOL    HW228872   0.152   2.746   4.502  0.3842 -0.5118  1.8411
 5746SOL     OW28873   3.355   2.092  16.440 -0.5894 -0.0494  0.1373
 5746SOL    HW128874   3.348   1.999  16.418 -0.6132 -0.5245  2.1631
 5746SOL    HW228875   3.448   2.098  16.418 -0.5432 -0.7827  0.1279
 5747SOL     OW28876   4.182   0.668   8.959  0.5578  0.3489 -0.5555
 5747SOL    HW128877   4.087   0.669   8.963  0.4735 -2.1899 -1.4539
 5747SOL    HW228878   4.195   0.682   8.865  2.2598 -0.9443 -0.5199
 5748SOL     OW28879   3.703   2.628  12.204 -0.7515 -0.2156  0.4047
 5748SOL    HW128880   3.715   2.702  12.144 -0.5653  0.2615  1.0315
 5748SOL    HW228881   3.607   2.632  12.202 -0.8019 -0.2988  2.5117
 5749SOL     OW28882   3.225   4.311   0.674 -0.1024  0.6674  0.0893
 5749SOL    HW128883   3.294   4.373   0.650 -0.4974  1.9528  2.2663
 5749SOL    HW228884   3.247   4.241   0.612 -0.9622 -0.5834  1.2075
 5750SOL     OW28885   4.356   0.712   5.777 -0.1546 -0.6153  0.1867
 5750SOL    HW128886   4.376   0.688   5.686  0.3014  1.8038 -0.3629
 5750SOL    HW228887   4.399   0.797   5.784  0.2952 -0.6049 -2.4641
 5751SOL     OW28888   0.937   4.130   8.009 -0.6811  0.3598 -0.1876
 5751SOL    HW128889   0.872   4.138   7.940 -0.2209 -0.5333 -0.7243
 5751SOL    HW228890   1.009   4.172   7.962  0.4487 -0.7737  0.5325
 5752SOL     OW28891   1.185   2.499   4.428  0.0415 -0.2501  0.3256
 5752SOL    HW128892   1.277   2.504   4.454  0.5618  2.0204 -1.8773
 5752SOL    HW228893   1.183   2.409   4.393  0.8162  0.8567 -2.5751
 5753SOL     OW28894   3.427   3.987   7.847  0.2624 -0.0655  1.0802
 5753SOL    HW128895   3.391   4.038   7.919 -1.2168 -0.9059  0.9384
 5753SOL    HW228896   3.511   3.956   7.879 -1.8539 -3.1879  3.6214
 5754SOL     OW28897   3.263   4.460  16.655 -0.8623 -0.0478 -0.0147
 5754SOL    HW128898   3.254   4.549  16.689 -1.4863 -0.2296  0.3007
 5754SOL    HW228899   3.349   4.439  16.690 -0.6115 -1.8626 -1.7136
 5755SOL     OW28900   3.557   4.501   3.507  0.0775  0.2676  0.5787
 5755SOL    HW128901   3.629   4.475   3.449 -0.6277  0.8540 -0.5721
 5755SOL    HW228902   3.574   4.462   3.592  1.2063 -1.7459 -0.5710
 5756SOL     OW28903   3.746   2.895   8.592 -0.5671 -0.2596 -0.2932
 5756SOL    HW128904   3.756   2.980   8.548  3.0544 -1.3127 -1.5017
 5756SOL    HW228905   3.671   2.847   8.559 -1.6133  0.0529  1.6326
 5757SOL     OW28906   1.880   2.817   1.416  0.2498  0.1273  0.0636
 5757SOL    HW128907   1.837   2.778   1.492 -0.7704  0.4063 -0.3695
 5757SOL    HW228908   1.945   2.756   1.382 -0.3336  0.4902 -1.7261
 5758SOL     OW28909   1.683   1.943   8.635 -0.6192 -0.5616  0.3770
 5758SOL    HW128910   1.640   1.920   8.553 -1.5249 -1.8696  1.2287
 5758SOL    HW228911   1.648   2.031   8.642  0.8480 -0.0187  0.9502
 5759SOL     OW28912   3.306   1.067  17.376 -0.0958 -0.1610  0.1621
 5759SOL    HW128913   3.264   0.997  17.326 -1.0854 -0.7191  1.7497
 5759SOL    HW228914   3.287   1.142  17.321  0.3347  0.4855  0.8804
 5760SOL     OW28915   4.019   0.542   6.221 -0.0101  0.1491 -0.5808
 5760SOL    HW128916   3.932   0.546   6.182  0.3012 -3.2996 -1.6371
 5760SOL    HW228917   4.012   0.458   6.268  0.6721 -0.7194 -2.0389
 5761SOL     OW28918   0.698   1.405   0.843  1.0159  0.5210 -0.1609
 5761SOL    HW128919   0.698   1.500   0.853  2.1450  0.5051  0.0218
 5761SOL    HW228920   0.634   1.393   0.913 -0.4629  0.3748 -1.5442
 5762SOL     OW28921   4.546   2.821  16.226  0.2295 -0.5003  0.5482
 5762SOL    HW128922   4.579   2.910  16.215 -2.7018  0.4610 -0.3490
 5762SOL    HW228923   4.473   2.836  16.286  1.2059 -0.1410  1.6572
 5763SOL     OW28924   3.019   2.230   8.799 -0.0028  0.1814 -0.0090
 5763SOL    HW128925   3.009   2.302   8.861 -1.0100 -2.5199  2.9788
 5763SOL    HW228926   3.086   2.170   8.831 -2.1759 -2.3777 -0.2320
 5764SOL     OW28927   0.605   0.160   5.713 -0.2669  0.1880 -0.0068
 5764SOL    HW128928   0.537   0.217   5.678  0.5584  0.7297 -0.7235
 5764SOL    HW228929   0.556   0.080   5.734 -4.2257  2.6592  0.1296
 5765SOL     OW28930   0.168   1.617   8.139 -0.3521  0.5266  0.6212
 5765SOL    HW128931   0.134   1.564   8.067  0.6856  0.6816  0.0171
 5765SOL    HW228932   0.090   1.661   8.171  1.5908  3.1799  1.7510
 5766SOL     OW28933   3.974   4.078   9.961  0.4091 -0.2818  0.6973
 5766SOL    HW128934   3.976   3.986   9.987  0.3325 -0.6190 -0.4897
 5766SOL    HW228935   4.018   4.076   9.876 -1.7587 -0.8706 -0.4267
 5767SOL     OW28936   0.006   1.191   8.662 -0.3015  0.1950 -0.6232
 5767SOL    HW128937   0.061   1.269   8.671 -0.9016  0.4807  0.7031
 5767SOL    HW228938   0.064   1.126   8.702 -0.7864 -0.1971 -0.5531
 5768SOL     OW28939   1.155   0.522   4.943 -0.2827  0.3007 -0.2010
 5768SOL    HW128940   1.083   0.538   5.004 -0.3847 -1.6601  0.1861
 5768SOL    HW228941   1.173   0.428   4.940 -0.5614  0.2518 -0.3517
 5769SOL     OW28942   4.589   0.577  16.996  0.1022 -0.3030  0.0237
 5769SOL    HW128943   4.543   0.539  16.922 -1.2645  2.4599 -0.5401
 5769SOL    HW228944   4.537   0.559  17.074 -2.7510 -0.6572 -1.9810
 5770SOL     OW28945   0.101   4.693  10.559  0.9059 -0.3697  0.4352
 5770SOL    HW128946   0.104   4.732  10.646  0.3560  1.9217 -0.5551
 5770SOL    HW228947   0.009   4.711  10.539  0.7981 -1.3482  0.0746
 5771SOL     OW28948   1.527   3.572   8.381  0.0952 -0.0848 -0.4748
 5771SOL    HW128949   1.455   3.630   8.401  1.4812  2.5370 -3.1262
 5771SOL    HW228950   1.479   3.490   8.397  1.0239 -0.1036  2.2530
 5772SOL     OW28951   0.089   2.418   8.599 -0.2015 -0.2783 -0.6185
 5772SOL    HW128952   0.008   2.432   8.648 -0.6524 -0.8793 -1.2001
 5772SOL    HW228953   0.084   2.325   8.580  0.6575 -0.5880  0.7349
 5773SOL     OW28954   0.106   0.728   4.974 -0.0626 -0.5095 -0.4391
 5773SOL    HW128955   0.052   0.667   4.925 -1.0056 -0.4585  0.5339
 5773SOL    HW228956   0.195   0.702   4.948  0.1415 -0.9440  0.6927
 5774SOL     OW28957   3.868   3.506  15.680  0.4947  0.2971  0.0200
 5774SOL    HW128958   3.785   3.550  15.662  2.2673  3.1850 -1.1580
 5774SOL    HW228959   3.890   3.461  15.598  1.9625  0.6487  0.2189
 5775SOL     OW28960   2.451   0.664   6.060  0.2616 -0.2123 -0.7643
 5775SOL    HW128961   2.489   0.752   6.055  1.3115 -0.6326 -0.2784
 5775SOL    HW228962   2.382   0.662   5.994 -0.2529  0.6201 -0.2530
 5776SOL     OW28963   3.048   0.013   3.907 -0.4645 -0.1904 -0.1592
 5776SOL    HW128964   2.964   0.001   3.862 -0.2725  1.3249 -0.9385
 5776SOL    HW228965   3.017   0.056   3.986 -0.8135 -1.5637  0.4428
 5777SOL     OW28966   4.102   2.581  14.453  0.3613 -0.1011  0.0769
 5777SOL    HW128967   4.035   2.539  14.508 -0.8265  1.3214 -0.3016
 5777SOL    HW228968   4.177   2.555  14.506 -0.5837 -1.4375  0.7706
 5778SOL     OW28969   1.893   2.531   4.108  0.5839  0.5812  0.0043
 5778SOL    HW128970   1.970   2.561   4.060  1.6663 -0.6732  0.9507
 5778SOL    HW228971   1.927   2.550   4.195 -0.2654  0.7045  0.3107
 5779SOL     OW28972   0.102   2.063   2.413  0.3457  0.2545 -0.4494
 5779SOL    HW128973   0.034   2.049   2.346 -2.2229 -2.3772  2.7159
 5779SOL    HW228974   0.091   2.157   2.427  0.2187  0.0968  0.4832
 5780SOL     OW28975   2.744   4.394   1.874  0.3173  0.1110  0.1174
 5780SOL    HW128976   2.792   4.391   1.957 -0.2410 -0.1621  0.4289
 5780SOL    HW228977   2.743   4.487   1.854 -0.4110 -0.1350 -1.0288
 5781SOL     OW28978   1.674   3.913  14.287  0.5612 -0.6010 -0.4331
 5781SOL    HW128979   1.643   3.822  14.280 -0.8466 -0.3290  2.0807
 5781SOL    HW228980   1.660   3.926  14.381  0.3381 -1.3389 -0.3599
 5782SOL     OW28981   3.285   2.304  11.239 -0.0915 -0.0521  0.0638
 5782SOL    HW128982   3.264   2.215  11.212 -1.3783 -0.1306  1.3377
 5782SOL    HW228983   3.352   2.333  11.177 -1.7290 -0.1441 -1.7284
 5783SOL     OW28984   4.621   2.674  11.275 -0.0089 -0.1710  0.2476
 5783SOL    HW128985   4.526   2.666  11.282 -0.2114  0.7822 -1.5307
 5783SOL    HW228986   4.634   2.732  11.200  1.2378  1.2419  1.5573
 5784SOL     OW28987   0.621   1.395   6.532 -0.2872  0.0365  0.1117
 5784SOL    HW128988   0.561   1.439   6.471 -1.5859  0.4663  1.7003
 5784SOL    HW228989   0.629   1.462   6.600  0.7085  1.8061 -1.7231
 5785SOL     OW28990   1.160   4.052  10.717 -0.4260  0.2516 -0.3606
 5785SOL    HW128991   1.252   4.052  10.743 -0.1298 -0.9623 -1.4120
 5785SOL    HW228992   1.127   4.141  10.727 -0.4422  0.4932 -2.5918
 5786SOL     OW28993   0.891   2.417   4.251  0.0634  0.0221 -0.2330
 5786SOL    HW128994   0.943   2.421   4.331  0.8096 -0.4993 -0.6988
 5786SOL    HW228995   0.873   2.506   4.221  1.6491  0.4399  0.0500
 5787SOL     OW28996   0.132   2.606  14.377 -0.0395 -0.1438  0.4806
 5787SOL    HW128997   0.068   2.589  14.308  0.5721  0.2498 -0.1930
 5787SOL    HW228998   0.211   2.586  14.326  0.8157  1.5534  1.1333
 5788SOL     OW28999   2.284   0.353   1.615 -0.1676  0.3962  0.1824
 5788SOL    HW129000   2.372   0.315   1.609 -0.5262 -0.5708  1.3245
 5788SOL    HW229001   2.294   0.413   1.541 -2.2707 -2.8541 -2.7594
 5789SOL     OW29002   0.081   0.981   9.860 -0.0603  0.2756  0.1072
 5789SOL    HW129003   0.164   1.030   9.863 -0.3132  0.6385  1.5437
 5789SOL    HW229004   0.122   0.898   9.883 -1.0879 -0.5233 -1.0072
 5790SOL     OW29005   4.456   0.249   1.412 -0.2565  0.1850 -0.8347
 5790SOL    HW129006   4.382   0.304   1.433  0.6896  1.8581 -1.8662
 5790SOL    HW229007   4.416   0.209   1.335  1.2875 -0.8301 -1.1225
 5791SOL     OW29008   0.331   3.648   4.163 -0.1644  0.3732  0.2662
 5791SOL    HW129009   0.307   3.589   4.235 -0.6238  0.1930 -0.0386
 5791SOL    HW229010   0.334   3.733   4.208 -1.9613  2.0113 -2.7445
 5792SOL     OW29011   1.896   0.384   1.897 -0.2031 -0.3097  0.1147
 5792SOL    HW129012   1.895   0.456   1.960 -0.6768  0.7355 -1.0754
 5792SOL    HW229013   1.990   0.381   1.881 -0.1505  0.7392  0.2072
 5793SOL     OW29014   3.876   4.429  14.103 -0.4575 -0.3461  0.1346
 5793SOL    HW129015   3.950   4.368  14.101  1.0915  1.5559  0.1631
 5793SOL    HW229016   3.810   4.364  14.128 -1.3565  0.3527 -0.4073
 5794SOL     OW29017   1.157   2.100   5.796 -0.4684  0.0166  0.5593
 5794SOL    HW129018   1.158   2.147   5.713 -0.5602 -3.3840 -1.3531
 5794SOL    HW229019   1.241   2.055   5.781 -0.6162 -0.8442  2.3080
 5795SOL     OW29020   2.747   2.116  13.824  0.3374  0.0256 -0.4910
 5795SOL    HW129021   2.698   2.067  13.758  0.4546 -0.6357 -0.0830
 5795SOL    HW229022   2.742   2.210  13.807 -1.8666  0.2401  1.2602
 5796SOL     OW29023   1.039   1.313  12.149  0.0210  0.0531 -0.2596
 5796SOL    HW129024   1.091   1.387  12.117 -0.8387  1.6073  1.9351
 5796SOL    HW229025   1.021   1.261  12.070  0.3548  1.0145 -0.9652
 5797SOL     OW29026   3.176   4.636   4.660 -0.2875  0.3910  0.0960
 5797SOL    HW129027   3.213   4.667   4.742 -0.9810 -0.0756  0.5861
 5797SOL    HW229028   3.252   4.602   4.612 -0.4476 -1.9016  1.4327
 5798SOL     OW29029   4.304   4.554   2.377 -0.0852 -0.0509  0.2169
 5798SOL    HW129030   4.302   4.586   2.468 -2.4094  1.8399 -0.4908
 5798SOL    HW229031   4.350   4.471   2.382  0.7652  0.4393  0.5899
 5799SOL     OW29032   1.664   3.164   6.718  0.1408 -0.8043 -0.0998
 5799SOL    HW129033   1.681   3.206   6.633  0.6585  0.6813  0.7532
 5799SOL    HW229034   1.577   3.127   6.699  0.9551 -2.4401 -0.7116
 5800SOL     OW29035   0.941   4.533  13.002  0.2653 -0.1199 -0.1605
 5800SOL    HW129036   0.989   4.474  13.061  1.0099 -0.3131 -0.9551
 5800SOL    HW229037   1.002   4.606  12.996  1.7331 -1.4118 -1.0401
 5801SOL     OW29038   1.503   2.082   7.550  0.2129  0.1586  0.6834
 5801SOL    HW129039   1.495   2.154   7.613  0.4365  1.2597 -0.5497
 5801SOL    HW229040   1.587   2.101   7.509 -1.0227 -1.3287 -2.5183
 5802SOL     OW29041   3.002   3.489   3.480 -0.0274  0.4342  1.1167
 5802SOL    HW129042   3.034   3.407   3.441 -0.1788  1.6658 -1.5974
 5802SOL    HW229043   3.077   3.542   3.456 -0.4066  1.7518  2.8496
 5803SOL     OW29044   2.140   4.063   4.956 -0.0801  0.1530 -0.0132
 5803SOL    HW129045   2.112   3.972   4.948 -0.1081  0.1217  0.4273
 5803SOL    HW229046   2.158   4.071   5.050  1.3065 -1.2041 -0.1640
 5804SOL     OW29047   0.185   4.150   3.442 -0.2215 -0.1342 -0.5676
 5804SOL    HW129048   0.103   4.167   3.396 -0.1308  0.9491 -0.3195
 5804SOL    HW229049   0.229   4.096   3.377  1.5974  0.8217 -0.1482
 5805SOL     OW29050   1.622   2.946   8.991 -0.4005 -0.7681  0.4967
 5805SOL    HW129051   1.543   2.898   8.970  0.9270 -3.0591  0.7207
 5805SOL    HW229052   1.630   2.964   9.085 -2.4411  1.2049  0.2796
 5806SOL     OW29053   2.353   1.315   4.149 -0.1188  0.3172  0.5351
 5806SOL    HW129054   2.330   1.402   4.116 -0.2280  0.3192  0.6161
 5806SOL    HW229055   2.276   1.275   4.109  0.7419  0.7883 -1.5992
 5807SOL     OW29056   3.716   2.377   7.679 -0.2660 -0.1013 -0.2629
 5807SOL    HW129057   3.797   2.339   7.714  1.1894  1.1842 -2.1599
 5807SOL    HW229058   3.663   2.303   7.706  0.7856 -0.0716  1.9082
 5808SOL     OW29059   3.789   2.107   3.006 -0.0685  0.2946 -0.9005
 5808SOL    HW129060   3.771   2.150   2.922 -2.0073  0.8789 -0.1916
 5808SOL    HW229061   3.780   2.013   2.993  0.2441  0.3354 -1.4240
 5809SOL     OW29062   4.555   1.935   4.649 -0.7366  0.2386  1.0644
 5809SOL    HW129063   4.505   1.967   4.724 -1.7800 -1.6211  1.1607
 5809SOL    HW229064   4.585   1.850   4.683 -0.0449 -0.1368 -0.4544
 5810SOL     OW29065   0.621   3.617  16.970 -0.7454 -0.0045  0.3070
 5810SOL    HW129066   0.691   3.666  17.013 -0.2626  0.4216 -0.9688
 5810SOL    HW229067   0.590   3.673  16.898 -2.1040 -1.8837 -0.5606
 5811SOL     OW29068   1.805   1.553   3.027  0.1417 -0.2346  0.8141
 5811SOL    HW129069   1.779   1.471   3.070  0.2639  0.5111  2.3282
 5811SOL    HW229070   1.746   1.562   2.952 -0.5150  0.2834  1.3835
 5812SOL     OW29071   2.737   0.201   4.209 -0.1732 -0.4930  0.4851
 5812SOL    HW129072   2.827   0.228   4.230 -0.4319  0.4872  0.3631
 5812SOL    HW229073   2.690   0.250   4.277 -0.6433  0.3352 -0.4236
 5813SOL     OW29074   4.146   2.192   7.151 -0.0038 -0.1753 -0.6395
 5813SOL    HW129075   4.237   2.202   7.123  0.0304  1.1419 -0.0560
 5813SOL    HW229076   4.127   2.286   7.160  0.0729  0.0595 -2.9157
 5814SOL     OW29077   3.246   3.084   1.465  0.6031  0.2020  0.3973
 5814SOL    HW129078   3.167   3.134   1.486 -1.0641 -1.8882 -0.9260
 5814SOL    HW229079   3.208   3.006   1.425 -0.9784 -0.0380  2.3839
 5815SOL     OW29080   0.622   1.022   3.700 -0.1009 -0.3337  0.1482
 5815SOL    HW129081   0.616   1.037   3.606  1.3371 -0.5181  0.0299
 5815SOL    HW229082   0.652   1.106   3.737 -0.5123  0.3114 -1.0064
 5816SOL     OW29083   1.799   0.622  13.968 -0.2509  0.4912 -0.1522
 5816SOL    HW129084   1.780   0.614  14.062  1.6941  1.2213  0.3068
 5816SOL    HW229085   1.794   0.716  13.954 -0.0002  0.5164 -0.0780
 5817SOL     OW29086   1.970   2.171   7.375  0.6079 -0.4371 -0.2368
 5817SOL    HW129087   2.045   2.162   7.434 -1.4655 -2.1839  2.1105
 5817SOL    HW229088   1.992   2.252   7.329  2.4614 -0.2201  1.0138
 5818SOL     OW29089   0.068   4.520  16.006 -0.3115  0.0260  0.0952
 5818SOL    HW129090   0.067   4.594  15.945  0.4623 -0.5135 -0.5747
 5818SOL    HW229091   0.150   4.547  16.049 -0.2756  0.5107 -0.2804
 5819SOL     OW29092   3.371   1.935   7.718  0.2353 -0.3656 -0.2649
 5819SOL    HW129093   3.321   2.016   7.723 -1.7025 -1.4278 -1.9180
 5819SOL    HW229094   3.318   1.886   7.654 -2.0793  1.7455  0.0274
 5820SOL     OW29095   1.672   3.469   9.433  0.1094  0.2355 -0.2827
 5820SOL    HW129096   1.728   3.545   9.420 -1.0784  0.9813 -1.0943
 5820SOL    HW229097   1.691   3.420   9.353  1.5917  1.4017 -0.6305
 5821SOL     OW29098   3.815   4.196   5.307 -0.2654 -0.6140  0.2917
 5821SOL    HW129099   3.857   4.178   5.223  0.7822  0.5122  0.5703
 5821SOL    HW229100   3.890   4.225   5.358  0.7752 -0.6884 -1.2097
 5822SOL     OW29101   4.074   4.028   7.204 -0.1547  0.1355  0.2827
 5822SOL    HW129102   4.142   3.966   7.230 -0.3335 -0.4729 -0.6935
 5822SOL    HW229103   4.028   3.983   7.132 -0.8180  1.4474 -0.1079
 5823SOL     OW29104   0.482   0.281   0.481  0.0639  0.3479  0.3418
 5823SOL    HW129105   0.491   0.373   0.454 -3.6940  0.2406 -1.2894
 5823SOL    HW229106   0.392   0.262   0.454  0.8264 -2.4256 -0.2071
 5824SOL     OW29107   4.240   0.198  16.134  0.0502  0.0729  0.0399
 5824SOL    HW129108   4.167   0.177  16.192  0.2600 -0.8792 -0.0404
 5824SOL    HW229109   4.206   0.270  16.081  0.1764  1.5320  1.9449
 5825SOL     OW29110   2.660   3.021   2.723  0.3331 -0.2745 -0.1582
 5825SOL    HW129111   2.730   3.086   2.712 -0.8893  1.0557 -0.0228
 5825SOL    HW229112   2.584   3.078   2.730  1.6036  1.5670 -1.3509
 5826SOL     OW29113   3.097   2.078   5.199 -0.1079  0.7111 -0.2294
 5826SOL    HW129114   3.176   2.118   5.164  0.3100 -1.0122 -1.2746
 5826SOL    HW229115   3.082   2.002   5.143  0.8896  0.6869 -0.4612
 5827SOL     OW29116   1.824   0.904   1.212 -0.2864  0.0080  0.7286
 5827SOL    HW129117   1.919   0.898   1.217 -0.3110  0.2334  1.4377
 5827SOL    HW229118   1.816   0.971   1.280  2.4374  1.4816 -0.4605
 5828SOL     OW29119   4.159   1.568   4.720  0.6202  0.0084  0.1701
 5828SOL    HW129120   4.191   1.534   4.637 -0.7838 -0.5236 -0.1499
 5828SOL    HW229121   4.088   1.626   4.690  0.8016 -0.4637 -1.1491
 5829SOL     OW29122   2.427   3.218   4.297  0.2300  0.1068  0.6585
 5829SOL    HW129123   2.413   3.225   4.203 -0.2174  0.7890  0.7701
 5829SOL    HW229124   2.382   3.134   4.300  1.6258 -0.6915 -1.0401
 5830SOL     OW29125   4.650   4.213  14.494 -0.2447 -0.1235  0.5010
 5830SOL    HW129126   4.571   4.159  14.501 -1.0259  0.9277 -0.2229
 5830SOL    HW229127   4.702   4.153  14.547 -0.5445 -0.1049  0.8142
 5831SOL     OW29128   1.619   4.654   2.784 -0.7943 -0.3015 -0.2456
 5831SOL    HW129129   1.634   4.685   2.695  1.1259 -1.1744 -0.2268
 5831SOL    HW229130   1.549   4.590   2.773 -1.6230  0.3306  1.3174
 5832SOL     OW29131   1.244   3.327   3.401 -0.1673  0.0640 -0.3474
 5832SOL    HW129132   1.274   3.409   3.360  0.8939 -0.7647 -1.2199
 5832SOL    HW229133   1.150   3.337   3.414 -0.3946 -1.3692 -0.9092
 5833SOL     OW29134   4.400   4.035   2.797  0.2531  0.4925  0.1442
 5833SOL    HW129135   4.398   3.956   2.744 -1.2725 -0.7738  2.0943
 5833SOL    HW229136   4.390   4.000   2.886 -0.1089  2.0004  0.6954
 5834SOL     OW29137   1.777   2.893   7.577 -0.6019  0.5316 -0.2452
 5834SOL    HW129138   1.713   2.963   7.575 -1.8792 -0.6479 -0.7164
 5834SOL    HW229139   1.714   2.822   7.584 -0.9392  0.8915  0.3522
 5835SOL     OW29140   1.949   4.118   5.195 -0.2579 -0.3154 -0.6474
 5835SOL    HW129141   1.937   4.176   5.120 -2.1934 -0.6761 -0.6268
 5835SOL    HW229142   1.871   4.143   5.244 -0.6284 -1.3238 -0.7304
 5836SOL     OW29143   3.103   2.824  10.027  0.3863  0.1254  0.3581
 5836SOL    HW129144   3.175   2.884  10.048 -0.6521  1.4965 -0.0387
 5836SOL    HW229145   3.156   2.751   9.994  0.8225  1.0917 -1.0640
 5837SOL     OW29146   0.354   1.735   1.720 -0.1945  0.0757 -0.4091
 5837SOL    HW129147   0.328   1.671   1.654  1.5762 -1.2610  0.1781
 5837SOL    HW229148   0.275   1.787   1.731  1.3069  1.9434  1.6235
 5838SOL     OW29149   2.324   3.120   0.116  0.3346  0.4341 -0.2613
 5838SOL    HW129150   2.310   3.025   0.114 -1.7860  0.7119  2.1551
 5838SOL    HW229151   2.241   3.148   0.078 -0.7162 -1.4794  0.6357
 5839SOL     OW29152   2.359   0.310  12.964  0.2333 -0.4005  0.2040
 5839SOL    HW129153   2.283   0.368  12.966  0.4465 -0.1596  1.4001
 5839SOL    HW229154   2.406   0.339  13.042 -0.0887 -2.7082  1.2692
 5840SOL     OW29155   0.478   4.211   7.514 -0.4582  0.3397  0.4637
 5840SOL    HW129156   0.423   4.143   7.473  3.1870 -3.9428  2.6144
 5840SOL    HW229157   0.494   4.276   7.446  0.5655 -0.3230  0.0670
 5841SOL     OW29158   2.072   1.567   3.071 -0.0305  0.5011  0.0680
 5841SOL    HW129159   2.065   1.659   3.043  0.1851  0.4932 -0.0080
 5841SOL    HW229160   1.982   1.536   3.057  0.3424 -0.2672 -0.5586
 5842SOL     OW29161   2.183   0.395   8.466  0.4812 -0.8031  0.2496
 5842SOL    HW129162   2.129   0.474   8.474  0.6449 -1.0112  3.3408
 5842SOL    HW229163   2.247   0.424   8.400 -0.8438  0.1848 -0.5946
 5843SOL     OW29164   3.518   4.586   5.872 -0.3198 -1.1911  0.3518
 5843SOL    HW129165   3.561   4.667   5.845 -1.5877  0.0471  1.9926
 5843SOL    HW229166   3.591   4.528   5.892 -0.2884 -1.3065 -0.1063
 5844SOL     OW29167   2.241   0.629  10.283  0.4947 -0.3354  0.3231
 5844SOL    HW129168   2.185   0.600  10.211 -0.6698  1.2573  0.5871
 5844SOL    HW229169   2.176   0.678  10.333  1.3972  0.2118  0.9602
 5845SOL     OW29170   2.381   2.455  12.167 -0.1166 -0.2761 -0.2055
 5845SOL    HW129171   2.385   2.366  12.202  1.1976  0.2717  1.0735
 5845SOL    HW229172   2.414   2.500  12.245 -1.1667 -0.1567  0.1710
 5846SOL     OW29173   0.540   3.995   8.649  0.3376 -0.4027 -0.2779
 5846SOL    HW129174   0.487   4.065   8.687 -2.5630 -3.1382  0.6939
 5846SOL    HW229175   0.627   4.028   8.671  0.4615 -0.6847 -0.3443
 5847SOL     OW29176   3.388   1.103   0.178 -0.0469  0.4222 -0.6308
 5847SOL    HW129177   3.443   1.142   0.246  0.7366 -0.7009 -0.6325
 5847SOL    HW229178   3.342   1.180   0.145 -0.6472  0.1848 -0.3541
 5848SOL     OW29179   1.538   1.553   2.848 -0.2658  0.5177 -0.3354
 5848SOL    HW129180   1.584   1.593   2.774 -0.1319  0.5061 -0.2579
 5848SOL    HW229181   1.530   1.460   2.828  0.4877  0.0011  1.8425
 5849SOL     OW29182   1.060   3.943   8.382  0.7655 -0.3256  0.1263
 5849SOL    HW129183   0.976   3.925   8.340 -0.1041  0.3603  1.5805
 5849SOL    HW229184   1.092   4.008   8.319 -1.9013  0.5976 -0.2886
 5850SOL     OW29185   1.287   0.711   8.717  0.0611  0.6244 -0.1842
 5850SOL    HW129186   1.295   0.797   8.759 -1.5601  0.4664  0.4735
 5850SOL    HW229187   1.277   0.658   8.796 -0.5338 -0.6545 -1.1126
 5851SOL     OW29188   1.651   0.748  16.376 -0.5505 -1.0285 -0.3428
 5851SOL    HW129189   1.677   0.764  16.467 -1.2021  2.8095 -0.8348
 5851SOL    HW229190   1.654   0.838  16.342  0.7882 -0.5371  1.0623
 5852SOL     OW29191   1.929   3.252  11.182  0.2025 -0.4438  0.5966
 5852SOL    HW129192   1.866   3.189  11.217 -1.1552  1.7617  2.1162
 5852SOL    HW229193   1.983   3.198  11.124  1.4026 -0.4936  1.7427
 5853SOL     OW29194   0.254   1.094   5.611  0.7644  0.1314 -0.4290
 5853SOL    HW129195   0.195   1.032   5.567 -1.5806  1.0693  1.3537
 5853SOL    HW229196   0.338   1.069   5.573  0.3927 -1.9786  0.1492
 5854SOL     OW29197   4.427   1.585   9.540 -0.0464 -0.5865 -0.7411
 5854SOL    HW129198   4.488   1.652   9.508 -0.2868  0.3564  0.7251
 5854SOL    HW229199   4.437   1.513   9.478  3.3904 -1.2151  0.5152
 5855SOL     OW29200   4.393   2.540   3.273 -1.2179  0.2153 -0.0473
 5855SOL    HW129201   4.351   2.592   3.341  1.7488  2.9283 -0.3042
 5855SOL    HW229202   4.486   2.558   3.279 -1.0122 -0.9543  0.2112
 5856SOL     OW29203   0.738   3.928   2.570  0.5896 -0.1869  0.7556
 5856SOL    HW129204   0.786   3.980   2.506 -0.5834  1.1244  0.9383
 5856SOL    HW229205   0.667   3.902   2.512  0.9452 -1.6448  0.9750
 5857SOL     OW29206   0.048   1.353   6.915 -0.1757  0.5664  0.0830
 5857SOL    HW129207   4.732   1.308   6.850  0.6125 -3.0085  1.8488
 5857SOL    HW229208   0.089   1.424   6.866 -0.1558  0.6479  0.2152
 5858SOL     OW29209   2.954   3.623   1.271 -0.1372  0.3413 -0.0288
 5858SOL    HW129210   2.990   3.675   1.200 -0.8769 -0.8725 -1.3064
 5858SOL    HW229211   3.039   3.614   1.314 -0.3537  0.5762  0.4397
 5859SOL     OW29212   4.633   0.707   4.032  0.1336  0.5296  0.1905
 5859SOL    HW129213   4.638   0.738   3.942 -1.0092 -0.4171 -0.1999
 5859SOL    HW229214   4.553   0.654   4.030 -0.8047  1.9408  0.3704
 5860SOL     OW29215   0.927   2.194  11.611  0.2739  0.6055  0.3005
 5860SOL    HW129216   0.881   2.278  11.616 -0.5990  0.1079  0.6621
 5860SOL    HW229217   0.852   2.134  11.616  0.9004 -0.1164  1.0015
 5861SOL     OW29218   3.098   4.726   2.221 -0.6966 -0.1346  0.1550
 5861SOL    HW129219   3.065   4.643   2.187 -0.2451  0.4332 -1.6664
 5861SOL    HW229220   3.037   4.737   2.294  0.2912  2.4871  0.5933
 5862SOL     OW29221   4.504   1.806   5.182  0.4443 -0.0512  0.3612
 5862SOL    HW129222   4.450   1.777   5.255 -1.3447  1.0706 -0.5150
 5862SOL    HW229223   4.495   1.901   5.174 -1.5961 -0.3473 -0.8258
 5863SOL     OW29224   2.550   1.119   8.002  0.5074  0.4234 -0.9788
 5863SOL    HW129225   2.547   1.043   8.059  0.0747 -0.2985 -1.9531
 5863SOL    HW229226   2.590   1.081   7.924 -1.3929  1.0871 -2.2964
 5864SOL     OW29227   1.260   0.211   5.162  0.1178  0.2566  0.3845
 5864SOL    HW129228   1.202   0.150   5.209 -0.3341  0.8353  0.5729
 5864SOL    HW229229   1.336   0.190   5.216 -0.7278  1.2075  1.9325
 5865SOL     OW29230   0.698   0.605   4.230 -0.1966  1.1126  0.1141
 5865SOL    HW129231   0.653   0.522   4.214  1.0405  0.4740 -0.1015
 5865SOL    HW229232   0.793   0.590   4.226 -0.0365  2.5927 -1.5639
 5866SOL     OW29233   4.665   2.647   2.013 -0.0652  0.9060 -0.4493
 5866SOL    HW129234   4.582   2.681   1.980 -0.4789 -1.5724 -1.9239
 5866SOL    HW229235   4.710   2.652   1.928  0.1966  0.4014 -0.3375
 5867SOL     OW29236   1.854   0.992   3.042 -0.6843 -0.6748 -0.1888
 5867SOL    HW129237   1.768   0.963   3.010 -0.2099 -0.6084 -1.5085
 5867SOL    HW229238   1.907   0.928   2.994  0.0920  0.1946 -0.4743
 5868SOL     OW29239   2.598   1.714   1.542  0.2642  0.5283  0.4820
 5868SOL    HW129240   2.537   1.785   1.525 -0.2069 -0.1239 -0.4849
 5868SOL    HW229241   2.677   1.758   1.575 -0.5049  1.0121  1.6737
 5869SOL     OW29242   1.280   4.591  15.106 -0.3936  0.1018 -0.8765
 5869SOL    HW129243   1.341   4.614  15.035 -1.6237 -2.4158 -2.7271
 5869SOL    HW229244   1.276   4.496  15.108  0.5956  0.0034 -2.6064
 5870SOL     OW29245   4.221   1.681  12.496  0.6938  0.7371 -0.0022
 5870SOL    HW129246   4.275   1.690  12.574 -0.3691  0.0792  0.8204
 5870SOL    HW229247   4.216   1.773  12.470 -2.6357  0.2227 -1.2664
 5871SOL     OW29248   0.195   0.646   4.483  0.6029  0.4313  0.3306
 5871SOL    HW129249   0.107   0.669   4.514  0.8959 -0.5597  1.9170
 5871SOL    HW229250   0.256   0.700   4.534 -2.0510 -0.1917  4.1420
 5872SOL     OW29251   1.199   0.619   3.525  0.4280  0.2461 -0.5862
 5872SOL    HW129252   1.284   0.608   3.567 -0.5121 -0.1044  1.2778
 5872SOL    HW229253   1.206   0.703   3.480  0.5477 -1.0967 -3.0560
 5873SOL     OW29254   1.381   4.068   2.171 -0.1149 -0.3015  0.0961
 5873SOL    HW129255   1.400   4.145   2.225 -0.1631 -1.9816  2.5198
 5873SOL    HW229256   1.467   4.026   2.170 -0.9999 -2.0676 -1.9329
 5874SOL     OW29257   3.016   4.631   8.552 -0.2382  0.0711  0.7301
 5874SOL    HW129258   2.956   4.704   8.533 -0.9588 -0.3189  1.4759
 5874SOL    HW229259   2.999   4.623   8.646  0.3999 -2.2170  0.6446
 5875SOL     OW29260   0.803   3.964   3.671 -0.1515 -0.3589 -0.3933
 5875SOL    HW129261   0.806   4.059   3.681 -1.6026 -0.2394 -1.0143
 5875SOL    HW229262   0.889   3.937   3.701  0.3138  1.1256 -0.3951
 5876SOL     OW29263   2.147   3.171  15.634 -0.1925  0.4589  0.3181
 5876SOL    HW129264   2.229   3.132  15.663 -1.0947 -1.0051  0.8910
 5876SOL    HW229265   2.092   3.093  15.619  0.6105  0.1356 -0.9632
 5877SOL     OW29266   0.524   3.121  17.493  0.2227 -0.0995 -0.0793
 5877SOL    HW129267   0.558   3.119  17.404  1.1634  2.4662  0.2385
 5877SOL    HW229268   0.445   3.067  17.491  2.4351 -3.2688 -1.1576
 5878SOL     OW29269   3.609   0.269   5.830  0.0094  0.3131 -0.1542
 5878SOL    HW129270   3.680   0.214   5.797  0.4477 -0.3730  1.8917
 5878SOL    HW229271   3.652   0.351   5.808  1.8082 -0.4650  0.4109
 5879SOL     OW29272   2.732   1.255  12.691  0.2968  0.3545  0.2332
 5879SOL    HW129273   2.713   1.246  12.785  0.3862  0.4332  0.2586
 5879SOL    HW229274   2.816   1.209  12.691  0.3187  0.3921 -2.1893
 5880SOL     OW29275   2.775   1.498  10.937  0.8608  0.3616 -0.1507
 5880SOL    HW129276   2.737   1.553  10.868 -3.3685  0.6221  2.3975
 5880SOL    HW229277   2.725   1.418  10.922  1.9366 -0.1364 -1.1101
 5881SOL     OW29278   2.681   0.743   8.748  0.4858  0.3775 -0.2983
 5881SOL    HW129279   2.634   0.704   8.821 -0.7352  0.0277 -1.2691
 5881SOL    HW229280   2.698   0.829   8.785  0.9010 -0.1376  0.7086
 5882SOL     OW29281   3.549   0.535   2.563  0.1306  0.3386  0.0312
 5882SOL    HW129282   3.641   0.510   2.569  0.0962  0.2244  0.0891
 5882SOL    HW229283   3.518   0.464   2.506 -1.7190  1.4127 -0.3010
 5883SOL     OW29284   4.521   3.470   7.634  0.4425  0.7292  0.4610
 5883SOL    HW129285   4.602   3.516   7.613  0.9179 -1.5777 -2.6557
 5883SOL    HW229286   4.537   3.388   7.587 -0.4499  1.5751 -1.3228
 5884SOL     OW29287   4.604   1.589   2.717  0.1302  0.0385 -0.4732
 5884SOL    HW129288   4.605   1.496   2.740  1.9845  0.1004 -0.2664
 5884SOL    HW229289   4.607   1.628   2.805 -1.3413  0.7452 -0.7415
 5885SOL     OW29290   3.376   2.558   1.731  0.3865 -0.2693  0.5845
 5885SOL    HW129291   3.411   2.538   1.817 -1.6732 -0.5253  1.3708
 5885SOL    HW229292   3.441   2.617   1.693  1.0465 -0.0015  2.1306
 5886SOL     OW29293   1.457   4.615  14.899 -0.4640  0.2326  0.1766
 5886SOL    HW129294   1.488   4.597  14.810 -2.7118 -1.6970 -0.2283
 5886SOL    HW229295   1.480   4.708  14.902  0.3702  0.0116  0.5009
 5887SOL     OW29296   0.472   0.447   9.283 -0.1730 -0.6359  0.0840
 5887SOL    HW129297   0.483   0.502   9.360 -1.2521  0.5236 -0.5864
 5887SOL    HW229298   0.509   0.370   9.327  0.4737  0.7129  1.8885
 5888SOL     OW29299   0.551   1.554   2.407  0.1252  0.3667 -0.1130
 5888SOL    HW129300   0.616   1.492   2.375 -2.1257 -0.1111 -3.7470
 5888SOL    HW229301   0.486   1.549   2.337 -0.6308 -0.3841  0.6346
 5889SOL     OW29302   3.883   2.227  13.901 -0.2471 -0.2447  0.6371
 5889SOL    HW129303   3.826   2.151  13.897  1.6155 -1.4668 -2.7030
 5889SOL    HW229304   3.823   2.296  13.928 -0.4539  0.2470 -1.1030
 5890SOL     OW29305   0.765   3.703   6.086  0.0746 -0.3416 -0.7707
 5890SOL    HW129306   0.811   3.765   6.029 -2.9132  2.3434 -0.2128
 5890SOL    HW229307   0.743   3.632   6.026 -1.1995  1.2297 -2.1698
 5891SOL     OW29308   1.423   1.488   9.608  0.0252 -0.8787 -0.3271
 5891SOL    HW129309   1.343   1.436   9.618 -1.1446  0.7969 -0.9592
 5891SOL    HW229310   1.402   1.566   9.659 -0.1876 -0.4303 -1.1004
 5892SOL     OW29311   3.076   2.994   4.828  0.3364  0.2011  0.3460
 5892SOL    HW129312   3.014   2.977   4.898 -1.6684 -1.5318 -1.8488
 5892SOL    HW229313   3.135   3.050   4.879  1.1952  0.0088 -0.4323
 5893SOL     OW29314   4.338   0.059   4.224 -0.2430 -0.1939 -0.5451
 5893SOL    HW129315   4.403   4.726   4.217  1.3768  0.7515  4.7689
 5893SOL    HW229316   4.369   0.110   4.299  0.1678  1.4543 -1.8307
 5894SOL     OW29317   3.588   2.725   8.447  0.2059  0.0651  0.2467
 5894SOL    HW129318   3.667   2.730   8.394 -0.8747  0.1007 -1.3689
 5894SOL    HW229319   3.522   2.704   8.380 -0.1672 -0.7515  0.8766
 5895SOL     OW29320   3.426   2.453  13.514 -0.1203 -0.4469  0.5436
 5895SOL    HW129321   3.431   2.540  13.476  0.4175 -0.6384  0.1614
 5895SOL    HW229322   3.492   2.401  13.466  0.3546 -1.6798  2.5100
 5896SOL     OW29323   0.173   0.782   7.356 -0.2769  0.3899 -0.3969
 5896SOL    HW129324   0.173   0.687   7.364 -1.0944  0.6370  2.3556
 5896SOL    HW229325   0.128   0.792   7.271  0.4905  0.2036 -0.8195
 5897SOL     OW29326   0.249   0.651   6.182  1.2637  0.1161  0.0091
 5897SOL    HW129327   0.193   0.601   6.240 -0.5632  2.8220  0.5439
 5897SOL    HW229328   0.294   0.705   6.247 -0.1398  1.7856 -0.4076
 5898SOL     OW29329   0.872   2.646   2.427 -0.4848  0.3209  0.5339
 5898SOL    HW129330   0.793   2.697   2.415 -0.6038 -0.1902 -0.7874
 5898SOL    HW229331   0.929   2.706   2.475 -1.4731  0.3245  1.7142
 5899SOL     OW29332   4.017   1.200  10.164  0.3084 -0.1681  0.2084
 5899SOL    HW129333   4.000   1.108  10.144 -1.9207 -0.2771  2.6131
 5899SOL    HW229334   4.062   1.225  10.083 -0.4834 -0.8378 -0.4473
 5900SOL     OW29335   3.553   1.263   4.551 -0.3665  0.4634  0.1921
 5900SOL    HW129336   3.500   1.330   4.509  1.1417  1.8024  0.3814
 5900SOL    HW229337   3.630   1.317   4.570  0.2454 -0.7873  1.2880
 5901SOL     OW29338   4.584   3.246   6.567  0.2517 -0.5675  0.1952
 5901SOL    HW129339   4.646   3.231   6.495  0.5283  0.7649  0.1460
 5901SOL    HW229340   4.610   3.335   6.591  1.7546  0.1669 -4.1283
 5902SOL     OW29341   0.098   4.358  17.193  0.0153 -0.7844 -0.4057
 5902SOL    HW129342   0.124   4.292  17.130  2.4239 -0.8920  0.6771
 5902SOL    HW229343   0.136   4.428  17.140  0.0915 -0.6985 -0.2390
 5903SOL     OW29344   0.016   2.374   4.165  0.2515  0.5092  0.1370
 5903SOL    HW129345   0.003   2.286   4.199 -0.2905  0.2508 -0.7305
 5903SOL    HW229346   0.111   2.387   4.174  0.0754  2.3076 -0.6116
 5904SOL     OW29347   2.113   2.415   9.610 -0.1118 -0.2153 -0.0978
 5904SOL    HW129348   2.198   2.432   9.651 -1.3215  1.7444  1.5877
 5904SOL    HW229349   2.064   2.496   9.623 -0.7107 -0.5506 -0.2602
 5905SOL     OW29350   0.995   0.541   3.676  0.3047  0.8182  0.6216
 5905SOL    HW129351   1.062   0.560   3.611 -0.1724  1.2447  0.2601
 5905SOL    HW229352   0.937   0.616   3.665 -0.6793 -0.3690 -2.4601
 5906SOL     OW29353   4.149   4.018   5.924  0.1045  0.1838  0.2640
 5906SOL    HW129354   4.213   4.082   5.893  0.3246  0.0401  0.4178
 5906SOL    HW229355   4.209   3.945   5.939 -0.9975 -1.2561 -2.5303
 5907SOL     OW29356   3.973   2.331  15.463 -0.2267 -0.3211  0.0248
 5907SOL    HW129357   3.995   2.413  15.508 -0.7576 -0.3020  0.2489
 5907SOL    HW229358   4.020   2.274  15.524 -2.1028 -0.7482  1.0625
 5908SOL     OW29359   2.922   4.316   9.110  0.1313 -0.5383 -0.2409
 5908SOL    HW129360   2.851   4.351   9.055 -0.6494  0.9275  1.6992
 5908SOL    HW229361   2.878   4.235   9.137 -0.0540 -0.8206 -1.3669
 5909SOL     OW29362   1.389   3.206   1.898 -0.1121 -0.2345 -0.4145
 5909SOL    HW129363   1.468   3.260   1.889 -2.2530  2.5694 -2.0688
 5909SOL    HW229364   1.427   3.120   1.918  0.0307  0.6675  3.3601
 5910SOL     OW29365   2.574   3.009   0.898 -0.2050 -0.4142  0.4748
 5910SOL    HW129366   2.482   2.990   0.876  0.6354 -2.0560 -1.5799
 5910SOL    HW229367   2.585   2.960   0.979 -0.1938 -0.7470  0.2695
 5911SOL     OW29368   4.177   0.982  13.709 -0.6698  0.1640 -0.2924
 5911SOL    HW129369   4.124   1.058  13.687  2.1733  1.7912 -1.5550
 5911SOL    HW229370   4.141   0.920  13.645 -0.3524  0.8533 -1.1301
 5912SOL     OW29371   2.846   0.403   4.654  0.3326  0.0731  0.1256
 5912SOL    HW129372   2.879   0.475   4.708  0.6971  0.6379 -0.8496
 5912SOL    HW229373   2.907   0.335   4.680 -1.5074 -0.9696  1.7360
 5913SOL     OW29374   0.214   4.578   1.249  0.3629  0.2122  0.3319
 5913SOL    HW129375   0.260   4.662   1.243 -1.6594  1.1543 -1.9376
 5913SOL    HW229376   0.141   4.603   1.193 -1.9472 -1.9611  2.3829
 5914SOL     OW29377   3.896   0.606  11.041  0.1664 -0.0819  0.0674
 5914SOL    HW129378   3.970   0.548  11.025  1.5080  1.7735 -0.4788
 5914SOL    HW229379   3.933   0.687  11.076  1.6671 -1.1985  1.0337
 5915SOL     OW29380   0.858   1.544   4.638 -0.4186 -0.3476 -0.6205
 5915SOL    HW129381   0.935   1.586   4.679 -1.3432 -0.5592  1.3427
 5915SOL    HW229382   0.789   1.547   4.704 -0.6252  3.4625 -0.9954
 5916SOL     OW29383   4.240   0.634  13.746 -0.0292  0.8519 -0.4025
 5916SOL    HW129384   4.305   0.568  13.770  1.7385  3.1366  1.0051
 5916SOL    HW229385   4.246   0.636  13.651  0.4611 -0.4921 -0.3996
 5917SOL     OW29386   1.425   3.492   1.844 -0.0699  0.4239 -0.3919
 5917SOL    HW129387   1.387   3.557   1.785  0.2849  1.6265  0.7148
 5917SOL    HW229388   1.410   3.408   1.801 -2.2983  0.1551  0.9101
 5918SOL     OW29389   2.442   3.691   5.579 -0.0971  0.1661 -0.0699
 5918SOL    HW129390   2.394   3.608   5.580  1.1438 -0.5684 -1.6870
 5918SOL    HW229391   2.400   3.738   5.507  0.3802 -0.5877 -0.8372
 5919SOL     OW29392   0.251   2.492  12.761  0.2850  0.6566 -0.3845
 5919SOL    HW129393   0.173   2.503  12.815  0.0706  1.5752 -0.8798
 5919SOL    HW229394   0.211   2.430  12.700  1.4338  2.1875 -2.6909
 5920SOL     OW29395   1.502   2.829   1.642 -0.1580 -0.3285  0.0635
 5920SOL    HW129396   1.417   2.785   1.640 -0.3260  0.0372 -0.7109
 5920SOL    HW229397   1.547   2.767   1.585 -0.0197  0.7185 -0.9542
 5921SOL     OW29398   3.010   3.598   9.154 -0.9221  0.2892 -0.2565
 5921SOL    HW129399   3.081   3.535   9.141  0.3371  1.3435  1.3769
 5921SOL    HW229400   3.060   3.659   9.209 -1.3023  0.2940  0.0802
 5922SOL     OW29401   0.338   3.792   3.762  0.7218 -0.6043 -0.2948
 5922SOL    HW129402   0.302   3.783   3.850 -1.4819 -1.3552 -1.2472
 5922SOL    HW229403   0.432   3.791   3.776  0.7112  2.2237 -0.0880
 5923SOL     OW29404   3.853   2.448   2.796  0.0997 -0.3132  0.0501
 5923SOL    HW129405   3.762   2.454   2.826 -0.4010 -0.2114 -1.4705
 5923SOL    HW229406   3.908   2.497   2.857 -2.5426  0.2802  1.9528
 5924SOL     OW29407   2.176   1.902  17.416 -0.1287  0.0038 -0.7871
 5924SOL    HW129408   2.255   1.857  17.445  1.2173  1.9554 -1.3711
 5924SOL    HW229409   2.120   1.892  17.493  1.6644 -0.9825  0.3842
 5925SOL     OW29410   3.459   2.760  15.186 -0.1196 -0.0515 -0.5086
 5925SOL    HW129411   3.523   2.828  15.203 -1.3755  0.7614  0.9759
 5925SOL    HW229412   3.462   2.706  15.265  1.4337 -0.4492 -0.8523
 5926SOL     OW29413   2.479   0.565   1.210 -0.8495  0.2238  0.1833
 5926SOL    HW129414   2.569   0.599   1.208 -0.4919 -0.7964 -1.2187
 5926SOL    HW229415   2.496   0.482   1.254  1.0228 -0.4731 -1.8345
 5927SOL     OW29416   2.726   0.042   5.499  0.4048  0.2663 -0.1239
 5927SOL    HW129417   2.672   0.109   5.541 -1.6258 -0.5255 -1.4938
 5927SOL    HW229418   2.811   0.051   5.542 -0.2711  1.3385  0.9818
 5928SOL     OW29419   3.681   2.326  16.831  0.0482 -0.3927  0.6114
 5928SOL    HW129420   3.702   2.350  16.921  1.7825  1.5077 -0.3021
 5928SOL    HW229421   3.593   2.362  16.831  0.6807  1.0714 -3.3526
 5929SOL     OW29422   3.932   2.840  15.522 -0.0912 -0.3429  0.6448
 5929SOL    HW129423   3.958   2.751  15.499  0.3285 -0.5802  2.0615
 5929SOL    HW229424   3.884   2.852  15.440  0.3512  0.4886  0.5000
 5930SOL     OW29425   2.577   3.275   1.808 -0.6457 -0.0734  0.2725
 5930SOL    HW129426   2.573   3.275   1.712 -0.5930 -1.6722  0.2730
 5930SOL    HW229427   2.491   3.242   1.834 -1.4028  1.4874 -0.1839
 5931SOL     OW29428   0.210   2.567   5.066 -0.7206  0.3939 -0.6466
 5931SOL    HW129429   0.160   2.518   5.000 -0.1365  0.8358 -1.4226
 5931SOL    HW229430   0.275   2.497   5.078  0.7880  1.8365 -0.3740
 5932SOL     OW29431   2.434   3.295  10.224  0.0109 -0.0923  0.3771
 5932SOL    HW129432   2.512   3.295  10.280  1.4712  0.8995 -1.6586
 5932SOL    HW229433   2.456   3.225  10.162  1.7123  1.1454 -0.4341
 5933SOL     OW29434   2.928   3.913   4.054 -0.3084  0.6881 -0.0504
 5933SOL    HW129435   2.848   3.964   4.042 -1.1083 -1.0669 -2.2093
 5933SOL    HW229436   2.897   3.849   4.117  1.9677 -1.4533 -1.1027
 5934SOL     OW29437   3.850   2.658  15.132  0.0723  0.1004  0.7086
 5934SOL    HW129438   3.852   2.749  15.160  0.4215  0.5301 -0.7238
 5934SOL    HW229439   3.817   2.617  15.213  0.6491 -0.8779  0.4460
 5935SOL     OW29440   3.115   3.809   1.141 -0.0376 -0.1519  0.0489
 5935SOL    HW129441   3.179   3.797   1.071  0.4841  2.9445 -0.0117
 5935SOL    HW229442   3.086   3.900   1.130 -1.7692 -0.8906 -1.4841
 5936SOL     OW29443   0.096   3.820  17.201 -0.1789 -0.1159  0.1897
 5936SOL    HW129444   0.137   3.786  17.121  1.5859 -0.7216  1.3353
 5936SOL    HW229445   0.045   3.740  17.219  1.2249 -0.9668  0.4266
 5937SOL     OW29446   1.047   0.892  11.459  0.4309 -0.5089  0.0610
 5937SOL    HW129447   1.078   0.895  11.549 -0.1519 -0.9072  0.2725
 5937SOL    HW229448   1.092   0.809  11.442  1.6839  0.0178  0.8154
 5938SOL     OW29449   0.506   1.603   9.492 -0.4514 -0.0297  0.7507
 5938SOL    HW129450   0.424   1.557   9.511 -1.5089  0.4275 -2.7476
 5938SOL    HW229451   0.554   1.536   9.444  4.2955  2.2407  2.3397
 5939SOL     OW29452   1.086   1.190   9.889  0.6348  0.2320 -0.9276
 5939SOL    HW129453   1.075   1.171   9.796 -1.5931  0.3622 -0.6924
 5939SOL    HW229454   0.998   1.219   9.914  0.1959  0.3182 -2.5734
 5940SOL     OW29455   0.064   2.108   2.034 -0.1315  0.1169  0.3482
 5940SOL    HW129456   0.097   2.197   2.048 -3.3262  1.3292  0.0905
 5940SOL    HW229457   0.008   2.086   2.109  0.9744 -0.7567  0.9265
 5941SOL     OW29458   1.165   1.804  13.673 -0.3265 -0.0003  0.0090
 5941SOL    HW129459   1.095   1.861  13.703 -0.1406 -0.8013  1.9503
 5941SOL    HW229460   1.126   1.716  13.673  1.1608 -0.6571  0.1310
 5942SOL     OW29461   4.211   0.547  14.549 -0.3384  0.0230  0.1538
 5942SOL    HW129462   4.201   0.467  14.498  0.0094 -0.3121  0.6131
 5942SOL    HW229463   4.166   0.606  14.489 -1.5603 -0.9787  0.1049
 5943SOL     OW29464   3.606   4.368   8.763 -0.2262  0.2715 -0.7454
 5943SOL    HW129465   3.701   4.361   8.767 -0.0803  2.2092 -0.6087
 5943SOL    HW229466   3.578   4.356   8.854  1.1923  0.1430 -0.3294
 5944SOL     OW29467   4.469   0.671  14.501  0.3817  0.7097 -0.3222
 5944SOL    HW129468   4.386   0.681  14.546 -0.8885 -1.0133 -2.2817
 5944SOL    HW229469   4.470   0.576  14.489  0.0816  0.8282 -1.2837
 5945SOL     OW29470   2.332   0.895  11.790  0.4749 -0.7825 -0.1701
 5945SOL    HW129471   2.373   0.932  11.712  0.5428 -1.7313 -0.5887
 5945SOL    HW229472   2.314   0.971  11.845 -1.2297 -0.1709 -1.5815
 5946SOL     OW29473   3.602   3.350  10.753  0.0947 -0.2835 -0.9428
 5946SOL    HW129474   3.597   3.362  10.848  2.3177  1.7536 -1.0781
 5946SOL    HW229475   3.549   3.420  10.716  1.1140  1.5422  1.0232
 5947SOL     OW29476   4.153   2.533   4.875 -0.0019  0.3313 -0.1497
 5947SOL    HW129477   4.128   2.519   4.966 -0.4019 -0.6663 -0.4033
 5947SOL    HW229478   4.246   2.548   4.891  0.4412 -0.4168 -2.0135
 5948SOL     OW29479   2.470   3.657   4.008 -0.0910 -0.6572  0.0466
 5948SOL    HW129480   2.413   3.691   3.939 -0.5709 -2.0583 -0.2513
 5948SOL    HW229481   2.415   3.600   4.061  2.5393 -2.7861  0.5047
 5949SOL     OW29482   2.940   1.153   6.469  0.0790  0.0757 -0.3542
 5949SOL    HW129483   2.908   1.084   6.526  1.2376  1.0776  1.5133
 5949SOL    HW229484   2.987   1.205   6.535 -0.0460  2.3460 -2.0138
 5950SOL     OW29485   1.414   0.066   7.036  0.0491  0.3118 -0.3585
 5950SOL    HW129486   1.343   0.017   6.993 -0.9610  0.6646  0.8832
 5950SOL    HW229487   1.484   0.001   7.041 -2.5737 -2.6809 -2.3560
 5951SOL     OW29488   1.803   2.649   7.779 -0.1002 -0.0946  0.2304
 5951SOL    HW129489   1.824   2.591   7.705  1.3471  1.1333 -0.3179
 5951SOL    HW229490   1.714   2.677   7.758 -0.4253 -1.7457 -0.5701
 5952SOL     OW29491   2.871   1.164   5.802 -0.0080 -0.2166  0.3349
 5952SOL    HW129492   2.956   1.125   5.784 -0.2469  0.1694 -1.6427
 5952SOL    HW229493   2.859   1.173   5.896  1.5556  3.2020  0.2032
 5953SOL     OW29494   2.054   4.628  16.722 -0.0951 -0.1485 -0.3996
 5953SOL    HW129495   1.958   4.624  16.727  0.0126 -1.4657  0.4374
 5953SOL    HW229496   2.061   4.680  16.642 -0.1663 -0.0800 -0.3616
 5954SOL     OW29497   0.578   3.097   6.611 -0.0926  0.2637 -0.5104
 5954SOL    HW129498   0.555   3.045   6.534 -1.2715 -0.6757  0.4834
 5954SOL    HW229499   0.490   3.128   6.634 -0.4536 -0.3383 -1.1039
 5955SOL     OW29500   4.309   4.666   9.371  0.2138 -0.1707 -0.3773
 5955SOL    HW129501   4.336   4.703   9.287  2.7344 -1.4438 -0.1369
 5955SOL    HW229502   4.348   4.578   9.366 -0.5775 -0.7286  3.2361
 5956SOL     OW29503   2.400   2.788   5.602 -0.1705  0.3085 -0.2252
 5956SOL    HW129504   2.468   2.763   5.665  0.2107  1.5586 -0.1370
 5956SOL    HW229505   2.449   2.807   5.522  1.4050 -0.3047  0.5909
 5957SOL     OW29506   3.577   0.496   4.879  0.1377  0.1750 -0.1792
 5957SOL    HW129507   3.501   0.438   4.868 -0.2804  1.2600 -2.8912
 5957SOL    HW229508   3.624   0.466   4.801  3.1538 -0.5042  1.8956
 5958SOL     OW29509   2.112   1.446   7.676 -0.2387 -0.2712 -0.8458
 5958SOL    HW129510   2.164   1.386   7.730  1.0054  1.8534  0.3243
 5958SOL    HW229511   2.178   1.508   7.644 -1.5102  1.9822  0.8888
 5959SOL     OW29512   0.349   3.598   9.845 -0.0817  0.1797  0.6034
 5959SOL    HW129513   0.326   3.525   9.787 -0.0252  0.5259  0.1417
 5959SOL    HW229514   0.308   3.565   9.925  1.9241 -0.9077  1.1902
 5960SOL     OW29515   2.011   2.310   0.014 -0.0069 -0.3547  0.4151
 5960SOL    HW129516   1.923   2.289  17.730  1.6259 -2.1009 -3.0623
 5960SOL    HW229517   1.992   2.391   0.061  0.5305  1.5517 -2.6162
 5961SOL     OW29518   4.240   0.193  12.505 -0.0070 -0.6576 -0.6313
 5961SOL    HW129519   4.246   0.288  12.501 -1.3905 -0.4885  1.4052
 5961SOL    HW229520   4.174   0.170  12.570  1.8924 -1.4040  1.0264
 5962SOL     OW29521   1.904   0.671   6.468  0.1893 -0.0584 -0.1666
 5962SOL    HW129522   1.898   0.613   6.392  2.2585  2.4313 -2.2311
 5962SOL    HW229523   1.922   0.601   6.531  2.9606  0.6301 -0.1983
 5963SOL     OW29524   1.381   2.045  14.669 -0.7045  0.1410 -0.4118
 5963SOL    HW129525   1.447   2.066  14.734 -0.2296 -1.8056 -0.2729
 5963SOL    HW229526   1.302   2.053  14.723 -0.2572 -1.0393  0.4275
 5964SOL     OW29527   0.734   1.325   2.621 -0.1396  0.1940  0.6750
 5964SOL    HW129528   0.709   1.399   2.675  2.6422  1.3388  0.3841
 5964SOL    HW229529   0.767   1.364   2.540  0.0437 -1.8583 -0.2417
 5965SOL     OW29530   0.382   0.319  17.024 -0.2102  0.0147 -0.2353
 5965SOL    HW129531   0.378   0.376  17.101  0.7040 -0.3549  0.0837
 5965SOL    HW229532   0.316   0.254  17.049 -0.4329  0.6869  0.9267
 5966SOL     OW29533   4.384   3.221   8.883  0.4819  0.5053 -0.7677
 5966SOL    HW129534   4.322   3.229   8.811 -1.9064  0.9277  1.2991
 5966SOL    HW229535   4.341   3.152   8.934  0.0481  1.7948  0.6288
 5967SOL     OW29536   2.906   4.653   0.823 -0.2041  0.5936  0.1738
 5967SOL    HW129537   2.838   4.708   0.861 -0.9587 -0.4407  0.3150
 5967SOL    HW229538   2.889   4.651   0.728  0.3868 -2.9808  0.1136
 5968SOL     OW29539   1.409   2.526   4.200  0.4228 -0.8886  0.4459
 5968SOL    HW129540   1.449   2.457   4.253 -0.0729 -1.2054  0.4159
 5968SOL    HW229541   1.478   2.523   4.133  0.7228  1.3222  0.6738
 5969SOL     OW29542   1.704   1.972  13.759 -0.2466 -0.4784  1.0387
 5969SOL    HW129543   1.711   2.065  13.740 -0.0535 -0.2994  1.9806
 5969SOL    HW229544   1.616   1.946  13.732  0.3022 -0.6707 -0.5868
 5970SOL     OW29545   3.483   0.350   1.765  0.5256  0.3703 -0.4917
 5970SOL    HW129546   3.573   0.371   1.739 -0.2182  1.6781 -2.0166
 5970SOL    HW229547   3.501   0.307   1.849 -0.2991 -1.2414 -1.1483
 5971SOL     OW29548   3.561   0.675   4.377 -0.0262 -0.0188 -0.7747
 5971SOL    HW129549   3.551   0.718   4.292 -2.7586  1.0105  0.0851
 5971SOL    HW229550   3.647   0.703   4.409 -0.5436 -0.2505  0.7811
 5972SOL     OW29551   0.462   2.202   4.107  0.7278  0.7155 -0.1106
 5972SOL    HW129552   0.375   2.163   4.097 -0.1720  2.7798 -0.3962
 5972SOL    HW229553   0.526   2.144   4.148 -0.1098 -0.0379  0.1272
 5973SOL     OW29554   3.477   0.559   8.816 -0.5200  0.1807  0.6912
 5973SOL    HW129555   3.505   0.650   8.803  1.3302 -0.7206 -1.7671
 5973SOL    HW229556   3.450   0.535   8.727 -1.8717 -1.9565  1.6981
 5974SOL     OW29557   1.611   0.347   4.552  0.1667  0.6438 -0.5528
 5974SOL    HW129558   1.536   0.407   4.556 -0.0131  0.3932 -0.0590
 5974SOL    HW229559   1.628   0.351   4.458 -1.4056 -1.9008 -0.9313
 5975SOL     OW29560   4.068   0.202   8.162 -0.0274 -0.4473  0.4909
 5975SOL    HW129561   4.092   0.294   8.150 -1.9213 -0.1251 -0.8798
 5975SOL    HW229562   4.157   0.170   8.177  0.6358  1.5363  0.7527
 5976SOL     OW29563   0.191   2.482   9.478  0.8576  0.0933 -0.0361
 5976SOL    HW129564   0.116   2.428   9.454 -0.3831  1.9055 -0.2534
 5976SOL    HW229565   0.234   2.427   9.543  0.8746 -1.5602 -1.4571
 5977SOL     OW29566   3.863   2.972   4.754  0.1711  0.1465  0.0255
 5977SOL    HW129567   3.769   2.994   4.759 -0.2614 -1.4902 -0.9111
 5977SOL    HW229568   3.902   3.059   4.756  0.4415 -0.0097  1.7796
 5978SOL     OW29569   2.221   0.137   7.093  0.2647  0.3359 -0.1338
 5978SOL    HW129570   2.275   0.182   7.157  1.2279  1.1556 -1.5117
 5978SOL    HW229571   2.299   0.096   7.055 -0.6768 -1.5918 -0.0304
 5979SOL     OW29572   3.946   2.660   6.976  0.5505  0.4368 -0.5336
 5979SOL    HW129573   3.871   2.707   7.013  0.4667 -1.0279  1.1640
 5979SOL    HW229574   3.923   2.623   6.891  1.6373  2.9094 -1.9094
 5980SOL     OW29575   1.885   2.327  15.059 -0.0570 -0.4411 -0.0640
 5980SOL    HW129576   1.979   2.322  15.041  0.0307  0.2007  0.2289
 5980SOL    HW229577   1.850   2.238  15.049  0.7772 -0.6837 -0.8171
 5981SOL     OW29578   4.255   0.025   6.013  0.4830 -0.1216 -0.3715
 5981SOL    HW129579   4.313   4.686   6.023  0.7362  0.1270  0.0956
 5981SOL    HW229580   4.322   0.086   6.046 -0.1317 -0.5501  1.6593
 5982SOL     OW29581   1.485   0.461   5.965 -0.5620  0.5701  0.8476
 5982SOL    HW129582   1.485   0.468   5.870 -2.5993  1.2710  0.8862
 5982SOL    HW229583   1.390   0.454   5.981 -0.2472 -0.7947  2.1379
 5983SOL     OW29584   4.516   3.298   2.479 -0.2908 -0.5882 -0.0410
 5983SOL    HW129585   4.478   3.375   2.437  0.2166 -0.6540 -0.6159
 5983SOL    HW229586   4.578   3.333   2.543 -1.2854 -1.5559  1.4416
 5984SOL     OW29587   4.562   4.057   2.464  0.2374 -0.1318  0.1098
 5984SOL    HW129588   4.471   4.029   2.468 -0.1545  1.3386  1.2493
 5984SOL    HW229589   4.611   3.999   2.523  0.9558  0.8882  0.5232
 5985SOL     OW29590   0.090   0.421  14.468  0.3226 -0.1227  0.0339
 5985SOL    HW129591   0.029   0.450  14.400 -1.2508  0.6443  1.7868
 5985SOL    HW229592   0.086   0.488  14.536 -3.2248 -1.5821  1.2460
 5986SOL     OW29593   4.038   1.985  16.404  0.1587  0.2084  0.3642
 5986SOL    HW129594   4.035   2.068  16.356 -1.5938  0.2655  0.5726
 5986SOL    HW229595   3.959   2.003  16.455 -0.1961 -2.2033  0.6568
 5987SOL     OW29596   3.842   3.580   2.279 -0.4916  0.1179 -0.6269
 5987SOL    HW129597   3.925   3.621   2.254 -1.0513  1.0821 -0.8758
 5987SOL    HW229598   3.815   3.569   2.188 -1.5452 -2.2367 -0.0331
 5988SOL     OW29599   4.487   4.446   9.371 -0.1012  0.4114  0.0366
 5988SOL    HW129600   4.501   4.442   9.276 -0.3673  1.8547 -0.0539
 5988SOL    HW229601   4.539   4.372   9.402  0.9004  0.1134 -2.3954
 5989SOL     OW29602   2.287   4.502   7.811 -0.0908 -0.4902 -0.3547
 5989SOL    HW129603   2.254   4.424   7.766  2.5517 -0.0362 -3.0816
 5989SOL    HW229604   2.330   4.551   7.741 -1.0437 -0.0826 -0.6544
 5990SOL     OW29605   1.932   4.157   2.945  0.4836  0.1759 -0.1308
 5990SOL    HW129606   2.005   4.134   2.887 -0.6218 -0.5206 -1.2450
 5990SOL    HW229607   1.970   4.183   3.029 -0.5975 -0.9198  0.6851
 5991SOL     OW29608   1.721   2.558   6.829 -0.3860 -0.0205  0.0010
 5991SOL    HW129609   1.677   2.643   6.826  1.7959  1.1876  1.8047
 5991SOL    HW229610   1.796   2.573   6.771  0.3713  1.8319  1.4162
 5992SOL     OW29611   2.528   2.838  14.267  0.4944  0.3465  0.2896
 5992SOL    HW129612   2.574   2.759  14.296 -2.8306 -1.7660 -0.2341
 5992SOL    HW229613   2.439   2.808  14.248  0.1699 -0.5975  3.2052
 5993SOL     OW29614   3.901   1.965   9.208  0.3680  0.0090 -0.3929
 5993SOL    HW129615   3.890   2.056   9.236  0.3099 -0.3514  0.7686
 5993SOL    HW229616   3.940   1.970   9.120  0.4122 -2.1512 -0.4900
 5994SOL     OW29617   2.477   2.040  14.416 -0.5101  0.4615 -0.3527
 5994SOL    HW129618   2.417   2.018  14.488  2.0987  0.5433  1.8413
 5994SOL    HW229619   2.533   2.108  14.454  0.0792  0.5258 -1.3461
 5995SOL     OW29620   0.496   3.645   2.609  0.1737 -0.5797  0.2293
 5995SOL    HW129621   0.458   3.558   2.596  2.2691 -1.4322 -0.2034
 5995SOL    HW229622   0.420   3.703   2.616 -1.2812 -2.3492 -1.1728
 5996SOL     OW29623   4.259   3.785   6.034  0.4838  0.2261 -0.1078
 5996SOL    HW129624   4.283   3.754   6.121 -0.1433  0.7283  0.2414
 5996SOL    HW229625   4.180   3.732   6.020  1.0683 -0.9328  0.8981
 5997SOL     OW29626   2.866   0.187  12.098 -0.0031 -0.0578 -0.6096
 5997SOL    HW129627   2.907   0.108  12.063  0.5257  0.0626 -0.2581
 5997SOL    HW229628   2.932   0.231  12.151 -1.7606  0.8319  0.8583
 5998SOL     OW29629   3.469   1.490   4.061 -0.2464  0.3108  0.2212
 5998SOL    HW129630   3.379   1.517   4.075 -1.0990 -3.0972  1.2311
 5998SOL    HW229631   3.515   1.562   4.105  0.5598  0.2006 -0.4423
 5999SOL     OW29632   4.671   3.655   5.027 -0.2251 -0.0579  0.1630
 5999SOL    HW129633   4.628   3.575   5.055  1.3069 -1.7943 -2.4815
 5999SOL    HW229634   4.605   3.724   5.035 -2.4826 -2.1191 -0.9260
 6000SOL     OW29635   4.632   0.971   8.185 -0.3406 -0.7161  0.5008
 6000SOL    HW129636   4.691   1.036   8.223 -0.2879  1.1280 -2.6592
 6000SOL    HW229637   4.667   0.977   8.096 -1.7050  0.9068  0.0765
 6001SOL     OW29638   1.016   1.661   6.777  0.5788  0.0309  0.1337
 6001SOL    HW129639   0.971   1.647   6.694  0.1746  0.7762  0.2282
 6001SOL    HW229640   1.060   1.746   6.769 -0.5882  0.5682 -0.5151
 6002SOL     OW29641   0.764   2.478   4.614  0.0232  0.0889 -0.2432
 6002SOL    HW129642   0.827   2.527   4.667 -1.6772 -0.6854  2.4934
 6002SOL    HW229643   0.824   2.408   4.589 -0.3649 -0.3355  0.0070
 6003SOL     OW29644   0.857   0.161   1.629  0.0289  0.2278 -0.3827
 6003SOL    HW129645   0.803   0.142   1.706  2.4710  2.4392  1.8462
 6003SOL    HW229646   0.885   0.070   1.614 -2.6180 -0.9622  1.9343
 6004SOL     OW29647   4.728   0.557   1.626  0.2198 -0.0619 -0.0876
 6004SOL    HW129648   4.724   0.652   1.639  2.0080  0.4860 -3.4924
 6004SOL    HW229649   0.065   0.538   1.682 -0.4720 -1.9978  0.1714
 6005SOL     OW29650   3.198   3.396   8.216  0.0311  0.3762  0.3672
 6005SOL    HW129651   3.258   3.331   8.181  1.1353 -0.7484  4.3376
 6005SOL    HW229652   3.173   3.446   8.138 -1.6024 -1.9542 -0.5877
 6006SOL     OW29653   2.529   4.664   8.100  0.4439  0.1684  0.0445
 6006SOL    HW129654   2.599   4.619   8.053 -0.3543 -2.3084  1.1906
 6006SOL    HW229655   2.458   4.606   8.127 -2.5428  3.3555 -0.9556
 6007SOL     OW29656   2.223   2.847   0.154  0.5122 -0.2720  0.6485
 6007SOL    HW129657   2.213   2.752   0.147  0.4095 -0.2399  0.3488
 6007SOL    HW229658   2.280   2.856   0.230 -1.4246 -0.7183  2.1590
 6008SOL     OW29659   0.439   0.981   2.822  0.0753 -0.1016  0.6000
 6008SOL    HW129660   0.443   1.015   2.733 -3.4549 -1.0105  0.1102
 6008SOL    HW229661   0.527   0.942   2.827 -1.0498 -2.1690  4.0756
 6009SOL     OW29662   1.245   3.465   9.335  0.4635  0.6985  0.3879
 6009SOL    HW129663   1.221   3.495   9.423 -1.6647 -1.9094  0.6859
 6009SOL    HW229664   1.270   3.550   9.297  1.3923  0.6210  0.8302
 6010SOL     OW29665   1.544   3.294   4.682  0.3236  0.2408  0.0329
 6010SOL    HW129666   1.556   3.204   4.714  0.8062  0.5405  0.7077
 6010SOL    HW229667   1.625   3.315   4.636 -0.3255  1.7398 -0.3922
 6011SOL     OW29668   4.666   3.553  10.232 -0.1978 -0.1026  0.2679
 6011SOL    HW129669   4.582   3.592  10.255 -0.8797 -0.4369 -1.6183
 6011SOL    HW229670   4.726   3.619  10.267 -0.1078 -0.4213  0.7049
 6012SOL     OW29671   3.242   1.411  11.499 -0.0178 -0.8532 -0.3862
 6012SOL    HW129672   3.237   1.481  11.564 -2.7590 -0.6490 -0.8198
 6012SOL    HW229673   3.329   1.375  11.512 -0.2294 -0.5529  1.8715
 6013SOL     OW29674   1.210   1.766   5.859 -0.0138  0.0992  0.0452
 6013SOL    HW129675   1.259   1.835   5.814 -0.7723 -1.5144 -3.2253
 6013SOL    HW229676   1.177   1.817   5.932  0.7175  0.5186  0.0871
 6014SOL     OW29677   0.709   0.931   2.815  0.5710  0.1048  0.0115
 6014SOL    HW129678   0.794   0.895   2.843  0.1788 -1.4756 -0.8233
 6014SOL    HW229679   0.725   0.946   2.722  3.1584 -0.7983  0.2905
 6015SOL     OW29680   1.513   0.494   6.597 -0.8167 -0.1449 -0.3973
 6015SOL    HW129681   1.560   0.536   6.525 -0.3303  1.4623  0.8741
 6015SOL    HW229682   1.509   0.554   6.671 -0.5223  0.1135 -0.5914
 6016SOL     OW29683   0.800   3.898   9.415  0.0631 -0.1906 -0.1721
 6016SOL    HW129684   0.744   3.915   9.491 -0.7103 -1.1221 -0.5409
 6016SOL    HW229685   0.836   3.987   9.409 -0.7466  0.0053 -1.9528
 6017SOL     OW29686   1.894   2.192   8.148  0.1976  0.3864  0.1490
 6017SOL    HW129687   1.947   2.143   8.085  1.6033 -0.6161  2.0954
 6017SOL    HW229688   1.956   2.241   8.202  0.9556 -0.0134 -0.3654
 6018SOL     OW29689   4.065   4.336   5.109 -0.8505  0.3232 -0.8856
 6018SOL    HW129690   4.096   4.252   5.076 -4.3731 -1.1982 -0.3875
 6018SOL    HW229691   4.108   4.384   5.038 -0.9673 -1.1102 -1.9327
 6019SOL     OW29692   2.657   4.519  16.029 -0.1484  0.4095  0.0005
 6019SOL    HW129693   2.706   4.585  16.079 -0.2108 -0.3294  1.0263
 6019SOL    HW229694   2.569   4.550  16.049  0.0474  0.8285  0.2086
 6020SOL     OW29695   0.171   1.804   2.339 -0.4637 -0.0404  0.5638
 6020SOL    HW129696   0.186   1.899   2.337 -0.2826 -0.1045 -1.4012
 6020SOL    HW229697   0.140   1.782   2.427  0.0917 -1.3582  0.4210
 6021SOL     OW29698   4.734   1.656  14.331  0.4826 -0.2337  0.1489
 6021SOL    HW129699   4.688   1.678  14.251  0.3854  0.2149  0.3289
 6021SOL    HW229700   0.013   1.564  14.312  0.2048 -0.3496  0.4775
 6022SOL     OW29701   0.335   1.617   0.626  0.3351  0.2487  0.3037
 6022SOL    HW129702   0.401   1.616   0.556 -1.3781 -0.0042 -1.3153
 6022SOL    HW229703   0.376   1.556   0.688 -0.9867 -1.0862 -0.1362
 6023SOL     OW29704   0.848   0.504   6.699  0.0044 -0.2660  0.0724
 6023SOL    HW129705   0.860   0.584   6.751  4.1487 -1.1422  0.4346
 6023SOL    HW229706   0.917   0.444   6.725  0.7902  0.1331 -1.0843
 6024SOL     OW29707   4.261   4.262   8.037  0.7858  0.2604  0.3929
 6024SOL    HW129708   4.327   4.239   8.102  1.1417  1.6166  0.5173
 6024SOL    HW229709   4.258   4.182   7.985  0.7333  0.4079  0.1687
 6025SOL     OW29710   1.827   4.003   9.784 -0.4714  0.1748  0.0697
 6025SOL    HW129711   1.793   3.974   9.699  2.2501 -2.3242 -0.1570
 6025SOL    HW229712   1.759   4.051   9.832 -1.2279 -0.2627 -0.5624
 6026SOL     OW29713   1.869   3.919  10.098  0.4362 -0.2327  0.1444
 6026SOL    HW129714   1.898   3.829  10.084 -0.2026 -0.5813  1.0348
 6026SOL    HW229715   1.824   3.948  10.019  1.4044 -3.4344 -1.5911
 6027SOL     OW29716   0.138   2.073   6.776  0.3731  0.4859  0.3954
 6027SOL    HW129717   0.062   2.131   6.782  0.1623  0.1793  0.6774
 6027SOL    HW229718   0.205   2.141   6.780  0.4039  0.4344  0.7103
 6028SOL     OW29719   1.065   4.230   6.291  0.2879 -0.1349 -0.1536
 6028SOL    HW129720   1.106   4.266   6.369 -1.6032  1.5932  0.0468
 6028SOL    HW229721   1.048   4.140   6.320  0.2886 -0.1365 -0.1579
 6029SOL     OW29722   2.941   0.791   9.104  0.5315  0.6301 -0.1509
 6029SOL    HW129723   2.914   0.739   9.179 -0.1385  1.4493  0.1819
 6029SOL    HW229724   2.974   0.872   9.142 -0.1686  0.8634 -0.0362
 6030SOL     OW29725   3.641   3.433  11.016  0.0273 -0.3293 -0.0514
 6030SOL    HW129726   3.654   3.474  11.102  0.0866 -0.6045  0.0724
 6030SOL    HW229727   3.638   3.344  11.051 -2.9398  0.3581  1.4407
 6031SOL     OW29728   2.649   2.942   1.965  0.4174  0.7600  0.0956
 6031SOL    HW129729   2.651   3.007   2.035 -0.0901  1.2159 -0.3118
 6031SOL    HW229730   2.736   2.957   1.929  0.3168 -2.4752 -1.5380
 6032SOL     OW29731   2.108   4.630   3.009  0.0309 -0.2321  0.0859
 6032SOL    HW129732   2.061   4.609   2.927 -0.3394 -2.2143  0.7856
 6032SOL    HW229733   2.037   4.671   3.058 -0.9912 -0.6763 -1.0194
 6033SOL     OW29734   2.541   4.373   3.915 -0.1021  0.1710  0.3020
 6033SOL    HW129735   2.458   4.335   3.943 -0.3037 -0.0217 -0.5557
 6033SOL    HW229736   2.511   4.461   3.892  1.8623  0.5039 -0.9764
 6034SOL     OW29737   1.570   2.725   7.598 -0.4314 -0.4184 -0.4167
 6034SOL    HW129738   1.490   2.706   7.647  0.0764 -0.5200  0.3644
 6034SOL    HW229739   1.536   2.737   7.509 -3.6010  0.5754  0.9359
 6035SOL     OW29740   1.568   4.575   9.308 -0.4476 -0.0995  0.0041
 6035SOL    HW129741   1.491   4.610   9.352 -0.4682 -1.5232  1.1001
 6035SOL    HW229742   1.597   4.657   9.268 -0.6138 -0.5670 -1.0794
 6036SOL     OW29743   2.099   2.305   6.278 -0.3229 -0.1601  0.3630
 6036SOL    HW129744   2.071   2.322   6.368 -0.9452  0.3624  0.0708
 6036SOL    HW229745   2.160   2.233   6.296 -1.1619 -0.4423  2.0724
 6037SOL     OW29746   0.152   0.203   8.999  0.0587 -0.1198 -0.0041
 6037SOL    HW129747   0.135   0.297   9.002  0.5455 -0.0475  0.5060
 6037SOL    HW229748   0.071   0.188   8.949  0.3012 -2.7293  0.3619
 6038SOL     OW29749   2.174   3.597  12.304  0.3021 -0.3088 -0.0188
 6038SOL    HW129750   2.105   3.565  12.362  0.8055 -0.9443  0.2327
 6038SOL    HW229751   2.189   3.523  12.245  0.7865  0.1866 -0.5140
 6039SOL     OW29752   3.655   1.704  10.476  0.3782 -0.1263  0.2880
 6039SOL    HW129753   3.580   1.731  10.529  0.4075 -0.8429  0.6951
 6039SOL    HW229754   3.651   1.608  10.472 -0.5451 -0.0756  0.0039
 6040SOL     OW29755   3.855   1.164   9.061  0.5781  0.4587  0.0426
 6040SOL    HW129756   3.889   1.099   9.123 -2.1496 -0.0908  0.9396
 6040SOL    HW229757   3.936   1.181   9.014  0.6571 -1.6914 -0.6110
 6041SOL     OW29758   2.928   0.812   0.166 -0.1037 -0.2986 -0.4916
 6041SOL    HW129759   2.885   0.742   0.117  0.3023 -0.6647 -0.3262
 6041SOL    HW229760   3.009   0.815   0.116  2.7073 -1.7655  3.9868
 6042SOL     OW29761   4.517   3.714   2.152 -0.1232  0.1372 -0.1093
 6042SOL    HW129762   4.504   3.809   2.149 -0.0564  0.2319  2.4427
 6042SOL    HW229763   4.595   3.703   2.097  0.5234 -0.0100  0.8428
 6043SOL     OW29764   4.617   2.847   3.662 -0.2438 -0.2557  0.1691
 6043SOL    HW129765   4.577   2.907   3.725  1.8428  0.1533  1.1064
 6043SOL    HW229766   4.707   2.852   3.694  0.5239 -0.7033 -1.9507
 6044SOL     OW29767   3.219   4.033   4.346  0.6167  0.2829  0.7015
 6044SOL    HW129768   3.162   3.990   4.409 -1.5175  2.6181  0.3721
 6044SOL    HW229769   3.171   4.101   4.300  2.3865  1.6787  0.8960
 6045SOL     OW29770   1.616   2.322   6.693  0.2130  0.4737 -0.8881
 6045SOL    HW129771   1.605   2.342   6.600  0.9879  1.0061 -0.8611
 6045SOL    HW229772   1.667   2.396   6.726 -1.1335  1.4072 -0.9085
 6046SOL     OW29773   2.258   1.068   5.597  0.0505 -0.0998 -0.2235
 6046SOL    HW129774   2.295   1.107   5.518  2.0483 -1.8181 -0.1394
 6046SOL    HW229775   2.196   1.130   5.637 -0.1726 -0.0937 -0.5878
 6047SOL     OW29776   4.700   4.064   6.099  0.7216  0.0859  0.2354
 6047SOL    HW129777   4.668   4.120   6.170 -0.5831  0.6551 -0.8008
 6047SOL    HW229778   4.626   4.003   6.096  0.4580  0.3601  1.2374
 6048SOL     OW29779   1.997   3.009   3.080 -0.6384  0.3888 -0.3335
 6048SOL    HW129780   1.975   3.051   2.997  0.1797  2.4494  0.4750
 6048SOL    HW229781   1.914   3.021   3.127 -0.3938 -0.0825  0.2122
 6049SOL     OW29782   4.418   4.620   7.453 -0.2113 -0.0421 -1.1268
 6049SOL    HW129783   4.452   4.573   7.377  2.0740  0.3841 -0.3565
 6049SOL    HW229784   4.325   4.595   7.456  0.3018 -1.7415  1.2727
 6050SOL     OW29785   4.148   0.420   7.480 -0.1435 -0.2908 -0.1187
 6050SOL    HW129786   4.122   0.338   7.438  1.3945 -1.2219  0.7535
 6050SOL    HW229787   4.230   0.425   7.432  1.2272  2.4294  2.4552
 6051SOL     OW29788   2.516   4.484   3.365 -0.2213 -0.2806  0.1630
 6051SOL    HW129789   2.557   4.400   3.345  1.1380  0.1362  1.1518
 6051SOL    HW229790   2.433   4.467   3.410  0.4386 -0.8502  1.1619
 6052SOL     OW29791   1.506   0.026   8.710  0.4420  0.3482 -0.5089
 6052SOL    HW129792   1.511   0.086   8.635 -2.9962  0.5706 -0.5458
 6052SOL    HW229793   1.578   0.063   8.762 -1.3963  1.5169  1.1666
 6053SOL     OW29794   2.186   1.607   9.120  0.0503  0.9456 -0.0934
 6053SOL    HW129795   2.263   1.649   9.082 -0.5967  1.8067 -0.4364
 6053SOL    HW229796   2.187   1.632   9.212  2.9591 -2.1667  0.7547
 6054SOL     OW29797   1.092   0.031  11.245 -0.0958 -0.4471 -0.0645
 6054SOL    HW129798   1.136   0.099  11.194  0.2757 -0.6800 -0.0602
 6054SOL    HW229799   1.056   0.086  11.315  1.2577  0.8790 -0.4135
 6055SOL     OW29800   0.696   3.401  12.716  0.2920 -0.1959 -0.4719
 6055SOL    HW129801   0.781   3.371  12.683 -0.1332 -0.0751 -1.6611
 6055SOL    HW229802   0.708   3.495  12.699 -0.9588  0.1876  0.7647
 6056SOL     OW29803   0.647   3.239   4.884  0.4029  0.4349  0.3958
 6056SOL    HW129804   0.587   3.233   4.958 -0.8902 -1.7755 -0.8048
 6056SOL    HW229805   0.701   3.307   4.924  1.7388 -0.1884 -0.3501
 6057SOL     OW29806   4.354   0.073   2.179  0.0550  0.0392  0.2885
 6057SOL    HW129807   4.383   0.055   2.090 -2.9000 -0.4645 -0.5860
 6057SOL    HW229808   4.429   0.059   2.236  1.4899  0.1452 -1.6124
 6058SOL     OW29809   2.807   3.591   7.174  0.4585 -0.1423  0.0353
 6058SOL    HW129810   2.720   3.611   7.140  0.1557 -2.6517 -0.6496
 6058SOL    HW229811   2.782   3.519   7.232 -2.0796  0.5782 -0.1918
 6059SOL     OW29812   0.758   1.725   0.305  0.4441 -0.1484  0.0527
 6059SOL    HW129813   0.779   1.791   0.371  1.1399 -0.3913  0.0778
 6059SOL    HW229814   0.813   1.753   0.232  0.4996  0.0365  0.1667
 6060SOL     OW29815   0.960   2.471   5.299  0.3226  0.1303 -0.3474
 6060SOL    HW129816   0.967   2.547   5.357 -0.4753  0.2090 -0.3595
 6060SOL    HW229817   1.004   2.519   5.229 -0.5824  0.3658 -0.7444
 6061SOL     OW29818   0.989   3.704   2.986  0.4631  0.0968 -0.0145
 6061SOL    HW129819   0.929   3.766   2.943 -0.4544 -0.7813  0.0095
 6061SOL    HW229820   1.068   3.727   2.937  0.2030 -0.3253 -0.6409
 6062SOL     OW29821   4.246   1.507   4.017 -0.4883  0.0506 -0.1664
 6062SOL    HW129822   4.209   1.556   3.944 -2.6333  0.0043  0.8544
 6062SOL    HW229823   4.322   1.467   3.976 -0.9571  0.2415 -1.2146
 6063SOL     OW29824   0.015   0.947   7.545 -0.8103 -0.5701  0.2143
 6063SOL    HW129825   0.070   0.951   7.467 -0.9986  1.0302  0.1685
 6063SOL    HW229826   0.034   0.857   7.572 -0.9763 -0.7940 -0.4185
 6064SOL     OW29827   1.696   0.296   6.433  0.0826  0.1625  0.1202
 6064SOL    HW129828   1.651   0.359   6.489  1.4506 -1.0946  2.6765
 6064SOL    HW229829   1.647   0.309   6.352  0.9720 -2.0782 -0.7864
 6065SOL     OW29830   3.537   0.986   8.181  0.0057  0.0587 -0.2954
 6065SOL    HW129831   3.501   0.897   8.178 -0.7934  0.3025  2.2501
 6065SOL    HW229832   3.627   0.969   8.211 -0.0802 -0.5321 -0.3626
 6066SOL     OW29833   3.220   0.594   3.416  0.5607 -0.2947  0.2781
 6066SOL    HW129834   3.178   0.622   3.335 -2.2002  1.8469  2.4292
 6066SOL    HW229835   3.222   0.677   3.463  0.5351 -0.9637  1.4511
 6067SOL     OW29836   0.095   1.441  11.511 -0.0441  0.7295  0.0850
 6067SOL    HW129837   0.127   1.413  11.426  1.0635 -1.7122  1.2952
 6067SOL    HW229838   0.036   1.512  11.487 -3.1403 -1.4412  1.3641
 6068SOL     OW29839   1.748   1.843   5.406  0.2495 -0.1120  0.4302
 6068SOL    HW129840   1.657   1.818   5.394  0.1255  0.4547  0.1662
 6068SOL    HW229841   1.784   1.842   5.318 -0.4292 -0.1706  0.1567
 6069SOL     OW29842   3.881   0.595   2.423  0.3636  0.1497  0.3083
 6069SOL    HW129843   3.969   0.579   2.388 -0.3062  0.4939 -1.5535
 6069SOL    HW229844   3.892   0.556   2.509  1.6531 -0.7524 -0.2638
 6070SOL     OW29845   0.724   1.581   7.228 -1.1320  0.3184 -0.1715
 6070SOL    HW129846   0.774   1.648   7.275 -3.1864  1.7959 -0.1376
 6070SOL    HW229847   0.765   1.607   7.145 -2.6119  4.0645  0.2916
 6071SOL     OW29848   2.661   3.560  14.227 -0.3391  0.1107 -0.3856
 6071SOL    HW129849   2.570   3.533  14.214 -0.8367  0.0975  2.9936
 6071SOL    HW229850   2.697   3.539  14.141  0.2690  1.6861 -0.5244
 6072SOL     OW29851   4.304   2.202   2.580  0.2585  0.3383  0.0966
 6072SOL    HW129852   4.267   2.290   2.567  3.5351  1.8012  0.8554
 6072SOL    HW229853   4.396   2.225   2.580  0.6334 -1.1983  1.4292
 6073SOL     OW29854   3.337   1.877   6.755 -0.0925 -0.4515 -0.3388
 6073SOL    HW129855   3.332   1.970   6.775 -1.4383 -0.4939 -0.4699
 6073SOL    HW229856   3.424   1.864   6.792 -0.5380  3.4622  2.0292
 6074SOL     OW29857   2.575   0.551   4.926 -0.7276  0.3621 -0.2331
 6074SOL    HW129858   2.665   0.521   4.928 -0.4714  1.0547 -1.0177
 6074SOL    HW229859   2.561   0.578   5.017  3.6798 -0.0764  0.5472
 6075SOL     OW29860   2.321   2.171   1.504 -0.3227  0.0859 -0.2424
 6075SOL    HW129861   2.295   2.203   1.591 -0.6024  0.9308 -0.6378
 6075SOL    HW229862   2.287   2.082   1.505 -2.3403  0.8189 -3.3364
 6076SOL     OW29863   1.891   1.917   2.043 -0.4147 -0.2911 -0.1681
 6076SOL    HW129864   1.800   1.940   2.022 -0.0361  0.2330 -1.2466
 6076SOL    HW229865   1.891   1.932   2.137 -1.8943 -1.9297  0.0866
 6077SOL     OW29866   2.027   0.782   0.966  0.6312 -0.7669 -0.5950
 6077SOL    HW129867   1.933   0.798   0.963  0.8284  0.6313  0.7210
 6077SOL    HW229868   2.062   0.811   0.882  1.6248 -1.4962 -0.4458
 6078SOL     OW29869   1.761   4.657  16.068 -0.5349  0.3375  0.2110
 6078SOL    HW129870   1.690   4.599  16.096 -0.3103 -1.3102 -2.6629
 6078SOL    HW229871   1.788   4.695  16.152  0.3443 -2.5042  1.2129
 6079SOL     OW29872   4.532   2.973   4.797 -0.7114 -0.0334 -0.0556
 6079SOL    HW129873   4.558   3.026   4.722 -1.2670 -1.0615 -0.9687
 6079SOL    HW229874   4.458   2.922   4.765  0.7232 -2.0721 -0.1200
 6080SOL     OW29875   1.643   2.032  13.346  0.3264 -0.1423 -0.2582
 6080SOL    HW129876   1.680   2.062  13.263  1.7569  1.1518  0.8261
 6080SOL    HW229877   1.657   2.107  13.405 -1.5917  0.6103 -0.7752
 6081SOL     OW29878   2.091   4.075   6.945  0.2943 -0.2684  0.9118
 6081SOL    HW129879   2.035   4.149   6.924  0.2897 -0.4489  0.2938
 6081SOL    HW229880   2.031   4.028   7.004  1.0083 -0.0329  1.8136
 6082SOL     OW29881   0.960   0.181   8.959  0.3996 -0.1581 -0.2299
 6082SOL    HW129882   0.982   0.140   9.042 -1.5234 -0.5650  0.0953
 6082SOL    HW229883   0.897   0.116   8.927  1.1464 -1.4023  0.7991
 6083SOL     OW29884   3.433   1.102   7.621  0.3068 -0.4853  0.1031
 6083SOL    HW129885   3.476   1.154   7.689 -1.5583  1.4835 -0.2415
 6083SOL    HW229886   3.349   1.117   7.663  1.7536  1.2080  2.4000
 6084SOL     OW29887   4.089   3.933   4.254  0.0561  0.4216 -0.1359
 6084SOL    HW129888   4.119   3.843   4.238 -0.5779  0.0387  0.7780
 6084SOL    HW229889   4.063   3.926   4.347 -2.1515  0.3237 -0.7565
 6085SOL     OW29890   3.198   1.711   2.414  0.0056  0.0943 -0.5139
 6085SOL    HW129891   3.178   1.777   2.347 -0.3385  1.1615  0.6429
 6085SOL    HW229892   3.239   1.770   2.477 -0.1198 -1.0313  0.6161
 6086SOL     OW29893   3.694   0.182   7.938  0.4421 -0.1680 -0.4939
 6086SOL    HW129894   3.764   0.232   7.896  1.6510 -1.6584 -0.2562
 6086SOL    HW229895   3.739   0.144   8.014  2.1282  2.2185 -0.2896
 6087SOL     OW29896   0.910   1.811   8.981 -0.5526 -0.0690  0.3065
 6087SOL    HW129897   0.857   1.774   8.910  0.4639 -2.3635  0.7437
 6087SOL    HW229898   0.950   1.734   9.019 -0.5636 -1.7195 -2.9944
 6088SOL     OW29899   1.918   2.670   6.696  0.0679 -0.3805  0.0241
 6088SOL    HW129900   1.966   2.753   6.697  1.9181 -1.4658  1.9508
 6088SOL    HW229901   1.987   2.604   6.700  0.5901  0.1772  0.1984
 6089SOL     OW29902   3.395   0.547   7.703  0.5896 -0.0680  0.9143
 6089SOL    HW129903   3.470   0.542   7.643 -0.3046  1.9746 -0.3861
 6089SOL    HW229904   3.348   0.615   7.654  0.7901  0.2361  1.1412
 6090SOL     OW29905   0.250   3.492   1.414  0.1066 -0.0785 -0.1599
 6090SOL    HW129906   0.274   3.521   1.326 -1.4937  1.5642 -0.0416
 6090SOL    HW229907   0.272   3.399   1.409  0.6086  0.1667 -2.5083
 6091SOL     OW29908   1.089   4.086   7.230  0.2780  0.1528 -0.2060
 6091SOL    HW129909   1.008   4.134   7.248  0.1513 -0.6873  1.4283
 6091SOL    HW229910   1.121   4.047   7.311  1.3595 -1.2400 -1.3170
 6092SOL     OW29911   2.277   3.607   6.803 -0.3882 -0.0508  0.2449
 6092SOL    HW129912   2.363   3.643   6.784 -0.5045  0.4454  0.6776
 6092SOL    HW229913   2.306   3.557   6.879  0.0236  2.2621  1.5876
 6093SOL     OW29914   2.645   2.255  11.925 -0.3385 -0.1234 -0.2730
 6093SOL    HW129915   2.589   2.190  11.884 -0.0332 -0.0201 -0.8526
 6093SOL    HW229916   2.684   2.195  11.989  2.2162  0.1308 -1.5732
 6094SOL     OW29917   0.321   4.212   9.728  1.3955 -0.0340 -0.1707
 6094SOL    HW129918   0.270   4.226   9.649 -0.5974 -0.6738  1.0108
 6094SOL    HW229919   0.385   4.282   9.712  0.0659  1.0827 -0.5980
 6095SOL     OW29920   1.021   3.395   3.746  0.0651 -0.3290  0.1448
 6095SOL    HW129921   0.983   3.479   3.719 -1.8603 -1.6576 -1.2764
 6095SOL    HW229922   1.068   3.379   3.664  2.6567  1.0927  1.3568
 6096SOL     OW29923   3.616   1.111   9.915 -0.0584 -0.6791 -0.5360
 6096SOL    HW129924   3.583   1.073   9.997 -1.2331  0.3390 -0.5230
 6096SOL    HW229925   3.707   1.135   9.932 -0.1477  1.2408 -2.7375
 6097SOL     OW29926   1.458   4.157   5.334 -0.4643  0.1768 -0.1461
 6097SOL    HW129927   1.470   4.252   5.325 -1.6181  0.2821 -0.5942
 6097SOL    HW229928   1.431   4.140   5.425 -1.9271  1.9443 -0.2471
 6098SOL     OW29929   2.389   3.705   5.897 -0.0959 -0.0545 -0.2970
 6098SOL    HW129930   2.366   3.729   5.807  1.0551  4.9340  0.7412
 6098SOL    HW229931   2.434   3.624   5.875 -0.2518 -0.0813 -0.5189
 6099SOL     OW29932   3.598   0.074   2.207  0.7609 -0.0850  0.1452
 6099SOL    HW129933   3.595   0.019   2.285  0.3329  4.6954  3.5628
 6099SOL    HW229934   3.532   0.026   2.158  0.0262  0.0177  1.0299
 6100SOL     OW29935   0.130   1.515   1.896 -0.1665  0.1174 -1.2242
 6100SOL    HW129936   0.089   1.528   1.981  0.7035 -1.4951 -0.5471
 6100SOL    HW229937   0.223   1.532   1.911 -0.1652  0.3853 -1.5552
 6101SOL     OW29938   4.549   0.283   5.750  0.4221  0.0382 -0.2183
 6101SOL    HW129939   4.562   0.372   5.782  2.5840 -0.4581  0.2717
 6101SOL    HW229940   4.609   0.285   5.675 -0.3592 -0.9802 -0.8713
 6102SOL     OW29941   1.386   1.360   8.326 -0.0341  0.2725  0.1019
 6102SOL    HW129942   1.420   1.315   8.248  1.8892 -0.0293  1.1184
 6102SOL    HW229943   1.304   1.364   8.276  1.2955 -0.6371 -2.1702
 6103SOL     OW29944   2.512   3.267   0.629 -0.0085  0.6183 -0.2167
 6103SOL    HW129945   2.528   3.192   0.571 -1.1129 -2.3597  3.3636
 6103SOL    HW229946   2.459   3.329   0.577  0.3609 -0.9243 -2.4347
 6104SOL     OW29947   0.350   4.491   1.966  0.2166  0.2076 -0.5616
 6104SOL    HW129948   0.347   4.524   2.056 -1.0990 -0.3874 -0.3748
 6104SOL    HW229949   0.434   4.529   1.942  1.0380 -0.2170  1.6153
 6105SOL     OW29950   0.285   0.732   3.826 -0.1072  0.7289 -0.1971
 6105SOL    HW129951   0.371   0.690   3.824 -0.2553  0.3542  1.3847
 6105SOL    HW229952   0.268   0.726   3.920 -0.0803  0.8461 -0.1841
 6106SOL     OW29953   2.571   3.694   1.954 -0.2942 -0.4415  0.0519
 6106SOL    HW129954   2.591   3.601   1.940  0.1315  0.0065 -2.2553
 6106SOL    HW229955   2.480   3.696   1.983  0.2361 -0.3239  1.7341
 6107SOL     OW29956   2.144   3.325   4.997 -0.2319 -0.2138  0.4837
 6107SOL    HW129957   2.103   3.344   4.912  0.8285 -0.8453 -0.1642
 6107SOL    HW229958   2.199   3.250   4.976 -0.5099  0.2979 -2.0609
 6108SOL     OW29959   0.050   3.933   2.843 -0.4406 -0.2700  0.1556
 6108SOL    HW129960   0.103   3.953   2.921  1.1521 -0.5008 -0.8552
 6108SOL    HW229961   0.030   4.020   2.808  0.7562  0.9088  2.3240
 6109SOL     OW29962   2.701   2.734   4.534 -0.0292 -0.2915  0.1394
 6109SOL    HW129963   2.695   2.741   4.630  0.3892 -1.6967  0.2767
 6109SOL    HW229964   2.782   2.779   4.509  0.4270 -2.1447 -1.7057
 6110SOL     OW29965   0.294   1.386   8.605  0.5009 -0.1747 -0.5127
 6110SOL    HW129966   0.273   1.413   8.695 -0.5943  1.0993 -1.1590
 6110SOL    HW229967   0.275   1.465   8.555 -2.5798 -0.0639  0.8476
 6111SOL     OW29968   4.686   3.459   8.810  0.5259 -0.5434  0.2078
 6111SOL    HW129969   4.678   3.413   8.894 -3.3507 -2.3704 -1.1356
 6111SOL    HW229970   4.652   3.392   8.750  0.9193 -0.7012  0.1612
 6112SOL     OW29971   0.916   4.048   2.378 -0.1826 -0.1460 -0.2530
 6112SOL    HW129972   0.982   4.112   2.352  1.3024 -0.8377  1.8339
 6112SOL    HW229973   0.893   4.012   2.292 -3.1286 -0.7303  0.7760
 6113SOL     OW29974   4.687   2.852   6.601 -0.3498  0.5334  0.0340
 6113SOL    HW129975   4.654   2.899   6.678 -2.7951  1.2337 -1.4629
 6113SOL    HW229976   4.680   2.766   6.642  1.1287  0.7032  0.6409
 6114SOL     OW29977   4.271   3.480   3.328 -0.2829  0.0718  0.1999
 6114SOL    HW129978   4.295   3.455   3.417  1.0324  2.1909  0.4445
 6114SOL    HW229979   4.217   3.404   3.305 -0.4822  0.9777 -2.3544
 6115SOL     OW29980   2.776   3.060   7.068 -0.1078  0.4458  0.9107
 6115SOL    HW129981   2.846   3.036   7.129  0.0700  1.4248  1.0993
 6115SOL    HW229982   2.825   3.053   6.987 -0.3967 -0.4316  0.8127
 6116SOL     OW29983   4.318   2.127   1.051 -0.2928  0.5815  0.0233
 6116SOL    HW129984   4.409   2.122   1.078  1.1981 -1.1379 -5.1878
 6116SOL    HW229985   4.311   2.220   1.027 -0.1382  0.5117 -0.2989
 6117SOL     OW29986   2.017   4.557  14.492  0.7534 -0.0082  0.7429
 6117SOL    HW129987   1.944   4.543  14.552 -3.0205 -0.4214 -3.9394
 6117SOL    HW229988   1.989   4.499  14.421 -0.6843  0.8647  0.6035
 6118SOL     OW29989   3.503   2.024   8.403 -0.2187 -0.0603  0.5010
 6118SOL    HW129990   3.523   2.116   8.417 -0.9710  0.4147 -1.5002
 6118SOL    HW229991   3.442   2.000   8.472 -0.2372  0.2948  0.6070
 6119SOL     OW29992   0.378   1.204   1.990  0.0806 -0.2637  0.3313
 6119SOL    HW129993   0.342   1.132   2.043  2.1157 -2.4680 -1.3213
 6119SOL    HW229994   0.329   1.280   2.023  1.0374  0.9669 -1.0987
 6120SOL     OW29995   3.019   1.561  11.070 -0.2151  0.1903 -0.1508
 6120SOL    HW129996   3.076   1.488  11.093 -0.2216  0.8791  2.1048
 6120SOL    HW229997   2.951   1.523  11.015 -0.3617 -0.7934  0.7052
 6121SOL     OW29998   3.545   1.109   9.451 -0.8375 -0.2303  0.1767
 6121SOL    HW129999   3.597   1.029   9.453 -1.6066 -0.7913 -2.3480
 6121SOL    HW230000   3.606   1.157   9.395 -0.8633  0.0569  0.3971
 6122SOL     OW30001   1.557   2.314   7.246 -0.3128 -0.6175 -0.1099
 6122SOL    HW130002   1.464   2.294   7.237 -0.6470  0.0662  1.6859
 6122SOL    HW230003   1.573   2.356   7.162  1.3973  2.1770  1.5967
 6123SOL     OW30004   1.581   1.297   4.320  0.4969 -0.3139 -0.0075
 6123SOL    HW130005   1.524   1.298   4.243  3.4044  2.7237 -2.0859
 6123SOL    HW230006   1.513   1.282   4.386 -0.6441  3.4130 -0.3675
 6124SOL     OW30007   1.199   0.297   3.458  0.4254  0.0333 -1.0579
 6124SOL    HW130008   1.143   0.373   3.474  0.2563 -0.2417 -0.3583
 6124SOL    HW230009   1.177   0.237   3.528  2.7852 -0.4062 -0.6694
 6125SOL     OW30010   0.262   2.814   7.317  0.6679 -0.0579  0.5141
 6125SOL    HW130011   0.235   2.758   7.390 -0.5455  0.7786  0.6952
 6125SOL    HW230012   0.358   2.817   7.318  0.6233  1.0983  1.1799
 6126SOL     OW30013   2.769   4.452   4.525 -0.1076  0.4125  0.4018
 6126SOL    HW130014   2.697   4.449   4.589 -1.5989 -0.6874 -1.3013
 6126SOL    HW230015   2.721   4.399   4.461 -0.2783  0.8441  0.1707
 6127SOL     OW30016   0.785   3.040   4.422 -0.2903 -0.5492  0.4639
 6127SOL    HW130017   0.876   3.011   4.427 -0.0634  0.0128 -0.4815
 6127SOL    HW230018   0.780   3.111   4.486  2.8840 -0.1247  0.2501
 6128SOL     OW30019   3.583   1.259   2.866  0.2138 -0.1564 -0.4229
 6128SOL    HW130020   3.625   1.175   2.886 -0.7593 -0.4540  0.3713
 6128SOL    HW230021   3.621   1.259   2.778 -0.2837 -0.6162 -0.6414
 6129SOL     OW30022   1.717   3.236  17.214 -0.4264  0.1201  0.1023
 6129SOL    HW130023   1.634   3.256  17.257 -1.0118 -2.4226  0.1429
 6129SOL    HW230024   1.742   3.159  17.266 -1.3018 -0.6185 -0.5753
 6130SOL     OW30025   2.989   1.766  13.535 -0.0939  0.3405 -0.4577
 6130SOL    HW130026   2.982   1.739  13.627  1.4063 -2.5048 -1.1670
 6130SOL    HW230027   3.015   1.681  13.498  2.8383  0.6764  0.8137
 6131SOL     OW30028   3.777   0.318   5.093  0.0647  0.4914 -0.0482
 6131SOL    HW130029   3.737   0.253   5.151  1.6750 -0.2758  0.1960
 6131SOL    HW230030   3.698   0.355   5.055 -0.4208  1.0422  1.4856
 6132SOL     OW30031   2.935   1.065  11.312  0.6389  1.0471  0.2174
 6132SOL    HW130032   3.006   1.050  11.249 -1.7887 -1.8888 -1.8010
 6132SOL    HW230033   2.980   1.126  11.370 -0.9579  2.9720 -0.5662
 6133SOL     OW30034   1.887   1.422  12.762 -0.5114  0.4115 -0.5350
 6133SOL    HW130035   1.926   1.449  12.845  0.4997 -2.2667 -0.1424
 6133SOL    HW230036   1.940   1.345  12.740 -0.4382  0.2772  0.1035
 6134SOL     OW30037   2.993   2.199   2.050 -0.1622  0.7753 -0.4779
 6134SOL    HW130038   2.978   2.108   2.076 -0.7646  0.4107 -2.1010
 6134SOL    HW230039   3.078   2.216   2.092 -0.3773  1.1909 -0.2119
 6135SOL     OW30040   2.449   1.169   4.729 -0.6810 -0.4383 -0.2328
 6135SOL    HW130041   2.487   1.114   4.797  2.2686  2.4898  0.5230
 6135SOL    HW230042   2.505   1.247   4.739  0.4762 -1.0199 -2.2710
 6136SOL     OW30043   0.797   4.509   4.543 -0.5764  0.4713 -0.5334
 6136SOL    HW130044   0.854   4.522   4.618 -0.4539  0.7818 -0.6811
 6136SOL    HW230045   0.870   4.528   4.485 -0.2270 -0.9188 -0.5474
 6137SOL     OW30046   3.601   3.963   6.267  0.3345 -0.1450 -0.5943
 6137SOL    HW130047   3.597   3.867   6.265  0.9331 -0.2630  3.6566
 6137SOL    HW230048   3.573   3.984   6.178 -1.0677  0.1971 -0.0710
 6138SOL     OW30049   3.860   2.485   2.225  0.1062 -0.1517  0.0537
 6138SOL    HW130050   3.831   2.450   2.310 -1.6212  1.5413  0.1637
 6138SOL    HW230051   3.780   2.511   2.180  0.0680  1.0033  0.7919
 6139SOL     OW30052   3.891   0.377  10.226  0.0784 -0.1512 -0.4482
 6139SOL    HW130053   3.824   0.317  10.259 -0.8803  1.5190  0.6031
 6139SOL    HW230054   3.910   0.330  10.144  1.8979  1.2503 -0.8539
 6140SOL     OW30055   2.201   1.895   8.135  0.5973 -0.5964  0.4414
 6140SOL    HW130056   2.293   1.902   8.109  0.1647 -1.2371 -1.2896
 6140SOL    HW230057   2.200   1.935   8.222 -1.6320 -2.1320  1.0833
 6141SOL     OW30058   3.605   3.048   8.171  0.1279  0.0162  0.5632
 6141SOL    HW130059   3.698   3.049   8.149  0.3478  0.7276  1.5471
 6141SOL    HW230060   3.578   2.964   8.134 -1.6378  0.0997  1.6519
 6142SOL     OW30061   3.004   0.234   8.020  0.7631 -0.0423  0.1416
 6142SOL    HW130062   2.922   0.186   8.023 -0.4823  1.9345 -2.3817
 6142SOL    HW230063   2.990   0.280   7.937  0.9032  0.6688  0.5048
 6143SOL     OW30064   1.034   4.365   7.107 -0.1823 -0.5200  0.1032
 6143SOL    HW130065   1.067   4.392   7.193 -1.1222  0.0163  0.2914
 6143SOL    HW230066   1.078   4.284   7.082  2.7849  0.5563  1.7908
 6144SOL     OW30067   2.671   1.599   9.743 -0.2251 -0.6564  0.4592
 6144SOL    HW130068   2.746   1.555   9.784 -1.1728 -1.3056  1.4746
 6144SOL    HW230069   2.670   1.569   9.652 -2.6200  2.2551 -0.4851
 6145SOL     OW30070   3.758   3.705   8.115 -0.3081  0.0918  0.0027
 6145SOL    HW130071   3.838   3.679   8.069 -0.8428  1.2367 -1.5656
 6145SOL    HW230072   3.788   3.783   8.163  2.7236 -0.9688 -0.1368
 6146SOL     OW30073   3.637   0.886   9.064  0.2760 -0.0363  0.4883
 6146SOL    HW130074   3.722   0.886   9.022  0.4364  2.9301  0.8229
 6146SOL    HW230075   3.583   0.923   8.994  1.1141  0.8110  0.3012
 6147SOL     OW30076   1.641   0.950   2.887 -0.2446 -0.6140 -0.1495
 6147SOL    HW130077   1.551   0.937   2.859 -0.7614  3.0455 -0.2026
 6147SOL    HW230078   1.668   1.029   2.839 -0.1428 -0.8076 -0.4155
 6148SOL     OW30079   3.722   4.680   7.508 -0.6364  0.6095 -0.0378
 6148SOL    HW130080   3.760   4.686   7.595 -2.6148  1.0167  0.8085
 6148SOL    HW230081   3.642   4.634   7.534 -0.0439 -0.2468  0.2680
 6149SOL     OW30082   1.553   2.935   9.283 -0.5097  0.5987 -0.1987
 6149SOL    HW130083   1.467   2.977   9.279 -0.8384  0.1337  2.3142
 6149SOL    HW230084   1.615   2.999   9.319  2.1446 -3.1003  1.8146
 6150SOL     OW30085   2.491   3.825   6.429 -0.0737  0.4847  0.3812
 6150SOL    HW130086   2.541   3.899   6.463 -0.6319  1.6822 -1.4626
 6150SOL    HW230087   2.479   3.835   6.335 -0.5943 -1.0288  0.2926
 6151SOL     OW30088   3.738   0.708   4.094 -0.3273 -0.2405  0.8183
 6151SOL    HW130089   3.642   0.717   4.102 -0.3261 -0.5059  1.1529
 6151SOL    HW230090   3.751   0.795   4.056 -1.7208 -0.9740 -1.3273
 6152SOL     OW30091   3.898   3.080   6.544  0.2095 -0.3824 -0.3683
 6152SOL    HW130092   3.919   2.987   6.548 -1.4380 -0.6958  1.1583
 6152SOL    HW230093   3.878   3.103   6.454 -1.1410  1.1379  0.3257
 6153SOL     OW30094   3.412   2.964   7.030  0.6400  0.3311 -0.1291
 6153SOL    HW130095   3.412   2.900   7.101  0.2345 -0.0212 -0.4437
 6153SOL    HW230096   3.347   2.924   6.972 -0.3021 -0.8004  1.6917
 6154SOL     OW30097   1.541   1.270   3.702 -0.5917  0.2615  0.0223
 6154SOL    HW130098   1.624   1.314   3.682 -0.5536  0.0539 -0.2724
 6154SOL    HW230099   1.510   1.242   3.616 -0.5755  2.9257 -0.8615
 6155SOL     OW30100   3.831   3.616   7.802  0.2267  0.1008 -0.2362
 6155SOL    HW130101   3.904   3.676   7.784  2.4228 -2.4500  0.1380
 6155SOL    HW230102   3.844   3.606   7.896 -0.6693 -0.3718 -0.1619
 6156SOL     OW30103   0.748   2.682   3.593 -0.6708 -0.2532  0.1549
 6156SOL    HW130104   0.810   2.744   3.555 -1.7214 -0.0705 -1.2767
 6156SOL    HW230105   0.713   2.724   3.671 -1.7990  0.5371 -0.7646
 6157SOL     OW30106   0.194   1.644  11.100  0.0403  0.5312 -0.5469
 6157SOL    HW130107   0.191   1.733  11.065  0.9459  0.9769  0.5115
 6157SOL    HW230108   0.188   1.599  11.016 -1.9813  0.2549 -0.2478
 6158SOL     OW30109   1.698   0.761   0.978  0.3337  0.0313 -0.4778
 6158SOL    HW130110   1.730   0.798   1.060  0.9688  0.5307 -0.9483
 6158SOL    HW230111   1.629   0.701   1.007  3.0360 -2.7179  0.2942
 6159SOL     OW30112   0.957   0.317  10.003  0.3375  0.0448  1.1048
 6159SOL    HW130113   0.943   0.407  10.035 -3.1442  1.4328 -4.4340
 6159SOL    HW230114   0.864   0.295   9.992  0.0738  1.1177  1.1841
 6160SOL     OW30115   4.111   0.394   4.501 -0.3774  0.8258 -0.0698
 6160SOL    HW130116   4.142   0.311   4.464 -4.0765 -0.1925 -0.8912
 6160SOL    HW230117   4.074   0.433   4.422  0.0721  0.5452 -0.4231
 6161SOL     OW30118   1.782   0.404   7.872  0.5607 -0.3525  0.0252
 6161SOL    HW130119   1.867   0.359   7.877  0.7804  0.2304  1.8543
 6161SOL    HW230120   1.784   0.431   7.780  0.5061  2.5701  0.8634
 6162SOL     OW30121   2.722   2.292   6.380 -0.5197 -0.4729 -0.3246
 6162SOL    HW130122   2.792   2.344   6.339 -2.1030  0.5656 -1.7121
 6162SOL    HW230123   2.783   2.234   6.426 -1.4377 -2.6552 -1.8420
 6163SOL     OW30124   0.771   1.755   9.438  0.3744  0.0256  0.0892
 6163SOL    HW130125   0.798   1.762   9.529  0.2094  0.9857  0.0568
 6163SOL    HW230126   0.690   1.704   9.442  0.0466  0.5450  0.1007
 6164SOL     OW30127   1.248   2.622   7.974 -0.1758  0.3370 -0.5080
 6164SOL    HW130128   1.286   2.709   7.958 -0.8695  0.7775  0.2961
 6164SOL    HW230129   1.282   2.594   8.059  2.2129 -1.0871 -1.9059
 6165SOL     OW30130   1.982   1.577   5.738  0.1871 -1.0095 -0.5321
 6165SOL    HW130131   1.895   1.587   5.779  0.4443 -2.3771  0.3486
 6165SOL    HW230132   1.957   1.598   5.648  0.5695  3.0544  0.3011
 6166SOL     OW30133   4.415   4.710  12.525  0.7868  0.3138  0.4828
 6166SOL    HW130134   4.369   0.056  12.515  0.2258 -0.0427  0.0801
 6166SOL    HW230135   4.342   4.648  12.525 -0.1979  1.4871  1.3147
 6167SOL     OW30136   3.276   1.029  11.916 -0.1948 -0.6724 -0.5221
 6167SOL    HW130137   3.301   0.980  11.995 -0.4199  2.4310  1.5080
 6167SOL    HW230138   3.360   1.045  11.872  0.8260  1.6549  2.2542
 6168SOL     OW30139   3.252   0.738  11.374  0.4363 -0.3584 -0.2835
 6168SOL    HW130140   3.316   0.668  11.386  0.5123 -0.6980 -2.6917
 6168SOL    HW230141   3.291   0.811  11.423 -0.2478 -0.5840  0.6113
 6169SOL     OW30142   2.808   0.212   8.864  0.4055 -0.6811  0.3457
 6169SOL    HW130143   2.834   0.189   8.775  3.7961  1.4202  0.7776
 6169SOL    HW230144   2.879   0.180   8.919  2.0288  1.8113 -0.2716
 6170SOL     OW30145   2.275   3.325   8.067 -0.0446 -0.7298 -0.4798
 6170SOL    HW130146   2.298   3.403   8.116 -1.5577 -0.4071 -0.2940
 6170SOL    HW230147   2.361   3.284   8.054  0.8255  1.3962 -1.4793
 6171SOL     OW30148   3.362   4.188   3.578  0.1274  0.3886 -0.3202
 6171SOL    HW130149   3.358   4.205   3.672 -2.5905 -1.8355 -0.0363
 6171SOL    HW230150   3.448   4.226   3.561  0.3144  0.2274  0.2601
 6172SOL     OW30151   3.036   2.868  14.137 -0.1625  0.2601  0.2283
 6172SOL    HW130152   2.967   2.815  14.097  0.7068 -1.7543  1.4008
 6172SOL    HW230153   2.982   2.915  14.200 -2.1588 -1.7079 -0.0045
 6173SOL     OW30154   1.912   3.430   1.041  0.2788  0.0277  0.1521
 6173SOL    HW130155   1.876   3.518   1.032  2.7577  1.0783  0.7278
 6173SOL    HW230156   1.860   3.386   1.108  1.5213  1.2761  1.9259
 6174SOL     OW30157   2.491   3.130   0.357  0.5127 -0.6808  0.3597
 6174SOL    HW130158   2.469   3.222   0.370  1.5414 -0.3462 -0.2820
 6174SOL    HW230159   2.459   3.106   0.271  2.7466  2.4200 -1.3577
 6175SOL     OW30160   0.253   4.420   4.723 -0.0930 -0.4709  0.7848
 6175SOL    HW130161   0.289   4.402   4.636 -2.5422  1.5225 -0.6704
 6175SOL    HW230162   0.309   4.481   4.771  0.8608 -0.1663 -0.7308
 6176SOL     OW30163   2.065   2.927   3.353 -0.4716  0.3624  0.1999
 6176SOL    HW130164   2.067   2.917   3.258  1.2915  2.8386 -0.0348
 6176SOL    HW230165   2.027   3.014   3.365 -1.0115 -0.0176  1.1703
 6177SOL     OW30166   0.327   0.665   2.641  0.1434  0.4093  0.0726
 6177SOL    HW130167   0.391   0.727   2.605  1.4888 -1.3002 -0.5051
 6177SOL    HW230168   0.386   0.606   2.688  0.2319  1.9739  1.9035
 6178SOL     OW30169   2.414   0.579   4.693  0.4156 -0.3579 -0.2068
 6178SOL    HW130170   2.477   0.562   4.762 -0.1206  0.7801  0.5464
 6178SOL    HW230171   2.339   0.615   4.740 -0.6941 -0.6062 -1.7596
 6179SOL     OW30172   3.152   1.109   7.021  0.0268 -0.3679 -0.2168
 6179SOL    HW130173   3.185   1.034   7.071  1.0108 -0.3339 -0.8184
 6179SOL    HW230174   3.194   1.176   7.074  0.7386 -1.3848  0.5126
 6180SOL     OW30175   3.700   3.714   7.557  0.2401  0.5148 -0.3234
 6180SOL    HW130176   3.778   3.691   7.506  0.0148  1.5480 -1.1384
 6180SOL    HW230177   3.729   3.657   7.627  0.2993  1.8398  0.7393
 6181SOL     OW30178   4.698   3.702   0.030 -0.1037 -0.0690  0.1386
 6181SOL    HW130179   0.002   3.718  17.692  1.1208  2.2219  1.1760
 6181SOL    HW230180   0.010   3.757   0.090  2.5956 -2.4190  0.1076
 6182SOL     OW30181   1.007   1.028   9.647  0.1742 -0.2876  0.0264
 6182SOL    HW130182   0.959   1.001   9.569 -0.7785  1.7415 -0.0852
 6182SOL    HW230183   0.962   0.972   9.710 -0.4734 -0.9018 -0.9842
 6183SOL     OW30184   4.099   4.142   4.074  0.2301 -0.8015  0.6921
 6183SOL    HW130185   4.105   4.078   4.145 -1.9918 -0.3739  1.2583
 6183SOL    HW230186   4.190   4.135   4.044 -0.0213 -1.2997  0.0669
 6184SOL     OW30187   3.616   1.326   5.275 -0.1181 -0.1223 -0.2447
 6184SOL    HW130188   3.581   1.370   5.197 -1.4995  0.5490  0.7559
 6184SOL    HW230189   3.532   1.291   5.304  0.4294  0.3778  1.9639
 6185SOL     OW30190   1.117   4.302   3.696  0.1933  0.3572 -0.4563
 6185SOL    HW130191   1.189   4.338   3.748  1.9630 -2.6394 -0.8089
 6185SOL    HW230192   1.090   4.390   3.668  0.3494  0.2442 -0.9699
 6186SOL     OW30193   2.529   3.957   7.580  0.3406 -0.8822 -0.0754
 6186SOL    HW130194   2.560   3.966   7.670 -0.5136 -0.2444  0.1655
 6186SOL    HW230195   2.435   3.946   7.593  0.1561 -1.3459 -1.8501
 6187SOL     OW30196   3.842   1.484  14.005  0.2298  0.1252  0.2587
 6187SOL    HW130197   3.906   1.440  13.949  1.1579  1.2092  0.4605
 6187SOL    HW230198   3.834   1.569  13.962 -3.1002 -0.7801 -0.8969
 6188SOL     OW30199   1.349   1.224   5.724  0.3284 -0.1184 -0.8884
 6188SOL    HW130200   1.386   1.172   5.796  0.4438  1.3496  0.1382
 6188SOL    HW230201   1.280   1.160   5.707 -0.1801 -0.2587  1.6811
 6189SOL     OW30202   1.791   2.694   9.159 -0.0633  0.1414  0.1956
 6189SOL    HW130203   1.705   2.673   9.197 -1.1977 -0.0046 -2.4322
 6189SOL    HW230204   1.833   2.741   9.230 -1.5369  1.2488  0.3285
 6190SOL     OW30205   4.391   2.371  11.255  0.5581  0.0559 -0.5055
 6190SOL    HW130206   4.347   2.290  11.283  3.2919 -1.2166  0.1267
 6190SOL    HW230207   4.447   2.386  11.331  3.3720 -2.2291 -2.0982
 6191SOL     OW30208   2.448   4.487   5.149 -0.2886  0.2369 -0.1226
 6191SOL    HW130209   2.453   4.457   5.240 -0.2561  0.6258  0.0020
 6191SOL    HW230210   2.518   4.432   5.113 -0.1513  0.1964  0.1973
 6192SOL     OW30211   2.184   4.412  16.137 -0.4073 -0.0606  1.0244
 6192SOL    HW130212   2.161   4.328  16.097  0.6092 -0.3374  1.0141
 6192SOL    HW230213   2.231   4.381  16.215  0.0341  0.0050  0.7877
 6193SOL     OW30214   3.120   1.764   3.826 -0.0814  0.1187  0.2209
 6193SOL    HW130215   3.168   1.777   3.745  1.6622 -0.2682  1.1828
 6193SOL    HW230216   3.162   1.828   3.884  1.6192 -0.7584 -0.0470
 6194SOL     OW30217   0.737   2.348   5.871 -0.1881  0.1748 -0.3146
 6194SOL    HW130218   0.812   2.310   5.916  1.5065 -1.0279 -4.1566
 6194SOL    HW230219   0.672   2.278   5.871 -0.8450  0.7869 -0.4934
 6195SOL     OW30220   2.546   1.206  12.217  0.0328 -0.8616  0.0379
 6195SOL    HW130221   2.555   1.185  12.310 -2.4310 -2.5126 -0.0967
 6195SOL    HW230222   2.483   1.144  12.181  0.7433 -2.0192  0.8114
 6196SOL     OW30223   3.129   4.299   8.903 -0.3877  0.3301 -0.0325
 6196SOL    HW130224   3.085   4.288   8.988 -0.5310 -1.0842 -0.2937
 6196SOL    HW230225   3.137   4.206   8.884 -3.0058 -0.1901  1.3157
 6197SOL     OW30226   0.124   3.810   2.415  0.5203  0.8026  0.2589
 6197SOL    HW130227   0.165   3.782   2.497  2.3721  1.5235 -0.4341
 6197SOL    HW230228   0.035   3.775   2.428  0.6408  0.4211  0.0629
 6198SOL     OW30229   0.789   3.817  14.810 -0.1507  0.6523  0.4307
 6198SOL    HW130230   0.732   3.745  14.783  0.9625  0.3052 -0.9895
 6198SOL    HW230231   0.804   3.856  14.724  0.7244 -0.0571  0.2728
 6199SOL     OW30232   0.853   3.179  12.902  0.4496 -0.2757 -0.0277
 6199SOL    HW130233   0.767   3.189  12.861  0.1061  0.5553  0.9071
 6199SOL    HW230234   0.889   3.105  12.853  2.6706  0.3021  0.7441
 6200SOL     OW30235   1.248   4.523   9.338 -0.0362  0.5606  0.1208
 6200SOL    HW130236   1.204   4.441   9.318 -0.5466  1.1698 -1.2217
 6200SOL    HW230237   1.222   4.567   9.257 -0.0447  1.2684  0.5069
 6201SOL     OW30238   2.760   4.049   0.808  0.0864 -0.2228 -0.4384
 6201SOL    HW130239   2.802   4.133   0.788  0.2074 -0.4903 -1.3226
 6201SOL    HW230240   2.826   3.995   0.766  1.1001  0.9527 -0.3507
 6202SOL     OW30241   3.600   4.262   3.053  0.1565 -0.4364 -0.5891
 6202SOL    HW130242   3.543   4.318   3.105  1.6658 -0.7489  1.3918
 6202SOL    HW230243   3.538   4.220   2.994  0.2430  0.0896 -1.0546
 6203SOL     OW30244   1.359   2.143   6.256 -0.0574  0.3225  0.5425
 6203SOL    HW130245   1.369   2.069   6.195 -2.2602  0.9174 -0.5483
 6203SOL    HW230246   1.437   2.195   6.237  0.0724 -0.2460 -0.5294
 6204SOL     OW30247   4.561   3.788   2.718 -0.0769  0.2056 -0.1880
 6204SOL    HW130248   4.618   3.821   2.788 -1.3954  3.5887 -0.7265
 6204SOL    HW230249   4.497   3.731   2.761  0.2540 -0.1840 -0.2061
 6205SOL     OW30250   4.637   3.796   1.671  0.3058  0.1459  0.1179
 6205SOL    HW130251   4.699   3.749   1.615  0.2299  0.0755  0.0930
 6205SOL    HW230252   4.571   3.835   1.615  1.2428  0.1302 -0.9947
 6206SOL     OW30253   3.172   4.274   5.691  0.1364 -0.2687  0.5707
 6206SOL    HW130254   3.257   4.274   5.646  0.1036 -0.5195  0.5049
 6206SOL    HW230255   3.119   4.300   5.615  0.3844 -1.2837  0.0469
 6207SOL     OW30256   0.230   0.044  14.745 -0.6278 -0.3695 -0.4559
 6207SOL    HW130257   0.180   0.095  14.681 -0.7105 -0.3368 -0.3662
 6207SOL    HW230258   0.305   0.103  14.741 -0.3219 -0.7230  0.1309
 6208SOL     OW30259   1.360   0.741  12.322 -0.3898 -0.2296 -0.0066
 6208SOL    HW130260   1.328   0.777  12.240  0.3754  0.6172  0.0657
 6208SOL    HW230261   1.429   0.680  12.295 -0.2835  0.4203 -1.1499
 6209SOL     OW30262   2.620   0.193   8.322  0.7532  0.3842 -0.6277
 6209SOL    HW130263   2.533   0.186   8.363  0.8942  0.2273 -0.3550
 6209SOL    HW230264   2.629   0.287   8.306  3.6939  0.5161  1.7662
 6210SOL     OW30265   4.391   3.880  14.254  0.2151  0.8335  0.4279
 6210SOL    HW130266   4.413   3.788  14.267  0.3092  0.9680  1.2222
 6210SOL    HW230267   4.306   3.881  14.209 -0.0387  1.1662  0.9053
 6211SOL     OW30268   2.674   4.724   7.440  0.2465 -0.0807 -0.0890
 6211SOL    HW130269   2.603   0.047   7.418  0.5777 -0.1586 -1.3819
 6211SOL    HW230270   2.700   0.034   7.520  0.3587  0.5222 -0.4836
 6212SOL     OW30271   3.665   2.752   2.346 -0.6443 -0.1308  0.0696
 6212SOL    HW130272   3.666   2.720   2.436 -2.1885  0.4990  0.3055
 6212SOL    HW230273   3.623   2.676   2.307 -1.4996 -0.3361  1.3922
 6213SOL     OW30274   0.231   0.152   4.049 -0.6032  0.7048 -0.1582
 6213SOL    HW130275   0.164   0.107   3.996  0.7406 -1.0345 -0.3989
 6213SOL    HW230276   0.221   0.243   4.022  0.0467  0.7845 -0.1336
 6214SOL     OW30277   2.784   1.364  12.212 -0.6307  0.6918  0.1267
 6214SOL    HW130278   2.818   1.360  12.302 -1.2549  0.4983  0.3538
 6214SOL    HW230279   2.699   1.321  12.212 -0.7548  0.9345  0.3032
 6215SOL     OW30280   1.884   0.475   6.237 -0.2012  0.4281 -0.5409
 6215SOL    HW130281   1.818   0.409   6.257 -1.3308  1.8143  0.3253
 6215SOL    HW230282   1.843   0.534   6.173  1.4056  1.9729 -0.1271
 6216SOL     OW30283   2.439   2.525  14.132  0.4190  0.3660  0.0033
 6216SOL    HW130284   2.476   2.528  14.221 -2.6569  0.1567  1.3032
 6216SOL    HW230285   2.349   2.554  14.149  0.1430 -0.0746 -0.7312
 6217SOL     OW30286   0.247   2.384   0.724  0.8931  0.2753 -0.6231
 6217SOL    HW130287   0.313   2.373   0.655  1.3588  0.4883 -0.2117
 6217SOL    HW230288   0.180   2.318   0.709 -0.2823  1.2815  0.2176
 6218SOL     OW30289   3.580   1.894   7.286 -0.1378 -0.4464 -0.0223
 6218SOL    HW130290   3.519   1.930   7.223 -0.2497 -1.2453 -0.3759
 6218SOL    HW230291   3.663   1.928   7.254 -0.8252  1.2914  0.0552
 6219SOL     OW30292   3.208   2.824   0.918 -0.1230  0.8071 -0.4350
 6219SOL    HW130293   3.201   2.741   0.872  1.2301  0.2506  0.3753
 6219SOL    HW230294   3.146   2.817   0.991 -1.5916  0.6077 -1.7135
 6220SOL     OW30295   1.372   3.349   5.458 -0.5751 -0.8738 -0.0427
 6220SOL    HW130296   1.336   3.335   5.545  0.7309  0.0911  0.6393
 6220SOL    HW230297   1.336   3.276   5.408 -0.0006 -1.0842 -0.1435
 6221SOL     OW30298   1.031   0.142  12.269 -0.0924 -0.1515 -0.3482
 6221SOL    HW130299   1.055   0.051  12.250  1.7968 -0.1183  1.9612
 6221SOL    HW230300   0.937   0.127  12.257 -0.1664 -0.3554  0.5155
 6222SOL     OW30301   0.142   4.011  17.555  0.4487  0.1883  0.3879
 6222SOL    HW130302   0.146   4.103  17.528  2.5618 -0.6065 -1.9990
 6222SOL    HW230303   0.105   4.029  17.642 -0.6798 -0.5425  0.0443
 6223SOL     OW30304   2.683   0.353  13.658  0.2346 -0.3375 -0.1209
 6223SOL    HW130305   2.625   0.427  13.678 -1.2466 -0.3666 -4.3031
 6223SOL    HW230306   2.618   0.288  13.631 -0.2066 -0.6119  1.6023
 6224SOL     OW30307   3.599   2.086   3.829  0.3260  0.1723 -0.1473
 6224SOL    HW130308   3.650   2.113   3.905  2.1240 -1.0680 -0.9054
 6224SOL    HW230309   3.524   2.144   3.835 -0.1771 -0.4133 -0.6922
 6225SOL     OW30310   3.315   3.854   5.547 -0.2508 -0.2358  0.1069
 6225SOL    HW130311   3.235   3.859   5.496 -0.2426 -0.0063  0.1197
 6225SOL    HW230312   3.302   3.778   5.604 -1.3421 -1.2778 -1.5412
 6226SOL     OW30313   4.164   0.381   5.476 -0.6378 -0.2374  0.2543
 6226SOL    HW130314   4.180   0.346   5.388 -2.1035 -0.6566  0.1497
 6226SOL    HW230315   4.219   0.322   5.526  0.3023  0.7213  0.3429
 6227SOL     OW30316   4.225   1.219   1.806  0.2573 -0.4026 -0.1223
 6227SOL    HW130317   4.271   1.160   1.866 -1.0102 -1.2046  0.0780
 6227SOL    HW230318   4.175   1.275   1.866 -0.6161 -1.6832  0.3473
 6228SOL     OW30319   3.564   4.649   0.284  0.5043 -0.1618 -0.5803
 6228SOL    HW130320   3.548   4.720   0.222 -0.3989  1.3985  1.4483
 6228SOL    HW230321   3.559   4.572   0.228 -4.3218 -1.3485  1.5410
 6229SOL     OW30322   0.084   2.123   8.108  0.2215  0.5576  0.2678
 6229SOL    HW130323   0.169   2.125   8.153 -0.0933  4.0489  0.6447
 6229SOL    HW230324   0.067   2.214   8.084 -1.7203  0.1690  0.1673
 6230SOL     OW30325   2.979   0.749  11.484  0.0939  0.5264 -0.2471
 6230SOL    HW130326   3.010   0.783  11.568  1.3788 -3.7812  1.0437
 6230SOL    HW230327   3.049   0.784  11.428  0.1606 -1.2577 -1.3029
 6231SOL     OW30328   0.682   2.421   8.187  0.1652 -0.0017  0.1030
 6231SOL    HW130329   0.639   2.475   8.121 -0.2731  3.0097  2.8538
 6231SOL    HW230330   0.638   2.456   8.265  1.7795  0.7347  0.6954
 6232SOL     OW30331   0.201   4.439  10.909 -0.2238 -0.3721  0.1229
 6232SOL    HW130332   0.244   4.360  10.876  0.7296  0.5083 -0.7337
 6232SOL    HW230333   0.117   4.410  10.944 -1.2040  2.3453  0.0311
 6233SOL     OW30334   0.221   2.310  16.296 -0.1593  0.2188  0.0330
 6233SOL    HW130335   0.165   2.384  16.317 -0.6888  0.0175 -0.6712
 6233SOL    HW230336   0.242   2.316  16.203  0.4015 -0.2131  0.1278
 6234SOL     OW30337   3.954   0.914  12.876 -0.7608 -0.6001  0.4948
 6234SOL    HW130338   3.983   0.945  12.962 -0.6704  0.9619 -0.1029
 6234SOL    HW230339   3.894   0.984  12.848 -0.6978 -1.0907 -0.8775
 6235SOL     OW30340   4.428   4.613   7.003  0.4295  0.8614 -0.3948
 6235SOL    HW130341   4.409   4.565   6.923  0.6081  1.7077 -0.9470
 6235SOL    HW230342   4.379   4.694   6.986  0.7449  0.5722 -2.6221
 6236SOL     OW30343   3.887   0.997   9.257 -0.1087  0.0017 -0.4670
 6236SOL    HW130344   3.891   1.005   9.353 -1.1515  0.5462 -0.4713
 6236SOL    HW230345   3.933   0.914   9.249  0.4275  0.2318  0.1464
 6237SOL     OW30346   0.442   1.475   3.723  1.0115 -0.2101 -0.9211
 6237SOL    HW130347   0.442   1.568   3.746 -0.9097 -0.5291  0.3458
 6237SOL    HW230348   0.350   1.455   3.734  1.1841  0.3437  1.4438
 6238SOL     OW30349   1.979   4.566   7.339 -0.0636  0.2737 -0.6985
 6238SOL    HW130350   2.005   4.587   7.250  1.6410  1.0314 -0.0124
 6238SOL    HW230351   2.001   4.473   7.339  1.9367  0.7515  1.0354
 6239SOL     OW30352   3.343   4.617   9.357 -0.2708  0.1291  0.2850
 6239SOL    HW130353   3.277   4.628   9.289  1.0777 -3.1831 -1.5594
 6239SOL    HW230354   3.361   4.524   9.341  1.1685  0.8423 -2.3045
 6240SOL     OW30355   4.244   3.622  14.533  0.7220 -0.1587  0.2393
 6240SOL    HW130356   4.209   3.626  14.444  1.2936 -2.6891 -0.1085
 6240SOL    HW230357   4.208   3.538  14.563  1.1505 -0.5621 -0.3861
 6241SOL     OW30358   3.589   4.661  13.220  0.1678  0.4764 -0.0546
 6241SOL    HW130359   3.494   4.668  13.214  0.2143  0.1187 -1.2544
 6241SOL    HW230360   3.602   4.574  13.184 -2.2644  0.7292 -1.5337
 6242SOL     OW30361   4.217   2.509   4.097 -0.3686 -0.1013  0.4536
 6242SOL    HW130362   4.309   2.488   4.106 -0.8619 -1.8219  1.4976
 6242SOL    HW230363   4.192   2.544   4.183  1.2457 -0.3756  1.0277
 6243SOL     OW30364   2.346   2.280   0.245  0.0750  0.7095 -0.5985
 6243SOL    HW130365   2.279   2.346   0.262 -0.7495 -0.5286  0.9454
 6243SOL    HW230366   2.413   2.291   0.312  0.3512  0.2646 -0.7956
 6244SOL     OW30367   3.679   2.637   4.895  0.4953 -0.3625  0.1202
 6244SOL    HW130368   3.612   2.695   4.859  0.9935  0.0934 -0.0810
 6244SOL    HW230369   3.744   2.702   4.922  1.1136 -1.0035  0.1601
 6245SOL     OW30370   3.384   4.569  11.411 -0.4518 -0.0343  0.1318
 6245SOL    HW130371   3.364   4.490  11.360  0.2331 -0.2407  0.1832
 6245SOL    HW230372   3.464   4.547  11.458  0.6516  3.4273 -0.1427
 6246SOL     OW30373   2.432   2.183  12.387 -0.0205 -0.2223  0.0824
 6246SOL    HW130374   2.341   2.204  12.406  0.0901 -0.5962  1.0238
 6246SOL    HW230375   2.464   2.154  12.472 -1.4191  1.9972  1.3498
 6247SOL     OW30376   4.678   0.746   4.539  0.0350  0.0725 -1.1000
 6247SOL    HW130377   4.638   0.790   4.464 -0.0383  1.4573 -0.2417
 6247SOL    HW230378   4.621   0.764   4.613  0.6953  0.8833 -0.7877
 6248SOL     OW30379   3.646   2.276  12.891  0.0387 -0.2528 -0.3933
 6248SOL    HW130380   3.567   2.307  12.847 -1.3457  0.3499  2.4990
 6248SOL    HW230381   3.708   2.303  12.823  0.0683  0.5462 -0.0413
 6249SOL     OW30382   0.752   1.026   1.035  1.1913  0.0528  0.0355
 6249SOL    HW130383   0.837   0.983   1.025 -0.2994 -3.1687  1.0209
 6249SOL    HW230384   0.761   1.033   1.130 -1.1716  0.1970  0.2426
 6250SOL     OW30385   0.786   3.885   2.835 -0.1276  0.1134  0.3600
 6250SOL    HW130386   0.772   3.895   2.741  1.5202  0.3799  0.1324
 6250SOL    HW230387   0.760   3.795   2.856 -0.2158 -0.0362 -0.3819
 6251SOL     OW30388   3.374   2.468   2.256  0.1880  0.4223 -0.0977
 6251SOL    HW130389   3.339   2.531   2.318 -0.9273 -1.0614  0.7945
 6251SOL    HW230390   3.438   2.422   2.311 -0.9295 -0.2410  0.6387
 6252SOL     OW30391   2.584   3.765  12.288 -0.0998  0.2853 -0.0758
 6252SOL    HW130392   2.557   3.704  12.220  1.4201 -1.7593  1.1553
 6252SOL    HW230393   2.576   3.853  12.250  1.8275  0.3507 -0.2955
 6253SOL     OW30394   2.882   3.952   6.382 -0.2962  0.2820 -0.4966
 6253SOL    HW130395   2.857   4.030   6.332  3.1914  2.7070  1.5204
 6253SOL    HW230396   2.837   3.888   6.326  2.1356  0.0471 -2.2278
 6254SOL     OW30397   0.976   0.391   1.613  0.0851  0.1374 -0.2321
 6254SOL    HW130398   0.932   0.306   1.613 -1.1870  0.8028  1.9386
 6254SOL    HW230399   0.935   0.432   1.537  0.3030  1.8664  0.5812
 6255SOL     OW30400   0.493   3.648   5.339 -0.0092 -0.1242 -0.2259
 6255SOL    HW130401   0.440   3.718   5.303 -0.8941  0.4410  2.1639
 6255SOL    HW230402   0.523   3.686   5.422  0.0845 -2.1127  0.6675
 6256SOL     OW30403   0.172   3.651  14.759  0.0081  0.1716  0.4214
 6256SOL    HW130404   0.193   3.683  14.671 -0.2427  0.9112  0.6220
 6256SOL    HW230405   0.218   3.568  14.769  0.0398 -0.0375 -1.4285
 6257SOL     OW30406   2.083   0.262   3.467 -0.0590  0.1249  0.4810
 6257SOL    HW130407   2.125   0.199   3.525  0.6146  0.9106  0.8477
 6257SOL    HW230408   2.147   0.333   3.463 -0.1001  0.2560  2.3311
 6258SOL     OW30409   1.594   3.577   4.082 -0.0338  0.2304  0.1471
 6258SOL    HW130410   1.680   3.616   4.101 -0.8748  2.6614 -1.1635
 6258SOL    HW230411   1.578   3.528   4.163 -2.4075  0.9322  0.0779
 6259SOL     OW30412   1.803   4.144   8.906 -0.3985  0.2103 -0.4242
 6259SOL    HW130413   1.878   4.088   8.888 -1.7050 -1.5816 -0.3131
 6259SOL    HW230414   1.747   4.097   8.969 -0.3059 -1.5353 -1.6532
 6260SOL     OW30415   0.633   2.467  16.956  0.4289 -0.3663 -0.2418
 6260SOL    HW130416   0.727   2.452  16.960  0.4619 -0.2157 -0.4423
 6260SOL    HW230417   0.610   2.438  17.044  1.0844 -1.8953 -0.5840
 6261SOL     OW30418   1.255   1.549   6.880  0.1924  0.0742  0.2059
 6261SOL    HW130419   1.271   1.553   6.974 -2.5656  0.9794  0.6458
 6261SOL    HW230420   1.174   1.600   6.876  1.1575  1.5624 -0.3506
 6262SOL     OW30421   0.256   4.380   9.063  0.4687 -0.2762 -0.3526
 6262SOL    HW130422   0.203   4.460   9.062 -0.9512 -1.2225 -0.4111
 6262SOL    HW230423   0.294   4.393   9.150  0.5960  1.2295 -0.6312
 6263SOL     OW30424   2.040   2.612   9.092  0.3234 -0.8233  0.1349
 6263SOL    HW130425   2.012   2.636   9.004  1.6745  0.9974  0.1852
 6263SOL    HW230426   1.960   2.627   9.142 -1.0207 -2.0854 -1.6532
 6264SOL     OW30427   3.731   3.665   2.503 -0.4680 -0.0716  0.4816
 6264SOL    HW130428   3.808   3.714   2.530  0.5899 -2.5874  2.0042
 6264SOL    HW230429   3.771   3.623   2.427  1.5888  0.4232  1.3002
 6265SOL     OW30430   4.479   1.355   9.365  0.1617 -0.0372  0.0380
 6265SOL    HW130431   4.573   1.358   9.385  0.0664 -1.3950  0.7043
 6265SOL    HW230432   4.455   1.279   9.417  1.1975 -0.8189 -0.6178
 6266SOL     OW30433   3.961   1.662   6.548  0.2014  0.6307  0.3444
 6266SOL    HW130434   3.908   1.704   6.616 -0.5267  0.9855 -0.4528
 6266SOL    HW230435   4.006   1.595   6.600  0.3291  1.9143  1.9029
 6267SOL     OW30436   4.277   2.090   9.147 -0.3852 -0.1167  0.3664
 6267SOL    HW130437   4.245   2.162   9.201  0.2227  1.8135 -1.8649
 6267SOL    HW230438   4.206   2.077   9.084  0.3252 -1.2220 -0.1935
 6268SOL     OW30439   2.746   0.317   3.091  0.0141  0.0415 -0.0010
 6268SOL    HW130440   2.663   0.271   3.088 -0.0250  0.1534 -0.7205
 6268SOL    HW230441   2.741   0.395   3.036 -0.0881 -0.2157 -0.3510
 6269SOL     OW30442   3.697   4.177   8.267  0.5963 -0.4589 -0.0179
 6269SOL    HW130443   3.750   4.115   8.217 -0.5513 -1.1395 -0.4018
 6269SOL    HW230444   3.712   4.261   8.222  2.2350 -0.4415  0.5869
 6270SOL     OW30445   1.570   1.394  15.140  0.3494 -0.4761 -0.4997
 6270SOL    HW130446   1.625   1.360  15.070  0.2196 -1.4421 -0.1344
 6270SOL    HW230447   1.642   1.447  15.174 -1.1858 -0.4504  2.7694
 6271SOL     OW30448   2.745   0.335   6.271 -0.5159 -1.1857 -0.6681
 6271SOL    HW130449   2.764   0.410   6.215 -0.3343 -0.2680  0.6391
 6271SOL    HW230450   2.752   0.366   6.361  0.8459  0.8255 -1.4707
 6272SOL     OW30451   3.160   4.709  11.303 -0.5645  0.4486  0.0266
 6272SOL    HW130452   3.241   4.668  11.335 -0.6141  1.9906  2.1618
 6272SOL    HW230453   3.148   0.060  11.339 -0.8632 -0.8243  3.0912
 6273SOL     OW30454   4.516   3.929   0.127 -0.4461  0.4417 -0.1909
 6273SOL    HW130455   4.585   3.988   0.098 -0.0326  0.5461  0.9859
 6273SOL    HW230456   4.566   3.851   0.151  0.9550  0.9022 -1.6033
 6274SOL     OW30457   2.737   2.930   8.307  0.5707  0.0461  0.2126
 6274SOL    HW130458   2.771   2.864   8.368 -0.3771 -0.8249 -0.2072
 6274SOL    HW230459   2.820   2.975   8.293  0.5489 -0.5541 -1.7405
 6275SOL     OW30460   3.672   1.279   0.743  0.4563 -0.5361  0.5855
 6275SOL    HW130461   3.729   1.238   0.679  3.1455  1.9363  1.4003
 6275SOL    HW230462   3.590   1.261   0.697 -0.7472 -0.0223  2.4917
 6276SOL     OW30463   0.821   3.897  16.465 -1.1711 -0.0891  0.3044
 6276SOL    HW130464   0.887   3.939  16.520 -0.1349 -0.8614 -0.3477
 6276SOL    HW230465   0.854   3.808  16.469 -0.3897  0.1333 -1.1232
 6277SOL     OW30466   1.766   2.381  11.132  0.2596  0.3194  0.2980
 6277SOL    HW130467   1.770   2.474  11.113 -0.2659  0.4481  0.8249
 6277SOL    HW230468   1.673   2.360  11.123  0.2859  0.2888  0.0958
 6278SOL     OW30469   0.327   0.827  16.610  0.2513  0.2149  0.1857
 6278SOL    HW130470   0.290   0.787  16.688  2.2518  0.7916  1.4115
 6278SOL    HW230471   0.406   0.776  16.595 -1.1249 -2.0385  0.5510
 6279SOL     OW30472   2.177   0.004   1.863 -0.8589  0.2786  0.6056
 6279SOL    HW130473   2.212   4.653   1.850  4.0644  2.5547 -1.4734
 6279SOL    HW230474   2.264   0.044   1.868 -0.0414 -1.0833 -2.5427
 6280SOL     OW30475   2.522   2.037   9.049  0.1684 -0.0562  0.0037
 6280SOL    HW130476   2.530   2.113   9.107 -0.3790  0.8368 -1.0869
 6280SOL    HW230477   2.475   1.970   9.099  0.9041 -0.9441 -0.5179
 6281SOL     OW30478   4.166   1.390  16.783 -0.1137  0.4818  0.6861
 6281SOL    HW130479   4.167   1.325  16.714  1.5778  0.6314  0.5583
 6281SOL    HW230480   4.253   1.427  16.769 -0.3305  1.0254  0.7601
 6282SOL     OW30481   3.831   3.683   4.036 -0.0129 -0.5434 -0.1696
 6282SOL    HW130482   3.795   3.703   3.949 -1.7503 -1.2587  0.3900
 6282SOL    HW230483   3.813   3.589   4.039  1.4252 -0.7802  0.7908
 6283SOL     OW30484   3.514   0.696   5.055  0.0365 -0.6714 -0.3935
 6283SOL    HW130485   3.557   0.629   5.108  2.2804  0.8907 -0.2442
 6283SOL    HW230486   3.515   0.651   4.970 -0.5738 -0.3420 -0.5705
 6284SOL     OW30487   2.367   0.462   9.889 -0.5251  0.3504 -0.3911
 6284SOL    HW130488   2.287   0.464   9.837  0.5618  1.7775 -1.9876
 6284SOL    HW230489   2.416   0.384   9.863  1.4851  1.4067  0.2614
 6285SOL     OW30490   2.362   0.187   0.973 -0.3386 -0.0774 -0.2209
 6285SOL    HW130491   2.441   0.147   1.011 -0.0737  0.6800  0.0353
 6285SOL    HW230492   2.295   0.124   0.997 -0.9593  0.4566 -0.5596
 6286SOL     OW30493   4.279   0.206  11.697 -0.3242  0.0008 -0.0688
 6286SOL    HW130494   4.192   0.187  11.732 -0.3814  0.1648 -0.1224
 6286SOL    HW230495   4.296   0.120  11.660  0.5662 -0.4014  1.2836
 6287SOL     OW30496   3.493   3.453   2.556  0.4915 -0.1327 -0.0185
 6287SOL    HW130497   3.530   3.379   2.507  0.3489  0.2940 -0.7545
 6287SOL    HW230498   3.543   3.532   2.540  0.4027  0.1871  1.2756
 6288SOL     OW30499   3.726   4.520   5.144 -0.1663 -0.0825 -0.8169
 6288SOL    HW130500   3.816   4.509   5.175 -0.5866  0.4773  0.6116
 6288SOL    HW230501   3.724   4.616   5.151  2.7244 -0.1817  1.5591
 6289SOL     OW30502   4.279   2.498   8.587 -0.0312  0.0058  0.3121
 6289SOL    HW130503   4.272   2.518   8.680 -2.9911  0.4305  0.0096
 6289SOL    HW230504   4.275   2.402   8.581  1.0200 -0.0122  0.0319
 6290SOL     OW30505   4.692   2.523   7.613 -0.4755  0.4617  0.0681
 6290SOL    HW130506   4.645   2.545   7.694 -1.9537 -0.6333 -0.5006
 6290SOL    HW230507   4.664   2.433   7.597  0.6637  0.0169  0.5870
 6291SOL     OW30508   1.950   2.520   4.676 -0.2398  0.0467 -0.6405
 6291SOL    HW130509   1.883   2.459   4.703 -0.1529 -0.3568 -1.3306
 6291SOL    HW230510   2.027   2.481   4.718  0.9120  1.6415 -1.2364
 6292SOL     OW30511   2.053   3.458   6.414 -0.0848 -0.1897  0.2317
 6292SOL    HW130512   2.067   3.370   6.447  0.8096 -0.4760 -0.8852
 6292SOL    HW230513   2.049   3.501   6.499 -2.6093 -0.2051  0.1067
 6293SOL     OW30514   0.712   2.822   6.833 -0.3770 -0.0389 -0.6141
 6293SOL    HW130515   0.783   2.859   6.886  0.7714 -1.5130 -1.1238
 6293SOL    HW230516   0.639   2.825   6.895  0.1185 -1.7245  0.0510
 6294SOL     OW30517   4.636   4.452   2.122  0.2510 -0.0330 -0.1262
 6294SOL    HW130518   4.599   4.363   2.126 -1.2502  0.6746  1.7340
 6294SOL    HW230519   4.708   4.450   2.059  0.2173 -2.2472 -0.1122
 6295SOL     OW30520   4.558   0.830  16.850 -0.1820 -0.0599  0.5652
 6295SOL    HW130521   4.608   0.812  16.771  0.9613  0.3975  1.1868
 6295SOL    HW230522   4.573   0.754  16.907  0.6837 -0.6899 -0.5170
 6296SOL     OW30523   2.446   2.805   4.932  0.4510  0.0502 -0.3294
 6296SOL    HW130524   2.411   2.803   5.021  0.9885  2.6871 -0.0753
 6296SOL    HW230525   2.370   2.813   4.873  0.7504  2.0980 -0.4165
 6297SOL     OW30526   3.050   2.895   1.678 -0.1640 -0.5034 -0.1979
 6297SOL    HW130527   2.984   2.887   1.609  0.1394  0.9796 -0.6529
 6297SOL    HW230528   3.077   2.803   1.678  2.5489  0.2786  2.2783
 6298SOL     OW30529   3.499   4.456   2.579 -0.1782  0.2565 -0.1814
 6298SOL    HW130530   3.482   4.363   2.592 -0.6801  0.5871  1.6598
 6298SOL    HW230531   3.566   4.478   2.644 -0.8066  1.6418  0.0054
 6299SOL     OW30532   3.316   2.003   2.302 -0.3632 -0.2363 -0.1233
 6299SOL    HW130533   3.335   2.042   2.217 -0.0071 -0.1014  0.0168
 6299SOL    HW230534   3.245   2.057   2.335  0.4883  1.5968 -1.3274
 6300SOL     OW30535   1.440   0.356   0.066  0.1042 -0.4697  0.3935
 6300SOL    HW130536   1.505   0.287   0.081  1.1492  0.4553  0.1586
 6300SOL    HW230537   1.456   0.376  17.721 -1.0172  0.6920  0.4517
 6301SOL     OW30538   3.840   3.343   4.323 -0.1430  0.3004  0.0145
 6301SOL    HW130539   3.826   3.286   4.398 -0.9537  1.8264  1.0216
 6301SOL    HW230540   3.902   3.406   4.359 -0.3405  0.4482  0.0984
 6302SOL     OW30541   1.571   2.967   4.271  0.4032 -0.5126  0.3884
 6302SOL    HW130542   1.573   2.963   4.366 -1.8570  2.5348  0.5742
 6302SOL    HW230543   1.632   2.897   4.246  0.7197  0.4052 -1.4376
 6303SOL     OW30544   2.817   1.410   8.827 -0.6838  0.2753  0.7712
 6303SOL    HW130545   2.825   1.353   8.750 -1.1416  2.3987 -0.8321
 6303SOL    HW230546   2.758   1.480   8.798 -2.0202 -1.7130 -1.3333
 6304SOL     OW30547   1.080   4.136   6.831  0.2271 -0.3100  0.4040
 6304SOL    HW130548   1.014   4.100   6.772 -0.6181  1.7692  0.0990
 6304SOL    HW230549   1.089   4.066   6.896  3.9289  0.4639  0.7324
 6305SOL     OW30550   1.616   1.672  15.706  0.4326  0.4182  0.4389
 6305SOL    HW130551   1.525   1.654  15.681  0.6487  0.5894 -0.4915
 6305SOL    HW230552   1.665   1.652  15.626  0.5401 -1.1965  0.9198
 6306SOL     OW30553   3.048   1.931   7.655  0.3219  0.4170  0.5760
 6306SOL    HW130554   2.974   1.956   7.599 -0.3831  0.9712  1.7326
 6306SOL    HW230555   3.025   1.839   7.664 -1.3327  0.6095 -1.7321
 6307SOL     OW30556   1.928   0.859  12.524  0.0704 -0.5798 -0.3734
 6307SOL    HW130557   1.977   0.798  12.469  0.9656 -0.7324  0.5863
 6307SOL    HW230558   2.002   0.911  12.557  0.2207 -1.8847  1.3263
 6308SOL     OW30559   4.626   1.078   5.097 -0.1321  0.2518  0.0864
 6308SOL    HW130560   4.573   1.003   5.121 -1.0469  0.1939 -2.0415
 6308SOL    HW230561   4.579   1.152   5.135  0.0009 -0.4058  1.5137
 6309SOL     OW30562   0.803   2.304   7.251 -0.2800  0.3966 -0.1710
 6309SOL    HW130563   0.858   2.351   7.314 -1.5125  2.0725 -0.3320
 6309SOL    HW230564   0.773   2.234   7.310 -0.3386  0.4459 -0.1415
 6310SOL     OW30565   0.776   3.203  13.510 -0.4045 -0.3945 -0.5522
 6310SOL    HW130566   0.849   3.263  13.524 -2.4153  1.2977  2.6127
 6310SOL    HW230567   0.818   3.150  13.443 -0.6680 -1.1850 -0.0973
 6311SOL     OW30568   0.942   3.013   8.661  0.2256  0.4382  0.1633
 6311SOL    HW130569   0.900   3.013   8.747 -0.7430  1.9203 -0.3257
 6311SOL    HW230570   0.889   2.955   8.607 -0.6185 -0.0041  1.4605
 6312SOL     OW30571   2.823   1.015   5.231  0.9965  0.0973 -0.2462
 6312SOL    HW130572   2.802   0.942   5.172 -0.9863  1.1389 -0.8391
 6312SOL    HW230573   2.912   1.001   5.264  1.0335  0.8556 -0.0180
 6313SOL     OW30574   4.044   1.667   6.110 -0.2141  0.0090  0.5164
 6313SOL    HW130575   3.983   1.656   6.183  2.9167 -0.2103  3.1354
 6313SOL    HW230576   3.987   1.705   6.043 -3.0785  0.3876  3.1722
 6314SOL     OW30577   4.172   1.447   8.092 -0.1986  0.6046 -0.3412
 6314SOL    HW130578   4.194   1.392   8.168 -0.5810  1.0599  0.0949
 6314SOL    HW230579   4.130   1.381   8.037  0.5845 -0.6770  0.5729
 6315SOL     OW30580   3.767   2.529   7.416 -0.2513  0.0823 -0.5076
 6315SOL    HW130581   3.733   2.486   7.495 -0.5092  0.3773 -0.4568
 6315SOL    HW230582   3.859   2.547   7.438 -0.5562  2.0741 -0.9215
 6316SOL     OW30583   3.084   0.646   2.682  0.0086 -0.5562  0.2998
 6316SOL    HW130584   3.164   0.594   2.674  0.2583 -0.3828  1.6595
 6316SOL    HW230585   3.015   0.606   2.629  0.5455  0.0098 -0.8231
 6317SOL     OW30586   3.441   2.880  14.948  0.0336 -0.2704 -0.4336
 6317SOL    HW130587   3.423   2.810  14.885  1.7848 -1.9772  0.9696
 6317SOL    HW230588   3.441   2.835  15.032 -2.4881  1.2384  0.3880
 6318SOL     OW30589   4.395   4.035   5.102 -0.0226 -0.3581 -0.2810
 6318SOL    HW130590   4.442   4.055   5.183  2.2750 -0.2466 -1.6290
 6318SOL    HW230591   4.440   3.961   5.062  1.9379  0.5194  0.2790
 6319SOL     OW30592   0.291   3.464  11.598  0.0618  0.7854  0.9341
 6319SOL    HW130593   0.330   3.490  11.515 -1.9658 -0.4347 -0.3978
 6319SOL    HW230594   0.361   3.404  11.621 -0.5303  0.4341  1.8560
 6320SOL     OW30595   3.541   4.462   3.816  0.9729 -0.7186 -0.4928
 6320SOL    HW130596   3.478   4.528   3.785 -1.3418 -2.1501  1.1614
 6320SOL    HW230597   3.582   4.503   3.893 -2.2210 -0.4163  1.0503
 6321SOL     OW30598   0.621   1.485   9.718 -0.0043  0.2937  0.2288
 6321SOL    HW130599   0.541   1.442   9.747  0.6555 -2.9237 -2.6117
 6321SOL    HW230600   0.586   1.539   9.647 -0.5684  1.4814  1.4099
 6322SOL     OW30601   3.937   1.547   8.300 -0.2331 -0.0426  0.1909
 6322SOL    HW130602   4.026   1.568   8.329 -0.4790 -0.1822  1.0379
 6322SOL    HW230603   3.917   1.466   8.347 -0.6428 -0.9221 -1.5245
 6323SOL     OW30604   1.466   2.848   5.867 -0.3294 -0.4214  0.1079
 6323SOL    HW130605   1.402   2.788   5.904 -0.1859 -0.4591  0.2969
 6323SOL    HW230606   1.545   2.810   5.906  0.2090 -0.3014 -0.8618
 6324SOL     OW30607   0.892   2.715  14.078  0.2700 -0.1340 -0.0855
 6324SOL    HW130608   0.944   2.795  14.069  1.5289 -0.9310  0.0762
 6324SOL    HW230609   0.880   2.690  13.986  0.3576 -0.1788 -0.0843
 6325SOL     OW30610   3.542   0.754   2.893  0.1990  0.5784 -0.1546
 6325SOL    HW130611   3.460   0.731   2.849  2.2097 -1.2231 -3.0196
 6325SOL    HW230612   3.510   0.779   2.980 -0.5004 -2.4892  0.4486
 6326SOL     OW30613   3.347   4.243  11.521  0.0125  0.0196  0.1049
 6326SOL    HW130614   3.413   4.232  11.452  0.7883 -1.1056  1.0260
 6326SOL    HW230615   3.273   4.205  11.474 -0.8319  1.6287  0.1467
 6327SOL     OW30616   2.238   0.696   2.915  0.1805  0.2595 -0.1764
 6327SOL    HW130617   2.148   0.718   2.889  0.1784 -1.2446 -1.4191
 6327SOL    HW230618   2.227   0.637   2.989  0.6909  0.5930  0.1656
 6328SOL     OW30619   3.369   2.558   8.372  0.1478 -0.1535 -0.2348
 6328SOL    HW130620   3.354   2.503   8.295 -2.1452 -1.0862  0.8851
 6328SOL    HW230621   3.331   2.636   8.331 -1.5723 -0.1100  1.4442
 6329SOL     OW30622   1.480   4.143   2.514 -0.6789 -0.4571 -0.2214
 6329SOL    HW130623   1.498   4.193   2.593 -0.1471 -0.3859 -0.3859
 6329SOL    HW230624   1.519   4.200   2.448  1.8497 -2.4620 -0.4523
 6330SOL     OW30625   1.478   0.631   0.475 -0.0109 -0.0072 -0.6561
 6330SOL    HW130626   1.521   0.548   0.453  1.8071  1.0032 -0.8826
 6330SOL    HW230627   1.522   0.639   0.559  1.8548 -0.4416 -1.5952
 6331SOL     OW30628   0.382   3.027   9.016  0.1400  0.3184  0.2763
 6331SOL    HW130629   0.286   3.031   9.017  0.2248  2.6391 -0.6736
 6331SOL    HW230630   0.403   3.115   8.987  1.8548  0.2037  1.1654
 6332SOL     OW30631   3.288   2.565   8.633 -0.1537  0.5077 -0.1648
 6332SOL    HW130632   3.311   2.561   8.540  2.7994  2.9646  0.4464
 6332SOL    HW230633   3.209   2.617   8.645  0.2022  1.0030  0.0345
 6333SOL     OW30634   0.978   1.608   8.704 -0.2100  0.3662 -0.0808
 6333SOL    HW130635   1.001   1.689   8.658 -1.8923  0.7398 -0.2810
 6333SOL    HW230636   1.063   1.564   8.699  0.5931  1.6142  3.2878
 6334SOL     OW30637   2.406   4.395   2.981  0.4693  0.5401  0.0080
 6334SOL    HW130638   2.495   4.371   3.008  1.2331  0.4917 -2.5304
 6334SOL    HW230639   2.359   4.315   2.999 -2.1660  2.1468  0.2223
 6335SOL     OW30640   1.591   1.066   3.192 -0.4020 -0.4025 -0.6142
 6335SOL    HW130641   1.659   1.046   3.256 -2.8333 -1.7898  1.5263
 6335SOL    HW230642   1.522   1.001   3.207  0.1047 -1.1517 -1.4805
 6336SOL     OW30643   1.311   0.166   8.041  0.3839  0.1066 -0.1287
 6336SOL    HW130644   1.400   0.135   8.057  1.1418  1.5773 -1.4520
 6336SOL    HW230645   1.326   0.251   8.000 -2.3579  1.9416  2.6507
 6337SOL     OW30646   2.355   2.456   3.045 -0.2562  0.1442  0.3720
 6337SOL    HW130647   2.268   2.488   3.023 -0.4973 -0.3005  0.6886
 6337SOL    HW230648   2.377   2.393   2.977  0.4947  0.9632 -0.1506
 6338SOL     OW30649   4.618   2.399  12.785 -0.3946  0.1336 -0.0798
 6338SOL    HW130650   4.644   2.490  12.801 -1.7317  0.9719 -2.7280
 6338SOL    HW230651   4.533   2.394  12.829 -0.5253 -2.5427 -0.6197
 6339SOL     OW30652   2.548   1.443   4.811 -0.6897  0.8139  0.4217
 6339SOL    HW130653   2.622   1.463   4.755 -1.1763  1.4594 -0.0010
 6339SOL    HW230654   2.583   1.481   4.892  1.0613 -2.0373  0.9770
 6340SOL     OW30655   1.902   3.595   5.397  0.5962 -0.1533  0.0202
 6340SOL    HW130656   1.843   3.536   5.349  2.2489 -1.6365 -0.1866
 6340SOL    HW230657   1.868   3.683   5.382  2.5853  0.6040  0.0193
 6341SOL     OW30658   1.333   0.558   0.824  0.2906 -0.3848 -0.9096
 6341SOL    HW130659   1.272   0.523   0.759 -0.4606 -0.4976 -0.1338
 6341SOL    HW230660   1.297   0.641   0.854 -0.8696 -1.7380  1.4321
 6342SOL     OW30661   1.560   0.353   5.010  0.2316 -0.0486  0.3518
 6342SOL    HW130662   1.612   0.426   5.042  1.6910 -1.4879  1.2446
 6342SOL    HW230663   1.613   0.283   5.048  0.2178 -0.8840 -1.1497
 6343SOL     OW30664   1.284   1.710   3.205  0.2076  0.1556  0.1073
 6343SOL    HW130665   1.317   1.622   3.186 -0.4007  0.0648 -0.5516
 6343SOL    HW230666   1.325   1.737   3.287  2.0854 -0.1337 -0.7213
 6344SOL     OW30667   2.644   1.187   2.379 -0.1314 -0.1926  0.5877
 6344SOL    HW130668   2.678   1.113   2.328  0.2748 -0.5723  1.4079
 6344SOL    HW230669   2.549   1.189   2.371  0.1693 -0.8502 -2.8799
 6345SOL     OW30670   2.890   0.806  16.654 -0.0371  0.0993 -0.4087
 6345SOL    HW130671   2.888   0.898  16.629  0.7776  0.5457  1.1724
 6345SOL    HW230672   2.854   0.809  16.743 -0.2750  1.9688 -0.5710
 6346SOL     OW30673   3.427   2.680   6.212  0.0194 -0.7750 -0.0836
 6346SOL    HW130674   3.521   2.696   6.203 -0.2343  1.8362  2.1676
 6346SOL    HW230675   3.427   2.586   6.191 -0.1205 -0.5726 -1.0170
 6347SOL     OW30676   3.502   3.989   8.366  0.0944 -0.0159  0.3066
 6347SOL    HW130677   3.541   4.074   8.342  0.3020 -0.1877  0.0306
 6347SOL    HW230678   3.435   3.976   8.299  1.5886  0.6255 -1.3259
 6348SOL     OW30679   2.737   1.003  11.578  0.4849  0.8056  0.2197
 6348SOL    HW130680   2.808   1.043  11.528 -0.1386  1.2966 -0.2748
 6348SOL    HW230681   2.782   0.960  11.651  1.4673 -0.6000 -1.2227
 6349SOL     OW30682   2.641   4.577   9.230  0.6903  0.1908  0.4451
 6349SOL    HW130683   2.676   4.488   9.231 -2.2696 -0.9750  0.4584
 6349SOL    HW230684   2.616   4.582   9.323  1.7429  1.2324  0.6701
 6350SOL     OW30685   2.655   1.511   8.541  0.0672 -0.3582  0.6882
 6350SOL    HW130686   2.704   1.589   8.565 -0.3367  0.7048 -1.9716
 6350SOL    HW230687   2.597   1.502   8.616  1.3069 -0.7959  1.6004
 6351SOL     OW30688   2.299   0.171   6.606  0.7747  0.5019 -0.1531
 6351SOL    HW130689   2.359   0.214   6.545 -0.1126 -0.3646 -1.6257
 6351SOL    HW230690   2.218   0.168   6.554  0.3182 -1.0616  0.6455
 6352SOL     OW30691   4.395   0.466   5.261  0.2429 -0.3944  0.1291
 6352SOL    HW130692   4.462   0.491   5.324 -1.4854  1.0919  1.3580
 6352SOL    HW230693   4.431   0.505   5.181  1.4114 -1.0126  0.3484
 6353SOL     OW30694   2.876   1.367   2.155 -0.3787  0.0178  0.4201
 6353SOL    HW130695   2.938   1.336   2.221  0.3319 -1.8747 -1.1351
 6353SOL    HW230696   2.830   1.442   2.193  0.8519  0.4858  1.0145
 6354SOL     OW30697   1.984   1.018   5.853 -0.6969  0.2404  0.4154
 6354SOL    HW130698   2.042   1.087   5.885 -0.5067  1.3344 -2.3013
 6354SOL    HW230699   1.960   0.973   5.934  1.0150 -0.6089  0.4490
 6355SOL     OW30700   1.170   2.406   9.029  0.2270 -0.3695  0.2388
 6355SOL    HW130701   1.125   2.475   8.980 -1.1503 -3.2514 -2.5670
 6355SOL    HW230702   1.245   2.453   9.065  0.1968 -0.6387  0.6489
 6356SOL     OW30703   2.943   3.742   9.445  0.0424  0.3727 -0.0964
 6356SOL    HW130704   2.890   3.662   9.455 -0.5663  0.6417 -1.1688
 6356SOL    HW230705   2.998   3.746   9.523  1.9194 -1.8055 -1.3054
 6357SOL     OW30706   0.216   2.276   7.122  0.0292 -0.0335 -0.1538
 6357SOL    HW130707   0.206   2.207   7.188 -0.6841  0.3587  0.1448
 6357SOL    HW230708   0.272   2.330   7.177  1.9141  0.9327 -3.0154
 6358SOL     OW30709   0.480   2.194  17.450 -0.1297 -0.3491 -0.0528
 6358SOL    HW130710   0.432   2.182  17.368 -0.5968  1.2693 -0.0126
 6358SOL    HW230711   0.411   2.219  17.512  2.5278  0.3355  2.6338
 6359SOL     OW30712   1.854   0.450   4.323  0.2284  0.5420 -0.1518
 6359SOL    HW130713   1.886   0.509   4.390 -2.6756  1.2577  0.6290
 6359SOL    HW230714   1.904   0.371   4.344  1.5630  1.8691  1.6614
 6360SOL     OW30715   2.298   0.236  16.560  0.9573 -0.2647  0.0138
 6360SOL    HW130716   2.314   0.173  16.489 -0.0605  0.4979 -0.8854
 6360SOL    HW230717   2.334   0.191  16.637  1.3689  0.1511  0.0610
 6361SOL     OW30718   0.273   1.820   2.758 -1.0848 -0.1736  0.3814
 6361SOL    HW130719   0.182   1.820   2.730 -1.2058  1.0160  0.7999
 6361SOL    HW230720   0.305   1.762   2.689 -3.4918 -1.3876  0.2866
 6362SOL     OW30721   0.276   0.326   8.038 -0.4349  0.0691 -0.5000
 6362SOL    HW130722   0.350   0.266   8.047 -1.0532 -0.8632 -1.6941
 6362SOL    HW230723   0.312   0.401   7.989 -3.1063  2.0746  0.6047
 6363SOL     OW30724   3.446   0.405   3.956 -0.8539 -0.0249  0.3201
 6363SOL    HW130725   3.365   0.417   3.906 -1.8372  1.1806  2.2055
 6363SOL    HW230726   3.498   0.361   3.888 -0.3792 -3.2076  2.7507
 6364SOL     OW30727   1.619   3.019   3.459 -0.4454  0.0060 -0.3007
 6364SOL    HW130728   1.609   3.010   3.554 -1.4642  2.4675 -0.1725
 6364SOL    HW230729   1.615   2.925   3.442  0.6021 -0.8241  4.0335
 6365SOL     OW30730   3.744   2.056   3.593 -0.1511 -0.6426  0.4373
 6365SOL    HW130731   3.813   2.122   3.585 -1.1164 -0.2250 -4.3399
 6365SOL    HW230732   3.696   2.073   3.674  2.4664  2.4398  1.3604
 6366SOL     OW30733   0.728   4.620   7.755 -0.1032 -0.4519  0.1518
 6366SOL    HW130734   0.819   4.620   7.724  0.2108 -1.4042  1.0528
 6366SOL    HW230735   0.707   4.526   7.758 -0.1468 -0.4853 -1.1835
 6367SOL     OW30736   1.945   2.047   2.808 -0.1506 -0.0204 -0.1566
 6367SOL    HW130737   1.866   2.101   2.805  0.0731  0.4241  2.0102
 6367SOL    HW230738   1.956   2.025   2.715 -1.9874  0.3269 -0.4616
 6368SOL     OW30739   1.215   4.532   8.579  0.2221  0.0140 -0.0719
 6368SOL    HW130740   1.208   4.577   8.663  2.1447  0.0863  0.0395
 6368SOL    HW230741   1.280   4.581   8.528 -1.6402  1.5306 -0.9979
 6369SOL     OW30742   0.063   2.245  10.639 -0.4040  0.2925 -0.2326
 6369SOL    HW130743   0.088   2.335  10.661 -1.5227  0.3114  0.9500
 6369SOL    HW230744   4.705   2.252  10.640 -0.5974 -1.7757 -3.2505
 6370SOL     OW30745   0.040   1.844  15.322 -0.5596 -0.0536 -0.6228
 6370SOL    HW130746   0.053   1.750  15.335 -0.7489  0.1144  0.7607
 6370SOL    HW230747   4.708   1.869  15.384  0.0105  1.5845 -0.6502
 6371SOL     OW30748   2.252   2.275  10.088 -0.2975  0.0007 -0.3190
 6371SOL    HW130749   2.254   2.354  10.142 -1.3326  0.5744 -1.1032
 6371SOL    HW230750   2.279   2.208  10.151  1.8059  1.2631  0.0907
 6372SOL     OW30751   4.325   3.783   9.350  0.3618 -0.0988 -0.3413
 6372SOL    HW130752   4.410   3.742   9.332  1.5977  2.4539 -0.4015
 6372SOL    HW230753   4.350   3.837   9.425 -1.3297 -0.6888  0.6382
 6373SOL     OW30754   0.888   1.112   6.538  0.0888 -0.0925 -0.9215
 6373SOL    HW130755   0.814   1.114   6.478 -1.7231  1.1177  1.3129
 6373SOL    HW230756   0.956   1.153   6.484  0.3337  2.3518  1.2090
 6374SOL     OW30757   4.565   3.369   0.905 -0.5137  0.4788 -0.3178
 6374SOL    HW130758   4.548   3.463   0.915 -1.9537  0.3116 -1.1788
 6374SOL    HW230759   4.517   3.348   0.826  0.7738 -2.3835 -0.3314
 6375SOL     OW30760   2.186   4.346  12.689  0.0568  0.0913  0.4490
 6375SOL    HW130761   2.257   4.365  12.750  0.2871 -1.2778  0.5959
 6375SOL    HW230762   2.170   4.428  12.641 -0.2209 -0.2103  0.0255
 6376SOL     OW30763   3.468   0.235  13.488 -0.3701  0.1977  0.1490
 6376SOL    HW130764   3.420   0.153  13.479  0.3404 -0.2562  0.5036
 6376SOL    HW230765   3.557   0.210  13.463 -0.8251  0.7080 -1.9830
 6377SOL     OW30766   2.587   1.381   4.003 -0.3997 -0.0245  0.4003
 6377SOL    HW130767   2.508   1.334   4.031 -2.1775  1.6643 -1.7031
 6377SOL    HW230768   2.563   1.399   3.912  0.9864 -1.0736 -0.1774
 6378SOL     OW30769   0.906   4.593   6.672 -0.4985  0.5553  0.1775
 6378SOL    HW130770   0.982   4.549   6.708  0.8501  2.9386  0.2224
 6378SOL    HW230771   0.895   4.560   6.582  0.1430  2.3634 -0.5666
 6379SOL     OW30772   3.676   0.197   5.521 -0.5820  0.3005  0.1151
 6379SOL    HW130773   3.677   0.107   5.553 -2.1776 -0.0593 -0.8617
 6379SOL    HW230774   3.740   0.241   5.577 -0.8711 -1.0979  1.5513
 6380SOL     OW30775   1.542   0.550  12.072  0.1771 -0.3058 -0.5364
 6380SOL    HW130776   1.546   0.456  12.092  0.9223 -0.4290 -1.2480
 6380SOL    HW230777   1.514   0.546  11.980  1.5765 -3.3064 -0.8527
 6381SOL     OW30778   1.789   3.535  12.933  0.3940 -0.3816  0.3185
 6381SOL    HW130779   1.877   3.551  12.966  0.4861  0.6888 -0.4530
 6381SOL    HW230780   1.806   3.580  12.850  0.8297  2.7651  2.1238
 6382SOL     OW30781   4.624   1.112  12.039  0.0372  0.6528  0.1234
 6382SOL    HW130782   4.689   1.083  12.104 -0.8410  1.9932  1.5815
 6382SOL    HW230783   4.676   1.070  11.970  0.4646  0.9307  0.2748
 6383SOL     OW30784   1.298   3.081   9.278  0.6424 -0.2956 -0.6696
 6383SOL    HW130785   1.249   3.005   9.307 -0.9784  0.1306 -2.2773
 6383SOL    HW230786   1.261   3.158   9.322 -0.9777 -0.1775 -2.2398
 6384SOL     OW30787   2.509   4.679   4.985  0.1212  0.1375 -0.1312
 6384SOL    HW130788   2.450   4.614   5.023 -0.8253  1.0021 -0.1453
 6384SOL    HW230789   2.550   4.714   5.063 -1.2686  0.1437  0.5841
 6385SOL     OW30790   4.416   2.528   4.901  0.1288  0.6574  0.0898
 6385SOL    HW130791   4.482   2.596   4.915 -0.6443  0.5608  4.3017
 6385SOL    HW230792   4.456   2.443   4.884  0.8374  1.2952 -1.3759
 6386SOL     OW30793   2.254   4.146   2.994 -0.1083 -0.3189  0.0210
 6386SOL    HW130794   2.277   4.054   2.980  0.6069 -0.0643 -0.4851
 6386SOL    HW230795   2.201   4.138   3.073  0.6964 -1.9265  0.3958
 6387SOL     OW30796   1.702   3.071   1.626  0.0259  0.8239  0.1119
 6387SOL    HW130797   1.671   2.980   1.628  1.6692  0.2267 -1.6345
 6387SOL    HW230798   1.635   3.100   1.565 -1.2194 -0.3392  0.9421
 6388SOL     OW30799   0.195   2.327   2.164  0.7681  0.1052 -0.1400
 6388SOL    HW130800   0.276   2.290   2.198 -0.6263 -2.6930  0.1217
 6388SOL    HW230801   0.143   2.350   2.241 -1.4336  0.8009 -1.8380
 6389SOL     OW30802   2.719   2.598   3.075 -0.1029 -0.0074 -0.1480
 6389SOL    HW130803   2.740   2.521   3.022  2.2895 -1.3197  2.6283
 6389SOL    HW230804   2.630   2.625   3.054 -0.3938 -1.0219 -0.2281
 6390SOL     OW30805   3.192   1.684   5.182 -0.0056  0.7065 -0.0868
 6390SOL    HW130806   3.232   1.597   5.184  0.3993  0.8658 -1.4210
 6390SOL    HW230807   3.108   1.675   5.226  0.0788 -1.2543 -0.3296
 6391SOL     OW30808   4.711   0.826  12.779  0.3523 -0.2386  0.4278
 6391SOL    HW130809   0.032   0.858  12.848  0.1165  0.1723  0.4308
 6391SOL    HW230810   4.634   0.877  12.803  0.7725  0.2462  0.7275
 6392SOL     OW30811   2.278   1.448  10.346 -0.0527 -0.2333 -0.3920
 6392SOL    HW130812   2.365   1.475  10.378 -1.1235  2.2504  0.4734
 6392SOL    HW230813   2.211   1.512  10.370  1.7733  1.7988 -0.6523
 6393SOL     OW30814   4.597   2.842  13.361 -0.4634 -0.5510  0.2056
 6393SOL    HW130815   4.532   2.901  13.322  0.2745 -0.3010 -0.6416
 6393SOL    HW230816   4.594   2.762  13.310  2.1696 -0.4362 -0.1329
 6394SOL     OW30817   2.148   1.423   0.353  0.4046 -0.2829  0.5049
 6394SOL    HW130818   2.237   1.431   0.387  1.0125 -0.3314 -1.0733
 6394SOL    HW230819   2.108   1.389   0.433  1.1415 -0.0089  0.9839
 6395SOL     OW30820   2.378   0.695   4.250 -0.5509  0.4276 -0.1832
 6395SOL    HW130821   2.303   0.647   4.286 -1.8777  1.3702 -1.6795
 6395SOL    HW230822   2.446   0.628   4.240 -0.7343  0.5342 -2.1543
 6396SOL     OW30823   0.280   1.610   6.496  0.0253  0.0075  0.2767
 6396SOL    HW130824   0.190   1.628   6.523 -1.2730 -1.4845 -2.9679
 6396SOL    HW230825   0.329   1.641   6.571 -0.9488  2.6849 -0.1986
 6397SOL     OW30826   4.622   4.295  16.583 -0.3572 -1.0748  0.0895
 6397SOL    HW130827   4.647   4.293  16.676  1.6766  0.2213 -0.4281
 6397SOL    HW230828   4.703   4.255  16.550  0.1611 -0.3446  0.4624
 6398SOL     OW30829   4.004   2.014   1.987  0.0105  0.2412 -0.2150
 6398SOL    HW130830   3.935   1.977   1.931 -0.3289 -0.2859  0.5603
 6398SOL    HW230831   3.946   2.066   2.042  1.1837  2.2434 -0.8751
 6399SOL     OW30832   2.369   1.198   3.660 -0.4417 -0.3206  0.6406
 6399SOL    HW130833   2.383   1.145   3.738 -2.1971 -0.6846  0.7091
 6399SOL    HW230834   2.408   1.283   3.683 -3.1446  1.4939 -1.3902
 6400SOL     OW30835   4.039   1.959  17.053 -0.4123  0.3332  0.0462
 6400SOL    HW130836   4.071   1.881  17.008 -0.6391  0.0244  0.4095
 6400SOL    HW230837   4.117   1.974  17.107 -0.7205  0.0749  0.5647
 6401SOL     OW30838   2.611   2.472   7.660  0.0191  0.2007 -1.0478
 6401SOL    HW130839   2.681   2.530   7.628  1.6838 -3.2342 -3.6988
 6401SOL    HW230840   2.665   2.398   7.686  0.4706  1.0274  0.3484
 6402SOL     OW30841   0.327   3.304   9.964 -0.5539  0.2111 -0.1010
 6402SOL    HW130842   0.411   3.265   9.986 -0.3812  0.7225  0.1473
 6402SOL    HW230843   0.307   3.257   9.883  1.4174 -1.6413  0.4974
 6403SOL     OW30844   1.480   0.077   7.476  0.1806  0.1857  0.0610
 6403SOL    HW130845   1.544   0.142   7.505 -1.2992  0.7341  2.0744
 6403SOL    HW230846   1.422   0.067   7.551 -1.3212  1.9521 -0.8860
 6404SOL     OW30847   1.664   4.677   0.213 -0.3151  0.1364  0.0138
 6404SOL    HW130848   1.652   4.584   0.191 -0.5247  0.1375  0.1217
 6404SOL    HW230849   1.585   4.701   0.261 -0.2420 -0.3229  0.3747
 6405SOL     OW30850   3.506   2.212  15.439  0.3217 -0.2400  0.0509
 6405SOL    HW130851   3.504   2.117  15.441  1.7589 -0.3723 -3.7710
 6405SOL    HW230852   3.580   2.230  15.498 -0.4137  2.1135  0.2780
 6406SOL     OW30853   1.953   1.873   4.907  0.2752  0.0575 -0.0704
 6406SOL    HW130854   2.045   1.860   4.884 -0.0109 -2.2518  0.0798
 6406SOL    HW230855   1.904   1.811   4.852  0.6171  0.2510 -0.5974
 6407SOL     OW30856   2.496   0.106   7.217 -0.0436 -0.0581 -0.3703
 6407SOL    HW130857   2.486   0.018   7.182 -0.4724  0.3426 -1.2648
 6407SOL    HW230858   2.583   0.122   7.179 -1.1511  1.1443 -2.4136
 6408SOL     OW30859   3.471   4.469  16.814 -0.4007 -0.1784  0.1269
 6408SOL    HW130860   3.489   4.543  16.873  1.4288 -0.1151 -0.4831
 6408SOL    HW230861   3.487   4.389  16.864  0.6015  1.2902  2.1605
 6409SOL     OW30862   3.813   1.009   6.413 -0.2400 -0.1630 -0.1234
 6409SOL    HW130863   3.834   0.933   6.358 -0.9996 -0.8829  0.5961
 6409SOL    HW230864   3.903   1.034   6.434 -1.1383  1.4364  1.8095
 6410SOL     OW30865   3.990   2.823  14.450  0.6853 -0.2061 -0.5204
 6410SOL    HW130866   3.912   2.832  14.396 -0.8178 -0.0411  1.6999
 6410SOL    HW230867   4.017   2.734  14.426 -0.1548 -0.5341 -0.2270
 6411SOL     OW30868   0.975   3.364  12.594  0.2940  0.0636  0.3567
 6411SOL    HW130869   0.991   3.457  12.608 -0.0841  0.3152 -0.8242
 6411SOL    HW230870   1.039   3.316  12.647  0.2803  0.0202  0.3339
 6412SOL     OW30871   1.227   3.374  11.713  0.1263 -0.3821 -0.2806
 6412SOL    HW130872   1.227   3.445  11.649 -1.3921  0.1638  0.3373
 6412SOL    HW230873   1.132   3.364  11.716  0.2639 -0.8110  3.0761
 6413SOL     OW30874   2.356   0.811  15.395 -0.0834 -0.4101  0.1970
 6413SOL    HW130875   2.433   0.755  15.403 -0.6087 -1.0172  0.9952
 6413SOL    HW230876   2.375   0.846  15.308 -1.5325 -1.6004 -0.5931
 6414SOL     OW30877   0.382   3.561   8.438 -0.2411 -0.2185 -0.3499
 6414SOL    HW130878   0.417   3.483   8.481 -0.9849 -0.7325 -0.6892
 6414SOL    HW230879   0.342   3.613   8.507  2.4970  1.8336 -0.2749
 6415SOL     OW30880   4.517   2.978   3.462  0.2734  0.0886  0.2202
 6415SOL    HW130881   4.600   2.980   3.414  0.1079  2.7027  0.0266
 6415SOL    HW230882   4.531   2.908   3.526  0.6549  1.1270  1.2638
 6416SOL     OW30883   4.267   4.248   8.628  0.1044 -0.1913  0.3372
 6416SOL    HW130884   4.186   4.277   8.586  1.0786  0.9567 -0.7371
 6416SOL    HW230885   4.239   4.175   8.683 -2.5765  1.4731  1.1808
 6417SOL     OW30886   1.031   2.635   5.103 -0.4125  0.3573  0.1724
 6417SOL    HW130887   1.063   2.725   5.109 -0.5493  0.4210 -0.0459
 6417SOL    HW230888   1.069   2.592   5.027 -1.8865  0.6253 -0.7283
 6418SOL     OW30889   3.544   2.796   7.677  0.5096 -0.2475  0.1057
 6418SOL    HW130890   3.607   2.839   7.618  2.1560 -0.0903  1.9829
 6418SOL    HW230891   3.609   2.781   7.745  0.6934  1.5820  0.3500
 6419SOL     OW30892   1.431   1.796   8.050 -0.4947 -0.2415 -0.1840
 6419SOL    HW130893   1.401   1.706   8.057  1.0080 -0.8550 -1.6863
 6419SOL    HW230894   1.513   1.796   8.100 -0.6343 -0.2981  0.0432
 6420SOL     OW30895   0.363   0.343  10.415 -0.3022 -0.2588 -0.2226
 6420SOL    HW130896   0.380   0.288  10.491  1.2201 -0.1298 -0.4824
 6420SOL    HW230897   0.342   0.281  10.344  0.0502 -0.6934  0.0555
 6421SOL     OW30898   3.097   1.159  16.437 -0.2406  0.0398  0.1082
 6421SOL    HW130899   3.129   1.164  16.527  1.0221 -0.0847 -0.3354
 6421SOL    HW230900   3.006   1.135  16.455  0.3780 -1.0551  1.7659
 6422SOL     OW30901   1.157   3.748  10.733  0.0856  0.0149  0.8420
 6422SOL    HW130902   1.173   3.842  10.745 -1.4183  0.5362 -1.2955
 6422SOL    HW230903   1.071   3.754  10.692  0.5566 -0.4544 -0.1983
 6423SOL     OW30904   0.567   0.602   9.484  0.2237  0.0042  0.0275
 6423SOL    HW130905   0.572   0.605   9.580 -0.5035  0.5262  0.0479
 6423SOL    HW230906   0.578   0.696   9.473  1.7089 -0.1086  0.5808
 6424SOL     OW30907   3.553   3.498   6.970 -0.2401 -0.2234  0.7175
 6424SOL    HW130908   3.551   3.558   7.045 -0.5806 -0.0564  0.5779
 6424SOL    HW230909   3.487   3.533   6.910 -0.7352 -2.5440 -0.0645
 6425SOL     OW30910   3.669   1.580   4.573  0.0855  0.1641 -0.0486
 6425SOL    HW130911   3.647   1.652   4.515  0.7738  0.0735 -0.4209
 6425SOL    HW230912   3.749   1.559   4.525  0.3080 -1.5212  1.0380
 6426SOL     OW30913   1.663   3.633  17.659  0.5145  0.5347 -0.4474
 6426SOL    HW130914   1.704   3.719  17.659  1.6392  0.0014  0.1781
 6426SOL    HW230915   1.685   3.600  17.746 -1.1392 -1.0753 -0.6251
 6427SOL     OW30916   2.310   3.906   0.858  0.4716 -0.0462  0.5325
 6427SOL    HW130917   2.394   3.915   0.814 -0.7713  0.8480 -1.6806
 6427SOL    HW230918   2.255   3.962   0.803  2.2780 -0.9277 -2.1774
 6428SOL     OW30919   0.128   3.102   3.739 -0.0625  0.0051  0.6455
 6428SOL    HW130920   0.125   3.054   3.822  0.5556 -0.8084  0.1989
 6428SOL    HW230921   0.177   3.176   3.775 -2.0016  0.8731  1.4728
 6429SOL     OW30922   2.463   2.527   7.883  0.8292 -0.1391  0.7096
 6429SOL    HW130923   2.511   2.491   7.808  1.1510 -1.6326  1.6421
 6429SOL    HW230924   2.377   2.489   7.866  0.0256  1.5705  0.9837
 6430SOL     OW30925   3.837   4.570   2.963  0.2530  0.2550 -0.0531
 6430SOL    HW130926   3.828   4.651   3.013 -2.5004  0.3891 -0.7715
 6430SOL    HW230927   3.874   4.508   3.026 -0.9548 -0.7713 -0.3624
 6431SOL     OW30928   4.560   3.987   2.163 -0.7576  0.0369  0.3180
 6431SOL    HW130929   4.602   4.053   2.109  0.5363  0.2308  1.5687
 6431SOL    HW230930   4.605   4.002   2.246  0.7457 -0.1469 -0.4747
 6432SOL     OW30931   3.666   0.748   5.820  0.6604 -0.4189  0.2166
 6432SOL    HW130932   3.638   0.798   5.897  1.7062  3.1791 -1.8058
 6432SOL    HW230933   3.649   0.815   5.755  1.1732 -0.6522 -0.1510
 6433SOL     OW30934   0.903   1.350   8.822 -0.2966 -0.5112  0.5694
 6433SOL    HW130935   0.906   1.426   8.763  2.9544 -0.2341  1.0689
 6433SOL    HW230936   0.986   1.361   8.869  0.0323 -1.4568  0.2178
 6434SOL     OW30937   3.438   0.890   6.718  0.0285 -0.1797  0.2812
 6434SOL    HW130938   3.368   0.881   6.653 -0.8894  0.7586  1.1579
 6434SOL    HW230939   3.514   0.850   6.674 -0.0442  1.8096 -1.6457
 6435SOL     OW30940   0.637   0.617  14.591 -0.3811 -0.3054  0.2665
 6435SOL    HW130941   0.668   0.690  14.646 -0.4629  0.4661 -0.7150
 6435SOL    HW230942   0.553   0.591  14.631 -0.7396  1.4795  0.6811
 6436SOL     OW30943   4.466   4.331   2.452 -0.0823  0.3757 -0.4108
 6436SOL    HW130944   4.483   4.327   2.546 -1.2884 -2.8678 -0.3115
 6436SOL    HW230945   4.556   4.339   2.422 -0.4609  2.6380 -0.8910
 6437SOL     OW30946   3.528   1.160   6.178 -0.3088 -0.1317  0.4760
 6437SOL    HW130947   3.550   1.167   6.271  0.2142 -1.5535  0.4567
 6437SOL    HW230948   3.604   1.121   6.135  2.3218  2.2164  2.9163
 6438SOL     OW30949   4.089   2.881  15.070  0.1083  0.6940 -0.9168
 6438SOL    HW130950   4.015   2.920  15.118  0.2277 -0.7548  0.4356
 6438SOL    HW230951   4.153   2.891  15.140 -1.8943 -0.3460  1.0724
 6439SOL     OW30952   0.089   0.676  15.656  1.0840 -0.1398  0.4837
 6439SOL    HW130953   0.018   0.660  15.593  2.2415  2.0036 -1.3714
 6439SOL    HW230954   0.160   0.629  15.612 -0.7503 -1.3122 -1.2072
 6440SOL     OW30955   3.124   1.996   9.898 -0.1777  0.5600 -0.0169
 6440SOL    HW130956   3.033   1.978   9.875 -0.1992  0.5332  0.0877
 6440SOL    HW230957   3.110   2.087   9.925  1.4067  0.8024 -0.0281
 6441SOL     OW30958   1.581   1.866   5.953  0.0553  0.2141  0.2075
 6441SOL    HW130959   1.671   1.868   5.985  0.1996  1.3882 -0.2834
 6441SOL    HW230960   1.581   1.803   5.882 -2.8099 -1.5965  1.8281
 6442SOL     OW30961   3.965   2.207   1.040  0.7448  0.2841 -0.3482
 6442SOL    HW130962   3.969   2.301   1.057 -0.1227  0.1639  0.5426
 6442SOL    HW230963   3.881   2.184   1.080  0.7753 -0.2115 -0.5649
 6443SOL     OW30964   4.431   1.798  14.147 -0.4204  0.0747 -0.1105
 6443SOL    HW130965   4.518   1.773  14.116 -0.7500 -1.2833  0.0612
 6443SOL    HW230966   4.433   1.893  14.141  0.7471  0.1094  0.6908
 6444SOL     OW30967   1.850   3.207   7.704 -1.0710  0.2041  0.1037
 6444SOL    HW130968   1.863   3.112   7.701 -0.4365  0.3245 -1.0018
 6444SOL    HW230969   1.942   3.231   7.715 -0.2836 -2.2311 -1.2214
 6445SOL     OW30970   2.118   2.848   3.773 -0.2384 -0.4821  0.3620
 6445SOL    HW130971   2.097   2.920   3.833  0.4361 -0.6463  0.7954
 6445SOL    HW230972   2.046   2.867   3.713 -1.4406  1.1175  2.3005
 6446SOL     OW30973   1.305   3.395   3.038  0.0537  0.0164 -0.2445
 6446SOL    HW130974   1.221   3.371   3.000 -0.7135  2.1345  0.0959
 6446SOL    HW230975   1.316   3.329   3.107  1.3757  0.5637  0.0688
 6447SOL     OW30976   2.032   1.617  10.055 -0.7993 -0.5025  0.7760
 6447SOL    HW130977   1.986   1.544  10.097  0.1260 -1.7091 -0.3206
 6447SOL    HW230978   2.120   1.581  10.050 -0.2415  0.9922 -0.1492
 6448SOL     OW30979   1.786   3.293   8.259 -0.2117 -0.9680  0.2835
 6448SOL    HW130980   1.881   3.284   8.259  0.0359  1.8276  1.1096
 6448SOL    HW230981   1.775   3.289   8.354 -0.3623 -1.0770  0.2619
 6449SOL     OW30982   3.181   3.114   3.812  0.2575 -0.2266 -0.2953
 6449SOL    HW130983   3.197   3.199   3.771  2.1958 -0.3833  0.1324
 6449SOL    HW230984   3.158   3.068   3.730  1.4340  1.5898 -1.6432
 6450SOL     OW30985   2.517   0.505  14.484  0.2434  0.6572 -0.8242
 6450SOL    HW130986   2.578   0.437  14.456 -1.4033 -0.3417 -1.9807
 6450SOL    HW230987   2.442   0.448  14.501  1.2324 -1.2079 -2.6789
 6451SOL     OW30988   0.611   2.348   3.309 -0.0867 -0.0643  0.2704
 6451SOL    HW130989   0.572   2.378   3.391 -1.7618 -2.1180  0.2278
 6451SOL    HW230990   0.588   2.255   3.309  0.0600 -0.1008 -1.5181
 6452SOL     OW30991   3.505   4.398  14.892 -0.1063 -0.7119 -0.0516
 6452SOL    HW130992   3.479   4.490  14.885 -0.3567 -0.7283  0.7118
 6452SOL    HW230993   3.600   4.408  14.888 -0.3855  1.7144 -0.8459
 6453SOL     OW30994   0.077   0.472   5.924 -0.4552 -0.0723 -0.7670
 6453SOL    HW130995   0.147   0.414   5.954 -0.1800  0.2193 -0.8454
 6453SOL    HW230996   0.111   0.483   5.835  0.4815  0.6127 -0.3198
 6454SOL     OW30997   4.378   0.786   1.014 -0.3829 -0.7424 -0.4522
 6454SOL    HW130998   4.440   0.854   1.040 -0.1567 -1.2078  0.2262
 6454SOL    HW230999   4.432   0.707   1.018  1.4628  0.6284  1.5805
 6455SOL     OW31000   0.492   0.906  11.533  0.4731  0.3004  0.2486
 6455SOL    HW131001   0.544   0.851  11.592  0.4365 -0.8940 -0.8397
 6455SOL    HW231002   0.548   0.887  11.458 -0.1832 -2.0179  0.3398
 6456SOL     OW31003   4.048   0.453  15.237  0.2401  0.0498  0.4589
 6456SOL    HW131004   4.052   0.388  15.307 -1.6767 -1.9317 -1.2491
 6456SOL    HW231005   4.080   0.527  15.287 -0.2924  1.9364 -1.9953
 6457SOL     OW31006   0.187   0.080   5.714 -0.1567  0.7063  0.3300
 6457SOL    HW131007   0.249   0.086   5.788  0.4781  0.2394 -0.1662
 6457SOL    HW231008   0.243   0.119   5.647  1.3046  0.2028  1.2536
 6458SOL     OW31009   0.412   0.351   7.767  0.5219  0.5129  1.0664
 6458SOL    HW131010   0.390   0.432   7.720 -3.2642 -1.0697  0.0873
 6458SOL    HW231011   0.507   0.337   7.763  0.1585 -1.8647  0.8137
 6459SOL     OW31012   2.109   1.473   5.408 -0.3159 -0.4940  0.1049
 6459SOL    HW131013   2.045   1.541   5.430 -1.9343 -1.8163 -0.5482
 6459SOL    HW231014   2.096   1.462   5.314  1.6123  2.6163 -0.5231
 6460SOL     OW31015   0.095   1.130  10.233 -0.4563 -1.1342  0.2464
 6460SOL    HW131016   0.004   1.102  10.245 -0.2002 -1.0012  2.6059
 6460SOL    HW231017   0.120   1.160  10.321  1.3909  0.0518 -0.6887
 6461SOL     OW31018   4.383   3.552   7.090 -0.3453  0.0834  0.3841
 6461SOL    HW131019   4.454   3.588   7.037 -0.4717  1.0742  0.8792
 6461SOL    HW231020   4.400   3.459   7.082  3.4259  0.6711  1.3062
 6462SOL     OW31021   1.997   3.403   1.395  0.1866  0.0289 -0.0202
 6462SOL    HW131022   1.992   3.328   1.336 -1.1645 -1.4028  1.9412
 6462SOL    HW231023   2.083   3.383   1.433  1.2289  1.5105 -1.5498
 6463SOL     OW31024   2.149   4.337   4.554  0.1794  0.0706  0.1382
 6463SOL    HW131025   2.156   4.244   4.531 -0.2473  0.2719 -0.7844
 6463SOL    HW231026   2.063   4.366   4.524  0.5311  0.9607 -0.0217
 6464SOL     OW31027   0.981   1.550  16.152 -0.3890  0.0449 -0.0760
 6464SOL    HW131028   1.030   1.469  16.167  0.9156  0.7267 -0.6827
 6464SOL    HW231029   1.043   1.594  16.095 -1.8025  1.4166 -0.5338
 6465SOL     OW31030   2.107   2.726   0.457 -0.0044 -0.0330 -0.0880
 6465SOL    HW131031   2.129   2.654   0.516  0.1550 -0.6987 -0.9734
 6465SOL    HW231032   2.200   2.734   0.437 -0.0249  1.0241  0.2487
 6466SOL     OW31033   1.027   0.830   6.127 -0.2084 -0.0601  0.2515
 6466SOL    HW131034   0.973   0.896   6.172 -1.0219 -0.6665  0.1658
 6466SOL    HW231035   0.955   0.777   6.092  0.0816 -0.8465  0.8511
 6467SOL     OW31036   3.145   3.687   8.224 -0.4162  0.0515  0.3078
 6467SOL    HW131037   3.172   3.601   8.256 -0.3623  0.1309  0.4727
 6467SOL    HW231038   3.067   3.700   8.278 -0.9950  0.1932 -0.5514
 6468SOL     OW31039   4.498   2.657  15.392  0.3356 -0.2814  0.4805
 6468SOL    HW131040   4.412   2.617  15.378  0.2843  0.0424 -0.1557
 6468SOL    HW231041   4.485   2.699  15.477  1.6175  0.8000  0.1440
 6469SOL     OW31042   2.060   3.525   7.725  0.2676 -0.0891  0.2596
 6469SOL    HW131043   1.990   3.590   7.734  0.6818  0.3873  0.0657
 6469SOL    HW231044   2.139   3.573   7.751 -1.0727  1.6701  1.0269
 6470SOL     OW31045   4.639   1.519   4.386 -0.8710  0.5387  0.4547
 6470SOL    HW131046   4.579   1.456   4.426 -0.4900 -1.0689 -1.4964
 6470SOL    HW231047   4.580   1.567   4.327 -0.4793 -1.8184 -1.8737
 6471SOL     OW31048   2.690   1.685   4.689  0.2301  0.2231  0.4830
 6471SOL    HW131049   2.758   1.670   4.624 -1.0119 -1.0604 -0.5167
 6471SOL    HW231050   2.736   1.747   4.745 -1.2461  0.4053  1.4825
 6472SOL     OW31051   0.792   0.498   7.935  0.0329  0.4589  0.3203
 6472SOL    HW131052   0.797   0.574   7.877  0.0745 -0.5545 -1.0159
 6472SOL    HW231053   0.741   0.531   8.009  1.9421 -0.1189  1.9192
 6473SOL     OW31054   2.188   1.117   4.848  0.0197  0.0782  0.0180
 6473SOL    HW131055   2.259   1.130   4.785  1.3776  0.0978  1.5365
 6473SOL    HW231056   2.111   1.110   4.792 -0.7814 -0.2830  1.1787
 6474SOL     OW31057   0.386   0.274  14.284  0.0898  0.2247  0.5924
 6474SOL    HW131058   0.327   0.199  14.274  0.0435  0.3463 -0.0390
 6474SOL    HW231059   0.458   0.238  14.234  0.2554 -0.4574  1.3097
 6475SOL     OW31060   1.985   1.003   8.582  0.1264  0.2480  0.3262
 6475SOL    HW131061   1.911   0.962   8.626 -0.7379  1.4236 -0.0471
 6475SOL    HW231062   2.025   1.047   8.657  1.2761  0.4844 -0.4208
 6476SOL     OW31063   1.625   2.859   6.210  0.2301  0.0113 -0.2705
 6476SOL    HW131064   1.567   2.934   6.196  0.6001  0.1019 -1.3400
 6476SOL    HW231065   1.671   2.847   6.127  1.1372  0.2821  0.1965
 6477SOL     OW31066   3.372   0.145  16.538 -0.8552  0.0580  0.1786
 6477SOL    HW131067   3.400   0.153  16.629 -0.5956  0.7949  0.0347
 6477SOL    HW231068   3.443   0.110  16.484  0.6519 -0.8820  2.7775
 6478SOL     OW31069   3.555   1.200   5.707 -0.1539  0.1498 -0.0972
 6478SOL    HW131070   3.499   1.195   5.785  1.8167 -0.3511  1.2834
 6478SOL    HW231071   3.585   1.290   5.719 -0.9592  0.5085 -0.7697
 6479SOL     OW31072   2.162   3.144   6.063 -0.2207  0.0015 -0.2891
 6479SOL    HW131073   2.178   3.220   6.119  3.9657 -2.7391  2.1896
 6479SOL    HW231074   2.197   3.070   6.113 -1.8820 -0.7579 -0.2302
 6480SOL     OW31075   1.881   3.989   7.066  0.7983 -0.4590 -0.1914
 6480SOL    HW131076   1.786   3.996   7.053  0.7521  1.0491  1.0483
 6480SOL    HW231077   1.884   3.893   7.061 -0.6853 -0.4084 -2.4315
 6481SOL     OW31078   3.087   1.533   6.650 -0.0686 -0.1984 -0.1707
 6481SOL    HW131079   3.101   1.592   6.725 -2.8426  0.3599 -0.0752
 6481SOL    HW231080   3.173   1.495   6.632 -1.3698 -3.0185 -0.3798
 6482SOL     OW31081   1.606   2.119   8.144 -0.2771  0.0870  0.2278
 6482SOL    HW131082   1.583   2.120   8.051 -1.8542  2.8119  0.6226
 6482SOL    HW231083   1.701   2.127   8.148 -0.3749  0.9936  0.7177
 6483SOL     OW31084   3.493   3.187   5.040 -0.1377 -0.3530  0.1910
 6483SOL    HW131085   3.534   3.153   4.960  2.0067  0.0898  1.1086
 6483SOL    HW231086   3.568   3.232   5.079 -0.2497  1.4170 -1.6354
 6484SOL     OW31087   4.300   2.092   5.618  0.3854 -0.9101  0.2435
 6484SOL    HW131088   4.323   2.017   5.673  0.9375 -0.6170  0.4168
 6484SOL    HW231089   4.384   2.137   5.612  0.7233 -1.4976  0.6316
 6485SOL     OW31090   0.253   1.571   6.153 -0.4371  0.2153  0.7282
 6485SOL    HW131091   0.171   1.590   6.198 -0.7902 -0.7960  0.5195
 6485SOL    HW231092   0.289   1.658   6.166  0.3718 -0.0434  0.2591
 6486SOL     OW31093   2.864   4.735   4.652  0.1836 -0.5840  0.1966
 6486SOL    HW131094   2.841   4.719   4.744 -2.5140 -2.0175 -0.7506
 6486SOL    HW231095   2.783   0.027   4.610  1.0158 -0.4393 -1.2832
 6487SOL     OW31096   1.073   2.941   3.878 -0.4083  0.5474 -0.5252
 6487SOL    HW131097   1.155   2.982   3.852  1.3050 -2.0763  0.8110
 6487SOL    HW231098   1.083   2.858   3.832 -1.3596 -0.2368  0.6609
 6488SOL     OW31099   0.337   1.589   3.981 -0.2036 -0.3434 -0.1403
 6488SOL    HW131100   0.344   1.683   3.995  1.2567 -0.3585 -0.8482
 6488SOL    HW231101   0.278   1.586   3.905 -0.1324 -1.7279 -0.1376
 6489SOL     OW31102   0.389   2.584   8.787 -0.3141 -0.4388 -0.0749
 6489SOL    HW131103   0.357   2.673   8.771 -1.4804 -0.6987  0.8232
 6489SOL    HW231104   0.473   2.597   8.831 -0.8450  2.8188 -0.0239
 6490SOL     OW31105   0.661   1.088   9.868 -0.0387  0.4248  0.4981
 6490SOL    HW131106   0.624   1.090   9.956  2.3059  1.1927  1.4655
 6490SOL    HW231107   0.694   1.176   9.853  0.1300  0.4130  0.7939
 6491SOL     OW31108   4.192   1.227   7.505  0.2562 -0.2091  0.0570
 6491SOL    HW131109   4.247   1.291   7.550 -0.5071 -0.7923  1.8057
 6491SOL    HW231110   4.106   1.264   7.527 -0.5724 -1.5814 -0.9159
 6492SOL     OW31111   2.888   3.637   7.585  0.5262  0.3212 -0.4888
 6492SOL    HW131112   2.796   3.655   7.569 -0.9087 -0.5704  6.3943
 6492SOL    HW231113   2.923   3.704   7.526  1.4392  0.9437  0.7512
 6493SOL     OW31114   1.060   3.382   7.384  0.0681  0.0626  0.4530
 6493SOL    HW131115   0.972   3.415   7.401  0.3328 -0.1093  2.1803
 6493SOL    HW231116   1.105   3.459   7.348 -0.6473  1.0688  1.7115
 6494SOL     OW31117   4.470   4.567  12.988  0.7508  0.0293  0.3208
 6494SOL    HW131118   4.538   4.629  13.014  0.1704 -0.5725  3.2863
 6494SOL    HW231119   4.385   4.607  13.006  0.3698 -0.4681 -0.3499
 6495SOL     OW31120   3.164   2.994   6.570  0.4178 -0.1553  0.2160
 6495SOL    HW131121   3.253   3.029   6.570  0.6109 -0.6418 -0.4447
 6495SOL    HW231122   3.125   3.044   6.498 -1.0558  0.8082  1.6999
 6496SOL     OW31123   4.725   0.101   6.241 -0.5219 -0.4802  0.0625
 6496SOL    HW131124   0.007   0.168   6.176 -1.5504 -1.2721 -1.0473
 6496SOL    HW231125   0.078   0.069   6.251 -0.4418 -0.3395 -0.2359
 6497SOL     OW31126   1.250   2.199   7.180  0.6807 -0.5675 -0.2704
 6497SOL    HW131127   1.284   2.143   7.109 -1.4247  1.2352 -2.6966
 6497SOL    HW231128   1.156   2.193   7.165  0.7255  1.0846 -1.2453
 6498SOL     OW31129   2.977   4.241   0.746  0.1561  0.3240  0.4872
 6498SOL    HW131130   2.950   4.284   0.827  0.6542  1.3813  0.0961
 6498SOL    HW231131   3.069   4.263   0.739 -0.0603  1.1504  0.2558
 6499SOL     OW31132   1.677   0.484   8.525 -0.2816 -0.6744  0.5817
 6499SOL    HW131133   1.758   0.508   8.570 -1.7919  1.9966  1.8841
 6499SOL    HW231134   1.625   0.564   8.520  2.0884  1.0082  2.3992
 6500SOL     OW31135   1.051   2.229   9.220 -0.2836 -0.0281 -0.1064
 6500SOL    HW131136   0.986   2.174   9.176  0.1006 -0.5934  0.0453
 6500SOL    HW231137   1.092   2.267   9.142 -0.0084 -3.1155 -1.4780
 6501SOL     OW31138   1.777   1.593   5.151 -0.3179 -0.0201 -0.6234
 6501SOL    HW131139   1.758   1.533   5.078  0.2396  0.6688 -1.3418
 6501SOL    HW231140   1.729   1.556   5.225 -0.4097 -1.1820 -1.2566
 6502SOL     OW31141   3.548   4.699  16.952  0.3441 -0.2651  0.6117
 6502SOL    HW131142   3.644   4.703  16.947  0.4521 -2.2307  0.9796
 6502SOL    HW231143   3.521   0.034  16.895  0.6671 -0.0228  0.7626
 6503SOL     OW31144   0.990   4.605   4.752 -0.0678  0.1633 -0.4705
 6503SOL    HW131145   1.014   4.662   4.825  0.1043  0.9078 -1.0993
 6503SOL    HW231146   1.067   4.549   4.744 -1.0280 -0.8942 -2.3490
 6504SOL     OW31147   4.277   0.684   5.476 -0.8923  0.0504 -0.3679
 6504SOL    HW131148   4.261   0.590   5.479 -0.4910 -0.0811 -2.0781
 6504SOL    HW231149   4.370   0.687   5.453 -0.1485 -0.6788  2.5780
 6505SOL     OW31150   2.506   4.380   1.101  0.8564  0.0624  0.3017
 6505SOL    HW131151   2.537   4.453   1.048  0.6205 -0.2968 -0.3336
 6505SOL    HW231152   2.448   4.332   1.041 -2.1749  2.5918  1.1918
 6506SOL     OW31153   0.254   0.086   6.264 -0.0600  0.2156  0.8820
 6506SOL    HW131154   0.294   0.073   6.350  1.4331  1.3024  0.3362
 6506SOL    HW231155   0.289   0.172   6.243 -0.8665  0.7516  1.7050
 6507SOL     OW31156   1.660   3.130  15.099  0.4700  0.7051 -0.6879
 6507SOL    HW131157   1.573   3.126  15.139  0.5333 -0.4513 -0.6855
 6507SOL    HW231158   1.666   3.050  15.047  0.7476  0.6232 -0.5268
 6508SOL     OW31159   0.379   2.955   3.765  0.0504 -0.2832  0.2642
 6508SOL    HW131160   0.292   2.995   3.765  0.4738  0.6243  1.6121
 6508SOL    HW231161   0.417   2.993   3.686 -0.3504  0.1673  0.2895
 6509SOL     OW31162   4.461   1.015   6.477  0.1216 -0.4775 -0.4439
 6509SOL    HW131163   4.548   0.994   6.512  0.7718  1.0572 -1.1081
 6509SOL    HW231164   4.415   0.997   6.559  1.9398  0.8264  0.8826
 6510SOL     OW31165   1.972   1.828   9.551 -0.5350 -0.6213 -0.4064
 6510SOL    HW131166   2.057   1.816   9.594 -0.6904 -0.0662  0.0469
 6510SOL    HW231167   1.953   1.921   9.559  0.8139 -0.6018  2.3744
 6511SOL     OW31168   4.592   0.114   9.656 -0.2011 -0.0143 -0.3660
 6511SOL    HW131169   4.612   0.039   9.600 -0.4060 -0.6738  0.4384
 6511SOL    HW231170   4.639   0.084   9.734  0.5528  0.7908 -0.5171
 6512SOL     OW31171   3.293   1.230  13.297  0.4208  0.4010  0.2595
 6512SOL    HW131172   3.341   1.226  13.380 -0.5189 -1.3455  0.7262
 6512SOL    HW231173   3.223   1.167  13.314  2.3068 -0.7120  3.9161
 6513SOL     OW31174   2.806   2.135   2.381 -0.3532 -0.1778  1.1548
 6513SOL    HW131175   2.847   2.164   2.462 -0.9884  0.1380  1.3689
 6513SOL    HW231176   2.836   2.048   2.404  0.4833  0.2666  1.7440
 6514SOL     OW31177   2.062   3.684   3.626  0.1244 -0.0874 -0.1895
 6514SOL    HW131178   2.140   3.629   3.633  0.9056  1.2875  1.6394
 6514SOL    HW231179   2.076   3.718   3.538 -1.8537 -0.9656 -0.8580
 6515SOL     OW31180   1.075   1.946  16.363  0.3973  0.3749  1.2373
 6515SOL    HW131181   0.985   1.921  16.345  0.3024  0.8424  1.0589
 6515SOL    HW231182   1.107   1.981  16.280 -1.5363  0.4036  0.4974
 6516SOL     OW31183   4.286   4.266   4.514 -0.5105  0.0446 -0.3087
 6516SOL    HW131184   4.205   4.298   4.473 -0.2470  1.3205  0.1713
 6516SOL    HW231185   4.356   4.294   4.454  1.6696 -1.9908  1.3162
 6517SOL     OW31186   3.756   0.833  12.035  0.5941 -0.4889  0.2958
 6517SOL    HW131187   3.775   0.906  11.975 -1.2421 -0.5145 -0.2941
 6517SOL    HW231188   3.772   0.867  12.123  0.1200 -1.3911  0.7286
 6518SOL     OW31189   3.609   0.576   3.827 -0.1643  0.0152 -0.4790
 6518SOL    HW131190   3.553   0.651   3.804  2.0113  1.3577 -1.3530
 6518SOL    HW231191   3.551   0.528   3.887  2.2893 -3.3983 -0.8589
 6519SOL     OW31192   4.340   3.044   5.032  0.4072 -0.3292  0.4498
 6519SOL    HW131193   4.404   3.007   4.971  0.2354  1.0502 -0.5745
 6519SOL    HW231194   4.265   3.038   4.972 -0.9473  0.7204  2.0220
 6520SOL     OW31195   4.068   3.263  10.544 -0.2840 -0.0485 -0.4311
 6520SOL    HW131196   4.040   3.206  10.615 -0.1383  0.9631  0.4291
 6520SOL    HW231197   4.012   3.232  10.472  0.9228 -2.7737 -0.1792
 6521SOL     OW31198   3.826   3.600  17.555 -0.3298 -0.2126  0.0076
 6521SOL    HW131199   3.742   3.560  17.577 -0.5610  0.3546  0.1599
 6521SOL    HW231200   3.808   3.691  17.531 -0.0248  0.1180  1.0383
 6522SOL     OW31201   3.008   3.329   1.843 -0.6277  0.1323  0.2850
 6522SOL    HW131202   3.059   3.388   1.899 -1.0663  1.0941 -0.3304
 6522SOL    HW231203   3.045   3.337   1.755 -2.3791 -0.0659 -0.4599
 6523SOL     OW31204   2.005   3.663   1.877 -0.0356 -0.3579  0.3874
 6523SOL    HW131205   2.005   3.620   1.963  1.5155  0.2986  0.7244
 6523SOL    HW231206   1.920   3.640   1.841  1.0193 -0.3055 -2.1166
 6524SOL     OW31207   0.653   0.974   7.936  0.0428 -0.7113 -0.9854
 6524SOL    HW131208   0.663   1.068   7.947  0.4944 -0.6754 -1.7252
 6524SOL    HW231209   0.562   0.970   7.908 -1.2241  0.0893  2.9514
 6525SOL     OW31210   1.097   1.876   7.559 -0.0941 -0.2198 -0.2302
 6525SOL    HW131211   1.082   1.955   7.610 -3.8064  0.4523 -2.3678
 6525SOL    HW231212   1.184   1.848   7.587  0.0738  0.0992 -0.4339
 6526SOL     OW31213   2.944   1.688   2.111  0.0282 -0.8723  0.6032
 6526SOL    HW131214   2.929   1.778   2.137 -0.1862  0.0784 -2.7947
 6526SOL    HW231215   3.039   1.684   2.104 -0.1236 -1.0206 -1.4238
 6527SOL     OW31216   0.186   0.819   5.960  0.1060  0.1512  0.0689
 6527SOL    HW131217   0.233   0.774   6.030  2.6122  1.9437 -0.4603
 6527SOL    HW231218   0.114   0.858   6.009  1.3274  0.9947  1.2024
 6528SOL     OW31219   4.268   3.517  17.100  0.7698  0.2204 -0.0944
 6528SOL    HW131220   4.330   3.584  17.072 -1.1414  1.2085 -1.9416
 6528SOL    HW231221   4.246   3.483  17.013  3.2784  0.9455 -1.0068
 6529SOL     OW31222   4.438   1.506  14.634  0.1482 -0.0673 -0.2188
 6529SOL    HW131223   4.447   1.592  14.592  1.1791  0.2889  0.7299
 6529SOL    HW231224   4.507   1.449  14.602  1.8269  2.2470 -0.7432
 6530SOL     OW31225   0.268   0.536   1.700 -0.3804 -0.3377 -0.1816
 6530SOL    HW131226   0.314   0.485   1.633  2.2020  1.5197  0.1947
 6530SOL    HW231227   0.337   0.543   1.766  1.0456  1.4246 -1.8550
 6531SOL     OW31228   3.176   1.000  16.831  0.1166  0.0555 -0.2825
 6531SOL    HW131229   3.086   1.011  16.802 -0.5887 -1.5817  1.2582
 6531SOL    HW231230   3.171   1.018  16.925 -2.1392 -0.0431 -0.3943
 6532SOL     OW31231   0.282   1.161   9.564 -0.4763  0.0297  0.1202
 6532SOL    HW131232   0.252   1.079   9.603 -0.4674  0.7611  1.6393
 6532SOL    HW231233   0.360   1.124   9.523 -2.2059 -0.1521 -2.9914
 6533SOL     OW31234   4.049   0.569   1.607 -0.0166 -0.7555 -0.1291
 6533SOL    HW131235   4.106   0.643   1.589  0.5224 -1.5445 -1.6086
 6533SOL    HW231236   3.984   0.602   1.670 -0.1401  0.4859 -0.9274
 6534SOL     OW31237   2.092   1.463   6.167 -0.1119  0.0043  0.1878
 6534SOL    HW131238   2.066   1.524   6.236 -0.1170 -0.7041  0.8157
 6534SOL    HW231239   2.102   1.385   6.222 -3.0604 -0.0230  0.7072
 6535SOL     OW31240   1.113   0.569   2.326  0.3568  0.0249  0.1639
 6535SOL    HW131241   1.189   0.580   2.270  0.1692 -0.5148 -0.2025
 6535SOL    HW231242   1.123   0.477   2.349 -0.6102 -0.1169  0.0225
 6536SOL     OW31243   2.182   3.201   0.481 -0.0994  0.5862  0.2214
 6536SOL    HW131244   2.232   3.124   0.453 -1.2751 -0.5893  1.4055
 6536SOL    HW231245   2.146   3.231   0.397 -1.7167 -2.3717 -0.1384
 6537SOL     OW31246   1.703   2.259   2.803  0.1198 -0.2797  0.1503
 6537SOL    HW131247   1.619   2.248   2.758 -0.1248  0.8427  0.3600
 6537SOL    HW231248   1.730   2.324   2.739  0.1690 -0.8568 -0.4161
 6538SOL     OW31249   2.882   2.054   0.574 -0.6100 -0.1207 -0.0472
 6538SOL    HW131250   2.919   2.025   0.657 -2.4781  0.0970  0.8527
 6538SOL    HW231251   2.916   1.993   0.508  0.0089 -0.5290  0.6472
 6539SOL     OW31252   0.826   4.251  16.207 -0.0219 -0.5113 -0.3234
 6539SOL    HW131253   0.773   4.192  16.261 -1.7637  2.3110  1.0169
 6539SOL    HW231254   0.814   4.215  16.119 -0.0299  1.7893 -1.2381
 6540SOL     OW31255   1.658   0.491  17.273  0.5996  0.0270  0.3237
 6540SOL    HW131256   1.674   0.505  17.366 -2.0587  0.6510  0.6922
 6540SOL    HW231257   1.564   0.477  17.282  0.3975  0.0446 -1.7569
 6541SOL     OW31258   3.191   1.597   2.103  0.0787 -0.6854  0.3106
 6541SOL    HW131259   3.189   1.528   2.036  0.9650  0.7402 -1.1935
 6541SOL    HW231260   3.284   1.614   2.115  0.0412 -1.2734  1.4172
 6542SOL     OW31261   3.800   1.775   0.242 -0.1434 -0.2885 -0.0455
 6542SOL    HW131262   3.879   1.748   0.196 -0.6176 -1.7166 -0.0334
 6542SOL    HW231263   3.746   1.696   0.235  0.8470 -0.8201 -1.5791
 6543SOL     OW31264   0.645   1.490  14.989 -0.0568  0.4369 -0.1118
 6543SOL    HW131265   0.556   1.457  15.000  0.2718 -0.9430 -1.5984
 6543SOL    HW231266   0.637   1.585  15.000  1.5376  0.4957  0.4611
 6544SOL     OW31267   1.304   3.413   4.700 -0.1519  0.4907  0.1520
 6544SOL    HW131268   1.386   3.364   4.690  0.3099  1.4612 -0.8675
 6544SOL    HW231269   1.278   3.380   4.786 -1.5271 -1.0373 -0.8517
 6545SOL     OW31270   4.013   1.383   4.845 -0.0549 -0.6120  0.1316
 6545SOL    HW131271   3.998   1.309   4.787  1.3129 -0.8764  0.1206
 6545SOL    HW231272   4.065   1.438   4.785  1.0456  0.7974  2.3624
 6546SOL     OW31273   3.324   3.911   0.991  0.0125  0.0876  0.1463
 6546SOL    HW131274   3.396   3.969   1.014 -0.3023  0.1903  0.8639
 6546SOL    HW231275   3.363   3.840   0.939  0.1346  0.9223 -0.9037
 6547SOL     OW31276   2.618   3.317   4.878 -0.1079 -0.3300  0.2448
 6547SOL    HW131277   2.576   3.362   4.952  1.0205  0.9442  0.1076
 6547SOL    HW231278   2.647   3.252   4.942  0.8483  0.5775  0.7274
 6548SOL     OW31279   0.225   3.898   1.615  0.6855 -0.5999  0.6848
 6548SOL    HW131280   0.315   3.885   1.585 -0.2188 -2.3078 -1.3090
 6548SOL    HW231281   0.180   3.866   1.537  1.0926  2.8713 -1.0072
 6549SOL     OW31282   3.250   3.541   8.758  0.2010  0.2661  0.2136
 6549SOL    HW131283   3.199   3.501   8.828  0.3224  0.5749  0.4836
 6549SOL    HW231284   3.193   3.534   8.682 -0.4423 -0.7864  0.8034
 6550SOL     OW31285   0.373   1.335   4.057 -0.8049 -0.2746 -0.2314
 6550SOL    HW131286   0.300   1.319   3.997 -1.8418 -1.4251  1.3441
 6550SOL    HW231287   0.383   1.430   4.047  3.7740 -0.8687 -0.8478
 6551SOL     OW31288   3.901   0.237   1.728  0.1643 -0.4762 -0.4584
 6551SOL    HW131289   3.844   0.198   1.793 -1.6224  0.3161 -1.5584
 6551SOL    HW231290   3.938   0.157   1.689 -1.4929 -0.9277 -1.0958
 6552SOL     OW31291   3.262   0.775   8.772  0.1119  0.5232  0.4134
 6552SOL    HW131292   3.180   0.809   8.807  0.1232  1.2167 -0.2511
 6552SOL    HW231293   3.324   0.819   8.831  0.1680  1.0410 -0.0378
 6553SOL     OW31294   3.184   2.088   8.945  0.3943  0.1867 -0.2594
 6553SOL    HW131295   3.208   2.006   8.988  0.1799  0.6332  0.7031
 6553SOL    HW231296   3.169   2.140   9.024 -1.4653 -3.1656  1.6016
 6554SOL     OW31297   1.771   4.385   8.784  0.1893  0.0829  0.2577
 6554SOL    HW131298   1.786   4.313   8.846 -1.1224 -1.1584 -0.8747
 6554SOL    HW231299   1.719   4.444   8.840 -0.0915 -1.4650  1.6321
 6555SOL     OW31300   2.303   1.193   5.368 -0.7375  0.5128 -0.3779
 6555SOL    HW131301   2.386   1.163   5.329 -1.0094  0.6006 -1.0345
 6555SOL    HW231302   2.299   1.278   5.324 -1.7771  0.4088 -0.4878
 6556SOL     OW31303   1.913   0.706   4.056 -0.1453 -0.4955 -0.4068
 6556SOL    HW131304   1.968   0.754   3.995 -2.6726  0.2657 -2.1267
 6556SOL    HW231305   1.974   0.709   4.129 -1.3673 -2.9122  0.7598
 6557SOL     OW31306   4.373   1.411  11.958 -0.5628 -0.7894  0.0606
 6557SOL    HW131307   4.316   1.484  11.983 -1.1627 -1.6906  1.3616
 6557SOL    HW231308   4.335   1.389  11.874 -1.4365  1.5120 -0.1700
 6558SOL     OW31309   2.965   3.236   9.989 -0.3429  0.2855  0.2148
 6558SOL    HW131310   3.002   3.321   9.967  0.6998  0.2683  1.8829
 6558SOL    HW231311   2.891   3.264  10.043 -1.3719 -0.6668 -0.7039
 6559SOL     OW31312   1.096   1.256   7.218 -0.1380  0.4666  0.0179
 6559SOL    HW131313   1.108   1.334   7.272 -1.7270 -0.2841  1.4797
 6559SOL    HW231314   1.102   1.190   7.288 -1.0827 -0.7331 -1.0333
 6560SOL     OW31315   3.174   2.054   5.500 -0.1294 -0.9206  0.2794
 6560SOL    HW131316   3.152   2.087   5.413 -2.4945  1.2060  1.6933
 6560SOL    HW231317   3.111   2.104   5.552  0.5875 -0.4512  0.6878
 6561SOL     OW31318   2.136   1.173   8.209 -0.1056  0.9213  0.7298
 6561SOL    HW131319   2.050   1.208   8.185  0.3244  0.6401 -1.1960
 6561SOL    HW231320   2.114   1.080   8.216  0.5216  0.6158 -1.5589
 6562SOL     OW31321   3.961   4.417   3.140  0.5270 -0.3835  0.0400
 6562SOL    HW131322   4.014   4.418   3.220 -0.7588 -0.2779  0.8907
 6562SOL    HW231323   4.031   4.398   3.078  0.6070 -2.7347  0.8371
 6563SOL     OW31324   0.906   2.350   4.952 -0.5719  0.1201 -0.2226
 6563SOL    HW131325   0.888   2.291   4.879  1.4522  1.1688 -1.5349
 6563SOL    HW231326   0.996   2.371   4.928 -1.1269  3.1883  0.3472
 6564SOL     OW31327   1.230   3.118   5.597  0.0140  0.1149  0.2164
 6564SOL    HW131328   1.172   3.193   5.607  1.1898  1.5974 -4.2917
 6564SOL    HW231329   1.223   3.103   5.503  4.3280  0.7085 -0.1982
 6565SOL     OW31330   1.649   2.009   7.054 -0.4707 -0.0611 -0.1888
 6565SOL    HW131331   1.711   1.944   7.087  0.3039  0.2824 -0.9728
 6565SOL    HW231332   1.692   2.090   7.081 -0.6707 -0.2091  0.5921
 6566SOL     OW31333   1.774   2.915   6.993  0.6879  0.2613  0.6802
 6566SOL    HW131334   1.742   2.878   6.911 -0.4498  0.2038  1.1466
 6566SOL    HW231335   1.777   2.839   7.052 -2.4009  0.8034  1.5234
 6567SOL     OW31336   0.613   2.287   2.823  0.6629  0.3079  0.0181
 6567SOL    HW131337   0.648   2.219   2.765 -0.1010 -0.9873  1.0955
 6567SOL    HW231338   0.520   2.265   2.828 -0.0711  3.1451 -1.3717
 6568SOL     OW31339   1.701   4.375   1.780 -0.2134 -0.1054  0.0523
 6568SOL    HW131340   1.636   4.309   1.757 -0.5359  0.1263  0.2899
 6568SOL    HW231341   1.650   4.444   1.739 -0.4719  0.5843  1.5277
 6569SOL     OW31342   4.545   4.336  10.084 -0.3216 -0.2274  0.8694
 6569SOL    HW131343   4.604   4.407  10.110 -1.1806  0.8472 -0.0908
 6569SOL    HW231344   4.569   4.263  10.141 -1.8674 -2.0231 -0.7762
 6570SOL     OW31345   1.281   3.187   1.251 -0.0098  0.5111 -0.0200
 6570SOL    HW131346   1.298   3.170   1.158  0.3161  3.5376 -0.4989
 6570SOL    HW231347   1.277   3.282   1.258 -1.0715  0.5605 -1.3074
 6571SOL     OW31348   3.777   2.225   6.099  0.0578 -0.3011  0.3506
 6571SOL    HW131349   3.796   2.140   6.139  2.6783  0.0744 -0.1288
 6571SOL    HW231350   3.681   2.224   6.095  0.0210 -1.0593  1.4999
 6572SOL     OW31351   2.809   3.479   0.952 -0.0459 -0.2114 -0.1017
 6572SOL    HW131352   2.757   3.532   1.012 -1.2186 -2.7600  1.1532
 6572SOL    HW231353   2.747   3.408   0.935 -0.1496  0.5873 -3.0700
 6573SOL     OW31354   0.619   0.080   7.628 -0.3580  0.2461  0.1156
 6573SOL    HW131355   0.639   0.014   7.694  0.3843  1.0177  0.6559
 6573SOL    HW231356   0.648   0.166   7.658 -0.8452  0.1730  0.8004
 6574SOL     OW31357   0.426   3.362  12.771 -0.6808  0.1980 -0.2291
 6574SOL    HW131358   0.383   3.370  12.686 -1.5947  0.3928  0.2568
 6574SOL    HW231359   0.515   3.387  12.746 -0.3293 -2.3101 -1.5071
 6575SOL     OW31360   3.125   0.848   4.776  0.3246  0.3602 -0.1049
 6575SOL    HW131361   3.112   0.753   4.780 -2.1529  0.7925  2.2190
 6575SOL    HW231362   3.176   0.873   4.853 -0.4932 -1.1887  0.9337
 6576SOL     OW31363   3.184   3.935   6.407  0.0215  0.4581 -0.2224
 6576SOL    HW131364   3.169   3.898   6.494  1.7717 -0.6749 -0.4152
 6576SOL    HW231365   3.095   3.939   6.371 -0.7101  2.9176  1.8232
 6577SOL     OW31366   1.350   4.659  12.874  0.4856 -0.5256 -0.4627
 6577SOL    HW131367   1.255   4.670  12.874  0.6896  1.1305  0.0264
 6577SOL    HW231368   1.373   4.718  12.802 -0.2512  0.1917 -0.1044
 6578SOL     OW31369   0.621   2.112  12.943 -0.1582 -0.4592  0.0726
 6578SOL    HW131370   0.690   2.148  12.998 -0.0016 -2.2056  1.0013
 6578SOL    HW231371   0.635   2.019  12.959  1.9807  0.3295  2.6958
 6579SOL     OW31372   0.562   1.742   5.639 -0.5056 -0.0841  0.1673
 6579SOL    HW131373   0.512   1.810   5.684  0.1789  2.1772 -2.5204
 6579SOL    HW231374   0.496   1.701   5.583  0.4792 -1.1434 -0.2315
 6580SOL     OW31375   1.143   1.263   6.033 -0.3573 -0.2635  0.4312
 6580SOL    HW131376   1.082   1.213   5.979 -0.9996  1.4988 -0.4861
 6580SOL    HW231377   1.192   1.303   5.961 -3.4775  0.8932 -1.0326
 6581SOL     OW31378   0.798   4.356   2.553  0.4625 -1.1210  0.2319
 6581SOL    HW131379   0.859   4.283   2.557  1.9564  0.2304  2.1109
 6581SOL    HW231380   0.745   4.334   2.476  1.2210  0.3988 -0.7261
 6582SOL     OW31381   0.541   0.034  14.883 -0.0460  0.6465 -0.5201
 6582SOL    HW131382   0.515   0.100  14.818 -1.9855  0.1320 -0.2651
 6582SOL    HW231383   0.488   0.058  14.960 -0.3575  1.1668 -0.8996
 6583SOL     OW31384   1.541   0.089   0.901 -0.5987 -0.1229 -0.2424
 6583SOL    HW131385   1.611   0.155   0.894 -1.6928  1.0074 -0.6099
 6583SOL    HW231386   1.468   0.150   0.895  0.0318  0.5396 -1.3206
 6584SOL     OW31387   4.569   4.604   6.177 -0.0203  0.5337 -0.7671
 6584SOL    HW131388   4.631   4.554   6.124  0.0729  1.5208 -1.5858
 6584SOL    HW231389   4.609   4.691   6.175 -2.1155  1.4895 -1.8828
 6585SOL     OW31390   3.221   1.079   1.946 -0.2881  0.6408  0.5363
 6585SOL    HW131391   3.314   1.102   1.951 -0.3560  1.3780 -1.6659
 6585SOL    HW231392   3.237   0.984   1.953  1.7671  0.7272 -2.7964
 6586SOL     OW31393   4.479   0.067  16.095 -0.3703  0.6956  0.6514
 6586SOL    HW131394   4.489   0.017  16.176 -1.9073 -0.8987 -0.1593
 6586SOL    HW231395   4.397   0.111  16.119 -0.5556  0.2364  0.8502
 6587SOL     OW31396   1.494   4.564   3.673 -0.4586 -0.4146  0.3163
 6587SOL    HW131397   1.460   4.651   3.652  1.5555  0.9643  2.8530
 6587SOL    HW231398   1.585   4.578   3.647 -0.7270  0.7647  0.0166
 6588SOL     OW31399   4.482   3.949   9.506 -0.9919 -0.6133  0.1619
 6588SOL    HW131400   4.575   3.933   9.492 -0.8607  1.6648 -1.4571
 6588SOL    HW231401   4.485   3.968   9.600  1.4975  0.0463 -0.0541
 6589SOL     OW31402   3.142   4.398  11.146 -0.3042 -0.6473  0.8060
 6589SOL    HW131403   3.140   4.339  11.222 -0.1815 -0.6957  0.7726
 6589SOL    HW231404   3.067   4.453  11.165 -1.8746 -2.5060  0.0645
 6590SOL     OW31405   0.020   1.145   9.433 -0.1988  0.0779  0.2187
 6590SOL    HW131406   4.690   1.122   9.496  0.0825 -2.5177 -0.4279
 6590SOL    HW231407   0.081   1.195   9.487  0.6040 -1.6554  0.9268
 6591SOL     OW31408   1.707   0.387   2.234  0.0410  0.2324  0.8979
 6591SOL    HW131409   1.614   0.364   2.225  0.6138 -0.7781 -2.2502
 6591SOL    HW231410   1.739   0.319   2.294 -0.7842 -0.5161  0.4814
 6592SOL     OW31411   1.108   2.485   2.240 -0.1093  0.6990  0.2943
 6592SOL    HW131412   1.088   2.577   2.253  1.9747  1.6702 -3.3814
 6592SOL    HW231413   1.172   2.467   2.308 -1.1846 -0.2071  1.0667
 6593SOL     OW31414   0.443   0.602  10.416  0.4814 -0.1572 -0.1066
 6593SOL    HW131415   0.421   0.601  10.322  2.7274 -2.2976 -0.6222
 6593SOL    HW231416   0.418   0.511  10.431 -1.6910  0.5031  0.2150
 6594SOL     OW31417   2.790   3.964   3.561  0.3271  0.2433 -0.2684
 6594SOL    HW131418   2.821   3.874   3.572  2.0162  0.7140 -1.1837
 6594SOL    HW231419   2.695   3.953   3.567  0.4377  0.4466  1.8150
 6595SOL     OW31420   3.065   3.042   3.161 -0.2604  0.3923 -0.4911
 6595SOL    HW131421   2.984   2.996   3.141  0.1594  0.2292 -1.8246
 6595SOL    HW231422   3.030   3.092   3.234 -1.3078 -1.1465  0.0504
 6596SOL     OW31423   4.656   1.071   4.043 -0.0425  0.5089 -0.2979
 6596SOL    HW131424   4.611   1.023   3.973  0.6218  0.3200 -0.5960
 6596SOL    HW231425   4.583   1.099   4.099  0.1185  0.0474  0.1533
 6597SOL     OW31426   3.952   0.764   4.835  0.0381 -0.4196  0.0717
 6597SOL    HW131427   3.861   0.786   4.813  0.9387  2.6979 -0.4597
 6597SOL    HW231428   3.934   0.752   4.928 -1.4141 -0.7338 -0.2487
 6598SOL     OW31429   4.106   2.953   4.881  0.6408 -0.2091 -0.6742
 6598SOL    HW131430   4.056   3.025   4.843 -0.3344 -0.7634 -0.4454
 6598SOL    HW231431   4.074   2.953   4.971 -0.3633 -1.9798 -1.0296
 6599SOL     OW31432   4.112   2.719   2.958 -0.7295  0.3222 -0.2037
 6599SOL    HW131433   4.146   2.794   3.007  0.3525 -1.3921  1.6755
 6599SOL    HW231434   4.190   2.705   2.903 -1.8067 -1.5824 -1.2304
 6600SOL     OW31435   3.930   0.932   4.476  0.5931  0.3060  0.7786
 6600SOL    HW131436   3.968   0.955   4.391  1.2052 -1.1428  0.6569
 6600SOL    HW231437   3.951   0.839   4.477  0.6136  0.3090  0.5410
 6601SOL     OW31438   0.699   4.416  13.121 -0.0333  0.6072 -0.2210
 6601SOL    HW131439   0.665   4.394  13.034  0.6239 -0.1231 -0.2972
 6601SOL    HW231440   0.779   4.454  13.084  0.0400  0.9638  0.2891
 6602SOL     OW31441   3.683   4.209   0.699  0.1025 -0.3741 -0.0163
 6602SOL    HW131442   3.770   4.219   0.738 -0.2146 -0.2546  0.6590
 6602SOL    HW231443   3.635   4.277   0.745  0.8873  1.1206 -1.4214
 6603SOL     OW31444   0.579   1.195   4.650 -0.5360  0.1942 -0.2432
 6603SOL    HW131445   0.537   1.115   4.619  2.4200 -0.8841 -1.4011
 6603SOL    HW231446   0.512   1.222   4.714  0.6703 -0.1357  1.1529
 6604SOL     OW31447   4.718   4.344   7.867  0.8041 -0.0403 -0.1966
 6604SOL    HW131448   0.067   4.355   7.826 -0.6023 -1.4460 -3.5789
 6604SOL    HW231449   4.732   4.311   7.955 -1.3262 -0.3107  0.0247
 6605SOL     OW31450   3.786   2.314   3.446  0.3898  0.4985 -0.3104
 6605SOL    HW131451   3.820   2.345   3.362 -2.8011 -0.8539 -2.0768
 6605SOL    HW231452   3.827   2.379   3.503  0.5670  0.7282 -0.7058
 6606SOL     OW31453   1.291   1.224   8.861 -0.0350  0.1776  0.7031
 6606SOL    HW131454   1.262   1.234   8.771 -0.0967  0.6902  0.7813
 6606SOL    HW231455   1.343   1.304   8.867  1.7539 -0.9582  0.5727
 6607SOL     OW31456   2.389   2.465  11.250 -0.0586  0.2541  0.3408
 6607SOL    HW131457   2.441   2.395  11.288 -2.0204 -0.0603  2.3964
 6607SOL    HW231458   2.365   2.428  11.165  3.7006 -1.1500 -0.0797
 6608SOL     OW31459   4.194   0.251  16.560 -0.5998  0.1738 -0.0982
 6608SOL    HW131460   4.220   0.338  16.591 -0.8236 -0.1864  1.1279
 6608SOL    HW231461   4.274   0.198  16.562 -1.2420 -0.7943 -0.1722
 6609SOL     OW31462   2.119   3.169   7.663  0.4625  0.2915 -0.3178
 6609SOL    HW131463   2.202   3.215   7.658  1.6497 -2.0440 -2.4233
 6609SOL    HW231464   2.152   3.090   7.707  1.4979  0.2499 -1.1660
 6610SOL     OW31465   3.898   2.687  17.531 -0.2293 -0.5162  0.0530
 6610SOL    HW131466   3.949   2.678  17.451  1.6570  0.0837  1.1881
 6610SOL    HW231467   3.888   2.594  17.551 -2.5322  0.2340  2.4172
 6611SOL     OW31468   1.980   2.970   1.109  0.2930 -0.6095  0.1727
 6611SOL    HW131469   2.000   2.988   1.017  0.6862 -2.3751 -0.0839
 6611SOL    HW231470   1.925   2.892   1.106 -0.5434  0.1135 -2.9360
 6612SOL     OW31471   2.181   4.698  13.913  0.1456  0.1992  1.2346
 6612SOL    HW131472   2.127   0.038  13.931 -1.8254 -0.7623 -0.5919
 6612SOL    HW231473   2.227   4.734  13.838 -1.5673 -0.0497  0.0734
 6613SOL     OW31474   4.105   3.980   3.533 -0.1316  0.4491  0.3543
 6613SOL    HW131475   4.042   4.044   3.566 -2.2699 -0.9418 -0.9897
 6613SOL    HW231476   4.088   3.993   3.439 -0.1585  1.7460  0.5385
 6614SOL     OW31477   4.567   2.126  15.186  0.0207 -0.7093 -0.1078
 6614SOL    HW131478   4.488   2.072  15.189 -0.7444  0.3832 -0.3739
 6614SOL    HW231479   4.622   2.085  15.120  1.7068 -1.0541  1.4857
 6615SOL     OW31480   1.224   1.527   9.178  0.2755  0.0145 -0.5018
 6615SOL    HW131481   1.294   1.592   9.186  0.6065 -0.2771 -1.0383
 6615SOL    HW231482   1.152   1.576   9.218 -0.4512 -0.6762 -0.9723
 6616SOL     OW31483   4.546   3.870   5.665  0.4224  0.3758 -0.0899
 6616SOL    HW131484   4.497   3.792   5.640 -0.5188  0.7867  0.4764
 6616SOL    HW231485   4.632   3.829   5.670 -0.8282 -2.3645 -1.2111
 6617SOL     OW31486   1.536   3.790   0.216 -0.2774  0.4320 -0.3089
 6617SOL    HW131487   1.533   3.811   0.123 -0.1375  1.4714 -0.0735
 6617SOL    HW231488   1.598   3.717   0.211 -1.6030 -0.7803  0.5934
 6618SOL     OW31489   1.506   0.939  10.435 -0.2342 -0.3465 -0.6095
 6618SOL    HW131490   1.598   0.925  10.411 -0.0666  0.0348 -0.2030
 6618SOL    HW231491   1.516   1.032  10.415 -1.4088  0.1332  0.9846
 6619SOL     OW31492   2.755   1.344   1.277  0.2846  0.4920 -0.3145
 6619SOL    HW131493   2.733   1.433   1.304  3.3714  0.7364  1.4028
 6619SOL    HW231494   2.849   1.354   1.260  0.2569  0.3646 -0.5533
 6620SOL     OW31495   2.758   2.477   2.535  0.0008 -0.3233  0.4883
 6620SOL    HW131496   2.722   2.391   2.511 -0.3291 -0.4333  1.4039
 6620SOL    HW231497   2.801   2.456   2.618  1.8256  1.9509  0.1312
 6621SOL     OW31498   3.424   1.797   6.212  0.4053  0.0551 -0.3166
 6621SOL    HW131499   3.356   1.852   6.174 -1.0879 -0.9444  0.9163
 6621SOL    HW231500   3.396   1.784   6.303  1.2668  0.0876 -0.0474
 6622SOL     OW31501   0.653   3.699   4.478 -0.2362  0.5752 -0.0103
 6622SOL    HW131502   0.704   3.780   4.467 -0.8326  1.1339  1.3273
 6622SOL    HW231503   0.643   3.698   4.573 -0.2219 -0.4232 -0.0262
 6623SOL     OW31504   3.342   1.893  17.282  0.2006 -0.5631 -0.1329
 6623SOL    HW131505   3.421   1.858  17.240 -0.2242 -0.5656 -0.9378
 6623SOL    HW231506   3.276   1.824  17.278 -0.7452  0.3158  0.2877
 6624SOL     OW31507   2.251   4.616   1.023 -0.1159  0.0953 -0.3833
 6624SOL    HW131508   2.344   4.637   1.021  0.2364 -1.3839  0.7861
 6624SOL    HW231509   2.244   4.576   0.936 -0.6300 -0.3932 -0.1212
 6625SOL     OW31510   1.225   0.805  10.179  0.1879 -0.4370 -0.5475
 6625SOL    HW131511   1.305   0.832  10.224  0.6119 -0.4474 -1.2852
 6625SOL    HW231512   1.233   0.875  10.113  0.6821 -0.0458 -0.0792
 6626SOL     OW31513   2.049   3.559   9.252 -0.1859  0.3341 -0.1691
 6626SOL    HW131514   2.138   3.551   9.216 -0.4025 -0.2791 -0.5717
 6626SOL    HW231515   2.031   3.652   9.241  0.5122  0.3759 -1.0222
 6627SOL     OW31516   4.231   2.599  15.342 -0.7556 -0.1253 -0.1139
 6627SOL    HW131517   4.182   2.562  15.416  1.4557  0.7588  1.7897
 6627SOL    HW231518   4.217   2.531  15.276  1.0545 -1.3763  0.7887
 6628SOL     OW31519   1.146   2.493   4.866 -0.6797  0.0931 -0.1410
 6628SOL    HW131520   1.231   2.522   4.832 -1.5147  0.9819 -1.4603
 6628SOL    HW231521   1.168   2.422   4.927 -1.5904  0.5240  0.6819
 6629SOL     OW31522   0.928   2.229   6.015 -0.0316  0.0498 -0.8322
 6629SOL    HW131523   1.013   2.240   5.971  1.1939 -1.6869  1.1045
 6629SOL    HW231524   0.962   2.218   6.104  0.0865 -2.2974 -1.1467
 6630SOL     OW31525   0.944   3.474   6.518  0.6248 -0.0441 -0.1921
 6630SOL    HW131526   0.899   3.390   6.501  0.9349 -0.0360 -1.0432
 6630SOL    HW231527   0.886   3.531   6.466 -0.5618 -1.6071 -0.6047
 6631SOL     OW31528   4.302   3.841  15.752  0.2673 -0.3199 -0.6083
 6631SOL    HW131529   4.300   3.759  15.703  0.0087  0.0518 -1.2135
 6631SOL    HW231530   4.286   3.906  15.684 -1.6976 -0.5519 -0.3712
 6632SOL     OW31531   3.118   4.661   5.420 -0.4565  0.4791  0.4836
 6632SOL    HW131532   3.141   4.569   5.405 -0.2610  0.9137 -1.7713
 6632SOL    HW231533   3.045   4.671   5.359 -0.6140  0.3105  0.6439
 6633SOL     OW31534   3.104   0.857  11.756 -0.2135  0.0684 -0.4699
 6633SOL    HW131535   3.017   0.843  11.791 -0.0207  0.6236  0.2220
 6633SOL    HW231536   3.145   0.902  11.830  0.3437  0.3157 -0.9207
 6634SOL     OW31537   4.206   0.456   6.664 -0.8955 -0.0106  0.6555
 6634SOL    HW131538   4.262   0.532   6.682  0.3736 -0.4879 -1.3005
 6634SOL    HW231539   4.270   0.386   6.652 -0.3719  0.4447  0.7988
 6635SOL     OW31540   0.377   4.603   8.460  0.3507 -0.4622 -0.1826
 6635SOL    HW131541   0.379   4.512   8.489  1.4017 -0.1857  0.5863
 6635SOL    HW231542   0.318   4.599   8.385 -1.7835 -1.5525  1.5542
 6636SOL     OW31543   0.721   2.768   5.317  0.2574  0.4151  0.5022
 6636SOL    HW131544   0.713   2.743   5.225  1.4258  0.1810  0.4676
 6636SOL    HW231545   0.680   2.854   5.304  2.7056  1.3622 -0.8640
 6637SOL     OW31546   2.520   4.618   0.964 -0.3852  0.2743 -0.8647
 6637SOL    HW131547   2.573   4.646   1.038 -0.3807 -0.3535 -0.6377
 6637SOL    HW231548   2.579   4.626   0.889 -0.8054 -0.6145 -1.2848
 6638SOL     OW31549   2.066   2.924   2.682 -0.2147 -0.4597  0.3073
 6638SOL    HW131550   2.116   2.868   2.741  0.9163 -1.6229 -1.7598
 6638SOL    HW231551   1.975   2.908   2.706  0.3707  0.8349  3.3808
 6639SOL     OW31552   4.124   1.216   9.391 -0.3222 -0.4084  0.2528
 6639SOL    HW131553   4.100   1.155   9.322  0.0932  2.1176 -2.1311
 6639SOL    HW231554   4.136   1.147   9.457  0.2952  1.5395  2.2014
 6640SOL     OW31555   1.796   1.861   5.135  0.6779  0.2087  0.4423
 6640SOL    HW131556   1.843   1.864   5.052  0.2079 -0.6906  0.1370
 6640SOL    HW231557   1.791   1.765   5.135 -1.8362  0.3328 -1.7546
 6641SOL     OW31558   0.171   0.957   8.769  0.6230 -0.0236  0.6197
 6641SOL    HW131559   0.081   0.923   8.775  1.0476 -0.9593  1.6893
 6641SOL    HW231560   0.211   0.881   8.726 -0.0444  0.2984 -0.5714
 6642SOL     OW31561   2.457   4.602  10.299 -0.6580 -0.5350  0.5008
 6642SOL    HW131562   2.410   4.685  10.288  0.7050  0.2950  0.8972
 6642SOL    HW231563   2.434   4.571  10.387  2.2344 -0.6406  1.2324
 6643SOL     OW31564   1.724   0.040  15.687 -0.1370 -0.0967 -0.5039
 6643SOL    HW131565   1.685   0.074  15.767 -0.2753  0.9445 -1.0199
 6643SOL    HW231566   1.800   4.730  15.720  1.1270  0.4134 -2.6569
 6644SOL     OW31567   2.896   1.917   2.521  0.5148 -0.6666 -0.1718
 6644SOL    HW131568   2.865   1.834   2.487  1.1544  0.3599 -3.2317
 6644SOL    HW231569   2.974   1.884   2.565 -0.8617 -0.4070  2.5042
 6645SOL     OW31570   2.345   3.522   8.249 -0.8645  0.8467 -0.2436
 6645SOL    HW131571   2.400   3.511   8.326 -2.3410 -1.6844  0.4636
 6645SOL    HW231572   2.348   3.616   8.230  2.1587  0.1030 -3.5420
 6646SOL     OW31573   2.011   3.955   6.531  0.8542  0.3684  0.5902
 6646SOL    HW131574   1.944   3.893   6.561  1.8061 -1.3041 -0.7780
 6646SOL    HW231575   1.954   4.029   6.510 -1.8247 -1.9575 -0.1633
 6647SOL     OW31576   2.675   1.296   2.750 -0.6189  0.1563 -0.2068
 6647SOL    HW131577   2.619   1.369   2.724 -1.3607 -0.3332  0.0129
 6647SOL    HW231578   2.648   1.223   2.694 -2.9141 -0.8275  2.1696
 6648SOL     OW31579   3.186   3.140   4.125  0.2889  0.6344  0.1352
 6648SOL    HW131580   3.240   3.165   4.050 -0.1398  0.4296 -0.2424
 6648SOL    HW231581   3.165   3.227   4.158  2.4036  1.3067 -0.2674
 6649SOL     OW31582   0.989   3.491  11.285  0.0032 -0.2176  0.3119
 6649SOL    HW131583   0.959   3.402  11.266  0.7827 -0.7168  1.4027
 6649SOL    HW231584   1.053   3.498  11.215 -1.7310 -3.1694 -1.6097
 6650SOL     OW31585   3.075   1.742   7.412  0.5990  0.1856  0.2214
 6650SOL    HW131586   3.117   1.826   7.393 -2.4900  1.6983  0.2454
 6650SOL    HW231587   3.137   1.690   7.360  1.4342  1.1566  0.2457
 6651SOL     OW31588   2.579   0.655  14.720 -0.2816  0.6224  0.1407
 6651SOL    HW131589   2.581   0.582  14.782  0.5960 -0.9289 -1.7096
 6651SOL    HW231590   2.578   0.602  14.640  1.5286 -4.5844  3.5566
 6652SOL     OW31591   1.454   2.761   8.426  0.5257  0.1377 -0.3856
 6652SOL    HW131592   1.460   2.686   8.486  0.3293  0.3358 -0.1219
 6652SOL    HW231593   1.438   2.830   8.490 -0.2003  0.3390 -0.7889
 6653SOL     OW31594   1.401   4.015   5.076  0.1925  0.1241  0.1026
 6653SOL    HW131595   1.429   4.058   5.157  2.0571  0.4077 -0.6823
 6653SOL    HW231596   1.306   4.015   5.090  0.1689  2.0606  0.0063
 6654SOL     OW31597   1.697   3.893  13.373  0.3129  0.1153  0.4131
 6654SOL    HW131598   1.633   3.858  13.310  1.9310 -1.7046 -0.2146
 6654SOL    HW231599   1.763   3.824  13.368 -0.2076 -0.3082 -0.9111
 6655SOL     OW31600   4.604   0.270   7.761 -0.2284 -0.1492 -0.1170
 6655SOL    HW131601   4.634   0.220   7.837 -3.1006  1.0701  1.8148
 6655SOL    HW231602   4.682   0.280   7.707  0.9572 -0.1076  1.5787
 6656SOL     OW31603   4.285   0.690   4.606  0.2916 -0.2390 -0.0487
 6656SOL    HW131604   4.378   0.689   4.628  0.0435 -1.4833  0.9851
 6656SOL    HW231605   4.264   0.778   4.636 -2.4219 -0.9471  0.1645
 6657SOL     OW31606   1.868   0.252  15.861  0.3636 -0.3873 -0.5661
 6657SOL    HW131607   1.959   0.262  15.832  0.6071  3.0840  1.3624
 6657SOL    HW231608   1.824   0.310  15.799  1.0584  1.8169  1.0116
 6658SOL     OW31609   1.399   3.882   7.258  0.1762  0.3573 -0.0082
 6658SOL    HW131610   1.494   3.874   7.260  0.1681  0.4350  0.6767
 6658SOL    HW231611   1.372   3.804   7.211 -2.3020  1.2657 -0.1368
 6659SOL     OW31612   3.257   1.269  17.191  0.6416 -0.0401 -0.1401
 6659SOL    HW131613   3.313   1.338  17.158  0.0145 -1.1313 -3.5028
 6659SOL    HW231614   3.184   1.279  17.130  0.4414  0.3824  0.1669
 6660SOL     OW31615   0.457   4.052  14.023 -0.0221 -0.3006 -0.7470
 6660SOL    HW131616   0.420   3.980  14.073  1.3649  0.4408  1.3260
 6660SOL    HW231617   0.477   4.114  14.093 -1.3515  0.0775 -0.6887
 6661SOL     OW31618   3.446   4.225   6.898 -0.6293 -0.4923  0.1271
 6661SOL    HW131619   3.503   4.301   6.883 -1.4459  0.4471  1.8505
 6661SOL    HW231620   3.462   4.212   6.992 -1.6523 -1.7069  0.1245
 6662SOL     OW31621   1.037   4.146   3.508 -0.6035  0.3052 -0.4587
 6662SOL    HW131622   1.080   4.192   3.580 -0.1670  2.0562 -1.8592
 6662SOL    HW231623   1.060   4.200   3.433  1.0773  0.9282  0.5167
 6663SOL     OW31624   1.613   1.163   8.669 -0.3587  0.4621 -0.6694
 6663SOL    HW131625   1.676   1.198   8.732 -0.2963  0.0719 -0.5190
 6663SOL    HW231626   1.547   1.232   8.676 -0.2715  0.6350 -1.5174
 6664SOL     OW31627   0.583   0.858   9.392  0.5196 -0.6216 -0.0680
 6664SOL    HW131628   0.549   0.942   9.422 -2.3994 -1.3708 -1.2841
 6664SOL    HW231629   0.512   0.823   9.338  0.8059  2.1917 -2.2801
 6665SOL     OW31630   0.508   3.661   9.061  0.3257  0.0472  0.2252
 6665SOL    HW131631   0.556   3.624   8.986  1.9785 -2.1490  2.3801
 6665SOL    HW231632   0.501   3.752   9.032  0.0535  0.0165  0.1965
 6666SOL     OW31633   0.214   1.608  15.063 -0.1578 -0.2206 -0.4722
 6666SOL    HW131634   0.139   1.668  15.058  1.5429  1.7398 -2.5866
 6666SOL    HW231635   0.202   1.572  15.151  0.7992 -0.8880 -0.6137
 6667SOL     OW31636   0.362   0.980   5.140 -0.6455 -0.0018  0.2315
 6667SOL    HW131637   0.335   1.071   5.130 -1.9749 -0.3168  0.9145
 6667SOL    HW231638   0.390   0.957   5.051 -2.1558 -0.4332 -0.1433
 6668SOL     OW31639   1.834   0.778   2.038 -0.1002 -0.0723 -0.2608
 6668SOL    HW131640   1.740   0.764   2.044  0.0820 -1.4492 -0.5874
 6668SOL    HW231641   1.877   0.703   2.079  0.3903  0.1972 -0.2850
 6669SOL     OW31642   0.034   2.233   0.401 -0.0740 -0.0966  0.1594
 6669SOL    HW131643   0.085   2.296   0.349 -0.6731 -0.6860 -1.1581
 6669SOL    HW231644   4.688   2.240   0.353 -1.6099  0.0310  2.8793
 6670SOL     OW31645   2.647   2.210   3.754 -0.2916 -0.2472  0.7583
 6670SOL    HW131646   2.737   2.177   3.756 -0.4301 -0.8487 -2.8283
 6670SOL    HW231647   2.633   2.199   3.848 -3.3058  1.9534  0.5748
 6671SOL     OW31648   2.287   4.636   6.717  0.6382 -0.3263 -0.3477
 6671SOL    HW131649   2.304   4.571   6.649  1.6565 -1.0106  0.5735
 6671SOL    HW231650   2.322   4.719   6.683 -0.1752  0.6030  1.0735
 6672SOL     OW31651   1.028   4.701   9.231  0.1524  0.7363 -0.1511
 6672SOL    HW131652   0.973   4.688   9.308 -0.2441  3.2964 -0.0054
 6672SOL    HW231653   0.988   4.633   9.177  1.0027  0.2388 -0.1574
 6673SOL     OW31654   0.252   3.316   9.556 -0.2133  0.3849  0.9140
 6673SOL    HW131655   0.173   3.278   9.518  0.5546 -0.3122  0.0356
 6673SOL    HW231656   0.246   3.407   9.524 -1.1345 -0.6165 -1.7779
 6674SOL     OW31657   1.951   3.739  15.258  0.0522  0.3097  0.3043
 6674SOL    HW131658   1.893   3.781  15.321  1.1564 -0.7528  2.0281
 6674SOL    HW231659   1.932   3.646  15.274 -0.4289  0.3065 -0.2458
 6675SOL     OW31660   0.402   1.355   4.908  0.0610  0.0300 -0.1669
 6675SOL    HW131661   0.370   1.317   4.826 -0.0775  1.9295 -0.9932
 6675SOL    HW231662   0.428   1.439   4.872  2.8311 -0.7017  0.1284
 6676SOL     OW31663   2.484   3.104   7.617  0.2055  0.2532  0.1886
 6676SOL    HW131664   2.425   3.176   7.594  0.6614  0.5641 -0.0083
 6676SOL    HW231665   2.436   3.029   7.581 -0.4113  1.7037 -2.0008
 6677SOL     OW31666   3.554   1.009   0.557 -0.4650 -0.1812  0.4734
 6677SOL    HW131667   3.496   1.001   0.632  2.6236 -1.4914  2.7011
 6677SOL    HW231668   3.515   1.092   0.531  0.5026  0.4227  0.9744
 6678SOL     OW31669   3.015   2.602   5.397  0.0265 -0.0942  0.4363
 6678SOL    HW131670   3.083   2.661   5.367 -1.5933  1.5384  0.0063
 6678SOL    HW231671   2.962   2.584   5.320 -0.5296 -0.1796  0.8428
 6679SOL     OW31672   2.503   1.416   3.722  0.1887  0.4854  0.4349
 6679SOL    HW131673   2.480   1.474   3.649  0.7608 -0.8307 -0.7815
 6679SOL    HW231674   2.581   1.462   3.754 -0.0334  0.3996  1.1034
 6680SOL     OW31675   0.244   3.703   4.640 -0.3029 -0.3950  0.0697
 6680SOL    HW131676   0.310   3.635   4.652  0.4667  0.5223  1.1288
 6680SOL    HW231677   0.297   3.783   4.631  0.7494 -0.8398  2.2143
 6681SOL     OW31678   2.198   4.065   4.386 -0.3365  0.3712 -0.2392
 6681SOL    HW131679   2.144   3.996   4.423 -0.2215 -1.0024 -2.6410
 6681SOL    HW231680   2.148   4.113   4.320 -0.2711  0.1007 -0.4829
 6682SOL     OW31681   3.885   0.563   3.744  0.0927  0.4181  0.0613
 6682SOL    HW131682   3.897   0.658   3.744  1.0210  0.3044  0.5857
 6682SOL    HW231683   3.799   0.561   3.785 -0.5204 -2.6600 -1.3429
 6683SOL     OW31684   2.784   1.856   4.863 -0.1439  0.5313 -0.1649
 6683SOL    HW131685   2.725   1.858   4.938  1.4557  0.6143  1.0875
 6683SOL    HW231686   2.859   1.906   4.895 -0.6838  0.2470  1.5549
 6684SOL     OW31687   4.695   4.589   8.094 -0.5014  0.1712  0.4674
 6684SOL    HW131688   4.634   4.529   8.052 -0.9452 -0.1214  1.5392
 6684SOL    HW231689   0.039   4.556   8.055 -0.0592 -0.3915  1.8646
 6685SOL     OW31690   1.453   4.345   7.191 -0.1512 -0.5396  0.1903
 6685SOL    HW131691   1.510   4.299   7.253 -2.1191 -2.2426  0.7089
 6685SOL    HW231692   1.447   4.434   7.226 -0.3460 -0.5570  0.2002
 6686SOL     OW31693   1.732   0.884  13.901  0.0418  0.0754 -0.2069
 6686SOL    HW131694   1.767   0.973  13.898  1.1042 -0.3294  0.4219
 6686SOL    HW231695   1.653   0.889  13.955  0.0623  1.1408 -0.2717
 6687SOL     OW31696   4.171   4.100   4.958  0.9163 -0.5067  0.3584
 6687SOL    HW131697   4.267   4.095   4.962  0.8917  0.0202  1.4706
 6687SOL    HW231698   4.162   4.142   4.873  0.0120 -1.2652  0.0781
 6688SOL     OW31699   2.142   1.974  12.609 -0.1648  0.8740  0.4119
 6688SOL    HW131700   2.138   1.992  12.515  4.1538  0.6541  0.1737
 6688SOL    HW231701   2.066   2.025  12.636 -1.3288 -0.4382 -0.3725
 6689SOL     OW31702   0.692   3.085   2.743  0.3259  0.2862  0.1877
 6689SOL    HW131703   0.753   3.097   2.671 -0.3421 -0.1890 -0.4542
 6689SOL    HW231704   0.674   2.991   2.745 -1.4165  0.5941 -1.3250
 6690SOL     OW31705   3.546   4.436   0.785 -0.1443  0.6464  0.1175
 6690SOL    HW131706   3.487   4.467   0.716 -0.4335 -0.5500 -0.1737
 6690SOL    HW231707   3.575   4.515   0.830  0.4261  0.1560  0.6027
 6691SOL     OW31708   0.407   1.065   5.834  0.4669 -0.0209  0.1432
 6691SOL    HW131709   0.369   1.083   5.748 -3.1145 -1.7944  1.3751
 6691SOL    HW231710   0.336   1.012   5.869  0.2582 -1.0703 -1.9016
 6692SOL     OW31711   2.973   0.011   5.630  0.4706 -0.5593  0.4294
 6692SOL    HW131712   2.993   4.694   5.707 -2.5536 -0.3986  1.3498
 6692SOL    HW231713   3.033   4.710   5.566  0.5758 -3.3313  2.1627
 6693SOL     OW31714   2.023   3.708   6.285  0.2927  0.5365 -0.0562
 6693SOL    HW131715   2.028   3.617   6.314  0.1304  0.6022  0.1831
 6693SOL    HW231716   2.015   3.746   6.373  3.4326  1.5991 -0.2351
 6694SOL     OW31717   0.392   2.623   7.680  0.0201 -0.6405  0.0730
 6694SOL    HW131718   0.328   2.690   7.654  0.1252 -0.1023  1.2035
 6694SOL    HW231719   0.467   2.682   7.682 -0.0031 -0.6125  0.1228
 6695SOL     OW31720   0.904   1.295   7.524  0.1366 -0.0934 -0.0323
 6695SOL    HW131721   0.867   1.233   7.587 -2.3428  3.5584  2.0873
 6695SOL    HW231722   0.835   1.361   7.521 -1.0762 -1.3306  0.7581
 6696SOL     OW31723   3.285   4.122   5.372  0.2939 -0.1355 -0.0711
 6696SOL    HW131724   3.373   4.160   5.374  0.4709 -0.6526  1.8583
 6696SOL    HW231725   3.279   4.061   5.445 -1.2824  1.7944  1.4002
 6697SOL     OW31726   4.330   3.120  15.279  0.3778  0.6584  0.4205
 6697SOL    HW131727   4.404   3.093  15.333 -0.0285 -1.3403 -0.0390
 6697SOL    HW231728   4.280   3.039  15.291  2.9133 -0.7322  1.4920
 6698SOL     OW31729   1.363   3.065   3.919  0.4940 -0.3350 -0.2618
 6698SOL    HW131730   1.320   3.146   3.949  0.9815 -0.1050 -0.1764
 6698SOL    HW231731   1.356   3.021   4.004 -1.6605 -2.1606 -1.4046
 6699SOL     OW31732   4.733   3.548  16.764  0.3861  0.0304 -0.0444
 6699SOL    HW131733   4.689   3.621  16.721 -1.8973 -2.4345 -1.8593
 6699SOL    HW231734   4.660   3.492  16.790 -0.8739  2.1280  0.8541
 6700SOL     OW31735   3.491   3.371   9.219 -0.0469 -0.3550  0.0478
 6700SOL    HW131736   3.584   3.353   9.208 -0.1088 -1.7095  1.7044
 6700SOL    HW231737   3.460   3.350   9.131 -0.0941 -0.4642  0.0921
 6701SOL     OW31738   0.059   0.506   9.137  0.1018  0.2789 -0.2510
 6701SOL    HW131739   0.106   0.488   9.218  0.1593  1.8118  0.0578
 6701SOL    HW231740   0.138   0.492   9.085  0.4303  0.1155  0.2967
 6702SOL     OW31741   4.032   2.365   9.485  0.4889  0.1870 -0.5766
 6702SOL    HW131742   4.058   2.274   9.497  0.2862 -0.1820 -2.9741
 6702SOL    HW231743   3.961   2.383   9.547 -2.6853 -1.6018 -3.7055
 6703SOL     OW31744   1.527   1.587  10.440 -0.1571 -0.1999  0.3849
 6703SOL    HW131745   1.490   1.508  10.479  0.1212 -0.8168 -0.5894
 6703SOL    HW231746   1.517   1.643  10.517  0.9187  1.7477 -0.8683
 6704SOL     OW31747   1.409   4.026   7.489  0.3737 -0.6864 -0.0077
 6704SOL    HW131748   1.381   3.958   7.428  1.4339  0.3643 -1.6986
 6704SOL    HW231749   1.497   4.046   7.457  1.1483 -2.1219  1.2470
 6705SOL     OW31750   3.031   2.931   8.139 -0.5861 -0.0512 -0.2033
 6705SOL    HW131751   3.060   2.992   8.206  2.8102 -0.9534 -0.8466
 6705SOL    HW231752   3.036   2.977   8.055  1.9420 -0.3346 -0.2207
 6706SOL     OW31753   0.713   1.261   8.638 -0.5451  0.0393  0.2863
 6706SOL    HW131754   0.787   1.312   8.605 -0.0157 -0.1939  1.1281
 6706SOL    HW231755   0.740   1.170   8.627  0.4729  0.3289  0.4275
 6707SOL     OW31756   2.993   2.323  11.155 -0.0139 -0.2361 -0.2803
 6707SOL    HW131757   3.030   2.270  11.227  0.5352  0.0689 -0.3379
 6707SOL    HW231758   2.915   2.356  11.199 -0.7712 -0.8194 -1.1931
 6708SOL     OW31759   4.224   4.608  11.255  0.1965 -0.0253 -0.3176
 6708SOL    HW131760   4.225   4.521  11.216  0.6218 -1.0432  1.9607
 6708SOL    HW231761   4.312   4.645  11.249  0.9420 -1.4547  1.6765
 6709SOL     OW31762   1.987   0.073   0.823  0.0250  0.0953 -0.1578
 6709SOL    HW131763   1.914   0.097   0.766  1.8237  0.7829 -2.1615
 6709SOL    HW231764   2.063   0.122   0.791  1.6435 -2.7662 -0.6706
 6710SOL     OW31765   2.967   2.298   0.924 -0.3054 -0.4974  0.3286
 6710SOL    HW131766   2.873   2.297   0.906 -0.3614 -2.1622  0.7691
 6710SOL    HW231767   2.996   2.218   0.881  0.2296 -0.3301  0.3758
 6711SOL     OW31768   1.759   3.501   7.580  0.2652  0.6592 -0.6172
 6711SOL    HW131769   1.764   3.417   7.625 -2.5562  1.5971  1.3863
 6711SOL    HW231770   1.806   3.556   7.642  1.9199 -0.2550 -1.0515
 6712SOL     OW31771   1.277   2.213  16.921 -0.1846 -0.2438  0.3067
 6712SOL    HW131772   1.207   2.151  16.901 -2.7388  2.7061  0.3203
 6712SOL    HW231773   1.348   2.182  16.864  0.6308 -3.2125  2.9193
 6713SOL     OW31774   3.545   4.116  14.434  0.1281  0.6263 -0.3285
 6713SOL    HW131775   3.500   4.140  14.353 -0.7777 -2.1964 -0.6597
 6713SOL    HW231776   3.577   4.197  14.473  0.3478  0.2549  0.2649
 6714SOL     OW31777   1.966   4.251   9.594 -0.1913 -0.0353 -0.2389
 6714SOL    HW131778   2.012   4.168   9.609 -0.2371  0.0745  0.4932
 6714SOL    HW231779   2.039   4.300   9.556 -0.6379  0.2635 -0.7064
 6715SOL     OW31780   4.201   1.580   2.124 -0.2685 -0.0970 -0.5222
 6715SOL    HW131781   4.196   1.630   2.205  3.0093 -0.7228  0.0528
 6715SOL    HW231782   4.199   1.655   2.064  1.3262  0.4754  0.1569
 6716SOL     OW31783   3.105   0.710   1.024 -0.0394 -0.3732  0.1992
 6716SOL    HW131784   3.122   0.646   0.955  1.0590 -0.1341  0.2491
 6716SOL    HW231785   3.012   0.719   1.004 -0.3590  0.5065  2.0654
 6717SOL     OW31786   2.364   2.496  16.570  0.0275  0.3642 -0.7708
 6717SOL    HW131787   2.403   2.562  16.512  1.8027  1.1826  1.3643
 6717SOL    HW231788   2.291   2.463  16.517  0.1470  1.0180 -1.3403
 6718SOL     OW31789   2.492   2.827   7.417 -0.4502  0.1496  0.0730
 6718SOL    HW131790   2.560   2.813   7.352 -1.5875  0.7313 -1.2281
 6718SOL    HW231791   2.427   2.766   7.382 -0.6118  0.7371 -0.6306
 6719SOL     OW31792   2.409   2.447   6.278 -0.6210  0.3264 -0.0765
 6719SOL    HW131793   2.426   2.529   6.325 -1.6035 -0.3299  1.4305
 6719SOL    HW231794   2.365   2.405   6.353  0.6295 -0.0896  0.4325
 6720SOL     OW31795   3.784   1.703   7.621 -0.9027  0.3587  0.1509
 6720SOL    HW131796   3.722   1.677   7.554 -0.4584 -0.6953  0.1402
 6720SOL    HW231797   3.783   1.634   7.688 -1.0505 -1.6130 -1.8953
 6721SOL     OW31798   3.360   3.817   4.256 -0.0277  0.0930 -0.3947
 6721SOL    HW131799   3.303   3.893   4.270 -0.6409 -0.2874 -0.8052
 6721SOL    HW231800   3.434   3.834   4.315 -2.3981  1.2086  2.2759
 6722SOL     OW31801   4.288   2.848   4.721  0.5851  0.4497  0.3847
 6722SOL    HW131802   4.214   2.865   4.779 -1.2256 -1.6212 -1.2790
 6722SOL    HW231803   4.272   2.754   4.713  1.0732  0.4541 -0.7002
 6723SOL     OW31804   4.187   2.634  10.284  0.1706 -0.1638  0.3692
 6723SOL    HW131805   4.162   2.652  10.193  0.9273  1.3772  0.4801
 6723SOL    HW231806   4.112   2.685  10.315  1.0040  0.6957  0.9367
 6724SOL     OW31807   3.110   0.432   5.226 -0.1614  0.1522 -0.3240
 6724SOL    HW131808   3.138   0.466   5.312 -2.2013  1.0481 -0.0171
 6724SOL    HW231809   3.061   0.507   5.194  1.4113  1.1552 -0.3728
 6725SOL     OW31810   4.059   3.690   0.133 -0.4359  0.1865  0.3014
 6725SOL    HW131811   4.125   3.649   0.188  1.4784  0.8801 -1.4655
 6725SOL    HW231812   4.011   3.612   0.104 -0.7744 -0.2391  2.0055
 6726SOL     OW31813   2.398   4.203  15.964  0.0913  0.6996 -0.3663
 6726SOL    HW131814   2.411   4.114  15.931  0.2368  1.1793 -1.6139
 6726SOL    HW231815   2.357   4.187  16.049  0.9509  0.2289 -0.0405
 6727SOL     OW31816   1.317   1.455   1.672 -0.3636  0.2280 -0.4321
 6727SOL    HW131817   1.361   1.387   1.724 -0.0319  0.0798 -0.9048
 6727SOL    HW231818   1.352   1.421   1.590 -0.5866  1.2050 -0.9263
 6728SOL     OW31819   1.071   4.203   0.132 -0.0324 -0.4056  0.0855
 6728SOL    HW131820   1.112   4.117   0.125 -0.2280 -0.2880 -2.8356
 6728SOL    HW231821   1.135   4.248   0.187 -2.5641  1.6826  1.3099
 6729SOL     OW31822   0.254   3.597   6.873  0.0064 -0.2892 -0.1120
 6729SOL    HW131823   0.197   3.524   6.897 -2.5845  1.2666 -1.4973
 6729SOL    HW231824   0.290   3.609   6.961  0.8656  0.4434 -0.5606
 6730SOL     OW31825   2.446   0.912   5.707  0.1394  0.2402  0.9137
 6730SOL    HW131826   2.398   0.987   5.672  2.6711  1.3688 -0.1541
 6730SOL    HW231827   2.383   0.841   5.705 -0.5546  0.7925  2.8933
 6731SOL     OW31828   0.805   2.718   2.099  0.0701  0.3183 -1.0094
 6731SOL    HW131829   0.809   2.749   2.190  4.2107  0.5412 -1.2513
 6731SOL    HW231830   0.831   2.790   2.041  1.6181  1.3118  0.9220
 6732SOL     OW31831   0.085   0.911   2.891  0.0141 -0.1736  0.3471
 6732SOL    HW131832   0.108   0.966   2.816 -0.8937  1.5443  1.3286
 6732SOL    HW231833   0.068   0.835   2.835 -1.0353 -0.9101  1.6730
 6733SOL     OW31834   0.065   2.036   4.527  0.1617  0.4336  0.1786
 6733SOL    HW131835   4.731   2.009   4.584  0.5271 -2.6702 -0.8253
 6733SOL    HW231836   0.104   2.098   4.589  0.0698  0.0288  0.6423
 6734SOL     OW31837   4.578   3.560   3.741  0.0642  0.0724  0.0433
 6734SOL    HW131838   4.594   3.475   3.781  2.3566 -0.2187 -1.4870
 6734SOL    HW231839   4.567   3.616   3.817 -0.1071 -0.3109  0.3025
 6735SOL     OW31840   0.622   0.208   4.943  0.3549  0.1149  0.0230
 6735SOL    HW131841   0.530   0.227   4.924  0.4837 -0.6622 -1.3581
 6735SOL    HW231842   0.670   0.263   4.881  1.8261 -0.8305  0.3292
 6736SOL     OW31843   1.213   0.186   6.628 -0.0804 -0.2371 -0.1443
 6736SOL    HW131844   1.216   0.274   6.590  1.3805  0.2460  1.0992
 6736SOL    HW231845   1.122   0.164   6.609 -0.1456 -1.4082  1.4700
 6737SOL     OW31846   1.673   1.335  11.891  0.2581  0.2113 -0.5583
 6737SOL    HW131847   1.754   1.342  11.840  0.9204 -0.6718  0.3505
 6737SOL    HW231848   1.690   1.399  11.961  0.3469 -1.2655  0.7667
 6738SOL     OW31849   4.515   0.475   6.862 -0.1581  0.0801 -0.2666
 6738SOL    HW131850   4.527   0.444   6.772  1.4660 -0.0091 -0.0263
 6738SOL    HW231851   4.571   0.413   6.909 -1.1087 -0.6673 -0.1287
 6739SOL     OW31852   3.316   3.901   8.158 -0.0854 -0.0129 -0.3178
 6739SOL    HW131853   3.240   3.861   8.202  1.3783 -1.6195  0.7675
 6739SOL    HW231854   3.278   3.894   8.070 -1.8089  0.5256  0.3649
 6740SOL     OW31855   4.353   2.307  12.645 -0.1119  0.0247  0.0338
 6740SOL    HW131856   4.396   2.387  12.618 -1.1327  0.6696  0.3160
 6740SOL    HW231857   4.286   2.336  12.706 -0.1873  0.1666 -0.1153
 6741SOL     OW31858   3.449   1.638   9.033 -0.3863 -0.2300 -0.3124
 6741SOL    HW131859   3.474   1.634   9.125  1.8537  1.9873 -0.8140
 6741SOL    HW231860   3.513   1.699   8.996  0.8760 -0.5169  1.4041
 6742SOL     OW31861   4.385   3.715   6.616  0.5624 -0.1381  0.2826
 6742SOL    HW131862   4.470   3.753   6.638 -0.2410  1.4210  0.6332
 6742SOL    HW231863   4.340   3.798   6.626 -0.2166 -0.1940 -2.7246
 6743SOL     OW31864   0.936   4.341   3.089  0.2872 -0.1457  0.5297
 6743SOL    HW131865   0.889   4.268   3.049  1.8905 -0.6725 -0.4006
 6743SOL    HW231866   1.027   4.315   3.072  0.6017  2.2575 -1.3896
 6744SOL     OW31867   1.190   1.884   6.735 -0.0178  0.0768  0.3536
 6744SOL    HW131868   1.262   1.823   6.753 -0.3739 -0.6389 -0.6513
 6744SOL    HW231869   1.226   1.943   6.668  1.6698  1.1906  2.2157
 6745SOL     OW31870   3.509   4.420  17.732 -0.2502 -0.2663  0.0510
 6745SOL    HW131871   3.578   4.368  17.691 -0.2447 -0.2063 -0.0166
 6745SOL    HW231872   3.552   4.505  17.746 -0.4162 -0.3646  1.1154
 6746SOL     OW31873   2.475   0.834  10.245  0.1574  0.0173  0.3290
 6746SOL    HW131874   2.386   0.823  10.211 -0.0110 -0.6706  0.9977
 6746SOL    HW231875   2.529   0.838  10.166 -0.7054  0.7461 -0.2225
 6747SOL     OW31876   3.444   3.737   2.828  0.3518  0.4092 -0.7875
 6747SOL    HW131877   3.372   3.675   2.841 -1.0016  1.4612 -3.1602
 6747SOL    HW231878   3.423   3.779   2.744 -0.8112 -0.0226 -0.7115
 6748SOL     OW31879   1.312   3.831  15.244 -0.8096  0.8422 -0.3589
 6748SOL    HW131880   1.302   3.794  15.332  0.1647  0.2398 -0.5007
 6748SOL    HW231881   1.387   3.778  15.217 -0.6251  0.5300  0.7489
 6749SOL     OW31882   3.007   0.277   4.233 -0.1433  0.1158  0.0643
 6749SOL    HW131883   3.082   0.253   4.178  0.0289 -1.0787  0.8330
 6749SOL    HW231884   3.052   0.248   4.313 -0.3340  1.7606  0.7878
 6750SOL     OW31885   3.047   3.584   6.168 -0.4795  0.2815 -0.1963
 6750SOL    HW131886   3.110   3.513   6.176  0.2963  0.9910  0.0354
 6750SOL    HW231887   3.060   3.609   6.077 -0.6938  0.1099 -0.2741
 6751SOL     OW31888   1.330   3.038   4.608  0.0179 -0.0348  0.0638
 6751SOL    HW131889   1.306   3.037   4.701 -1.0073  0.0271 -0.2030
 6751SOL    HW231890   1.349   3.132   4.599 -1.4895  0.3881  1.3273
 6752SOL     OW31891   2.460   2.641   8.826  0.3040  0.3311  0.1862
 6752SOL    HW131892   2.540   2.590   8.841 -0.0694  0.4313  2.5132
 6752SOL    HW231893   2.413   2.626   8.907 -1.6956  0.5886 -0.9381
 6753SOL     OW31894   1.652   4.723   4.952 -0.0824  0.0078  0.4775
 6753SOL    HW131895   1.735   0.032   4.942  0.6639 -0.7241  3.2631
 6753SOL    HW231896   1.647   4.693   4.862 -1.2504  0.0139  0.5377
 6754SOL     OW31897   1.440   3.511   9.001 -0.2294 -0.1216  0.1362
 6754SOL    HW131898   1.470   3.550   9.083 -1.8703 -0.4161  0.8919
 6754SOL    HW231899   1.486   3.573   8.944 -0.0010 -1.4435 -1.1294
 6755SOL     OW31900   3.959   4.711  17.376  0.0875  0.6468 -0.3213
 6755SOL    HW131901   3.900   0.046  17.353  0.0576  1.4085  2.0965
 6755SOL    HW231902   3.895   4.641  17.383  0.1995  0.2491 -3.2482
 6756SOL     OW31903   2.153   1.394   8.546  0.5612  0.4405  0.1822
 6756SOL    HW131904   2.059   1.394   8.528  0.9060  2.1993 -1.6441
 6756SOL    HW231905   2.185   1.308   8.520 -0.1558  0.1667  0.2302
 6757SOL     OW31906   2.197   2.676  10.889 -0.4312  0.9287  0.3708
 6757SOL    HW131907   2.137   2.615  10.932  0.1846  0.5790  0.7395
 6757SOL    HW231908   2.153   2.708  10.810  0.0494  2.4830  0.7434
 6758SOL     OW31909   4.704   4.550   8.511  0.8492 -0.6845 -0.2032
 6758SOL    HW131910   4.718   4.596   8.594  1.0185  0.2469 -0.7430
 6758SOL    HW231911   4.611   4.567   8.492  0.6208 -0.6284  0.9264
 6759SOL     OW31912   1.424   1.540   8.530  0.2759 -0.2186  0.0305
 6759SOL    HW131913   1.439   1.466   8.472  1.8311 -0.5835  0.8925
 6759SOL    HW231914   1.384   1.611   8.480  0.4747 -2.5172 -3.3423
 6760SOL     OW31915   2.025   3.832   9.189 -0.7197  0.0456  0.0751
 6760SOL    HW131916   2.114   3.849   9.157 -0.5980 -0.9147 -0.1117
 6760SOL    HW231917   2.037   3.863   9.278  0.2938 -1.0882  0.3333
 6761SOL     OW31918   1.989   3.095   1.586  0.5098  0.6681  0.1026
 6761SOL    HW131919   2.004   3.116   1.493 -2.4905  1.7533 -0.1464
 6761SOL    HW231920   1.896   3.075   1.575  0.6296 -1.2142  2.6568
 6762SOL     OW31921   2.197   1.927   7.369  0.3275 -0.1388 -0.1579
 6762SOL    HW131922   2.142   2.003   7.351 -0.5811 -0.3415  1.7864
 6762SOL    HW231923   2.140   1.857   7.339 -1.1853  1.0740 -0.1144
 6763SOL     OW31924   4.698   2.999   4.515  0.6346  0.3129 -0.1713
 6763SOL    HW131925   0.038   3.055   4.519  0.1379  1.0172 -0.4648
 6763SOL    HW231926   4.731   2.912   4.539  1.1269  0.5708  0.0806
 6764SOL     OW31927   1.453   3.448   9.598  0.3571  0.0230 -0.1856
 6764SOL    HW131928   1.445   3.382   9.529 -1.0439 -2.0501  1.9525
 6764SOL    HW231929   1.539   3.477   9.568  1.2687 -1.9529  0.4797
 6765SOL     OW31930   1.391   2.014  12.516 -0.4699  0.0482 -0.5584
 6765SOL    HW131931   1.410   2.093  12.567  0.1636  0.3816 -1.3058
 6765SOL    HW231932   1.412   2.046  12.429 -0.5891 -0.6478 -0.8467
 6766SOL     OW31933   0.635   1.976  13.914  0.2602  0.3602  0.4217
 6766SOL    HW131934   0.669   1.913  13.977  1.0424  0.5152  0.1627
 6766SOL    HW231935   0.718   2.016  13.887  1.1014 -0.3118  2.0044
 6767SOL     OW31936   2.622   0.385  10.696 -0.4446  0.2430  0.5415
 6767SOL    HW131937   2.710   0.347  10.702 -0.6095  0.2442  2.9029
 6767SOL    HW231938   2.583   0.299  10.682 -0.8998  0.7834 -1.5021
 6768SOL     OW31939   4.176   0.565   5.919 -0.2100 -0.4707 -0.3411
 6768SOL    HW131940   4.217   0.594   6.000 -0.1335 -0.1863 -0.4837
 6768SOL    HW231941   4.249   0.578   5.859  0.0130  1.8986  0.4372
 6769SOL     OW31942   2.207   1.269  16.371 -0.6469 -0.1301  0.1816
 6769SOL    HW131943   2.112   1.273  16.376 -0.7526 -0.4120 -1.6719
 6769SOL    HW231944   2.239   1.260  16.461 -0.1706 -0.1072  0.0135
 6770SOL     OW31945   2.032   2.259  10.903  0.5272  1.1757  0.2743
 6770SOL    HW131946   2.091   2.188  10.926 -0.6984 -0.0220 -0.2144
 6770SOL    HW231947   2.005   2.216  10.821 -0.5562 -1.4297  1.9771
 6771SOL     OW31948   4.578   1.051  10.332 -0.5167 -0.8713  0.3817
 6771SOL    HW131949   4.490   1.056  10.294 -0.4706  0.3858  0.4490
 6771SOL    HW231950   4.560   1.012  10.417  1.8841 -0.4326  1.1015
 6772SOL     OW31951   4.387   2.961   2.668  0.2747  0.4752  0.6363
 6772SOL    HW131952   4.428   2.968   2.582  1.6786 -1.5325  1.1233
 6772SOL    HW231953   4.317   3.023   2.652 -0.4259 -1.0778 -2.3193
 6773SOL     OW31954   4.077   4.716   6.273 -0.2541  0.1317 -0.1901
 6773SOL    HW131955   4.118   4.735   6.188 -1.4173 -0.5163 -0.8966
 6773SOL    HW231956   4.150   4.679   6.322 -0.7233 -0.8607 -0.2417
 6774SOL     OW31957   1.606   0.154   2.986  0.1580 -0.3334  0.3789
 6774SOL    HW131958   1.607   0.077   2.929  2.2329  0.6298 -0.9212
 6774SOL    HW231959   1.573   0.111   3.065 -0.7250 -0.7133 -0.1988
 6775SOL     OW31960   0.686   4.330   7.679  0.6678 -0.0122  0.1190
 6775SOL    HW131961   0.688   4.367   7.591 -3.7891  0.1592  0.1004
 6775SOL    HW231962   0.597   4.296   7.671 -0.0255  1.6652  0.8214
 6776SOL     OW31963   3.678   1.788   9.188 -0.0863  0.4471  0.4561
 6776SOL    HW131964   3.620   1.812   9.261  0.4553  0.3556  0.9198
 6776SOL    HW231965   3.751   1.849   9.191 -0.5082  1.0285 -1.2558
 6777SOL     OW31966   4.236   0.673  13.473  0.4295 -0.3647  0.3845
 6777SOL    HW131967   4.200   0.761  13.487 -0.0742 -0.9388  2.6799
 6777SOL    HW231968   4.286   0.682  13.392 -1.1289 -0.7587 -0.6206
 6778SOL     OW31969   1.219   2.607   3.470  0.8995  0.2833  0.7281
 6778SOL    HW131970   1.141   2.555   3.453  1.5286 -0.8530  1.3365
 6778SOL    HW231971   1.290   2.544   3.462  0.4096  0.0088 -1.5554
 6779SOL     OW31972   1.149   4.266   8.551  0.0061  0.5239  0.0710
 6779SOL    HW131973   1.217   4.213   8.594  0.6137  0.6052 -0.7876
 6779SOL    HW231974   1.169   4.357   8.572 -0.6210  0.7760 -0.4391
 6780SOL     OW31975   3.334   4.001   1.839  0.2389 -0.3154  0.3491
 6780SOL    HW131976   3.320   4.057   1.762  2.7606 -0.0172  0.1063
 6780SOL    HW231977   3.428   3.984   1.842 -0.2996 -3.4045 -0.8514
 6781SOL     OW31978   4.374   0.651   7.501  0.5401 -0.5118 -0.9276
 6781SOL    HW131979   4.373   0.617   7.591  1.1424  1.6549 -0.1262
 6781SOL    HW231980   4.448   0.604   7.464  1.4048 -0.5149  0.7929
 6782SOL     OW31981   4.064   3.591   7.341  0.3949 -0.4549 -0.4167
 6782SOL    HW131982   4.068   3.682   7.312  0.5639 -0.6526 -1.0218
 6782SOL    HW231983   4.120   3.587   7.419  1.1244 -1.2602 -0.9849
 6783SOL     OW31984   4.013   1.183   6.205  0.4973 -0.4587 -0.1322
 6783SOL    HW131985   4.090   1.130   6.183  0.1492 -1.1091  0.2036
 6783SOL    HW231986   4.015   1.201   6.299 -1.1838  0.9571 -0.3751
 6784SOL     OW31987   0.772   3.338   2.100  0.4343 -0.3273 -0.5304
 6784SOL    HW131988   0.818   3.291   2.170  1.3738  0.7475 -0.4243
 6784SOL    HW231989   0.832   3.410   2.083  0.3954 -0.1032  0.2904
 6785SOL     OW31990   2.940   2.243   3.540  0.2299  0.4989 -0.2911
 6785SOL    HW131991   2.926   2.222   3.632 -0.9983  0.4119 -0.4980
 6785SOL    HW231992   2.922   2.159   3.496  1.2973 -0.6888  1.5336
 6786SOL     OW31993   1.877   2.709   1.761  0.2132 -0.1765 -0.1122
 6786SOL    HW131994   1.950   2.647   1.762 -0.3991 -0.8822  0.8814
 6786SOL    HW231995   1.808   2.662   1.713  1.9525 -2.3608 -0.4865
 6787SOL     OW31996   0.543   3.842   7.225 -0.1183  0.2516  0.0727
 6787SOL    HW131997   0.531   3.835   7.131 -0.2889 -1.9458  0.2697
 6787SOL    HW231998   0.623   3.894   7.239  0.0987 -0.1357  0.2659
 6788SOL     OW31999   3.063   2.459   0.206  0.4281 -0.0924 -0.0810
 6788SOL    HW132000   3.003   2.512   0.259 -3.7494 -2.8136 -2.1946
 6788SOL    HW232001   3.010   2.440   0.129 -1.1918  1.8066  0.5759
 6789SOL     OW32002   2.600   0.251   5.633  0.1805 -0.2520 -0.7949
 6789SOL    HW132003   2.676   0.233   5.689  1.1036  1.8667 -1.3309
 6789SOL    HW232004   2.536   0.274   5.700  0.1659 -0.3114 -0.7890
 6790SOL     OW32005   2.393   3.143  12.642 -0.3250 -0.5735  0.0387
 6790SOL    HW132006   2.435   3.211  12.696 -0.2831  0.5076 -1.3535
 6790SOL    HW232007   2.451   3.129  12.567 -0.0211 -2.1646  0.5628
 6791SOL     OW32008   4.296   0.727  15.117  0.0216 -0.7722  0.3419
 6791SOL    HW132009   4.330   0.805  15.075  0.6169 -1.1573  0.1019
 6791SOL    HW232010   4.256   0.762  15.197  1.2044  1.6613 -0.1635
 6792SOL     OW32011   0.015   4.335   8.648 -0.0153  0.1431  0.0002
 6792SOL    HW132012   4.659   4.317   8.637  0.0406 -0.2303  0.1305
 6792SOL    HW232013   0.019   4.405   8.584  0.8716  0.3826  0.3212
 6793SOL     OW32014   1.313   0.918   1.766  0.6473  0.1760 -0.2022
 6793SOL    HW132015   1.227   0.959   1.761  0.8262  0.9794  3.6309
 6793SOL    HW232016   1.295   0.861   1.841  1.6791 -1.3130 -1.0661
 6794SOL     OW32017   0.401   0.231  16.782 -0.8128 -0.0302 -0.8577
 6794SOL    HW132018   0.449   0.297  16.733 -0.4644 -0.1774 -0.7181
 6794SOL    HW232019   0.412   0.266  16.871  0.3132  0.9161 -1.3703
 6795SOL     OW32020   1.021   2.315   3.672  0.2642  0.4809  0.0132
 6795SOL    HW132021   0.952   2.304   3.737 -1.4257  1.8275 -1.5634
 6795SOL    HW232022   1.040   2.401   3.708 -0.8048  0.6372  0.2134
 6796SOL     OW32023   2.342   0.684   1.670 -0.0859  0.2311 -0.2679
 6796SOL    HW132024   2.421   0.653   1.627 -1.2478  0.4194 -2.5559
 6796SOL    HW232025   2.278   0.644   1.610 -2.0107  1.5859  0.8781
 6797SOL     OW32026   4.301   3.343   6.407  0.1927  0.4141 -0.1363
 6797SOL    HW132027   4.249   3.325   6.486 -0.6111 -0.0031 -0.7593
 6797SOL    HW232028   4.306   3.252   6.376 -0.7994 -0.1375  1.3177
 6798SOL     OW32029   0.308   0.583   6.650  0.2508  0.0861 -0.2322
 6798SOL    HW132030   0.400   0.604   6.664  0.0962  0.0851  0.7783
 6798SOL    HW232031   0.328   0.508   6.594 -0.2680 -0.4721  0.3334
 6799SOL     OW32032   4.454   2.546  16.182 -0.9756  0.5050 -0.4080
 6799SOL    HW132033   4.377   2.559  16.237  0.8040  0.5938  2.0782
 6799SOL    HW232034   4.500   2.627  16.205  1.0643 -1.0844  1.0711
 6800SOL     OW32035   0.860   1.035   6.205 -0.5797 -0.1124  0.3545
 6800SOL    HW132036   0.768   1.037   6.232 -0.2578  0.0590  1.4531
 6800SOL    HW232037   0.897   1.097   6.268 -2.1017  2.2713 -1.1184
 6801SOL     OW32038   3.657   2.167   8.681  0.1108 -0.3870  0.6257
 6801SOL    HW132039   3.573   2.200   8.710 -0.3233 -0.2377 -0.8141
 6801SOL    HW232040   3.688   2.234   8.619 -2.9748 -0.8442 -1.3939
 6802SOL     OW32041   4.485   2.990   3.821 -0.0802  0.2590 -0.1912
 6802SOL    HW132042   4.481   2.920   3.887  0.5536  1.7428  1.4142
 6802SOL    HW232043   4.397   3.026   3.835 -0.7548 -1.0893 -1.0267
 6803SOL     OW32044   3.737   4.110   3.255 -0.0608  0.0647 -0.3502
 6803SOL    HW132045   3.796   4.056   3.205 -1.9572 -0.8373 -1.6078
 6803SOL    HW232046   3.693   4.164   3.189  0.2518  0.2115 -0.4341
 6804SOL     OW32047   0.489   3.435  15.006  0.0368  0.1250  0.4553
 6804SOL    HW132048   0.434   3.416  14.930 -0.6799  2.7959  0.3265
 6804SOL    HW232049   0.445   3.517  15.028  1.4544  0.8580  0.5186
 6805SOL     OW32050   0.534   4.390   3.723  0.1736  0.0783 -0.0633
 6805SOL    HW132051   0.504   4.405   3.633 -0.5133 -0.2952  0.1039
 6805SOL    HW232052   0.498   4.468   3.765  0.8484 -1.3837  3.2005
 6806SOL     OW32053   3.214   3.856   9.133 -0.4472 -0.8212 -0.0130
 6806SOL    HW132054   3.177   3.937   9.169  1.4478 -0.5646  1.3361
 6806SOL    HW232055   3.271   3.889   9.063 -1.4462  0.4400 -0.2392
 6807SOL     OW32056   0.984   4.533   6.025  0.2516  0.4853 -0.6367
 6807SOL    HW132057   1.037   4.600   5.982  0.5097 -0.3653 -1.6289
 6807SOL    HW232058   1.033   4.526   6.107  1.4249  2.3502 -1.1818
 6808SOL     OW32059   4.216   2.186  14.492 -0.3373 -0.6126  0.0779
 6808SOL    HW132060   4.133   2.158  14.531  0.1457  0.5339  1.9135
 6808SOL    HW232061   4.210   2.280  14.504 -1.8326 -0.5335 -1.3079
 6809SOL     OW32062   2.007   0.669  14.861  0.7421 -0.1313 -0.2347
 6809SOL    HW132063   2.075   0.615  14.821  0.8623  0.8670 -1.3621
 6809SOL    HW232064   1.965   0.595  14.905 -0.0296  1.5909  1.8795
 6810SOL     OW32065   0.340   1.097   9.875 -0.6811 -0.6307 -0.1896
 6810SOL    HW132066   0.352   1.053   9.959  0.1946  0.9499  0.4956
 6810SOL    HW232067   0.376   1.184   9.890  1.1738 -0.7760 -3.6321
 6811SOL     OW32068   0.751   3.394   3.511  0.2046 -0.0398 -0.5841
 6811SOL    HW132069   0.710   3.308   3.512 -0.7969  0.4796  2.0537
 6811SOL    HW232070   0.690   3.447   3.460 -0.4636  0.6641  0.9582
 6812SOL     OW32071   3.460   1.891  14.962  0.1569  0.2638 -0.2347
 6812SOL    HW132072   3.431   1.849  15.043 -0.2945  0.4562 -0.2974
 6812SOL    HW232073   3.554   1.873  14.968  0.1552  0.7488  1.2158
 6813SOL     OW32074   1.853   4.520   5.160  0.0475  0.1531 -0.5054
 6813SOL    HW132075   1.946   4.497   5.162  0.6377  2.5889 -0.1343
 6813SOL    HW232076   1.831   4.512   5.067 -2.3244 -0.5626  0.1323
 6814SOL     OW32077   2.449   4.675  13.976  0.4201  0.4371  0.0290
 6814SOL    HW132078   2.456   4.581  13.960  0.1266  0.1007  1.9040
 6814SOL    HW232079   2.360   4.670  14.013  0.5717  2.0470  0.6081
 6815SOL     OW32080   1.910   0.195  13.095 -0.3942  0.1610  0.3580
 6815SOL    HW132081   1.892   0.283  13.064 -1.3662 -0.5579 -1.1066
 6815SOL    HW232082   1.844   0.149  13.044  0.3364 -1.6496  1.0170
 6816SOL     OW32083   0.858   1.736   9.679  0.1149  0.3006  0.7662
 6816SOL    HW132084   0.835   1.656   9.727 -2.7672  2.0799  2.3567
 6816SOL    HW232085   0.949   1.750   9.703  0.7521  0.1199 -1.5410
 6817SOL     OW32086   3.338   3.899  15.415 -0.2011  0.3720  0.0096
 6817SOL    HW132087   3.383   3.887  15.331  0.0187 -0.3351  0.2223
 6817SOL    HW232088   3.388   3.978  15.436  1.5205 -0.8251  0.4484
 6818SOL     OW32089   3.456   1.466  10.821 -0.8615  0.2232  0.9725
 6818SOL    HW132090   3.383   1.413  10.790 -1.3940  1.3482  0.2976
 6818SOL    HW232091   3.456   1.536  10.755 -1.5141  1.7332  2.5730
 6819SOL     OW32092   4.735   1.310  10.911  0.1939  0.1238 -0.2558
 6819SOL    HW132093   4.676   1.381  10.887  0.0950 -0.6529 -2.3472
 6819SOL    HW232094   0.029   1.273  10.828 -0.4802  0.1670 -0.5226
 6820SOL     OW32095   3.047   2.635   5.869  0.0699 -0.5672 -0.3163
 6820SOL    HW132096   3.119   2.574   5.854 -0.6771 -1.4783 -0.2402
 6820SOL    HW232097   3.090   2.720   5.868 -1.7451  0.3563  0.0240
 6821SOL     OW32098   2.267   0.383  14.509  0.5258 -0.0760  0.2614
 6821SOL    HW132099   2.243   0.473  14.485  1.3048 -0.1009 -0.6121
 6821SOL    HW232100   2.256   0.337  14.426 -1.4550  0.4551  0.2368
 6822SOL     OW32101   2.754   1.705   6.404  0.2803 -0.2843  0.4783
 6822SOL    HW132102   2.800   1.774   6.452  2.7770  0.3576 -2.8873
 6822SOL    HW232103   2.774   1.626   6.454  2.1673  1.1368  2.0166
 6823SOL     OW32104   1.351   3.033   1.021  0.4875 -0.4605 -0.3593
 6823SOL    HW132105   1.424   2.972   1.028  0.6569 -0.3313 -0.9685
 6823SOL    HW232106   1.272   2.980   1.025 -0.0661  0.6376  2.8779
 6824SOL     OW32107   2.167   1.135  15.442 -0.2855  0.4188 -0.1712
 6824SOL    HW132108   2.141   1.052  15.482  0.9384 -0.7401 -1.7738
 6824SOL    HW232109   2.254   1.138  15.482 -0.5028  0.6553  0.2900
 6825SOL     OW32110   0.422   4.706   2.594 -0.0820  0.0654  0.3143
 6825SOL    HW132111   0.346   0.001   2.545  1.3981 -0.2458 -2.1826
 6825SOL    HW232112   0.474   0.049   2.583 -1.4563  1.0204  0.7543
 6826SOL     OW32113   1.754   1.871   3.822  0.4751 -0.4860  0.3082
 6826SOL    HW132114   1.753   1.852   3.916 -1.2816  0.4997  0.4924
 6826SOL    HW232115   1.660   1.856   3.808  0.1926  2.5018 -0.9316
 6827SOL     OW32116   2.051   1.934   5.217  0.1898 -0.7797 -0.0311
 6827SOL    HW132117   2.138   1.899   5.198  0.5733 -0.4110  1.0790
 6827SOL    HW232118   1.991   1.881   5.165 -1.8961  1.6516 -0.0902
 6828SOL     OW32119   4.096   4.315   2.272  0.2471 -0.0626  0.2432
 6828SOL    HW132120   4.151   4.240   2.248 -1.7194 -1.3651 -0.1656
 6828SOL    HW232121   4.133   4.381   2.213 -0.1317  1.9360  2.2444
 6829SOL     OW32122   0.467   1.432   2.172 -0.4202 -0.1460  0.1589
 6829SOL    HW132123   0.433   1.461   2.087  0.5710  1.3465  0.2644
 6829SOL    HW232124   0.561   1.447   2.163 -0.5805  0.1154 -1.1376
 6830SOL     OW32125   3.457   0.992   4.464 -0.1111  0.3920  0.2427
 6830SOL    HW132126   3.367   0.971   4.489 -1.3294  2.9090 -1.9774
 6830SOL    HW232127   3.465   1.076   4.508 -3.6583  1.4406 -1.0794
 6831SOL     OW32128   4.328   2.442  11.003 -0.0910 -0.0035 -0.2936
 6831SOL    HW132129   4.396   2.404  10.948  1.0704 -0.0660  1.1958
 6831SOL    HW232130   4.364   2.431  11.091 -0.5837  2.3082  0.1941
 6832SOL     OW32131   3.100   4.570   2.503 -0.3419  0.2062 -0.4631
 6832SOL    HW132132   3.008   4.594   2.490 -0.2068  0.9446 -0.1152
 6832SOL    HW232133   3.144   4.655   2.496  0.0071  0.1501  0.9382
 6833SOL     OW32134   1.559   3.640  15.177 -0.2313  0.0461  0.0636
 6833SOL    HW132135   1.575   3.666  15.086 -1.1502 -0.3489 -0.2117
 6833SOL    HW232136   1.590   3.550  15.183 -0.4832 -0.0145  0.4436
 6834SOL     OW32137   3.585   1.438   6.680  0.5346  0.0120 -0.5087
 6834SOL    HW132138   3.606   1.348   6.702 -1.2064 -0.6491 -1.5948
 6834SOL    HW232139   3.574   1.477   6.766 -0.3168 -1.5399  0.0762
 6835SOL     OW32140   3.019   2.669   8.626  0.6831  0.3559  0.2351
 6835SOL    HW132141   2.936   2.680   8.672  0.1632 -0.1993 -0.5744
 6835SOL    HW232142   3.022   2.751   8.576  3.3673 -0.1338 -0.4233
 6836SOL     OW32143   3.167   0.535   1.655 -0.1236  0.1674 -0.1124
 6836SOL    HW132144   3.113   0.600   1.611  1.1775  1.6745  0.5221
 6836SOL    HW232145   3.211   0.483   1.588  1.5545  2.6089 -0.9357
 6837SOL     OW32146   0.457   2.949  16.349  0.1472  0.0952  0.4499
 6837SOL    HW132147   0.413   2.996  16.419 -1.6761 -0.6400 -0.2035
 6837SOL    HW232148   0.481   2.872  16.401 -0.2796 -0.6396 -0.4295
 6838SOL     OW32149   4.377   2.522   5.314  0.1279 -0.3580  0.3476
 6838SOL    HW132150   4.332   2.599   5.349 -2.1226 -1.9278  0.9335
 6838SOL    HW232151   4.458   2.563   5.284  0.2971 -1.5733 -0.8626
 6839SOL     OW32152   2.166   0.691   3.721  0.0986  0.0549  0.7981
 6839SOL    HW132153   2.120   0.729   3.646 -1.3401 -1.2086  1.0330
 6839SOL    HW232154   2.167   0.758   3.789 -2.1008  0.7157  0.1786
 6840SOL     OW32155   3.596   1.415   1.873  0.4589 -0.0281  0.1117
 6840SOL    HW132156   3.602   1.440   1.965  1.0059 -1.2680  0.4062
 6840SOL    HW232157   3.688   1.422   1.846  1.1385 -1.0660  2.1715
 6841SOL     OW32158   3.235   1.704  17.132  0.3624  0.2891 -0.5834
 6841SOL    HW132159   3.280   1.620  17.134 -0.6585 -0.2366  0.2684
 6841SOL    HW232160   3.160   1.688  17.075  0.1968 -0.5329 -0.1365
 6842SOL     OW32161   2.949   0.783   0.474  0.2004  0.5392  1.0660
 6842SOL    HW132162   2.981   0.773   0.384 -2.7456 -1.3044  0.2311
 6842SOL    HW232163   2.858   0.806   0.455  0.9070  0.1724 -2.7919
 6843SOL     OW32164   2.378   1.986   3.533 -0.0340  0.2751 -0.5714
 6843SOL    HW132165   2.288   1.961   3.511 -0.4468  0.8943  0.4169
 6843SOL    HW232166   2.424   1.910   3.499  1.3999  1.0059 -0.2512
 6844SOL     OW32167   1.621   1.613  16.715 -0.0575  0.0357 -0.7201
 6844SOL    HW132168   1.662   1.692  16.753  0.9451 -1.8103  2.0349
 6844SOL    HW232169   1.673   1.606  16.635 -1.4570  1.0284 -1.7039
 6845SOL     OW32170   1.198   1.915   9.266  0.1746 -0.0350  0.0711
 6845SOL    HW132171   1.204   2.006   9.238  0.3967 -0.7825 -2.2765
 6845SOL    HW232172   1.273   1.912   9.326  0.6160 -1.0064 -0.5287
 6846SOL     OW32173   3.932   3.456  17.745  0.4833  0.0048 -0.5402
 6846SOL    HW132174   3.947   3.375  17.696  0.7167  1.8238 -3.4564
 6846SOL    HW232175   3.908   3.509  17.669 -1.5408  0.1921  0.2454
 6847SOL     OW32176   3.399   1.478   8.240 -0.4705  0.3511 -0.1655
 6847SOL    HW132177   3.462   1.407   8.253 -1.0701 -0.2576 -0.5675
 6847SOL    HW232178   3.331   1.430   8.192  0.8030 -1.8388  0.2128
 6848SOL     OW32179   1.564   0.071   6.068 -0.3671  0.0608  0.0751
 6848SOL    HW132180   1.470   0.092   6.069  0.3407  3.2569 -1.8409
 6848SOL    HW232181   1.587   0.040   5.980 -0.8331  0.7559 -0.2896
 6849SOL     OW32182   2.707   1.941   6.977  0.3880 -0.1615  0.3214
 6849SOL    HW132183   2.617   1.975   6.975  1.3664  2.4193  0.6527
 6849SOL    HW232184   2.694   1.849   6.954 -1.3061  0.1197  0.1536
 6850SOL     OW32185   4.653   4.708  13.129  0.2227  0.3987  0.3580
 6850SOL    HW132186   4.657   4.714  13.224  3.2184 -1.5849  0.3632
 6850SOL    HW232187   0.004   4.678  13.109  0.1540  1.1513 -1.0882
 6851SOL     OW32188   0.101   0.349  16.872 -0.9237 -0.1512 -0.5839
 6851SOL    HW132189   0.099   0.426  16.929  2.4910 -0.6212  0.1349
 6851SOL    HW232190   0.195   0.331  16.874 -0.5702  1.7686 -0.4370
 6852SOL     OW32191   3.956   0.551   5.449  0.6745 -0.0737 -0.6004
 6852SOL    HW132192   3.963   0.602   5.529 -1.3847 -1.7368  0.6280
 6852SOL    HW232193   4.022   0.482   5.458  0.2622 -0.4103 -0.1735
 6853SOL     OW32194   2.182   2.816   4.856 -0.6892 -1.0336  0.2699
 6853SOL    HW132195   2.125   2.866   4.797  2.0935  1.9239  0.0507
 6853SOL    HW232196   2.147   2.854   4.936  0.1320 -0.8556  0.5478
 6854SOL     OW32197   2.653   2.070  14.074  0.3123 -0.0406  0.2946
 6854SOL    HW132198   2.692   2.072  13.987  2.2226 -2.8606  1.1369
 6854SOL    HW232199   2.592   2.145  14.075  0.6173  0.2130  0.0428
 6855SOL     OW32200   2.702   1.980   2.870  0.4662  0.2764  0.3434
 6855SOL    HW132201   2.633   1.925   2.907  0.0200  0.4154 -0.2885
 6855SOL    HW232202   2.698   2.056   2.928  0.1532 -0.3678  1.1622
 6856SOL     OW32203   4.711   1.931   3.336 -0.4202 -0.6272  0.3898
 6856SOL    HW132204   4.650   1.971   3.274  1.4830  1.5437 -0.0800
 6856SOL    HW232205   0.058   1.958   3.301 -0.6010 -0.1666  0.3021
 6857SOL     OW32206   2.245   3.687   7.822 -0.0790  0.0912 -0.1239
 6857SOL    HW132207   2.253   3.779   7.796 -0.0975  0.2934  0.5708
 6857SOL    HW232208   2.266   3.697   7.915 -1.9833 -1.8670  0.5201
 6858SOL     OW32209   1.075   2.034  16.819 -0.1006  0.0526 -0.4269
 6858SOL    HW132210   1.127   1.978  16.762 -0.2635 -0.5464  0.0120
 6858SOL    HW232211   1.069   1.966  16.886 -0.4327  0.0779 -0.4330
 6859SOL     OW32212   1.039   3.835   6.641 -0.3496 -0.3729 -0.1266
 6859SOL    HW132213   0.957   3.881   6.656 -0.8006 -1.0771 -0.4377
 6859SOL    HW232214   1.085   3.895   6.583 -0.0014 -1.0581 -0.5598
 6860SOL     OW32215   4.488   2.532   7.182  0.4934 -0.0590 -0.2235
 6860SOL    HW132216   4.573   2.506   7.217 -0.1932 -0.6912  0.9781
 6860SOL    HW232217   4.510   2.595   7.113  0.3676 -3.8188 -3.6941
 6861SOL     OW32218   2.314   1.648   3.822  0.0614 -0.1723 -0.2410
 6861SOL    HW132219   2.354   1.734   3.836 -1.2866  0.2171  1.1730
 6861SOL    HW232220   2.350   1.631   3.735 -0.9711  0.4643 -0.7931
 6862SOL     OW32221   2.127   0.852  15.517  0.3286  0.2462  0.2406
 6862SOL    HW132222   2.218   0.830  15.496  0.2337  1.4572 -1.4664
 6862SOL    HW232223   2.099   0.773  15.563  1.3989  1.5463  3.1299
 6863SOL     OW32224   4.062   4.670  13.724  0.2411 -0.6511  0.4277
 6863SOL    HW132225   3.982   4.648  13.676  0.7046 -0.4933 -0.4225
 6863SOL    HW232226   4.096   0.008  13.674 -1.8107  0.4922  0.7367
 6864SOL     OW32227   0.770   3.613  10.959 -0.4271  0.5819  0.3329
 6864SOL    HW132228   0.744   3.567  10.879 -0.0011  0.4148  0.2899
 6864SOL    HW232229   0.818   3.541  11.000 -1.7159 -0.8641 -0.7128
 6865SOL     OW32230   3.485   2.664   5.437 -0.2671  0.2289  0.0634
 6865SOL    HW132231   3.535   2.709   5.369  1.3474 -1.7197 -0.0305
 6865SOL    HW232232   3.543   2.590   5.455 -1.0023  0.0433  1.6604
 6866SOL     OW32233   1.623   3.350  12.796 -0.3970 -0.1468  0.2962
 6866SOL    HW132234   1.667   3.418  12.848 -2.4533  0.9531  0.6278
 6866SOL    HW232235   1.707   3.311  12.775 -0.7161  0.4477 -2.0397
 6867SOL     OW32236   1.732   1.461   1.747 -0.4624 -0.1575  0.3548
 6867SOL    HW132237   1.756   1.449   1.839 -1.2956  0.2561  0.6220
 6867SOL    HW232238   1.716   1.371   1.717  0.7890 -1.2208  2.8214
 6868SOL     OW32239   1.034   2.775   6.198 -0.5008  0.0203  0.5369
 6868SOL    HW132240   1.061   2.867   6.205  2.0403 -0.6437 -0.7362
 6868SOL    HW232241   0.941   2.787   6.175 -0.4154 -0.2778  0.0424
 6869SOL     OW32242   2.805   2.516   4.333 -0.1287 -0.1708 -0.6124
 6869SOL    HW132243   2.841   2.521   4.244  0.0890  1.9692 -0.4068
 6869SOL    HW232244   2.779   2.608   4.331  0.3584  0.0207  1.4538
 6870SOL     OW32245   0.086   1.875   8.438  0.6601 -0.2499  0.1246
 6870SOL    HW132246   0.131   1.874   8.522  0.4502  1.2357  0.2550
 6870SOL    HW232247   0.011   1.817   8.453 -0.8133  1.3244 -1.1146
 6871SOL     OW32248   4.024   1.712   8.977  0.4567  0.2357 -0.3760
 6871SOL    HW132249   4.050   1.638   8.921  0.0651  1.1272 -1.7497
 6871SOL    HW232250   3.992   1.657   9.048 -1.0357 -0.6080 -1.6957
 6872SOL     OW32251   2.827   3.337   0.312 -0.0423 -0.5355  0.0017
 6872SOL    HW132252   2.884   3.317   0.386  0.8949  0.4838 -0.4427
 6872SOL    HW232253   2.857   3.271   0.249  0.8997  0.4825 -0.6230
 6873SOL     OW32254   3.963   0.235  15.388 -0.1911  0.5649  0.1194
 6873SOL    HW132255   3.981   0.171  15.457  2.7952  1.1329 -0.1437
 6873SOL    HW232256   3.983   0.190  15.306  0.9444  1.4573 -0.0947
 6874SOL     OW32257   0.109   0.166   7.114  0.4745  0.1925 -0.0300
 6874SOL    HW132258   0.172   0.165   7.186  1.4604 -0.4638 -0.8945
 6874SOL    HW232259   0.080   0.076   7.128  0.4366  0.7225  3.3428
 6875SOL     OW32260   2.597   4.206   3.331 -0.2569 -0.1417  0.6256
 6875SOL    HW132261   2.689   4.179   3.332 -0.2341 -0.0680  0.4598
 6875SOL    HW232262   2.550   4.157   3.263 -0.7110  2.2302 -0.7481
 6876SOL     OW32263   4.615   0.515   7.301 -0.9147 -0.3433 -0.1562
 6876SOL    HW132264   4.570   0.432   7.285 -0.2035 -0.2746 -2.5133
 6876SOL    HW232265   4.701   0.487   7.268 -1.3106 -1.0365 -0.6019
 6877SOL     OW32266   1.393   0.608  14.214  0.0104 -0.1829  0.3611
 6877SOL    HW132267   1.460   0.649  14.269 -0.5771  0.3492  0.6895
 6877SOL    HW232268   1.398   0.516  14.240 -0.1925 -0.3621 -0.2395
 6878SOL     OW32269   0.285   0.091   7.816 -0.1921 -0.4431  0.1372
 6878SOL    HW132270   0.313   0.179   7.789 -1.8698  0.0144 -0.1032
 6878SOL    HW232271   0.362   0.041   7.786 -0.9392 -1.5825  0.1125
 6879SOL     OW32272   2.740   1.223   3.569 -0.2190 -0.3086 -0.0098
 6879SOL    HW132273   2.774   1.282   3.636 -0.5175 -0.8861  0.6358
 6879SOL    HW232274   2.821   1.208   3.520  0.5011  2.0046  0.4909
 6880SOL     OW32275   2.346   2.285   8.991  0.2088  0.6989 -0.2880
 6880SOL    HW132276   2.386   2.202   8.966 -0.6414  0.4150 -0.7227
 6880SOL    HW232277   2.273   2.254   9.045 -1.5716  1.3288 -2.3075
 6881SOL     OW32278   2.108   2.883   1.741 -0.1379  0.0051  0.4882
 6881SOL    HW132279   2.030   2.828   1.751  0.8338 -0.7956  3.4806
 6881SOL    HW232280   2.060   2.953   1.696  1.9199  1.0866 -0.0382
 6882SOL     OW32281   4.228   4.111  14.829 -0.1390 -0.4733 -0.8995
 6882SOL    HW132282   4.156   4.066  14.783 -0.7539 -1.4144  0.9454
 6882SOL    HW232283   4.268   4.038  14.877 -0.4171 -0.6787 -0.9759
 6883SOL     OW32284   0.142   4.408  13.318  0.2607  0.2977 -0.2612
 6883SOL    HW132285   0.149   4.462  13.239  0.5703  1.5026  0.5814
 6883SOL    HW232286   0.156   4.474  13.387 -1.7505 -0.1485  0.5881
 6884SOL     OW32287   1.855   0.189   1.485 -0.2066  0.2587  0.4202
 6884SOL    HW132288   1.856   0.270   1.536 -0.5199  0.5062  0.0309
 6884SOL    HW232289   1.924   0.133   1.521  0.5811  1.1481  0.3030
 6885SOL     OW32290   3.624   0.107   1.875 -0.1701 -0.0201 -0.1309
 6885SOL    HW132291   3.660   0.018   1.868  0.1917  0.0719  0.4698
 6885SOL    HW232292   3.582   0.113   1.790 -0.4209  0.8555  0.0552
 6886SOL     OW32293   0.384   1.736   5.018 -0.1855  0.4606 -0.4824
 6886SOL    HW132294   0.423   1.670   4.961  1.8825  0.8253  0.4774
 6886SOL    HW232295   0.446   1.810   5.018  0.3980 -0.0348  1.7729
 6887SOL     OW32296   3.902   2.780   2.766  0.0164 -0.0230  0.5006
 6887SOL    HW132297   3.968   2.795   2.833  0.5536  0.9283 -0.2397
 6887SOL    HW232298   3.959   2.748   2.695  1.0179  1.5139  0.6128
 6888SOL     OW32299   2.947   4.579  11.175  0.7469  0.3981  0.4041
 6888SOL    HW132300   2.965   4.615  11.089  0.0603  0.2555  0.1958
 6888SOL    HW232301   2.988   4.640  11.236 -1.0065  1.7183  0.2687
 6889SOL     OW32302   4.567   3.026   6.217  0.3532 -0.6376  0.0392
 6889SOL    HW132303   4.551   3.107   6.168  1.1178 -1.0586 -0.8959
 6889SOL    HW232304   4.661   3.019   6.200  0.7859 -1.6476  2.8521
 6890SOL     OW32305   2.408   1.658   7.176  0.8782 -0.1602 -0.7091
 6890SOL    HW132306   2.398   1.609   7.257 -2.8244 -0.2380 -1.2025
 6890SOL    HW232307   2.485   1.714   7.179 -1.8674  3.7692 -2.3150
 6891SOL     OW32308   2.285   4.283   4.014  0.8528 -0.4899  0.0830
 6891SOL    HW132309   2.205   4.264   3.966  0.9439 -1.0035  0.1346
 6891SOL    HW232310   2.262   4.273   4.106  2.4914 -2.1175  0.3075
 6892SOL     OW32311   1.902   0.496   5.148 -0.7226  0.0364 -0.4109
 6892SOL    HW132312   1.883   0.403   5.164 -0.1061 -0.0536 -0.2112
 6892SOL    HW232313   1.970   0.491   5.080 -1.0265  2.0679 -0.8464
 6893SOL     OW32314   3.055   2.202   3.146 -0.4168  0.2083  0.4146
 6893SOL    HW132315   3.009   2.242   3.221 -0.2510  2.2453 -0.5728
 6893SOL    HW232316   3.137   2.250   3.147 -0.2543 -0.0867  1.2653
 6894SOL     OW32317   3.137   2.620  16.821 -0.6141 -0.3739  0.2184
 6894SOL    HW132318   3.081   2.656  16.752  2.9440  1.2146 -1.8457
 6894SOL    HW232319   3.119   2.679  16.895  1.5888  0.3682  0.1420
 6895SOL     OW32320   3.108   3.110   6.345  0.3533 -0.5584 -0.7725
 6895SOL    HW132321   3.115   3.183   6.284 -1.0217 -0.3782 -0.7244
 6895SOL    HW232322   3.171   3.048   6.308  1.2364 -0.5990  0.8135
 6896SOL     OW32323   3.819   1.104  15.453  0.3624 -0.3109 -0.2605
 6896SOL    HW132324   3.759   1.119  15.527  2.7722 -2.5028  2.1317
 6896SOL    HW232325   3.761   1.116  15.378 -0.9072 -0.2655  0.7070
 6897SOL     OW32326   3.880   3.705   5.987 -0.2678 -0.4705  0.6121
 6897SOL    HW132327   3.915   3.700   5.897 -0.2465  1.7405  0.4931
 6897SOL    HW232328   3.938   3.641   6.029 -0.0056 -1.1984 -0.8128
 6898SOL     OW32329   1.802   4.337   5.857 -0.4229  0.4867  0.1824
 6898SOL    HW132330   1.895   4.344   5.838 -0.2735 -1.5911  0.1039
 6898SOL    HW232331   1.799   4.401   5.927 -1.9155  1.4596 -0.7663
 6899SOL     OW32332   2.518   3.229   3.299 -0.4412 -0.1670  0.8726
 6899SOL    HW132333   2.560   3.209   3.215  0.8086  1.4176  1.1359
 6899SOL    HW232334   2.471   3.146   3.313  0.5669 -0.8249  0.3925
 6900SOL     OW32335   0.128   3.318   7.502 -0.2448  0.0682 -0.0776
 6900SOL    HW132336   0.046   3.296   7.548 -1.1187  4.6401  0.5326
 6900SOL    HW232337   0.170   3.238   7.533  0.6983  1.2171  1.6632
 6901SOL     OW32338   1.579   0.828  12.538  0.1329 -0.2625 -0.3988
 6901SOL    HW132339   1.592   0.783  12.455  1.4999 -1.5950  0.5332
 6901SOL    HW232340   1.483   0.828  12.538  0.1450 -1.8405 -3.4939
 6902SOL     OW32341   1.751   4.052   0.327  0.1163 -0.6132 -0.1870
 6902SOL    HW132342   1.711   4.043   0.241 -1.0294 -1.6372  0.4602
 6902SOL    HW232343   1.677   4.042   0.387  2.1382 -0.4059  2.3768
 6903SOL     OW32344   2.400   1.181  15.077 -0.2771 -0.4551 -0.0214
 6903SOL    HW132345   2.434   1.268  15.095 -1.8547 -0.0065  0.7182
 6903SOL    HW232346   2.307   1.198  15.091  0.0132  1.2649 -0.1777
 6904SOL     OW32347   3.294   0.538   6.025 -0.0014 -0.2020 -0.1306
 6904SOL    HW132348   3.247   0.457   6.043  0.2890 -0.4723 -0.6003
 6904SOL    HW232349   3.327   0.523   5.937  0.6989  0.8350 -0.0466
 6905SOL     OW32350   2.057   0.461   6.011  0.6672 -0.0520  0.1165
 6905SOL    HW132351   2.059   0.368   5.991  2.9748  0.5232 -2.3588
 6905SOL    HW232352   1.982   0.463   6.071  0.0586  2.0163 -0.6904
 6906SOL     OW32353   4.238   2.700   3.484  0.0849  0.0604  0.3761
 6906SOL    HW132354   4.218   2.790   3.512  2.2654  0.8403 -0.5812
 6906SOL    HW232355   4.247   2.655   3.568 -0.0921  0.6728  0.7254
 6907SOL     OW32356   3.271   2.779   8.237 -0.2925 -0.2257  0.1147
 6907SOL    HW132357   3.276   2.736   8.152  1.3174 -3.1907  1.7201
 6907SOL    HW232358   3.248   2.868   8.210 -0.3187 -0.1512  0.3825
 6908SOL     OW32359   1.884   1.923  10.257 -0.0212  0.2593 -0.3338
 6908SOL    HW132360   1.855   1.856  10.195 -1.7975 -1.6232  2.6020
 6908SOL    HW232361   1.801   1.913  10.303 -0.2869  0.2004 -0.8223
 6909SOL     OW32362   1.453   0.419   9.115 -0.2170  0.0569  0.3684
 6909SOL    HW132363   1.450   0.475   9.192  1.6128  0.8372 -0.1177
 6909SOL    HW232364   1.470   0.332   9.150  1.2476 -0.0831 -0.7077
 6910SOL     OW32365   1.823   3.890   5.629  0.3554 -0.0858 -0.1357
 6910SOL    HW132366   1.872   3.813   5.658  1.1498  0.7203  0.7113
 6910SOL    HW232367   1.862   3.946   5.697 -0.1224 -1.1606  1.0303
 6911SOL     OW32368   1.880   3.674   6.839  0.4916  0.0484  0.0312
 6911SOL    HW132369   1.830   3.603   6.879 -0.1529  0.0889 -0.6949
 6911SOL    HW232370   1.809   3.736   6.823  0.2561 -0.1137  0.4645
 6912SOL     OW32371   1.507   2.667   9.543 -0.2738  0.0761 -0.0979
 6912SOL    HW132372   1.426   2.718   9.551  0.3436  1.1110 -0.5110
 6912SOL    HW232373   1.557   2.719   9.606  1.5159 -1.2538 -0.4216
 6913SOL     OW32374   3.380   1.878   5.030 -0.2938 -0.3082  0.2177
 6913SOL    HW132375   3.468   1.840   5.031  0.8271  2.2677  0.4492
 6913SOL    HW232376   3.330   1.798   5.043  0.8247 -1.1179 -0.4642
 6914SOL     OW32377   1.232   3.629   7.350  0.3859 -0.1216 -0.0236
 6914SOL    HW132378   1.279   3.634   7.267 -0.5637  2.7094 -0.4111
 6914SOL    HW232379   1.316   3.623   7.395  0.3276  0.4584  0.1747
 6915SOL     OW32380   0.099   4.026  16.573 -0.7935 -0.2064  0.2142
 6915SOL    HW132381   0.106   4.066  16.659  0.9277 -0.9444  0.4307
 6915SOL    HW232382   0.188   3.991  16.569 -1.0754 -1.0575  1.2623
 6916SOL     OW32383   3.869   4.322   6.255  0.0051 -0.3245 -0.1324
 6916SOL    HW132384   3.884   4.407   6.295 -0.4030  0.7171 -2.1711
 6916SOL    HW232385   3.776   4.323   6.231  0.4262 -2.5084 -1.9196
 6917SOL     OW32386   2.681   0.107   5.176  0.2661 -0.3814  0.0123
 6917SOL    HW132387   2.687   0.070   5.264 -0.7100  1.5063  0.8595
 6917SOL    HW232388   2.744   0.179   5.182  0.8604 -0.9700  0.9488
 6918SOL     OW32389   2.309   2.221   4.019 -0.4493  0.1799  0.0507
 6918SOL    HW132390   2.386   2.221   4.077 -1.7934  0.6623  1.8273
 6918SOL    HW232391   2.252   2.151   4.050  1.5397 -1.3317  0.3215
 6919SOL     OW32392   0.362   2.819   6.287 -0.0676  0.8885 -0.0036
 6919SOL    HW132393   0.450   2.785   6.301 -0.3903 -0.2658 -0.6895
 6919SOL    HW232394   0.327   2.833   6.375  1.1819  0.5210  0.5481
 6920SOL     OW32395   2.127   3.562  14.931  0.3391  0.6689 -0.2354
 6920SOL    HW132396   2.169   3.506  14.866  0.1144 -0.2864  0.4469
 6920SOL    HW232397   2.114   3.643  14.881 -0.6902  0.5830 -0.1091
 6921SOL     OW32398   3.860   1.727   5.530  0.2853 -0.5233 -0.7937
 6921SOL    HW132399   3.785   1.771   5.570  1.2311 -0.1290  0.5540
 6921SOL    HW232400   3.836   1.734   5.438  0.5491 -1.7125 -0.9518
 6922SOL     OW32401   3.125   4.061  14.294 -0.1802  0.4705 -0.4264
 6922SOL    HW132402   3.057   4.036  14.356  0.7233  0.5679  0.6017
 6922SOL    HW232403   3.071   4.130  14.256 -1.3210  0.2102  0.7502
 6923SOL     OW32404   1.439   4.581   7.343 -0.6966  0.4239 -0.3708
 6923SOL    HW132405   1.459   4.533   7.424 -1.0984  2.1177  0.7436
 6923SOL    HW232406   1.457   4.667   7.381 -1.7867 -0.5965  2.4502
 6924SOL     OW32407   0.697   4.598  14.180 -0.3898  0.3239  0.2178
 6924SOL    HW132408   0.662   4.589  14.268 -1.8723  1.1354 -0.2985
 6924SOL    HW232409   0.786   4.564  14.192  0.5405  3.3683  1.7150
 6925SOL     OW32410   2.539   2.803  11.188 -0.1567  0.8601  0.4290
 6925SOL    HW132411   2.552   2.871  11.255 -1.4342  2.0250 -0.5004
 6925SOL    HW232412   2.599   2.733  11.214  0.2554  1.9486  2.4875
 6926SOL     OW32413   0.205   3.289   0.206 -0.2782  0.1818 -0.4158
 6926SOL    HW132414   0.148   3.237   0.263  0.4473 -0.1681  0.0005
 6926SOL    HW232415   0.147   3.344   0.154 -0.2427 -0.9317 -1.6311
 6927SOL     OW32416   3.444   3.380   7.745 -0.2179 -0.3117 -0.6105
 6927SOL    HW132417   3.530   3.362   7.782 -0.8706 -0.9787  0.5807
 6927SOL    HW232418   3.413   3.450   7.803  0.9778 -1.7324  1.7405
 6928SOL     OW32419   3.038   1.323   1.305  0.2084  0.1418 -0.3256
 6928SOL    HW132420   3.108   1.377   1.342  0.2829 -0.4589  0.4142
 6928SOL    HW232421   3.082   1.259   1.250 -1.0937 -0.3393 -0.7870
 6929SOL     OW32422   0.606   4.039   7.897 -0.2629  0.2430  0.3948
 6929SOL    HW132423   0.622   3.951   7.933 -1.6044 -0.2110 -0.0962
 6929SOL    HW232424   0.678   4.047   7.835 -0.6800 -1.0241 -0.2758
 6930SOL     OW32425   4.305   2.157   8.836  0.1759  0.6755 -0.0687
 6930SOL    HW132426   4.305   2.085   8.900 -0.6913  0.6339 -0.1201
 6930SOL    HW232427   4.256   2.114   8.767  0.5770 -0.6488  0.4699
 6931SOL     OW32428   1.509   3.279   8.864 -0.0080 -0.0697  0.0302
 6931SOL    HW132429   1.526   3.348   8.929  0.4009 -1.2043  1.1284
 6931SOL    HW232430   1.550   3.200   8.900 -0.7938 -1.0069 -1.1547
 6932SOL     OW32431   1.921   0.522   2.132 -0.1261  0.0312  0.4945
 6932SOL    HW132432   1.950   0.509   2.223 -0.5583 -0.5116  0.5506
 6932SOL    HW232433   1.835   0.482   2.147  0.3367 -0.6807  1.2343
 6933SOL     OW32434   0.370   3.299  16.078 -0.9574  0.2748 -0.0170
 6933SOL    HW132435   0.450   3.350  16.070 -0.8891  0.3703  1.2715
 6933SOL    HW232436   0.310   3.372  16.093 -2.8105 -1.1517 -0.4601
 6934SOL     OW32437   3.753   0.744   3.098  0.1964  0.0795 -0.5479
 6934SOL    HW132438   3.710   0.814   3.147 -1.2508  0.0414 -1.7559
 6934SOL    HW232439   3.715   0.750   3.010 -0.7237  0.0327 -0.1533
 6935SOL     OW32440   4.190   0.601  11.418 -0.1013 -0.0847  0.0478
 6935SOL    HW132441   4.186   0.657  11.340  1.1101  1.1488  0.8674
 6935SOL    HW232442   4.249   0.651  11.474  0.2095 -0.4124  0.0119
 6936SOL     OW32443   1.356   4.501   3.436  0.3954 -0.1294  0.3554
 6936SOL    HW132444   1.355   4.581   3.488  0.3900  1.6900 -2.4150
 6936SOL    HW232445   1.427   4.450   3.476 -0.4138 -1.3497  0.2177
 6937SOL     OW32446   3.911   1.756   7.198  0.2570 -0.0672  0.0171
 6937SOL    HW132447   3.999   1.793   7.202  0.2954 -0.4189  2.1500
 6937SOL    HW232448   3.861   1.834   7.174  0.2023 -0.1479 -0.1341
 6938SOL     OW32449   2.458   1.608   8.172 -1.1106  0.7177  0.0879
 6938SOL    HW132450   2.378   1.572   8.208 -0.3493 -2.0004 -0.9469
 6938SOL    HW232451   2.475   1.540   8.107 -1.4764  1.9846 -1.3526
 6939SOL     OW32452   2.123   2.157   7.599 -0.0597 -0.2194  0.1914
 6939SOL    HW132453   2.119   2.222   7.669  3.8040  1.0157 -0.7488
 6939SOL    HW232454   2.178   2.093   7.643 -0.4682 -2.4284 -2.5125
 6940SOL     OW32455   2.414   4.651  10.759 -0.3529  0.1766 -0.1074
 6940SOL    HW132456   2.459   4.660  10.843 -1.1533 -0.9705  0.4434
 6940SOL    HW232457   2.438   4.731  10.712  0.2120  0.5874  0.8960
 6941SOL     OW32458   0.007   2.977  14.192 -0.2450 -0.6340 -0.4563
 6941SOL    HW132459   4.726   2.894  14.235  0.0449 -0.8397 -0.7327
 6941SOL    HW232460   0.007   2.954  14.099 -1.1344  0.1549 -0.6492
 6942SOL     OW32461   3.770   2.347   4.610  0.2352  0.6644  0.2977
 6942SOL    HW132462   3.723   2.270   4.642 -1.4072  0.3683 -2.9058
 6942SOL    HW232463   3.804   2.370   4.696  0.1737  1.4901  0.0965
 6943SOL     OW32464   1.655   4.468   7.967 -0.2559  0.1863  0.4068
 6943SOL    HW132465   1.738   4.425   7.986 -0.2887  0.0261  0.1847
 6943SOL    HW232466   1.607   4.400   7.921 -0.9531  1.4699 -0.7792
 6944SOL     OW32467   3.165   4.120   9.272 -0.6678 -0.4622  0.1858
 6944SOL    HW132468   3.074   4.126   9.244 -0.4359 -2.2427 -0.9501
 6944SOL    HW232469   3.207   4.180   9.209  0.8458 -0.8655  0.8157
 6945SOL     OW32470   0.511   3.593   7.614 -0.7551 -0.6014 -0.1255
 6945SOL    HW132471   0.468   3.607   7.699 -0.5147  2.8278 -0.5423
 6945SOL    HW232472   0.597   3.632   7.629 -0.9913  0.3604 -1.2930
 6946SOL     OW32473   0.404   3.812   6.027 -0.2529  0.2979  0.0797
 6946SOL    HW132474   0.321   3.855   6.047  0.0013  0.3339  1.0319
 6946SOL    HW232475   0.472   3.878   6.040  0.9401 -1.1898  1.4164
 6947SOL     OW32476   1.952   2.283   1.596 -0.3503 -0.3517  0.2734
 6947SOL    HW132477   1.937   2.285   1.690  1.6973  1.5456  0.5666
 6947SOL    HW232478   1.882   2.227   1.563 -0.4794  0.3508 -0.6552
 6948SOL     OW32479   1.808   4.230  15.702  0.8553  1.0139 -0.0376
 6948SOL    HW132480   1.739   4.189  15.754 -1.2301  1.4008 -2.5140
 6948SOL    HW232481   1.762   4.284  15.637 -0.4410  1.1801  1.0336
 6949SOL     OW32482   1.645   4.694   4.681  0.3279  0.0793 -0.5889
 6949SOL    HW132483   1.588   4.627   4.644 -0.4244  2.1441 -3.1498
 6949SOL    HW232484   1.714   4.709   4.618  0.0769  1.3828 -0.5586
 6950SOL     OW32485   4.595   2.077  10.061 -0.3624 -0.1128 -0.7882
 6950SOL    HW132486   4.606   2.032  10.144  0.7330 -0.1739 -0.9684
 6950SOL    HW232487   4.502   2.063  10.042 -0.7786 -2.4575  2.9958
 6951SOL     OW32488   2.819   1.568   7.771 -0.1410 -0.6442 -0.3339
 6951SOL    HW132489   2.883   1.530   7.711  0.3009 -0.5558  0.0814
 6951SOL    HW232490   2.876   1.636   7.806 -0.3328 -0.1387 -0.9911
 6952SOL     OW32491   0.523   1.930   3.968  0.7497 -0.1107 -0.5683
 6952SOL    HW132492   0.450   1.992   3.976  0.9211  0.0927 -0.5772
 6952SOL    HW232493   0.577   1.941   4.046  1.0101  1.4991 -0.9795
 6953SOL     OW32494   3.444   0.443   6.710  0.5579  0.2540 -0.0475
 6953SOL    HW132495   3.497   0.463   6.633 -1.2191  0.3038 -1.2563
 6953SOL    HW232496   3.363   0.422   6.664  1.9953 -0.7417 -2.0884
 6954SOL     OW32497   0.655   4.519   7.469 -0.2164  0.5092  0.1712
 6954SOL    HW132498   0.748   4.539   7.476  0.4802 -2.8221  0.2021
 6954SOL    HW232499   0.632   4.586   7.405  2.0587  1.8595  0.7595
 6955SOL     OW32500   3.215   3.298   4.646  0.2702  0.2095  0.3331
 6955SOL    HW132501   3.124   3.327   4.640  0.0649 -0.5544 -0.2917
 6955SOL    HW232502   3.251   3.345   4.571 -0.7575  1.5754  0.7009
 6956SOL     OW32503   0.219   1.499   7.297  0.9693 -0.0085 -0.4546
 6956SOL    HW132504   0.280   1.438   7.338  0.7772  0.0521 -0.0835
 6956SOL    HW232505   0.284   1.568   7.283  1.6362 -0.0556  2.5011
 6957SOL     OW32506   1.607   0.890  13.532 -0.2833  0.1854  0.1156
 6957SOL    HW132507   1.617   0.977  13.571  1.5438 -1.0786  2.4998
 6957SOL    HW232508   1.596   0.838  13.612 -0.3253 -1.1753 -0.7662
 6958SOL     OW32509   1.348   0.348   3.841 -0.1791  0.1990 -0.0861
 6958SOL    HW132510   1.354   0.313   3.752  0.6572 -0.8549  0.3728
 6958SOL    HW232511   1.439   0.339   3.871  0.0887  0.2941 -0.8872
 6959SOL     OW32512   4.074   0.386  14.340  0.5063  0.0324  0.2145
 6959SOL    HW132513   4.077   0.407  14.247  0.7028 -1.6188 -0.1488
 6959SOL    HW232514   4.154   0.334  14.345  0.1985 -0.4748 -0.2562
 6960SOL     OW32515   1.739   1.837   9.996 -0.2889  0.0408 -0.0845
 6960SOL    HW132516   1.717   1.809   9.907  0.2440 -1.9591  0.4094
 6960SOL    HW232517   1.691   1.772  10.048 -0.2610 -0.2760 -0.4566
 6961SOL     OW32518   0.927   1.760   8.230  0.0081 -0.1102  0.0509
 6961SOL    HW132519   0.953   1.715   8.150  0.8271  0.4200  0.0173
 6961SOL    HW232520   0.837   1.731   8.242  0.4779 -0.9185  1.6833
 6962SOL     OW32521   0.501   2.799   8.518 -0.0986 -0.2356  1.2667
 6962SOL    HW132522   0.424   2.742   8.529 -0.5839 -0.1073 -1.5502
 6962SOL    HW232523   0.477   2.879   8.565  0.1329  0.5911 -0.0465
 6963SOL     OW32524   2.026   0.864  17.280  0.0615 -1.0084  0.0534
 6963SOL    HW132525   1.965   0.905  17.220  0.6103  0.5478  0.5716
 6963SOL    HW232526   1.992   0.909  17.358  1.8153  0.4240 -0.0093
 6964SOL     OW32527   2.571   0.436  11.372  0.3113  0.5375 -0.3320
 6964SOL    HW132528   2.545   0.488  11.296 -2.3648  1.8102  1.4250
 6964SOL    HW232529   2.487   0.425  11.417  0.0170  2.9044 -0.2543
 6965SOL     OW32530   0.673   1.781  15.325  0.2969 -0.1750  0.1855
 6965SOL    HW132531   0.622   1.804  15.247 -3.0731 -1.1716  2.1284
 6965SOL    HW232532   0.695   1.689  15.312  1.7852  0.2495 -0.3347
 6966SOL     OW32533   0.548   3.179   5.887 -0.1054  0.8382 -0.5678
 6966SOL    HW132534   0.585   3.263   5.862  0.1898  0.4533 -1.4384
 6966SOL    HW232535   0.613   3.148   5.950 -0.2831 -0.1890 -0.8933
 6967SOL     OW32536   3.627   2.010  14.364 -0.2587 -0.6246 -0.0681
 6967SOL    HW132537   3.678   2.078  14.410 -1.8364 -0.6016  1.6582
 6967SOL    HW232538   3.674   1.930  14.388  0.1716 -0.3780 -0.0797
 6968SOL     OW32539   1.834   3.812   7.998 -0.2343  0.0873 -0.5164
 6968SOL    HW132540   1.773   3.758   8.047 -0.9146  0.2408 -1.1934
 6968SOL    HW232541   1.835   3.896   8.044  2.7395  1.0443 -2.3064
 6969SOL     OW32542   4.702   1.172   6.211 -0.3547 -0.0478  0.5750
 6969SOL    HW132543   4.703   1.221   6.293 -0.8407 -1.7202  1.6018
 6969SOL    HW232544   4.640   1.102   6.232 -2.1690  2.1408  2.4868
 6970SOL     OW32545   1.172   4.736   6.864 -0.6789  0.0722  0.3126
 6970SOL    HW132546   1.086   0.022   6.900 -0.2255 -0.1436  1.5437
 6970SOL    HW232547   1.168   0.058   6.789 -3.8202  0.0535  0.4894
 6971SOL     OW32548   4.032   0.136   5.377  0.2412 -0.2820 -0.0334
 6971SOL    HW132549   4.018   0.102   5.289  1.2849  0.7401 -0.6042
 6971SOL    HW232550   4.015   0.230   5.363  0.4285 -0.2811 -0.2591
 6972SOL     OW32551   3.936   3.936   6.667  0.1444  0.2886 -0.3058
 6972SOL    HW132552   3.864   3.926   6.605  0.2181 -1.1791 -0.1698
 6972SOL    HW232553   3.898   3.999   6.728 -0.9974 -1.2811  0.6248
 6973SOL     OW32554   3.063   0.666   3.211 -0.1232  0.3312  0.6511
 6973SOL    HW132555   3.045   0.639   3.121  0.6465 -1.7641  1.1245
 6973SOL    HW232556   2.975   0.677   3.246 -0.3800 -0.0693  0.1223
 6974SOL     OW32557   3.317   2.453   3.520 -0.2811 -0.6411 -0.1910
 6974SOL    HW132558   3.394   2.396   3.513  0.2399 -0.1024  1.0193
 6974SOL    HW232559   3.303   2.446   3.615  0.3614  0.6140 -0.0003
 6975SOL     OW32560   2.950   0.094   3.050 -0.2637 -0.4403  0.0528
 6975SOL    HW132561   3.019   0.148   3.013 -0.2698  0.0915  0.8279
 6975SOL    HW232562   2.887   0.161   3.075  0.4055  0.6408 -1.1639
 6976SOL     OW32563   4.703   1.919   7.944 -0.0290  0.1282 -0.6099
 6976SOL    HW132564   0.025   1.973   7.997 -0.4234 -0.5837  0.5711
 6976SOL    HW232565   4.683   1.855   8.012  0.2328  3.1488  2.3143
 6977SOL     OW32566   1.839   2.484  15.894  0.4336 -0.0831 -0.0318
 6977SOL    HW132567   1.758   2.501  15.846 -0.3218 -0.4665  1.0803
 6977SOL    HW232568   1.801   2.470  15.981 -1.3499 -1.2256 -0.9718
 6978SOL     OW32569   3.215   2.778   6.984 -0.3405 -0.7217 -0.0619
 6978SOL    HW132570   3.209   2.755   7.076  2.4206  5.2268  1.6416
 6978SOL    HW232571   3.178   2.706   6.933  0.6226 -0.7391 -0.7348
 6979SOL     OW32572   3.267   3.789   1.646 -0.5348  0.1369 -0.7946
 6979SOL    HW132573   3.272   3.873   1.691 -0.7614 -0.9608  1.3023
 6979SOL    HW232574   3.284   3.816   1.556  0.3965  2.2186  0.0108
 6980SOL     OW32575   0.967   2.188  12.692 -0.1127 -0.9043  0.2103
 6980SOL    HW132576   0.876   2.217  12.681 -0.2927 -0.4174  2.8673
 6980SOL    HW232577   0.964   2.132  12.614 -2.1237  2.0266 -1.7986
 6981SOL     OW32578   4.301   2.210   8.493 -0.1422  0.7803 -0.1953
 6981SOL    HW132579   4.213   2.172   8.505  0.1075  0.4157  0.5052
 6981SOL    HW232580   4.309   2.209   8.398  1.1168 -2.3483 -0.0623
 6982SOL     OW32581   4.282   0.300   3.876  0.7117  0.6223  0.5871
 6982SOL    HW132582   4.319   0.334   3.958 -1.0895  0.9441  1.2723
 6982SOL    HW232583   4.189   0.325   3.879 -0.0707 -2.2491  0.3127
 6983SOL     OW32584   4.034   3.163   5.470 -0.1557  0.3235 -0.0765
 6983SOL    HW132585   3.983   3.094   5.428 -1.5739  0.8554  0.7945
 6983SOL    HW232586   3.987   3.182   5.551  0.8928 -0.8020  0.8072
 6984SOL     OW32587   0.701   3.664   9.652 -0.2757 -0.1485  0.1846
 6984SOL    HW132588   0.758   3.625   9.586  1.5980 -0.1336  1.7738
 6984SOL    HW232589   0.716   3.607   9.728 -0.3797 -1.0413 -0.4591
 6985SOL     OW32590   0.153   1.525   4.484 -0.3157 -0.4251  0.0853
 6985SOL    HW132591   0.167   1.436   4.453 -1.3847 -1.0895  1.5320
 6985SOL    HW232592   0.069   1.546   4.443  0.3802  0.7282 -0.7417
 6986SOL     OW32593   1.132   4.244  10.938 -0.3017 -0.4493  0.0781
 6986SOL    HW132594   1.187   4.322  10.944 -1.2851  0.1544  1.3476
 6986SOL    HW232595   1.048   4.284  10.914 -2.0711 -3.4257  1.3117
 6987SOL     OW32596   2.170   0.378   1.253  0.4384  0.0889  0.3876
 6987SOL    HW132597   2.204   0.301   1.208  1.1263 -0.5895  2.0780
 6987SOL    HW232598   2.077   0.362   1.272  0.3573  1.1668  0.9267
 6988SOL     OW32599   3.703   2.394  10.758  0.0926 -0.4002  0.4074
 6988SOL    HW132600   3.609   2.407  10.766  0.2661  1.1442 -0.0722
 6988SOL    HW232601   3.745   2.466  10.806 -2.3546  0.2725  1.5171
 6989SOL     OW32602   3.066   1.831  14.151  0.6283 -0.2141 -0.4558
 6989SOL    HW132603   3.071   1.902  14.088 -1.1411  1.7486  1.5863
 6989SOL    HW232604   3.161   1.826  14.159  0.8561  0.3249 -2.9546
 6990SOL     OW32605   4.672   2.299  12.539 -0.1131 -0.3416 -0.0667
 6990SOL    HW132606   4.592   2.254  12.514  0.3399 -0.4385 -1.3707
 6990SOL    HW232607   4.645   2.325  12.627  0.1734  0.9952 -0.3642
 6991SOL     OW32608   3.097   1.055  15.470 -0.3834 -0.1554  0.6365
 6991SOL    HW132609   3.100   0.965  15.437 -0.0923 -1.1398  3.3507
 6991SOL    HW232610   3.002   1.068  15.475 -0.3216 -0.8687  3.7015
 6992SOL     OW32611   0.689   3.038   7.953  0.0322 -0.2922 -0.0599
 6992SOL    HW132612   0.770   3.085   7.973 -0.2467  0.4593 -0.6915
 6992SOL    HW232613   0.627   3.058   8.024 -1.0268  0.6761 -1.2619
 6993SOL     OW32614   2.269   2.771   2.791 -0.1194 -0.3291  0.2893
 6993SOL    HW132615   2.351   2.738   2.754  0.0073  0.6140 -0.2757
 6993SOL    HW232616   2.295   2.839   2.852  1.5681 -1.3010  0.6513
 6994SOL     OW32617   2.819   3.080   4.671  0.2983  0.3529 -0.3596
 6994SOL    HW132618   2.849   3.026   4.597 -0.1787  0.8499 -0.9109
 6994SOL    HW232619   2.888   3.076   4.738  0.8740 -2.7219 -1.1431
 6995SOL     OW32620   2.519   1.383   8.030  0.3898 -0.8168  0.9329
 6995SOL    HW132621   2.534   1.289   8.046 -1.3925 -0.9072  2.1077
 6995SOL    HW232622   2.524   1.396   7.935 -0.6228 -2.3349  0.6617
 6996SOL     OW32623   3.244   3.263   2.383  0.1383 -0.4026  0.2444
 6996SOL    HW132624   3.291   3.226   2.458  1.5263 -0.6006 -0.7253
 6996SOL    HW232625   3.187   3.331   2.419 -1.0231 -0.6383 -1.1404
 6997SOL     OW32626   2.992   3.731   8.503 -0.8397 -0.3091  0.0135
 6997SOL    HW132627   2.899   3.752   8.491 -0.5274  0.5570 -0.9075
 6997SOL    HW232628   2.976   3.656   8.560 -0.2745 -1.2615 -1.0876
 6998SOL     OW32629   1.388   1.735   9.728  0.2665  0.0220 -0.1894
 6998SOL    HW132630   1.454   1.745   9.796 -0.4893 -2.1810  0.8650
 6998SOL    HW232631   1.307   1.731   9.780  0.1569  1.3640 -0.2574
 6999SOL     OW32632   4.691   0.449   4.538 -0.1744 -0.1694  0.3084
 6999SOL    HW132633   4.610   0.441   4.488  1.4225 -1.3544 -2.0527
 6999SOL    HW232634   4.716   0.538   4.515 -2.4061  0.1567 -0.9149
 7000SOL     OW32635   4.435   0.276   9.351 -0.3096  0.3167  0.0260
 7000SOL    HW132636   4.393   0.362   9.344  0.9547  0.9656  0.5655
 7000SOL    HW232637   4.367   0.241   9.409 -0.8744  0.9601 -0.2539
 7001SOL     OW32638   2.067   1.401   8.015 -0.1690 -0.0501 -0.1422
 7001SOL    HW132639   1.981   1.360   8.024 -0.5502  0.5723 -0.9908
 7001SOL    HW232640   2.046   1.492   7.995  1.3841  0.4712  0.6620
 7002SOL     OW32641   2.126   2.882   9.821  0.6444 -0.1168 -0.5892
 7002SOL    HW132642   2.212   2.853   9.851  1.2816  1.8291 -0.5343
 7002SOL    HW232643   2.076   2.823   9.878 -0.1252  1.5717  0.4688
 7003SOL     OW32644   3.887   1.945   6.056 -0.1286 -0.3940  0.1048
 7003SOL    HW132645   3.875   1.892   5.977 -0.3193  0.2362 -0.2871
 7003SOL    HW232646   3.802   1.927   6.096 -0.6639  0.9174 -0.4472
 7004SOL     OW32647   2.276   2.471   4.162 -0.2918 -0.2767  0.3923
 7004SOL    HW132648   2.267   2.552   4.113 -0.7495 -0.3968  0.2790
 7004SOL    HW232649   2.279   2.403   4.095 -0.2756 -0.6910  0.8139
 7005SOL     OW32650   3.883   4.477   5.512  0.4336 -0.4068 -0.5726
 7005SOL    HW132651   3.915   4.487   5.422  0.5285  0.4361 -0.4364
 7005SOL    HW232652   3.954   4.420   5.542  1.6755 -0.0208 -2.7740
 7006SOL     OW32653   4.605   0.023   6.766  0.0934 -0.0083  0.3034
 7006SOL    HW132654   4.634   4.682   6.812  0.4813  1.1933  2.1203
 7006SOL    HW232655   4.522   0.037   6.811 -0.1639  1.5899 -0.6801
 7007SOL     OW32656   0.384   0.878   7.532 -0.8680 -0.1147  0.1308
 7007SOL    HW132657   0.446   0.822   7.484  1.5008  1.2890  1.5778
 7007SOL    HW232658   0.303   0.839   7.499 -0.7000 -1.1552  0.9515
 7008SOL     OW32659   3.572   2.661   3.246 -0.3144  0.1310  0.3129
 7008SOL    HW132660   3.559   2.680   3.153  1.2560 -1.3360 -0.2238
 7008SOL    HW232661   3.559   2.566   3.245 -2.6130  0.4477  0.5912
 7009SOL     OW32662   4.431   0.804   1.739  0.0191 -0.7147  0.4574
 7009SOL    HW132663   4.376   0.772   1.667 -0.8481 -0.0700  0.8375
 7009SOL    HW232664   4.372   0.793   1.813 -0.5597 -1.6363 -0.1412
 7010SOL     OW32665   2.357   1.676   4.467  0.0408  0.1353  0.0123
 7010SOL    HW132666   2.361   1.581   4.478  0.9355  0.0319 -1.2829
 7010SOL    HW232667   2.408   1.669   4.386  0.0238 -0.5274  0.0559
 7011SOL     OW32668   4.394   3.675   0.062  0.1145 -0.5465  0.1770
 7011SOL    HW132669   4.372   3.767   0.062  2.3434 -0.0007  0.1657
 7011SOL    HW232670   4.481   3.682   0.022 -0.4055 -0.6634 -0.9664
 7012SOL     OW32671   3.397   0.071   3.947  0.1235  0.4991 -0.5213
 7012SOL    HW132672   3.378   4.715   3.958  0.8496  0.3991 -0.1401
 7012SOL    HW232673   3.352   0.086   3.864 -2.3398 -0.6259  0.6102
 7013SOL     OW32674   1.548   2.668   9.277 -0.6097  0.0016 -0.1166
 7013SOL    HW132675   1.548   2.762   9.293 -1.2616  0.1139 -0.8169
 7013SOL    HW232676   1.531   2.642   9.368 -1.0569 -0.1975 -0.2579
 7014SOL     OW32677   0.408   4.134   6.787  0.3729  0.3360  0.3863
 7014SOL    HW132678   0.399   4.126   6.882  0.6772 -0.5530  0.3430
 7014SOL    HW232679   0.316   4.127   6.762  0.1906  4.2018  0.0358
 7015SOL     OW32680   4.062   4.357   9.124  0.2568 -0.3917 -0.8950
 7015SOL    HW132681   4.115   4.362   9.203  0.2911  1.0584 -1.0048
 7015SOL    HW232682   4.126   4.319   9.063  1.4666  0.6733 -0.3005
 7016SOL     OW32683   0.101   0.497   7.123  0.5990  0.1278 -0.1517
 7016SOL    HW132684   0.162   0.519   7.053  0.6182  2.2736  0.5432
 7016SOL    HW232685   0.029   0.459   7.072  2.5468 -2.8831 -0.6384
 7017SOL     OW32686   0.164   1.834   3.669  0.3818  0.5265 -0.1267
 7017SOL    HW132687   0.145   1.903   3.606 -3.1694 -0.2522  0.0788
 7017SOL    HW232688   0.259   1.825   3.663  0.4622  1.4144 -0.2447
 7018SOL     OW32689   4.678   1.406   5.519 -0.1814 -0.3864 -0.1622
 7018SOL    HW132690   4.695   1.333   5.578 -0.7833 -0.2165  0.2243
 7018SOL    HW232691   4.680   1.368   5.431  1.0490 -0.9872  0.1309
 7019SOL     OW32692   3.978   2.056   7.434  0.5086 -0.6312 -0.6895
 7019SOL    HW132693   4.005   2.099   7.354  2.6100 -0.6392  0.0127
 7019SOL    HW232694   3.885   2.075   7.448  0.6180 -0.8862  0.4199
 7020SOL     OW32695   0.372   3.363   8.641 -0.0049 -0.8726  0.1340
 7020SOL    HW132696   0.299   3.301   8.641 -1.2249  0.5660 -1.3883
 7020SOL    HW232697   0.357   3.410   8.724 -3.1249 -2.7248  0.6186
 7021SOL     OW32698   2.857   3.339   2.912  0.1073 -0.1227 -0.8409
 7021SOL    HW132699   2.884   3.382   2.993  0.3678  0.6528 -1.3372
 7021SOL    HW232700   2.828   3.418   2.867  0.8880  0.7986  0.2877
 7022SOL     OW32701   0.654   1.447   3.345  0.2389 -0.1370 -0.3583
 7022SOL    HW132702   0.648   1.489   3.259  2.7745 -0.1887 -0.5448
 7022SOL    HW232703   0.727   1.388   3.330  1.3489  1.2125 -0.2906
 7023SOL     OW32704   2.487   3.010   8.433  0.0316 -0.3565 -0.1888
 7023SOL    HW132705   2.570   2.984   8.392  1.4843  1.8467  1.3813
 7023SOL    HW232706   2.459   3.087   8.384  0.4934 -0.4118 -0.5454
 7024SOL     OW32707   0.684   2.859   2.325 -0.1681 -0.6018  0.3802
 7024SOL    HW132708   0.597   2.859   2.365 -1.0460  3.6803 -1.6193
 7024SOL    HW232709   0.702   2.951   2.309 -3.8710 -0.1136 -0.7523
 7025SOL     OW32710   2.735   3.041  12.261  0.5108  0.1604  0.3001
 7025SOL    HW132711   2.739   3.030  12.166 -0.6387  0.0070  0.2744
 7025SOL    HW232712   2.748   2.949  12.283 -0.7575  0.3849  1.9723
 7026SOL     OW32713   0.894   4.288   9.812 -0.1986 -0.0143  0.5741
 7026SOL    HW132714   0.923   4.357   9.872  0.2360 -0.8411  1.3141
 7026SOL    HW232715   0.981   4.268   9.778 -1.2517 -2.2406 -0.8565
 7027SOL     OW32716   4.015   1.308  13.865 -0.1430  0.0893  0.4438
 7027SOL    HW132717   4.036   1.247  13.936  0.2113  0.7641  0.9237
 7027SOL    HW232718   4.018   1.246  13.793 -1.2074  1.5200 -0.8265
 7028SOL     OW32719   4.387   3.741  16.435 -0.2871 -0.5496 -1.0495
 7028SOL    HW132720   4.446   3.769  16.365  0.7626  0.0921  0.1033
 7028SOL    HW232721   4.347   3.666  16.391  1.0319 -1.2435 -1.0445
 7029SOL     OW32722   3.948   2.791   7.967 -0.3542  0.3658 -0.0262
 7029SOL    HW132723   3.952   2.814   7.874 -2.5913  0.1786 -0.1602
 7029SOL    HW232724   3.947   2.696   7.960  0.5117  0.1711  2.5233
 7030SOL     OW32725   4.142   3.882  11.770 -0.1488 -0.3883  0.1755
 7030SOL    HW132726   4.086   3.908  11.843 -0.2542  0.9537 -0.3733
 7030SOL    HW232727   4.209   3.948  11.789  0.0934 -0.8332  0.8766
 7031SOL     OW32728   0.497   2.388  12.739 -0.7749 -0.5716 -0.2866
 7031SOL    HW132729   0.416   2.438  12.749 -0.3846 -0.0772  0.4300
 7031SOL    HW232730   0.485   2.335  12.818 -1.0797  0.9382  0.6809
 7032SOL     OW32731   1.719   4.102   5.375 -0.5927 -0.8664  0.4206
 7032SOL    HW132732   1.641   4.133   5.329  0.0538  1.5208  0.8926
 7032SOL    HW232733   1.708   4.136   5.464 -0.3182  3.3109 -1.1158
 7033SOL     OW32734   2.699   0.703   3.808  0.0954 -0.4929  0.5222
 7033SOL    HW132735   2.713   0.797   3.804  1.4469 -0.6797  1.0629
 7033SOL    HW232736   2.604   0.701   3.798  0.2182 -0.6708 -0.5695
 7034SOL     OW32737   1.687   1.655   7.534  0.2588 -0.7515  0.5126
 7034SOL    HW132738   1.681   1.638   7.628  1.0525  0.9673  0.8704
 7034SOL    HW232739   1.782   1.644   7.529  0.0702 -1.1073 -2.7267
 7035SOL     OW32740   2.665   1.070   4.012 -0.0506 -0.2871  0.2179
 7035SOL    HW132741   2.682   1.031   4.098 -1.1500 -2.7745 -0.6912
 7035SOL    HW232742   2.657   1.160   4.042  2.4879 -0.6696  2.0817
 7036SOL     OW32743   0.664   2.735   4.825  0.0447  0.0254 -0.3549
 7036SOL    HW132744   0.745   2.782   4.808  0.0623 -0.4128 -1.4700
 7036SOL    HW232745   0.689   2.711   4.915 -0.6628 -1.2517 -0.4949
 7037SOL     OW32746   4.513   4.465   3.982  0.2595  0.0878  0.7576
 7037SOL    HW132747   4.436   4.408   3.987 -0.8206  1.4789  0.1632
 7037SOL    HW232748   4.585   4.403   3.978 -1.5644 -2.0728  1.1996
 7038SOL     OW32749   3.620   2.765  16.706  0.3716 -0.3171  0.4662
 7038SOL    HW132750   3.555   2.701  16.736 -1.4190  1.5650  0.5747
 7038SOL    HW232751   3.689   2.751  16.771  1.5697  0.0436 -0.7265
 7039SOL     OW32752   2.908   3.208   3.319 -0.2566  0.1879  0.0415
 7039SOL    HW132753   2.832   3.150   3.319 -0.7873  0.8819 -0.3050
 7039SOL    HW232754   2.883   3.276   3.257 -1.7423 -1.5139 -1.1962
 7040SOL     OW32755   2.723   1.307   1.774  0.2946  0.2487 -0.7567
 7040SOL    HW132756   2.710   1.400   1.794 -3.4276 -0.0279 -1.9904
 7040SOL    HW232757   2.771   1.306   1.691 -0.4899 -0.4519 -1.1857
 7041SOL     OW32758   1.232   1.769  11.397  0.1615 -0.2440 -0.2730
 7041SOL    HW132759   1.195   1.852  11.426  0.9282 -0.6898  2.0032
 7041SOL    HW232760   1.321   1.769  11.432  0.2482  3.3213 -0.4906
 7042SOL     OW32761   1.054   2.969  17.657  0.0171 -0.2363  0.3797
 7042SOL    HW132762   1.022   3.045  17.607 -0.0749 -0.1799  0.5226
 7042SOL    HW232763   1.047   2.903  17.588 -0.9075 -0.4201  0.6417
 7043SOL     OW32764   0.655   2.087   8.745 -0.0972  0.4144  0.3793
 7043SOL    HW132765   0.679   1.998   8.771  0.0113  0.9114  2.0251
 7043SOL    HW232766   0.659   2.095   8.650  0.7493  1.3628  0.4894
 7044SOL     OW32767   2.588   0.518   2.182 -0.5449  0.3035  0.3063
 7044SOL    HW132768   2.665   0.521   2.125 -0.2826  3.4370  0.8229
 7044SOL    HW232769   2.551   0.601   2.153 -0.6931  0.5881  1.2987
 7045SOL     OW32770   3.053   4.190   5.950  0.0663  0.2212 -0.2069
 7045SOL    HW132771   3.090   4.212   5.865  2.0193  1.8841  1.0644
 7045SOL    HW232772   3.107   4.113   5.970  1.7805  0.9200 -2.2015
 7046SOL     OW32773   3.723   2.153   7.484 -0.3193 -0.1353  0.4736
 7046SOL    HW132774   3.715   2.150   7.579 -1.3603  0.5994  0.4099
 7046SOL    HW232775   3.634   2.139   7.450  0.3400 -0.0918 -1.2791
 7047SOL     OW32776   0.512   1.383   7.713 -0.4962  0.0062 -0.9439
 7047SOL    HW132777   0.461   1.327   7.655 -0.9921 -1.4958  0.9142
 7047SOL    HW232778   0.599   1.387   7.674  0.6511 -3.1048  1.3355
 7048SOL     OW32779   0.761   3.819  16.790  0.1346  0.4253  0.7524
 7048SOL    HW132780   0.731   3.758  16.722  1.3922 -0.7251  1.2054
 7048SOL    HW232781   0.822   3.869  16.736 -0.5716 -1.1143 -1.4605
 7049SOL     OW32782   4.564   1.445   6.430 -0.0329  0.2918  0.1280
 7049SOL    HW132783   4.626   1.374   6.448  0.0471  0.8092  1.8922
 7049SOL    HW232784   4.612   1.496   6.364 -3.0704 -1.5183 -3.5147
 7050SOL     OW32785   1.472   4.325   8.382  0.3492 -0.3800  0.9649
 7050SOL    HW132786   1.461   4.311   8.476  1.1252 -0.6953  1.0111
 7050SOL    HW232787   1.439   4.413   8.361  2.9560  0.6593  1.2536
 7051SOL     OW32788   3.741   0.362   6.871 -0.2540 -0.2465 -0.2003
 7051SOL    HW132789   3.804   0.338   6.939 -3.2750  0.8458  2.9773
 7051SOL    HW232790   3.799   0.378   6.797  1.0295 -0.9319  0.6597
 7052SOL     OW32791   1.765   0.020   7.307  0.0286 -0.6053 -0.7029
 7052SOL    HW132792   1.839   4.703   7.335  0.9127  0.1800 -1.4832
 7052SOL    HW232793   1.709   0.016   7.384  0.6286  1.2527 -0.1767
 7053SOL     OW32794   4.464   4.719   3.855 -0.2800  0.0715 -0.2089
 7053SOL    HW132795   4.507   0.047   3.910  1.8957 -0.7234 -0.9847
 7053SOL    HW232796   4.457   4.646   3.917 -0.7004  0.9382  0.7727
 7054SOL     OW32797   2.462   4.099   4.326  0.4905 -0.4462  0.1067
 7054SOL    HW132798   2.388   4.072   4.381  1.1348  0.2473  1.3093
 7054SOL    HW232799   2.456   4.024   4.267  2.6281  0.2072 -0.9667
 7055SOL     OW32800   4.612   2.703   1.378 -0.4774 -0.3836 -0.0133
 7055SOL    HW132801   4.681   2.637   1.372  0.3991  0.5800 -0.5547
 7055SOL    HW232802   4.661   2.784   1.365 -1.2171 -0.2726 -2.0735
 7056SOL     OW32803   0.963   2.704   2.835  0.3855 -0.1174 -0.3952
 7056SOL    HW132804   0.908   2.782   2.845  1.1838  0.6751 -2.1953
 7056SOL    HW232805   0.899   2.636   2.855  0.1074  0.1636 -0.3273
 7057SOL     OW32806   2.142   2.779  10.185  0.2471  0.1305 -0.5285
 7057SOL    HW132807   2.206   2.845  10.158 -0.3463  1.6900  1.8889
 7057SOL    HW232808   2.139   2.792  10.280 -0.3457  2.2573 -0.8604
 7058SOL     OW32809   2.575   3.571   1.265  0.0065  0.4044  0.3963
 7058SOL    HW132810   2.540   3.615   1.187  2.0834  0.4497 -0.5115
 7058SOL    HW232811   2.623   3.645   1.302 -0.8733 -0.6453  3.6348
 7059SOL     OW32812   3.856   4.425  17.134  0.8221  0.1277 -0.4302
 7059SOL    HW132813   3.906   4.429  17.053  0.4912  1.9042 -0.5621
 7059SOL    HW232814   3.924   4.432  17.202 -0.5535  0.0264  0.9657
 7060SOL     OW32815   3.429   0.813   9.920 -0.5217  0.1858  1.0508
 7060SOL    HW132816   3.334   0.818   9.930 -0.8200 -1.7954 -0.8064
 7060SOL    HW232817   3.444   0.874   9.847 -1.0819  0.3181  1.0458
 7061SOL     OW32818   4.309   4.127   3.567  0.0505  0.1269 -0.3123
 7061SOL    HW132819   4.238   4.063   3.561  0.2344 -0.3467  2.5310
 7061SOL    HW232820   4.270   4.188   3.503 -0.3263  1.1276  0.8645
 7062SOL     OW32821   4.202   1.903   6.907 -0.1497 -0.2671  0.2793
 7062SOL    HW132822   4.141   1.931   6.839 -0.5085 -0.8358  0.3616
 7062SOL    HW232823   4.280   1.896   6.853  2.1891  0.7174  3.4881
 7063SOL     OW32824   0.666   1.304   3.670  0.0237  0.6209  0.1263
 7063SOL    HW132825   0.590   1.361   3.685 -1.3913 -0.7758 -1.5858
 7063SOL    HW232826   0.735   1.369   3.663  1.9601 -1.2214  2.3250
 7064SOL     OW32827   1.717   1.171  15.383  0.2618 -0.3634  0.2432
 7064SOL    HW132828   1.730   1.218  15.465  0.5715  1.2595 -0.7373
 7064SOL    HW232829   1.749   1.083  15.404 -0.9741 -0.9141 -0.1646
 7065SOL     OW32830   0.310   3.652   3.512  0.1518 -0.1377  0.5450
 7065SOL    HW132831   0.326   3.718   3.579  0.1449 -0.5503  0.9525
 7065SOL    HW232832   0.239   3.610   3.561  0.6426 -2.1279 -0.4558
 7066SOL     OW32833   4.657   1.748   8.162  0.2671 -0.0560 -0.0470
 7066SOL    HW132834   4.614   1.763   8.246  3.1020  3.1719  0.8327
 7066SOL    HW232835   4.580   1.729   8.108  0.1031  0.7882 -0.1112
 7067SOL     OW32836   3.052   0.543   2.968  0.1753  0.5744  0.2982
 7067SOL    HW132837   3.029   0.527   2.876 -1.2005  2.2839  0.3374
 7067SOL    HW232838   3.140   0.509   2.979  0.7077  1.7639 -0.2864
 7068SOL     OW32839   2.966   3.333   5.068 -0.0072 -0.3203  0.8319
 7068SOL    HW132840   2.987   3.292   4.984  1.0573  2.5841 -0.3374
 7068SOL    HW232841   3.004   3.264   5.123 -0.0049 -1.4423 -0.5859
 7069SOL     OW32842   0.069   2.875   2.598  0.9685  0.1992  0.0814
 7069SOL    HW132843   0.108   2.960   2.578  0.3221  0.5091  0.1515
 7069SOL    HW232844   0.150   2.836   2.631  1.8939  0.7518 -1.4965
 7070SOL     OW32845   0.810   1.630   5.943 -0.2842 -0.2440  0.0442
 7070SOL    HW132846   0.733   1.579   5.918 -1.3208  0.8324  1.0350
 7070SOL    HW232847   0.883   1.574   5.919  0.6405  1.4114 -1.0245
 7071SOL     OW32848   1.255   2.008   8.136 -0.0003 -0.4367  0.0792
 7071SOL    HW132849   1.328   1.947   8.148  1.1917  1.0354  0.2794
 7071SOL    HW232850   1.296   2.090   8.164 -2.7247  0.6615  0.9220
 7072SOL     OW32851   1.696   0.258   9.630  0.0324 -0.0620  0.4161
 7072SOL    HW132852   1.697   0.264   9.534  2.3977 -1.3844  0.3426
 7072SOL    HW232853   1.760   0.187   9.636 -0.7194 -0.7510  0.1541
 7073SOL     OW32854   1.685   1.547  16.442 -0.0612  0.3000  0.1940
 7073SOL    HW132855   1.605   1.571  16.396  0.7986  1.9255 -0.4700
 7073SOL    HW232856   1.747   1.614  16.412  1.4488 -1.0717  0.2263
 7074SOL     OW32857   4.249   2.635  15.873  0.0490  0.0548  0.0321
 7074SOL    HW132858   4.243   2.574  15.947  1.9417 -0.0753  0.0834
 7074SOL    HW232859   4.229   2.713  15.925 -0.0383 -1.7432  2.7353
 7075SOL     OW32860   1.372   3.728   1.631  0.1682 -0.8884 -0.3340
 7075SOL    HW132861   1.430   3.707   1.557  0.7571 -2.5442  0.5927
 7075SOL    HW232862   1.306   3.785   1.592 -0.4850 -0.3538  1.5379
 7076SOL     OW32863   4.118   3.550   2.805  0.3390 -0.0745 -0.1966
 7076SOL    HW132864   4.045   3.552   2.867  0.1690  0.9354 -0.4214
 7076SOL    HW232865   4.114   3.458   2.780 -0.9643 -0.4107  1.2566
 7077SOL     OW32866   2.626   3.038   3.523 -0.4931 -0.0107 -0.5357
 7077SOL    HW132867   2.687   2.998   3.461  0.2928 -0.9527  0.8445
 7077SOL    HW232868   2.549   3.038   3.466 -2.0997 -1.1234  1.6558
 7078SOL     OW32869   1.874   4.575   9.434  0.2701  0.0151  0.4249
 7078SOL    HW132870   1.805   4.518   9.402  3.5169 -3.6988  0.0051
 7078SOL    HW232871   1.879   4.629   9.356 -1.2913  0.0153  0.3264
 7079SOL     OW32872   2.478   0.196   8.022  0.3324  0.0908  0.3251
 7079SOL    HW132873   2.475   0.113   8.069 -1.0587 -0.7041 -1.1792
 7079SOL    HW232874   2.564   0.234   8.044 -0.2409  1.3718  0.3700
 7080SOL     OW32875   4.143   3.916   5.508  0.1211 -0.0141 -0.1835
 7080SOL    HW132876   4.162   3.987   5.447  0.7842  0.1555  0.2190
 7080SOL    HW232877   4.057   3.934   5.544 -0.6981  0.0092 -2.1349
 7081SOL     OW32878   4.492   3.846   4.922  0.1610  0.0528 -0.1092
 7081SOL    HW132879   4.569   3.894   4.893  0.4023 -0.6258 -0.5873
 7081SOL    HW232880   4.439   3.828   4.844  1.2347  0.9098 -1.0260
 7082SOL     OW32881   2.873   1.430   7.135  0.1165 -0.3607  0.0375
 7082SOL    HW132882   2.963   1.461   7.123 -1.1676  3.0451 -0.6206
 7082SOL    HW232883   2.831   1.496   7.190 -2.4954 -1.5033 -0.5680
 7083SOL     OW32884   2.741   1.810   8.070 -0.3621 -0.3020 -0.4186
 7083SOL    HW132885   2.818   1.851   8.109 -2.0681 -0.7392  3.4748
 7083SOL    HW232886   2.779   1.723   8.059  0.4494 -0.0494  0.3461
 7084SOL     OW32887   3.862   2.856   5.847 -0.6472 -0.2970  0.4682
 7084SOL    HW132888   3.878   2.794   5.775  0.7217  0.4137  0.1825
 7084SOL    HW232889   3.790   2.816   5.897 -0.2048 -0.4512  0.9817
 7085SOL     OW32890   0.241   1.016  10.888  0.5534  0.0115  0.5380
 7085SOL    HW132891   0.287   1.075  10.828  0.5413 -1.4058 -0.8380
 7085SOL    HW232892   0.149   1.034  10.869  0.6861  1.0452  0.8833
 7086SOL     OW32893   4.346   1.575   9.263  0.1437 -0.2865  0.6186
 7086SOL    HW132894   4.403   1.499   9.274 -0.3332 -0.7400 -0.0686
 7086SOL    HW232895   4.258   1.537   9.267 -0.7939  1.9093  0.9681
 7087SOL     OW32896   4.525   3.972  15.836 -0.3436 -0.4755 -0.0022
 7087SOL    HW132897   4.461   3.938  15.773 -1.1174  2.3267 -0.7438
 7087SOL    HW232898   4.505   3.918  15.912  0.4842 -2.2657 -1.0494
 7088SOL     OW32899   3.805   1.897   8.224  0.6903  0.0864  0.1240
 7088SOL    HW132900   3.823   1.828   8.288  0.9907  0.6227  0.6289
 7088SOL    HW232901   3.875   1.888   8.160  1.1209  0.8105  0.4913
 7089SOL     OW32902   2.327   3.116   4.942  0.3326 -0.5528  0.0684
 7089SOL    HW132903   2.394   3.074   4.995 -0.1280  0.6893  1.6369
 7089SOL    HW232904   2.371   3.136   4.859 -0.9058  0.5383 -0.3173
 7090SOL     OW32905   2.030   0.972   7.298 -0.8092 -0.3019  0.1557
 7090SOL    HW132906   1.976   1.043   7.265 -0.7788 -0.8429 -1.0519
 7090SOL    HW232907   2.077   1.025   7.363 -0.3327  0.1814 -0.5892
 7091SOL     OW32908   4.043   0.688   4.135  0.1183  0.2094  0.3975
 7091SOL    HW132909   4.029   0.707   4.042 -0.5866  0.8233  0.6271
 7091SOL    HW232910   3.995   0.606   4.149 -0.2053 -0.2061 -2.9810
 7092SOL     OW32911   1.058   0.582   5.770  0.2436 -0.2245 -0.4600
 7092SOL    HW132912   1.118   0.630   5.828  0.6919 -0.7858 -0.4605
 7092SOL    HW232913   1.006   0.534   5.834  2.4314 -1.5440  0.3290
 7093SOL     OW32914   2.493   3.472   2.922 -0.2375  0.5667  0.1960
 7093SOL    HW132915   2.405   3.436   2.919  0.0460 -0.1432  0.4399
 7093SOL    HW232916   2.494   3.496   3.015 -0.1788  0.9873  0.0875
 7094SOL     OW32917   2.224   4.429  14.582  0.1012  0.1433  0.7904
 7094SOL    HW132918   2.156   4.483  14.542 -0.0071 -1.2573 -0.8838
 7094SOL    HW232919   2.179   4.347  14.600  0.6012 -0.6281 -1.5219
 7095SOL     OW32920   1.998   1.676   9.805  0.3626  0.6543  0.6346
 7095SOL    HW132921   1.902   1.674   9.808  0.3433 -0.6207 -0.5554
 7095SOL    HW232922   2.027   1.662   9.895 -0.2838 -1.0019  0.5933
 7096SOL     OW32923   4.280   3.873   8.561 -0.4766  0.4141  0.1295
 7096SOL    HW132924   4.236   3.910   8.638 -1.5266 -0.2400 -0.1608
 7096SOL    HW232925   4.218   3.805   8.535 -0.8220  0.7770  0.0010
 7097SOL     OW32926   4.402   3.517  13.529  0.3622 -0.5295 -0.1652
 7097SOL    HW132927   4.383   3.442  13.584  0.7622  0.3610  1.1817
 7097SOL    HW232928   4.443   3.576  13.592 -1.3686 -1.8800  2.2207
 7098SOL     OW32929   2.755   2.054   5.807  0.0288  0.3080 -0.0124
 7098SOL    HW132930   2.797   2.036   5.891 -2.4546  0.9344  1.3692
 7098SOL    HW232931   2.697   2.126   5.835 -1.1991 -0.6880  0.0014
 7099SOL     OW32932   3.388   2.426   5.949 -0.0401 -0.8071 -0.3536
 7099SOL    HW132933   3.428   2.369   5.884 -0.5134 -1.7455  0.1740
 7099SOL    HW232934   3.312   2.461   5.902  0.1005  0.6366  0.4863
 7100SOL     OW32935   0.449   3.676   1.991  0.2595  0.4673 -0.1369
 7100SOL    HW132936   0.413   3.599   2.035 -0.6354  0.4907 -0.8103
 7100SOL    HW232937   0.440   3.751   2.050 -0.8194 -0.2225  0.5770
 7101SOL     OW32938   1.640   3.135   7.497  0.6354  0.7856 -0.4781
 7101SOL    HW132939   1.694   3.165   7.570 -0.5844 -0.8507  1.1116
 7101SOL    HW232940   1.568   3.198   7.492 -0.0811  0.0090  0.0775
 7102SOL     OW32941   2.398   2.384   9.372 -0.3015 -0.1304 -0.0052
 7102SOL    HW132942   2.349   2.465   9.388  1.5435  0.6485  1.6381
 7102SOL    HW232943   2.350   2.324   9.429 -0.7664  2.5088  2.4012
 7103SOL     OW32944   3.646   3.714  13.680  0.7306  0.6173  0.1678
 7103SOL    HW132945   3.649   3.791  13.736 -0.3177  0.9403 -0.2185
 7103SOL    HW232946   3.736   3.700  13.651  0.1844 -2.5404 -0.0281
 7104SOL     OW32947   1.240   0.442   6.528 -0.9549 -0.2378  0.7321
 7104SOL    HW132948   1.213   0.533   6.543 -1.8371 -0.3617 -0.0569
 7104SOL    HW232949   1.335   0.450   6.535 -1.0516  1.2314  0.3363
 7105SOL     OW32950   1.703   0.106   1.768  0.1429  0.2703  0.2556
 7105SOL    HW132951   1.636   0.067   1.825  0.3927  1.8553  1.6541
 7105SOL    HW232952   1.780   0.086   1.822 -0.6253 -2.4290  0.3854
 7106SOL     OW32953   1.058   1.488   3.822  0.2698  1.0083 -0.3820
 7106SOL    HW132954   1.071   1.412   3.879  1.9007  2.9253  1.7981
 7106SOL    HW232955   1.131   1.475   3.762  0.9339  1.5542  0.3095
 7107SOL     OW32956   0.587   2.201   5.484 -0.0495  0.5426 -0.4627
 7107SOL    HW132957   0.601   2.164   5.397 -0.5192 -2.9699  0.9615
 7107SOL    HW232958   0.506   2.161   5.515  0.8668  1.0602  2.5458
 7108SOL     OW32959   1.312   1.904   8.797  0.5879  0.3587  0.2226
 7108SOL    HW132960   1.224   1.912   8.760  0.5291 -0.1760  0.2475
 7108SOL    HW232961   1.321   1.999   8.797  2.5278  0.1599 -1.0949
 7109SOL     OW32962   4.727   0.259   1.511 -0.5681  0.0666  0.2159
 7109SOL    HW132963   4.694   0.348   1.503 -0.0943  0.0804 -1.5456
 7109SOL    HW232964   4.653   0.225   1.462 -0.0770  0.2035 -0.6223
 7110SOL     OW32965   1.493   3.116   1.440 -0.2944 -0.3474 -0.2773
 7110SOL    HW132966   1.423   3.149   1.384 -0.1753 -0.4202 -0.4695
 7110SOL    HW232967   1.537   3.057   1.379  0.1245  0.3884 -0.6878
 7111SOL     OW32968   3.118   3.830  13.013  1.1052  0.4425  0.1900
 7111SOL    HW132969   3.156   3.841  13.101  1.6523  0.0573  0.0020
 7111SOL    HW232970   3.117   3.737  12.992  1.1787  0.5641 -0.3442
 7112SOL     OW32971   4.558   1.534  10.924 -0.0193 -0.1883  0.0460
 7112SOL    HW132972   4.527   1.486  11.000 -0.6938  0.6662  0.3201
 7112SOL    HW232973   4.471   1.555  10.889 -0.5795  0.9597  2.1613
 7113SOL     OW32974   4.153   2.193   7.588  0.5555 -0.1086  0.2014
 7113SOL    HW132975   4.229   2.139   7.606  0.5298  0.1692  1.1534
 7113SOL    HW232976   4.114   2.135   7.523 -0.8822 -0.0511  1.0074
 7114SOL     OW32977   2.552   1.387   6.374 -0.0964  0.4426  0.2262
 7114SOL    HW132978   2.540   1.417   6.284 -0.5715 -1.2144 -0.2684
 7114SOL    HW232979   2.570   1.466   6.424  2.0962  0.9333 -1.3020
 7115SOL     OW32980   3.181   3.605  12.236  0.2977  0.1858  0.1842
 7115SOL    HW132981   3.269   3.640  12.225 -0.7576  2.6514 -0.3093
 7115SOL    HW232982   3.167   3.559  12.153 -0.4406 -1.8862  1.4594
 7116SOL     OW32983   2.201   2.687  16.371  0.9272  0.0240  0.5413
 7116SOL    HW132984   2.210   2.729  16.286 -1.3161 -1.0501 -0.2311
 7116SOL    HW232985   2.249   2.750  16.424 -1.0838  2.2121 -0.2384
 7117SOL     OW32986   0.776   2.597  12.049 -0.0718 -0.6616 -1.0886
 7117SOL    HW132987   0.743   2.687  12.038  0.3376 -0.4973 -0.9565
 7117SOL    HW232988   0.757   2.567  12.138  1.0984 -0.3958 -0.7535
 7118SOL     OW32989   2.132   4.108  12.231  0.0736  0.4117  0.6814
 7118SOL    HW132990   2.154   4.016  12.243  0.2416  0.5385  1.3486
 7118SOL    HW232991   2.207   4.151  12.273 -0.7017  2.1958  0.2188
 7119SOL     OW32992   0.292   0.876  13.159  0.2380  0.1273  0.0052
 7119SOL    HW132993   0.205   0.874  13.198 -0.3433  0.6686 -1.2375
 7119SOL    HW232994   0.273   0.912  13.072 -0.1260 -0.2576 -0.0745
 7120SOL     OW32995   4.254   2.605   7.349 -0.1056 -0.1947 -0.3268
 7120SOL    HW132996   4.178   2.599   7.292  0.6979  1.1627 -1.5315
 7120SOL    HW232997   4.323   2.592   7.285 -0.6146 -1.0075 -0.7157
 7121SOL     OW32998   0.228   4.600   7.984 -0.0452 -0.1270 -0.1207
 7121SOL    HW132999   0.259   4.683   7.949  1.3965 -1.0356 -1.0065
 7121SOL    HW233000   0.312   4.553   7.984  0.2796  0.4547 -1.5776
 7122SOL     OW33001   0.965   3.037   3.596 -0.2362 -0.0696 -0.7109
 7122SOL    HW133002   0.981   2.947   3.624  1.0356  0.4988  0.3887
 7122SOL    HW233003   1.046   3.082   3.621 -0.3381 -0.0321 -0.4571
 7123SOL     OW33004   3.636   4.598  17.465  0.5431  0.6525  0.5406
 7123SOL    HW133005   3.657   4.686  17.499 -0.7948  1.0526  0.3302
 7123SOL    HW233006   3.621   4.626  17.374 -1.6704 -2.1258  0.0589
 7124SOL     OW33007   0.411   3.842  17.516 -0.7738 -0.2374  0.1409
 7124SOL    HW133008   0.338   3.904  17.517  0.1374  0.8150  0.9017
 7124SOL    HW233009   0.483   3.902  17.534  0.6565 -1.5023 -1.2525
 7125SOL     OW33010   0.734   0.573  14.326 -0.1140  0.4082  0.2304
 7125SOL    HW133011   0.823   0.573  14.362  0.2331  0.4792 -0.6155
 7125SOL    HW233012   0.694   0.619  14.399 -1.0534  0.9090 -0.6007
 7126SOL     OW33013   2.099   4.194  14.609 -0.3596 -0.1328  0.1287
 7126SOL    HW133014   2.080   4.148  14.691 -0.1517  0.5579  0.5633
 7126SOL    HW233015   2.063   4.132  14.545  0.2547  0.4740 -0.7954
 7127SOL     OW33016   3.530   1.100   7.345  0.2249 -0.0096 -0.1892
 7127SOL    HW133017   3.588   1.175   7.358 -0.8527  0.9142 -0.7535
 7127SOL    HW233018   3.498   1.084   7.433 -2.1059  2.2126 -0.6305
 7128SOL     OW33019   4.076   2.054   4.646  0.5031 -0.0724  0.6996
 7128SOL    HW133020   4.036   2.095   4.723  0.5032 -2.6441  2.0642
 7128SOL    HW233021   4.137   1.993   4.687  1.4957  1.0791  0.9528
 7129SOL     OW33022   2.013   0.812   7.740 -0.2997  0.0676  0.2962
 7129SOL    HW133023   2.008   0.733   7.685 -1.2456  0.8332 -0.7222
 7129SOL    HW233024   1.920   0.821   7.760 -0.3375 -0.0913  0.1932
 7130SOL     OW33025   2.727   0.221   2.396  0.0130  0.5005 -0.2178
 7130SOL    HW133026   2.646   0.171   2.386  0.1555  0.2427 -0.0964
 7130SOL    HW233027   2.704   0.247   2.485  0.7459 -0.4866  0.2643
 7131SOL     OW33028   0.857   3.125  13.905  0.1510  0.6552  0.2366
 7131SOL    HW133029   0.772   3.152  13.872 -0.2317 -1.0594 -0.1956
 7131SOL    HW233030   0.853   3.033  13.877  0.2783  0.9012 -0.5938
 7132SOL     OW33031   1.748   1.860   6.629  0.3843  0.3017 -0.7059
 7132SOL    HW133032   1.752   1.952   6.654  0.8727  0.8866 -2.8844
 7132SOL    HW233033   1.694   1.815   6.694  0.8205  0.9005  0.0623
 7133SOL     OW33034   0.159   2.610   0.851  0.2002 -0.0002  0.2413
 7133SOL    HW133035   0.193   2.534   0.804  3.4199  0.8477  1.1950
 7133SOL    HW233036   0.109   2.573   0.923  0.1175 -0.0431  0.1619
 7134SOL     OW33037   0.618   2.665   4.407 -0.6126  0.0468  0.1381
 7134SOL    HW133038   0.681   2.679   4.336 -1.1421 -0.5091 -0.4464
 7134SOL    HW233039   0.657   2.590   4.453 -2.6010 -1.2224 -0.2321
 7135SOL     OW33040   4.567   1.293   2.429 -0.5034  0.2322 -0.0881
 7135SOL    HW133041   4.603   1.259   2.511 -1.2749  1.1179  0.6198
 7135SOL    HW233042   4.639   1.350   2.400 -0.0299  0.0994  0.8161
 7136SOL     OW33043   4.572   3.734   3.952 -0.1442 -0.5692 -0.3123
 7136SOL    HW133044   4.567   3.825   3.924  0.4859 -0.3986  0.1250
 7136SOL    HW233045   4.635   3.733   4.024 -0.9479  0.6251  0.3965
 7137SOL     OW33046   3.519   3.314   5.323 -1.1665  0.0069 -1.0337
 7137SOL    HW133047   3.511   3.348   5.412  0.0105  0.5650 -1.1426
 7137SOL    HW233048   3.614   3.310   5.316 -1.1409  0.2919 -0.8314
 7138SOL     OW33049   1.195   1.979  16.128 -0.5595 -0.5282 -0.2361
 7138SOL    HW133050   1.286   1.967  16.156  0.0084  1.5723 -1.1427
 7138SOL    HW233051   1.190   2.073  16.112 -0.3255 -0.1955  1.6348
 7139SOL     OW33052   1.075   3.376   5.205  0.2201  0.1111  0.1547
 7139SOL    HW133053   1.084   3.441   5.275 -3.5164  1.4369 -0.5754
 7139SOL    HW233054   1.110   3.424   5.130 -1.4091  1.3853  0.2027
 7140SOL     OW33055   4.309   3.974   6.293  0.0899  0.1628  0.1073
 7140SOL    HW133056   4.301   3.983   6.198  0.1673 -0.9203 -0.0088
 7140SOL    HW233057   4.263   4.049   6.330 -0.7812  0.4616 -1.6114
 7141SOL     OW33058   2.935   4.355   6.488  0.0457 -0.2548 -0.7061
 7141SOL    HW133059   2.846   4.387   6.475  0.3645  1.8743  2.2879
 7141SOL    HW233060   2.938   4.284   6.424 -0.5821  0.6780 -1.7510
 7142SOL     OW33061   0.876   4.572   7.019  0.7698  0.6852  0.0847
 7142SOL    HW133062   0.944   4.511   7.049 -0.0291  0.8479  2.2196
 7142SOL    HW233063   0.826   4.518   6.957  1.0200  0.5813 -0.0267
 7143SOL     OW33064   1.213   1.469   8.679  0.3200  0.4900 -0.3089
 7143SOL    HW133065   1.301   1.492   8.650  1.1286  0.9462  2.5244
 7143SOL    HW233066   1.197   1.384   8.638 -0.4870 -1.0321  3.1207
 7144SOL     OW33067   2.352   2.520  10.521  0.5059 -0.1127  0.2392
 7144SOL    HW133068   2.286   2.553  10.582 -1.2366 -0.4784 -1.4184
 7144SOL    HW233069   2.411   2.476  10.583  0.3686 -0.9012 -0.1784
 7145SOL     OW33070   1.572   1.343  16.706  0.0311  0.4051  0.0332
 7145SOL    HW133071   1.648   1.326  16.763  1.7090  0.7101 -2.1352
 7145SOL    HW233072   1.581   1.436  16.687 -0.4897  0.1610 -1.3623
 7146SOL     OW33073   2.512   3.318   6.378 -0.6564  0.8179 -0.2410
 7146SOL    HW133074   2.599   3.358   6.385 -0.1968 -0.3562  0.9654
 7146SOL    HW233075   2.471   3.381   6.319 -0.8444 -0.1519 -1.1500
 7147SOL     OW33076   2.939   0.192   8.361  0.4317  0.1677  0.1192
 7147SOL    HW133077   2.906   0.277   8.333 -0.3094 -0.9964 -2.5273
 7147SOL    HW233078   3.023   0.198   8.316  0.4098  1.6029  0.2835
 7148SOL     OW33079   4.504   1.322   8.583  0.0063  0.3970  0.3512
 7148SOL    HW133080   4.577   1.277   8.626  0.6339  0.7132 -0.3929
 7148SOL    HW233081   4.432   1.264   8.609 -0.1814  0.2379 -0.5280
 7149SOL     OW33082   3.891   3.811   4.950  0.0936 -0.5518 -0.1536
 7149SOL    HW133083   3.972   3.829   4.903  0.2958 -0.3585  0.2775
 7149SOL    HW233084   3.832   3.823   4.875 -1.6907 -0.7047  1.2149
 7150SOL     OW33085   4.676   2.121   4.281 -0.1207  0.6284  0.4258
 7150SOL    HW133086   4.713   2.105   4.368 -0.0040 -0.0628  0.2484
 7150SOL    HW233087   4.691   2.031   4.252  2.7001  1.9641 -2.3507
 7151SOL     OW33088   0.628   0.933  11.118  0.3898  0.0177 -0.0565
 7151SOL    HW133089   0.571   1.007  11.141  0.4700  1.0953 -3.3520
 7151SOL    HW233090   0.652   0.912  11.208 -0.1213 -0.4339 -0.0304
 7152SOL     OW33091   3.079   1.114   1.692  0.4590  0.3156 -0.7716
 7152SOL    HW133092   3.031   1.034   1.668  1.6211 -1.1117  1.6755
 7152SOL    HW233093   3.147   1.090   1.754 -1.9004  2.1366  2.4771
 7153SOL     OW33094   0.905   2.269   4.517 -0.1729  0.3389 -0.0174
 7153SOL    HW133095   0.978   2.207   4.517 -0.9111 -0.5628  3.2695
 7153SOL    HW233096   0.859   2.234   4.441  0.1092 -0.7915  0.3293
 7154SOL     OW33097   2.117   0.574  17.350  0.6166 -0.2733  0.1758
 7154SOL    HW133098   2.123   0.579  17.446 -2.1972  1.5674  0.2368
 7154SOL    HW233099   2.082   0.662  17.337  0.4770 -0.1598  1.3398
 7155SOL     OW33100   3.300   0.011   7.233 -0.2207  0.4530 -0.2631
 7155SOL    HW133101   3.361   4.713   7.168  0.9437 -0.0119  1.0879
 7155SOL    HW233102   3.344   4.717   7.312  1.4076  0.7326 -1.0424
 7156SOL     OW33103   0.831   0.310   9.233 -0.0396  0.5123  0.5555
 7156SOL    HW133104   0.921   0.289   9.258 -0.1548  1.7681  2.0069
 7156SOL    HW233105   0.781   0.284   9.311 -2.9878 -1.4532 -1.9982
 7157SOL     OW33106   2.189   2.929   5.444 -0.0235  0.3788 -0.1041
 7157SOL    HW133107   2.130   2.864   5.403 -2.1202  0.2369  3.1794
 7157SOL    HW233108   2.225   2.874   5.513  1.0108  0.5463 -0.5042
 7158SOL     OW33109   3.981   2.806   6.482 -0.6118  0.0011 -0.6556
 7158SOL    HW133110   4.041   2.782   6.410  1.5531  1.4812  0.6517
 7158SOL    HW233111   4.023   2.747   6.545 -0.2829  2.9714  1.8596
 7159SOL     OW33112   3.698   2.299   4.974 -0.6693 -0.7813 -0.5893
 7159SOL    HW133113   3.696   2.363   5.045  0.4125 -0.0230 -1.2428
 7159SOL    HW233114   3.771   2.339   4.927 -0.3306 -4.6779 -3.4085
 7160SOL     OW33115   4.103   4.275   4.746 -0.0833  0.1684 -0.0722
 7160SOL    HW133116   4.169   4.309   4.686 -0.2057 -0.5312 -0.5996
 7160SOL    HW233117   4.030   4.246   4.692 -0.9539  1.0942  0.5980
 7161SOL     OW33118   0.854   2.841   1.700  0.0143 -0.1703  0.0076
 7161SOL    HW133119   0.932   2.897   1.699  0.3642 -0.6522 -0.1059
 7161SOL    HW233120   0.799   2.889   1.762 -0.1119 -0.4595  0.1229
 7162SOL     OW33121   0.806   1.941   7.191 -0.0744 -0.5655 -0.0399
 7162SOL    HW133122   0.896   1.937   7.158  0.2188 -0.4471  0.7464
 7162SOL    HW233123   0.813   1.874   7.258 -1.6218  0.2935  0.9556
 7163SOL     OW33124   1.765   1.062   4.775  0.2616  0.0872  0.3612
 7163SOL    HW133125   1.755   1.137   4.832 -2.7144 -0.6882  0.8657
 7163SOL    HW233126   1.803   0.997   4.834 -1.1282 -0.0841  1.0668
 7164SOL     OW33127   1.729   1.803  13.532 -0.0590  0.1690  0.1148
 7164SOL    HW133128   1.775   1.721  13.551 -1.1727 -0.5247 -0.1871
 7164SOL    HW233129   1.801   1.861  13.556 -2.0419  2.5779  0.2031
 7165SOL     OW33130   2.157   3.148  15.263  0.0248 -0.2668 -0.0612
 7165SOL    HW133131   2.097   3.199  15.209  0.6403  0.9592  0.4174
 7165SOL    HW233132   2.237   3.180  15.222 -0.0309 -0.7025 -0.5132
 7166SOL     OW33133   3.259   4.327   3.236  0.4151  0.1789 -0.3746
 7166SOL    HW133134   3.345   4.369   3.243 -0.6574  2.4441 -0.9600
 7166SOL    HW233135   3.201   4.400   3.217 -0.3424 -0.3740 -0.1605
 7167SOL     OW33136   1.479   3.986   0.381  0.1820  0.3701  0.1261
 7167SOL    HW133137   1.494   3.898   0.345  1.2194 -0.5072  2.6343
 7167SOL    HW233138   1.388   3.977   0.407 -0.5146  0.2314 -2.3816
 7168SOL     OW33139   2.725   4.129   6.256  0.1912  0.0033  0.1165
 7168SOL    HW133140   2.691   4.116   6.167  0.4802  1.9629 -0.2675
 7168SOL    HW233141   2.784   4.202   6.240  0.6248 -0.0668  1.4745
 7169SOL     OW33142   0.536   3.398   2.229 -0.2431  0.1491 -0.3137
 7169SOL    HW133143   0.607   3.382   2.167  0.7946 -0.7041  1.1038
 7169SOL    HW233144   0.557   3.485   2.262 -2.7852  0.3961  0.6168
 7170SOL     OW33145   4.386   0.617   3.991  0.4163 -0.3704 -0.2740
 7170SOL    HW133146   4.302   0.657   3.970  1.4511  0.3658 -3.0593
 7170SOL    HW233147   4.369   0.551   4.058  0.3357 -0.3921 -0.3168
 7171SOL     OW33148   3.607   0.732   3.504  0.3714 -0.2597 -0.3464
 7171SOL    HW133149   3.546   0.769   3.440  0.1027 -3.8841 -2.1858
 7171SOL    HW233150   3.588   0.773   3.589  1.1260  1.0595 -0.8132
 7172SOL     OW33151   3.813   2.764   0.247  0.7478  0.4779  0.0577
 7172SOL    HW133152   3.764   2.782   0.328  1.1573 -2.9518  1.0699
 7172SOL    HW233153   3.886   2.825   0.254  1.1508 -0.1281  1.1711
 7173SOL     OW33154   1.086   1.197   4.587 -0.1034 -0.0192  0.0570
 7173SOL    HW133155   1.147   1.162   4.652  0.7788 -0.0829 -0.8032
 7173SOL    HW233156   1.045   1.269   4.635  1.9661  2.3151 -1.6532
 7174SOL     OW33157   2.465   1.551   0.575  0.0880  0.0389 -0.5054
 7174SOL    HW133158   2.457   1.617   0.507 -2.2296 -0.2264 -0.4909
 7174SOL    HW233159   2.390   1.570   0.630  0.6435  0.8801 -0.0407
 7175SOL     OW33160   2.528   3.218   8.092 -0.0957  0.5400  0.3331
 7175SOL    HW133161   2.575   3.149   8.044 -0.0722  0.2051  0.8315
 7175SOL    HW233162   2.596   3.285   8.097 -0.2673  0.8276 -1.3931
 7176SOL     OW33163   3.024   4.440   7.790  0.0852 -0.1713  0.1109
 7176SOL    HW133164   2.980   4.410   7.710  1.0813  0.1200 -0.5420
 7176SOL    HW233165   2.967   4.515   7.809  0.1801  0.0832 -0.6020
 7177SOL     OW33166   2.875   1.820   6.716  0.3759 -0.4075 -0.3845
 7177SOL    HW133167   2.964   1.785   6.721  0.3638 -0.2840  0.6800
 7177SOL    HW233168   2.836   1.751   6.769 -0.7074  0.1848 -0.4179
 7178SOL     OW33169   0.764   4.469  11.509 -0.4208  0.1944  0.1345
 7178SOL    HW133170   0.731   4.404  11.447 -1.2579 -0.9205  1.7429
 7178SOL    HW233171   0.679   4.492  11.549 -0.4450 -0.3897  0.4166
 7179SOL     OW33172   2.072   4.183   8.363 -0.2576 -0.4759 -0.2939
 7179SOL    HW133173   2.057   4.192   8.457 -2.4825 -1.2399 -0.5761
 7179SOL    HW233174   1.982   4.159   8.340 -0.3723 -0.7899  0.4988
 7180SOL     OW33175   0.422   3.851   4.348 -0.1374 -0.1571  0.2260
 7180SOL    HW133176   0.494   3.804   4.391 -0.8659 -0.0058  1.6135
 7180SOL    HW233177   0.472   3.897   4.281 -0.6787  0.7549  0.4571
 7181SOL     OW33178   2.814   2.870   1.028 -0.2766  0.3793  0.1268
 7181SOL    HW133179   2.841   2.928   1.099  2.3104 -0.9452  0.2475
 7181SOL    HW233180   2.836   2.919   0.949 -0.4391 -0.4301 -0.4174
 7182SOL     OW33181   4.343   4.685  16.768 -0.3345 -0.1043 -0.2512
 7182SOL    HW133182   4.320   0.030  16.812  2.0483  0.8599 -0.8301
 7182SOL    HW233183   4.361   4.719  16.681  2.3285 -1.8732 -0.3827
 7183SOL     OW33184   3.501   2.101   2.481 -0.7527  0.2783 -0.6084
 7183SOL    HW133185   3.433   2.048   2.440 -3.2516 -0.0855  3.9455
 7183SOL    HW233186   3.461   2.115   2.567 -0.1796  0.7700 -0.4167
 7184SOL     OW33187   0.453   0.092  15.118  0.0227 -0.4291 -0.3181
 7184SOL    HW133188   0.361   0.084  15.093  0.7531 -0.3291 -3.0932
 7184SOL    HW233189   0.470   0.016  15.173  0.1364 -0.7499 -0.7939
 7185SOL     OW33190   3.980   2.640   4.012 -0.1057 -0.0157  0.4896
 7185SOL    HW133191   4.010   2.681   3.931 -0.9723  0.0122  0.1791
 7185SOL    HW233192   4.060   2.594   4.037  1.0544  0.6224 -2.0141
 7186SOL     OW33193   4.454   2.800   7.019  0.5417 -0.1383 -0.1176
 7186SOL    HW133194   4.362   2.775   7.023  0.9338 -1.7652 -1.2299
 7186SOL    HW233195   4.460   2.847   7.102 -0.2830 -0.7245  0.2775
 7187SOL     OW33196   2.507   2.217  17.457  0.1265  0.4181  0.3183
 7187SOL    HW133197   2.471   2.221  17.368 -1.6430  1.4160  1.0815
 7187SOL    HW233198   2.471   2.136  17.495  1.5579  0.1563  1.0991
 7188SOL     OW33199   2.546   2.643   1.362 -0.5522 -0.8942  0.5638
 7188SOL    HW133200   2.510   2.555   1.374 -3.0862  0.1827  0.9222
 7188SOL    HW233201   2.546   2.683   1.449  0.0793  0.4840 -0.0718
 7189SOL     OW33202   1.839   1.345   4.294  0.2267 -0.1283 -0.2458
 7189SOL    HW133203   1.869   1.277   4.355 -0.0093  0.9021  1.0049
 7189SOL    HW233204   1.747   1.322   4.297 -0.2577  1.4467 -2.4942
 7190SOL     OW33205   0.796   0.323   4.517  0.2993 -0.2018 -0.4929
 7190SOL    HW133206   0.890   0.332   4.498  0.2335 -2.0386 -1.5979
 7190SOL    HW233207   0.783   0.234   4.486 -0.7460  0.0100 -0.6500
 7191SOL     OW33208   3.202   1.187   8.414  0.0767 -0.4385 -0.3220
 7191SOL    HW133209   3.119   1.182   8.367  1.6748 -1.4992 -3.0111
 7191SOL    HW233210   3.200   1.116   8.479  1.1137 -1.0451 -0.9654
 7192SOL     OW33211   3.197   1.934   0.658  0.4755  0.4668 -0.1104
 7192SOL    HW133212   3.132   1.961   0.723  1.4643  0.9334  0.6908
 7192SOL    HW233213   3.211   2.018   0.616  3.0307 -0.9497 -2.0748
 7193SOL     OW33214   2.476   1.011   3.815  0.0280  1.1014 -0.5059
 7193SOL    HW133215   2.463   0.918   3.832 -0.1510  1.1142 -0.5701
 7193SOL    HW233216   2.537   1.018   3.889 -0.4603 -1.5996  0.1349
 7194SOL     OW33217   1.647   3.986   3.563 -0.3534  0.3406  0.0992
 7194SOL    HW133218   1.599   3.919   3.515 -0.4762 -0.3413  1.1855
 7194SOL    HW233219   1.740   3.975   3.540  0.1336  0.2119  2.0754
 7195SOL     OW33220   0.672   4.227   3.985 -0.1451  0.5135  0.4011
 7195SOL    HW133221   0.637   4.316   3.988  0.0641  0.7189 -2.9798
 7195SOL    HW233222   0.767   4.239   3.991 -0.3497  0.4288  3.9461
 7196SOL     OW33223   1.143   0.835  14.160  0.1478 -1.0970  0.0437
 7196SOL    HW133224   1.095   0.760  14.195  2.5748 -2.2521  0.8585
 7196SOL    HW233225   1.072   0.894  14.134 -0.2028 -1.0626  1.0712
 7197SOL     OW33226   2.750   4.534   5.892 -0.5475  0.6235 -0.1555
 7197SOL    HW133227   2.712   4.615   5.926 -4.1904 -0.9676 -0.4918
 7197SOL    HW233228   2.807   4.511   5.965 -0.8634 -0.3797 -0.2203
 7198SOL     OW33229   3.116   2.749   0.594 -0.1405  0.1874 -0.0419
 7198SOL    HW133230   3.175   2.800   0.649  0.5622 -0.7612  0.0839
 7198SOL    HW233231   3.041   2.808   0.585 -1.8088 -2.2514 -1.9854
 7199SOL     OW33232   2.192   4.146   3.656  0.1437 -0.1467  1.0612
 7199SOL    HW133233   2.142   4.131   3.736  0.4547 -0.4124  1.2028
 7199SOL    HW233234   2.278   4.158   3.695 -0.3114  4.2873  0.7578
 7200SOL     OW33235   0.855   1.132   7.720 -0.2673 -0.1644 -0.2594
 7200SOL    HW133236   0.912   1.187   7.773  1.5671 -1.5027 -0.8513
 7200SOL    HW233237   0.837   1.063   7.785  0.4427  1.1770  1.3496
 7201SOL     OW33238   0.178   4.167  10.074  0.4560  0.3643 -0.3465
 7201SOL    HW133239   0.132   4.103  10.019  2.2283  0.1413 -1.5579
 7201SOL    HW233240   0.183   4.119  10.157  2.2000 -0.8546 -1.1538
 7202SOL     OW33241   3.599   3.360  14.044 -0.3465 -0.2080 -0.3183
 7202SOL    HW133242   3.608   3.451  14.073 -1.0816 -0.0952 -0.4501
 7202SOL    HW233243   3.648   3.366  13.962  0.7164  1.2160  0.4132
 7203SOL     OW33244   3.414   3.046   6.448  0.3496  0.0820  0.0355
 7203SOL    HW133245   3.404   3.135   6.414 -2.3022 -0.2286 -0.0198
 7203SOL    HW233246   3.494   3.059   6.499  0.9039  1.2951 -1.1455
 7204SOL     OW33247   1.099   4.317   9.237 -0.1871 -0.5221 -0.5966
 7204SOL    HW133248   1.075   4.352   9.151  0.4113 -0.4671 -0.7422
 7204SOL    HW233249   1.147   4.242   9.201 -1.6289 -1.4054 -0.6468
 7205SOL     OW33250   3.892   2.959  17.440  0.0900 -0.2874  0.5152
 7205SOL    HW133251   3.944   2.968  17.360 -0.8184  1.7251  0.1235
 7205SOL    HW233252   3.879   2.865  17.446  2.8826 -0.5347  2.3759
 7206SOL     OW33253   3.357   2.194  12.462 -0.1423  0.5364 -0.0514
 7206SOL    HW133254   3.322   2.283  12.459  0.6214  0.8561  0.4185
 7206SOL    HW233255   3.377   2.180  12.555  0.4524 -2.4632 -0.6306
 7207SOL     OW33256   1.868   0.060   5.949 -1.0245 -0.1449 -0.6761
 7207SOL    HW133257   1.841   0.015   6.030  0.4633  1.7663  0.8812
 7207SOL    HW233258   1.949   0.015   5.928 -1.0309  0.1565 -1.3402
 7208SOL     OW33259   3.863   1.469   1.838  0.1685 -0.1352 -0.4748
 7208SOL    HW133260   3.955   1.451   1.860 -0.5200 -1.4032  1.2916
 7208SOL    HW233261   3.865   1.426   1.752 -2.4639  0.6978 -0.9541
 7209SOL     OW33262   2.387   2.866  16.482 -0.4663 -0.0242 -0.0329
 7209SOL    HW133263   2.395   2.900  16.570 -1.3668  2.3253 -0.8465
 7209SOL    HW233264   2.470   2.818  16.480 -0.0977  0.6026  0.3780
 7210SOL     OW33265   3.101   4.174  11.389  0.5771  0.8036 -0.7304
 7210SOL    HW133266   3.054   4.100  11.427 -0.4581  0.9771 -1.6734
 7210SOL    HW233267   3.127   4.144  11.302  2.6509 -0.8390  0.4478
 7211SOL     OW33268   0.120   3.959   3.715  0.2310 -0.1405  0.0054
 7211SOL    HW133269   0.119   3.971   3.620 -1.9308  0.3156  0.0852
 7211SOL    HW233270   0.194   3.900   3.728 -1.8182 -2.5241  1.0698
 7212SOL     OW33271   2.554   2.174   5.040 -0.2887 -0.2419  0.3243
 7212SOL    HW133272   2.470   2.145   5.075 -1.1218  0.8377 -0.7916
 7212SOL    HW233273   2.566   2.112   4.968 -0.6616  0.4064 -0.2965
 7213SOL     OW33274   1.572   4.465  10.556  0.2442  0.2189  0.1901
 7213SOL    HW133275   1.490   4.432  10.593  0.8278 -1.5202 -0.0632
 7213SOL    HW233276   1.632   4.465  10.631  0.8468  0.6619 -0.2937
 7214SOL     OW33277   4.072   0.993   9.507  0.0078  0.0845 -0.1099
 7214SOL    HW133278   4.153   0.969   9.552  0.6201 -0.4154 -1.4913
 7214SOL    HW233279   4.001   0.949   9.555 -2.2517  1.4342 -2.2059
 7215SOL     OW33280   0.472   3.792  11.242 -0.6948 -0.4123  0.1989
 7215SOL    HW133281   0.516   3.864  11.289 -0.4556 -0.5933  0.2526
 7215SOL    HW233282   0.488   3.707  11.283  0.2779  0.5983  1.9211
 7216SOL     OW33283   0.871   1.346   7.084  0.2011  0.2257 -0.1271
 7216SOL    HW133284   0.945   1.295   7.117  1.5640  0.1938 -3.1981
 7216SOL    HW233285   0.858   1.419   7.145 -1.5491  2.6484 -3.3397
 7217SOL     OW33286   1.374   1.270   7.528  0.2821 -0.2039  0.4907
 7217SOL    HW133287   1.311   1.343   7.525  0.3114 -0.1936  0.1359
 7217SOL    HW233288   1.456   1.315   7.507  1.4729 -2.5147  0.2201
 7218SOL     OW33289   4.452   4.072   4.246 -0.0190 -0.2354 -0.3098
 7218SOL    HW133290   4.465   4.009   4.317 -0.2952 -1.6757 -1.5431
 7218SOL    HW233291   4.408   4.030   4.173 -1.0117 -2.6590  1.7179
 7219SOL     OW33292   3.281   4.559   7.786 -0.1497  0.3480  0.6492
 7219SOL    HW133293   3.271   4.654   7.794 -1.3823  0.3600 -1.1676
 7219SOL    HW233294   3.191   4.545   7.815  0.0098 -1.2953  0.3607
 7220SOL     OW33295   2.597   3.229  16.280  0.8053  0.2128  0.1264
 7220SOL    HW133296   2.633   3.308  16.241 -1.9245 -0.0225 -2.9265
 7220SOL    HW233297   2.511   3.216  16.239  0.6478 -1.5906  1.0061
 7221SOL     OW33298   0.832   1.817   8.548 -0.3943 -0.6372 -1.1416
 7221SOL    HW133299   0.818   1.909   8.523 -0.2875 -0.7887 -1.7532
 7221SOL    HW233300   0.767   1.819   8.619  1.0097 -0.6394  0.1404
 7222SOL     OW33301   1.091   3.824   5.457  0.1393 -0.2356  0.3318
 7222SOL    HW133302   1.079   3.877   5.378 -0.4058  0.5949  0.9819
 7222SOL    HW233303   1.157   3.875   5.502 -0.1179  1.0650 -0.7592
 7223SOL     OW33304   0.090   1.071   1.575  0.5894  0.1268 -0.4493
 7223SOL    HW133305   0.038   0.992   1.590  1.9697 -0.6562  0.2499
 7223SOL    HW233306   0.080   1.118   1.659 -1.3642 -0.0654 -0.5682
 7224SOL     OW33307   0.192   4.047  10.339 -0.4280 -0.7181 -0.2038
 7224SOL    HW133308   0.111   4.077  10.380 -0.1763 -0.5483  0.1642
 7224SOL    HW233309   0.265   4.106  10.355 -1.7262  0.6750  0.5337
 7225SOL     OW33310   1.104   2.548   3.841 -0.0136  0.4647  0.2008
 7225SOL    HW133311   1.129   2.522   3.929 -1.1270 -2.3822 -0.2866
 7225SOL    HW233312   1.184   2.594   3.819 -0.3058  0.9159  0.0773
 7226SOL     OW33313   4.122   3.693   6.465  0.4991  0.2220  0.2762
 7226SOL    HW133314   4.090   3.638   6.537  1.7938  0.5168  1.0734
 7226SOL    HW233315   4.204   3.724   6.503 -0.2114  0.4758  1.6355
 7227SOL     OW33316   2.562   1.503   6.138 -0.3862 -0.3155  0.6172
 7227SOL    HW133317   2.593   1.587   6.105 -1.2092  0.4223  1.7430
 7227SOL    HW233318   2.604   1.436   6.083 -1.3864  1.2053 -1.9992
 7228SOL     OW33319   3.110   2.871   8.458 -0.2855  0.9856 -1.0049
 7228SOL    HW133320   3.162   2.946   8.430  1.4923  0.8315  1.8832
 7228SOL    HW233321   3.166   2.802   8.421  0.5776  1.5999 -0.8294
 7229SOL     OW33322   4.627   1.049  11.449  0.8097  0.1567  0.0851
 7229SOL    HW133323   4.701   1.056  11.388 -0.4072  0.8547 -1.3046
 7229SOL    HW233324   4.659   1.098  11.525 -0.8470  0.7231  0.4123
 7230SOL     OW33325   1.865   1.595   5.475  0.3100 -0.1798  0.4019
 7230SOL    HW133326   1.816   1.676   5.458 -0.2384 -0.6759 -0.3780
 7230SOL    HW233327   1.806   1.520   5.468 -0.4258  0.1795  2.7677
 7231SOL     OW33328   2.499   4.580   2.791  0.6999  0.3713  0.8726
 7231SOL    HW133329   2.549   4.651   2.831 -0.0862  0.8412  1.0407
 7231SOL    HW233330   2.487   4.532   2.873  1.6076 -0.9949  0.1820
 7232SOL     OW33331   0.122   1.769   5.794 -0.2140  0.2091 -0.4107
 7232SOL    HW133332   0.150   1.849   5.839  0.9985  0.1892 -1.1427
 7232SOL    HW233333   0.195   1.710   5.810 -0.3009  1.0404  3.0325
 7233SOL     OW33334   1.536   3.999   8.765 -0.2327 -0.1527  0.0809
 7233SOL    HW133335   1.516   3.905   8.764  0.9696 -0.3976 -0.7566
 7233SOL    HW233336   1.448   4.031   8.746 -1.1212 -2.3752  0.3824
 7234SOL     OW33337   3.523   0.467   7.018 -0.4433 -0.0735  0.3218
 7234SOL    HW133338   3.463   0.541   7.024 -1.3011 -0.6128 -1.7820
 7234SOL    HW233339   3.605   0.499   6.979 -2.6017  1.9417 -2.5490
 7235SOL     OW33340   1.203   3.072   8.715  0.7125 -0.1962 -0.4639
 7235SOL    HW133341   1.197   3.166   8.729 -0.0092 -0.5760  1.7396
 7235SOL    HW233342   1.123   3.044   8.669 -0.2276  1.9360 -0.1138
 7236SOL     OW33343   0.283   0.987   7.058  0.0028 -0.2264 -0.9423
 7236SOL    HW133344   0.360   0.932   7.067 -1.2402 -2.0027 -1.1031
 7236SOL    HW233345   0.289   1.018   6.968  1.2874  0.6581 -0.5371
 7237SOL     OW33346   2.047   3.606   8.598  0.0510  0.4045  0.0826
 7237SOL    HW133347   1.979   3.556   8.554  2.1831 -0.3655 -2.3687
 7237SOL    HW233348   2.119   3.545   8.615  1.3634  1.7620 -0.6047
 7238SOL     OW33349   3.683   0.688   1.784 -0.3019 -0.0750  0.3097
 7238SOL    HW133350   3.711   0.598   1.772  1.3279  0.5185 -0.2829
 7238SOL    HW233351   3.629   0.685   1.864 -0.6163 -1.8340  0.0382
 7239SOL     OW33352   1.787   3.438   6.955  0.3932  0.2563 -0.3838
 7239SOL    HW133353   1.857   3.406   7.010  0.1893  0.0066 -0.2713
 7239SOL    HW233354   1.714   3.388   6.991  0.0688  0.0037 -1.3799
 7240SOL     OW33355   1.698   0.512   7.644  0.1251 -0.0926  0.1655
 7240SOL    HW133356   1.638   0.582   7.617 -0.2858  0.6098  2.9155
 7240SOL    HW233357   1.644   0.433   7.640 -1.9657  1.3067  0.6812
 7241SOL     OW33358   2.287   2.723   8.256 -0.1703 -0.1981 -0.0690
 7241SOL    HW133359   2.338   2.793   8.216  0.5468 -0.5887  0.1528
 7241SOL    HW233360   2.198   2.738   8.226 -0.1055 -0.2139 -0.2690
 7242SOL     OW33361   1.006   0.441   9.021 -0.0421  0.4625  0.3784
 7242SOL    HW133362   0.950   0.424   9.096  0.6924 -2.5086  0.2323
 7242SOL    HW233363   1.013   0.353   8.984  1.5755  1.6627 -2.2112
 7243SOL     OW33364   3.215   4.499  10.889  0.0733  0.1120 -0.0610
 7243SOL    HW133365   3.230   4.589  10.919  0.8954  1.1434 -3.5384
 7243SOL    HW233366   3.162   4.462  10.959 -0.8867  0.9284 -0.3579
 7244SOL     OW33367   2.018   0.119   2.748 -0.4407 -0.0209 -0.4184
 7244SOL    HW133368   1.973   0.148   2.827 -1.5885 -0.1535 -1.0294
 7244SOL    HW233369   1.990   0.028   2.745  0.6573 -0.3232 -1.6498
 7245SOL     OW33370   2.341   2.092   5.763  0.2017 -0.4398  0.6751
 7245SOL    HW133371   2.252   2.071   5.790 -0.3072  1.7816  0.7417
 7245SOL    HW233372   2.382   2.095   5.849  0.4484 -1.2413  0.5853
 7246SOL     OW33373   1.770   0.851   2.626  0.3033  0.1772 -0.2372
 7246SOL    HW133374   1.768   0.862   2.721  0.4882  0.0354 -0.2178
 7246SOL    HW233375   1.847   0.799   2.604  0.4901  0.0939  0.6091
 7247SOL     OW33376   2.838   4.102   8.470 -0.1376 -0.4084  0.5051
 7247SOL    HW133377   2.797   4.115   8.555 -2.2477  1.0904 -0.7073
 7247SOL    HW233378   2.927   4.090   8.503 -0.1683  0.2821  0.8506
 7248SOL     OW33379   0.416   2.000  14.869 -0.0130 -0.0976  0.7461
 7248SOL    HW133380   0.396   1.922  14.817 -0.4499  1.7811 -1.8938
 7248SOL    HW233381   0.361   1.985  14.947 -0.1738  2.4946  1.1392
 7249SOL     OW33382   3.278   3.781  13.312  0.1196  0.2656  0.4414
 7249SOL    HW133383   3.350   3.736  13.357 -0.5388  0.4498  1.6935
 7249SOL    HW233384   3.289   3.872  13.338 -1.7087  1.3857 -2.6989
 7250SOL     OW33385   1.299   0.108  12.653 -0.7451 -0.2205 -0.1209
 7250SOL    HW133386   1.208   0.079  12.655 -0.6472 -0.4987  0.5482
 7250SOL    HW233387   1.289   0.182  12.714  2.2334 -1.6126  2.0978
 7251SOL     OW33388   3.639   3.559  17.258 -0.0514  0.6862  0.0418
 7251SOL    HW133389   3.614   3.469  17.236  1.3482  0.9014 -2.5061
 7251SOL    HW233390   3.711   3.578  17.197  0.4645 -2.3016 -0.2972
 7252SOL     OW33391   3.934   4.644  11.680  1.0301  0.2491 -0.4357
 7252SOL    HW133392   3.922   4.549  11.689 -2.5051  0.8910  1.6318
 7252SOL    HW233393   4.009   4.638  11.621  0.1614  0.1052 -1.5268
 7253SOL     OW33394   3.616   1.434   5.823  0.2993  0.0966 -0.7739
 7253SOL    HW133395   3.550   1.389   5.877  1.5875  0.1066  0.8113
 7253SOL    HW233396   3.565   1.511   5.798  2.4682  0.8474 -2.8997
 7254SOL     OW33397   0.982   3.215   7.782 -0.3053 -0.6105 -0.1183
 7254SOL    HW133398   1.002   3.202   7.874  2.8849 -2.1196 -1.0203
 7254SOL    HW233399   1.061   3.180   7.740  0.4162  0.3431  0.4529
 7255SOL     OW33400   3.835   0.951   3.402  0.5399  0.1664  0.2727
 7255SOL    HW133401   3.748   0.940   3.364  0.2829  0.8196  0.6863
 7255SOL    HW233402   3.847   1.045   3.399 -1.2885  0.2943 -3.6060
 7256SOL     OW33403   4.200   0.632   2.338 -0.0105 -0.1071 -0.4325
 7256SOL    HW133404   4.227   0.543   2.316 -0.3651 -0.4053  0.3504
 7256SOL    HW233405   4.151   0.653   2.258  2.1464  1.2527 -1.3865
 7257SOL     OW33406   2.348   1.487   7.382 -0.3147 -0.3740 -0.2645
 7257SOL    HW133407   2.390   1.560   7.429  1.9062 -1.7587 -0.0962
 7257SOL    HW233408   2.358   1.420   7.450 -0.1394 -0.2682 -0.1854
 7258SOL     OW33409   1.842   1.159   3.784 -0.3860 -0.3348 -0.4811
 7258SOL    HW133410   1.790   1.236   3.761 -1.4673 -1.7385 -2.6271
 7258SOL    HW233411   1.924   1.174   3.737  0.3256  3.1267  1.8559
 7259SOL     OW33412   1.945   2.138   4.754 -0.1741 -0.1830 -0.4141
 7259SOL    HW133413   1.908   2.060   4.796  0.2560  0.1570  0.5927
 7259SOL    HW233414   2.024   2.144   4.806 -0.1440 -2.4673 -0.2137
 7260SOL     OW33415   2.581   2.638   1.643  0.4179  0.0488 -0.0702
 7260SOL    HW133416   2.615   2.561   1.688 -1.0073 -1.3406 -1.3884
 7260SOL    HW233417   2.489   2.615   1.629  0.6045 -0.9262  0.3504
 7261SOL     OW33418   3.175   2.043   1.776  0.0828  0.0388 -0.0132
 7261SOL    HW133419   3.225   1.985   1.718 -0.6222  2.0199 -2.6115
 7261SOL    HW233420   3.235   2.033   1.851 -0.0901  1.0393  0.2544
 7262SOL     OW33421   2.399   1.046   6.137 -0.9377 -0.2896  0.7287
 7262SOL    HW133422   2.467   1.026   6.073 -1.0392  1.2775  0.1241
 7262SOL    HW233423   2.341   1.093   6.077 -0.5825 -0.7524  0.0214
 7263SOL     OW33424   4.101   1.419  12.445  0.1022  0.1259  0.6281
 7263SOL    HW133425   4.170   1.407  12.380 -2.5187  0.3867 -2.1973
 7263SOL    HW233426   4.132   1.504  12.476 -0.5007  0.3700  0.5671
 7264SOL     OW33427   3.526   3.448   3.889  0.2688 -0.1261  0.0626
 7264SOL    HW133428   3.578   3.454   3.969  0.1712  0.8895  0.0435
 7264SOL    HW233429   3.546   3.532   3.848  0.7419  0.9657  2.4748
 7265SOL     OW33430   1.494   1.850   3.758 -0.5816  0.7713 -0.5995
 7265SOL    HW133431   1.443   1.855   3.678 -1.7307 -0.0718  0.0844
 7265SOL    HW233432   1.507   1.945   3.766  3.8041  0.0172  1.6576
 7266SOL     OW33433   4.014   1.677   0.115  0.2630 -0.3694  0.4930
 7266SOL    HW133434   4.104   1.686   0.145 -0.2812  3.4676  0.8874
 7266SOL    HW233435   4.029   1.658   0.023  1.3283  3.0158 -0.0287
 7267SOL     OW33436   2.391   1.980  17.601  0.0656  0.4243  0.2490
 7267SOL    HW133437   2.403   1.929  17.681  1.2436 -0.2975 -0.3875
 7267SOL    HW233438   2.333   2.046  17.639  0.0808  0.0384  0.9511
 7268SOL     OW33439   0.454   0.971   4.870 -0.2927  0.1626 -0.0123
 7268SOL    HW133440   0.546   0.944   4.870 -0.2123  0.4323  1.8792
 7268SOL    HW233441   0.445   0.934   4.782  1.8143 -0.6556  0.1243
 7269SOL     OW33442   2.492   0.951   6.379 -0.1191 -0.3311  0.1973
 7269SOL    HW133443   2.508   1.034   6.424 -1.8020  0.1213 -0.0439
 7269SOL    HW233444   2.473   0.984   6.291  0.1333 -0.0830  0.2354
 7270SOL     OW33445   0.285   2.075   4.850  0.2555 -0.0192 -0.1654
 7270SOL    HW133446   0.268   2.079   4.944  2.2098  0.4949  0.1592
 7270SOL    HW233447   0.221   2.136   4.815  0.2356  0.5740  0.9113
 7271SOL     OW33448   0.078   4.141   3.094  0.1127  0.7545 -0.0579
 7271SOL    HW133449   0.013   4.172   3.158  0.4090 -1.5602  1.3523
 7271SOL    HW233450   0.130   4.094   3.160 -1.2032 -2.0572 -1.0452
 7272SOL     OW33451   2.884   0.156   8.628 -0.0642 -0.1704 -0.2571
 7272SOL    HW133452   2.825   0.088   8.595 -0.0132 -0.1416 -0.4101
 7272SOL    HW233453   2.911   0.202   8.548 -3.2440  0.2452 -1.0768
 7273SOL     OW33454   4.166   2.790   5.776  0.3061  0.3622  0.0911
 7273SOL    HW133455   4.242   2.823   5.825 -0.8369  3.0923  0.0139
 7273SOL    HW233456   4.090   2.834   5.813  1.3238  0.4389  2.1435
 7274SOL     OW33457   0.514   4.605  10.080 -0.2032 -0.1552 -0.0407
 7274SOL    HW133458   0.477   4.543  10.018  0.3591  0.8252 -1.3370
 7274SOL    HW233459   0.608   4.591  10.067 -0.9065 -1.6247 -3.4999
 7275SOL     OW33460   2.986   1.566   2.815 -0.4509 -0.1651  0.5247
 7275SOL    HW133461   2.967   1.478   2.846  3.0376 -1.2594 -0.4009
 7275SOL    HW233462   3.001   1.611   2.898 -1.4552 -2.3297  1.8479
 7276SOL     OW33463   2.905   2.391  17.747  0.0993 -0.3544 -0.3012
 7276SOL    HW133464   2.856   2.375  17.666 -1.7317  1.8721  0.3779
 7276SOL    HW233465   2.827   2.423   0.043 -1.4333 -1.1904 -2.4562
 7277SOL     OW33466   4.347   2.842  16.382  0.5605  0.0101 -0.0037
 7277SOL    HW133467   4.355   2.808  16.472  0.4953  0.0511  0.0171
 7277SOL    HW233468   4.253   2.831  16.370  0.4018  2.4653 -0.9679
 7278SOL     OW33469   2.877   3.473   9.735  0.3012 -0.0768  0.1982
 7278SOL    HW133470   2.933   3.496   9.660  0.6737 -0.9995  0.1887
 7278SOL    HW233471   2.821   3.549   9.740  0.4069 -0.0289  0.6791
 7279SOL     OW33472   3.347   0.093   5.520  0.0116 -0.0193  0.3015
 7279SOL    HW133473   3.277   0.092   5.585  0.2006 -1.3881  0.4881
 7279SOL    HW233474   3.320   0.009   5.484 -1.0366  0.4445 -0.0034
 7280SOL     OW33475   0.339   4.533  16.033 -0.0673  0.2249  0.4793
 7280SOL    HW133476   0.354   4.576  15.949 -1.1549 -1.9040 -0.7974
 7280SOL    HW233477   0.342   4.441  16.007  3.4531  0.5497 -0.3112
 7281SOL     OW33478   1.643   0.780   3.474 -0.5428 -0.7469  0.0278
 7281SOL    HW133479   1.706   0.848   3.448  0.0129 -0.6443  1.6304
 7281SOL    HW233480   1.597   0.766   3.391 -0.9313 -1.0667  0.3019
 7282SOL     OW33481   2.364   3.125   2.095 -0.5357 -0.6132  0.0051
 7282SOL    HW133482   2.325   3.151   2.011 -0.0686 -1.1767 -0.3870
 7282SOL    HW233483   2.366   3.030   2.084 -0.0265 -1.0419  3.8416
 7283SOL     OW33484   1.077   2.332   6.551  0.1191  0.6328 -0.7177
 7283SOL    HW133485   1.027   2.336   6.633  1.0380 -2.3392 -0.0159
 7283SOL    HW233486   1.013   2.304   6.486 -0.8530 -1.6981  1.2375
 7284SOL     OW33487   4.239   1.590   7.838 -0.4602 -0.0216  1.1278
 7284SOL    HW133488   4.184   1.647   7.784  1.3799  0.5962 -0.0577
 7284SOL    HW233489   4.183   1.555   7.908 -0.7798  2.0439  1.9122
 7285SOL     OW33490   0.821   1.183   5.532  0.1137  0.4833  0.3906
 7285SOL    HW133491   0.764   1.217   5.463  0.4384 -2.2015 -1.2031
 7285SOL    HW233492   0.811   1.088   5.532  2.0141  0.3023 -2.0462
 7286SOL     OW33493   4.445   1.270   4.117  0.0900  0.1167  0.5466
 7286SOL    HW133494   4.352   1.256   4.136  0.3933 -2.3822  0.1499
 7286SOL    HW233495   4.446   1.257   4.022  3.6034  2.6546  0.2437
 7287SOL     OW33496   0.172   4.483  15.315 -0.0772 -0.3985 -0.4394
 7287SOL    HW133497   0.178   4.575  15.290  2.9723 -0.3402  0.4597
 7287SOL    HW233498   0.190   4.438  15.233 -0.7852 -0.0477 -0.7850
 7288SOL     OW33499   2.478   4.394   6.344 -0.2969  0.1721 -0.0569
 7288SOL    HW133500   2.438   4.472   6.305  1.6069  1.1080 -0.1284
 7288SOL    HW233501   2.418   4.383   6.417 -0.9086  0.4982 -0.5147
 7289SOL     OW33502   3.008   4.125   1.140 -0.0093  0.0798  0.1188
 7289SOL    HW133503   2.949   4.178   1.086  0.2442 -1.1714 -1.4199
 7289SOL    HW233504   3.084   4.180   1.155  1.4371 -2.2206  1.2080
 7290SOL     OW33505   2.020   4.444   8.143  0.1595 -0.0224 -0.5388
 7290SOL    HW133506   1.976   4.492   8.214  0.9583 -0.6086  0.3471
 7290SOL    HW233507   2.032   4.360   8.185 -1.3081  1.1784  2.2853
 7291SOL     OW33508   0.714   3.083   5.504  0.2002 -0.5920 -0.6948
 7291SOL    HW133509   0.772   3.019   5.546 -1.1133 -0.5782  1.1531
 7291SOL    HW233510   0.777   3.137   5.457 -1.9941  0.7120 -2.1555
 7292SOL     OW33511   3.449   1.578   2.675  0.3170 -0.2952  0.5853
 7292SOL    HW133512   3.516   1.538   2.620  0.1840 -0.2508  0.3906
 7292SOL    HW233513   3.374   1.531   2.638  0.5559 -0.1836 -0.0496
 7293SOL     OW33514   3.724   3.917  14.391  0.4603 -0.1465  0.4015
 7293SOL    HW133515   3.672   3.997  14.390  1.7291  0.6788 -1.3924
 7293SOL    HW233516   3.664   3.877  14.328 -0.9196  0.6718  1.2017
 7294SOL     OW33517   1.502   2.117   3.781  0.2087  0.0236 -0.2080
 7294SOL    HW133518   1.426   2.134   3.726 -0.6105 -1.6902  0.3647
 7294SOL    HW233519   1.555   2.193   3.760  0.4430 -0.2123 -0.4665
 7295SOL     OW33520   4.085   4.063   8.248  0.5738 -0.6605 -0.0883
 7295SOL    HW133521   4.179   4.061   8.263  0.3632 -0.5958  1.2107
 7295SOL    HW233522   4.061   4.149   8.213  1.1665 -0.5313 -0.1649
 7296SOL     OW33523   1.157   2.398   9.424  0.2745 -0.5938  0.5590
 7296SOL    HW133524   1.234   2.362   9.468 -0.2984 -2.6067 -0.1189
 7296SOL    HW233525   1.127   2.321   9.376 -1.3768  0.9829 -0.9452
 7297SOL     OW33526   0.344   4.126   7.068  0.2484 -0.0179  0.0068
 7297SOL    HW133527   0.304   4.199   7.116  0.3220  0.2312 -0.3130
 7297SOL    HW233528   0.273   4.063   7.055  0.2558 -0.4400  1.9625
 7298SOL     OW33529   1.710   4.613   8.966 -0.1367 -0.6047 -0.0949
 7298SOL    HW133530   1.805   4.623   8.972 -0.2632  0.2050  0.4989
 7298SOL    HW233531   1.696   4.702   8.998  2.4339 -0.1572 -0.2093
 7299SOL     OW33532   0.165   1.459   8.880 -0.0204 -0.3193 -0.0503
 7299SOL    HW133533   0.198   1.369   8.879 -2.2753 -1.1631  0.6291
 7299SOL    HW233534   0.071   1.444   8.892  0.0901 -1.3042 -0.4337
 7300SOL     OW33535   3.907   0.255   7.586 -0.2082 -0.0227 -0.1778
 7300SOL    HW133536   3.830   0.241   7.532 -0.1472 -0.8354 -0.0547
 7300SOL    HW233537   3.883   0.334   7.635  0.2786  1.1921 -1.9133
 7301SOL     OW33538   4.148   1.056   9.070  0.5379  0.1117 -0.2273
 7301SOL    HW133539   4.155   1.019   8.982  1.2918 -3.5352  1.4086
 7301SOL    HW233540   4.150   1.151   9.054  1.4623 -0.0185 -0.8663
 7302SOL     OW33541   3.771   3.206  15.940  0.5932 -0.3186  0.4214
 7302SOL    HW133542   3.700   3.178  15.998  1.2479 -0.1056  1.3371
 7302SOL    HW233543   3.768   3.301  15.931 -1.0594 -0.5169 -0.9142
 7303SOL     OW33544   0.453   4.682   3.743 -0.1402  0.5245  0.7639
 7303SOL    HW133545   0.396   4.684   3.820 -1.6547 -0.4463 -0.3263
 7303SOL    HW233546   0.389   4.705   3.675  1.0065  0.3905 -0.3528
 7304SOL     OW33547   1.573   3.026  14.352 -0.7479 -0.1854  0.2182
 7304SOL    HW133548   1.540   3.054  14.267 -0.2841  1.9755  0.7521
 7304SOL    HW233549   1.645   3.080  14.383 -0.2778 -0.1400 -0.9358
 7305SOL     OW33550   4.258   3.007   8.998  0.4956  0.0134 -0.0637
 7305SOL    HW133551   4.172   2.972   9.022  0.7536  0.1959  1.1284
 7305SOL    HW233552   4.309   2.926   8.992  0.4366 -0.1320  1.2638
 7306SOL     OW33553   0.231   2.825   2.325 -0.4670 -0.2252  0.2942
 7306SOL    HW133554   0.225   2.905   2.273  0.4322 -0.2118  0.2057
 7306SOL    HW233555   0.294   2.849   2.393  0.6860  1.5728 -1.3944
 7307SOL     OW33556   3.259   2.240   8.372  0.6650  0.2063 -0.0482
 7307SOL    HW133557   3.176   2.285   8.359  1.0217  1.4577  1.9235
 7307SOL    HW233558   3.252   2.178   8.300  0.7233  1.8699 -1.5043
 7308SOL     OW33559   3.964   3.829   2.519 -0.3689 -0.2660  0.0849
 7308SOL    HW133560   3.992   3.900   2.461 -1.3149  0.7968  0.9204
 7308SOL    HW233561   3.954   3.874   2.603  0.9463  0.2685 -0.0578
 7309SOL     OW33562   3.919   2.674   4.510  0.3747 -0.6815 -0.2508
 7309SOL    HW133563   3.956   2.751   4.553 -1.7995  0.9779 -1.3475
 7309SOL    HW233564   3.901   2.706   4.422  1.8151 -1.0248 -0.6768
 7310SOL     OW33565   4.733   3.398   4.696 -0.5565  0.0640  0.4311
 7310SOL    HW133566   4.676   3.466   4.660 -0.1181 -0.7888 -1.8706
 7310SOL    HW233567   0.037   3.455   4.761  1.3625  0.3866 -1.0923
 7311SOL     OW33568   4.129   0.463   1.217 -0.2037  0.0630  0.3037
 7311SOL    HW133569   4.207   0.515   1.200 -1.6650  1.7211 -1.2699
 7311SOL    HW233570   4.096   0.455   1.128 -1.4190  0.6058  0.7057
 7312SOL     OW33571   4.645   0.133   8.397  0.0146 -0.3800 -0.1466
 7312SOL    HW133572   4.632   0.166   8.486  1.2422  1.1010 -0.5081
 7312SOL    HW233573   4.677   0.208   8.347  0.2215 -1.3331 -1.4248
 7313SOL     OW33574   3.982   0.723   5.159 -0.0721 -0.1223  0.2298
 7313SOL    HW133575   3.893   0.742   5.188 -0.4030  0.2108 -1.0271
 7313SOL    HW233576   3.977   0.649   5.098 -0.6858 -0.4304  0.6553
 7314SOL     OW33577   0.689   1.517   3.935  0.1600  0.1629  0.2711
 7314SOL    HW133578   0.619   1.521   4.001 -0.5182 -1.4069 -0.3455
 7314SOL    HW233579   0.680   1.427   3.904  2.7912 -0.6245  1.8511
 7315SOL     OW33580   3.140   4.566   0.908  0.6069 -0.4366 -0.3223
 7315SOL    HW133581   3.047   4.582   0.891  1.1090 -0.1711 -2.7706
 7315SOL    HW233582   3.188   4.603   0.834 -2.0253  1.1739 -1.2525
 7316SOL     OW33583   2.179   2.496  11.992 -0.0277  0.0387  0.1113
 7316SOL    HW133584   2.260   2.514  12.038 -0.5458 -0.1544  1.0842
 7316SOL    HW233585   2.205   2.472  11.903 -0.2859  2.4182 -0.6045
 7317SOL     OW33586   1.645   3.440   6.264  0.0697  0.0385  0.0145
 7317SOL    HW133587   1.701   3.514   6.239 -2.6682  2.1120 -0.1154
 7317SOL    HW233588   1.554   3.466   6.247 -1.1325 -3.2354  1.5545
 7318SOL     OW33589   1.642   4.550   2.281 -0.1667 -0.3795  0.0468
 7318SOL    HW133590   1.732   4.516   2.288 -0.6627 -1.6709  0.1203
 7318SOL    HW233591   1.640   4.566   2.186 -0.1696 -1.4218 -0.1232
 7319SOL     OW33592   4.082   1.866  10.105  0.0695  0.3080 -0.0291
 7319SOL    HW133593   3.998   1.819  10.110  0.0567  0.2700 -0.5351
 7319SOL    HW233594   4.085   1.899  10.015  1.1632 -0.4884 -0.2892
 7320SOL     OW33595   0.159   4.129   8.962  0.0896 -0.1309  0.2363
 7320SOL    HW133596   0.099   4.201   8.943 -1.7078 -1.2763  1.5274
 7320SOL    HW233597   0.232   4.184   8.992 -0.9542 -0.0146  2.6048
 7321SOL     OW33598   4.533   2.590  15.808 -0.2251  0.3612 -0.6745
 7321SOL    HW133599   4.511   2.499  15.789  0.6550 -0.3981  1.9503
 7321SOL    HW233600   4.456   2.639  15.779 -1.3119  0.5881  2.6476
 7322SOL     OW33601   2.129   0.801   9.739 -0.0478  0.0595  0.0778
 7322SOL    HW133602   2.148   0.883   9.694 -1.9731  2.8172  4.2829
 7322SOL    HW233603   2.190   0.738   9.701  0.6591  1.2765 -0.8076
 7323SOL     OW33604   4.637   0.691  16.064  0.6425  0.0958 -0.5244
 7323SOL    HW133605   4.703   0.663  16.001  1.1452 -1.4604  0.6780
 7323SOL    HW233606   4.661   0.780  16.091  0.5303 -0.7871  2.4497
 7324SOL     OW33607   1.174   3.819   3.322  0.2366  0.6565 -0.5150
 7324SOL    HW133608   1.158   3.838   3.414 -0.6214  2.3115 -1.0150
 7324SOL    HW233609   1.095   3.856   3.283 -1.9076 -0.3149  2.9405
 7325SOL     OW33610   2.123   4.658  16.412  0.6727 -0.0427 -0.3214
 7325SOL    HW133611   2.202   4.681  16.363 -0.7457  2.7297 -1.3384
 7325SOL    HW233612   2.051   4.693  16.359 -0.1116  0.7268  1.2445
 7326SOL     OW33613   3.320   4.197   7.988  0.0570  0.3507 -0.0610
 7326SOL    HW133614   3.346   4.254   8.061 -1.5076  0.7853  0.1409
 7326SOL    HW233615   3.225   4.202   7.982  0.1612  1.4969 -0.7663
 7327SOL     OW33616   3.137   0.624  10.841 -0.3344 -0.0923 -0.2359
 7327SOL    HW133617   3.056   0.572  10.836 -0.2571 -0.1764 -0.6011
 7327SOL    HW233618   3.200   0.552  10.842  1.2308  1.3079  0.7556
 7328SOL     OW33619   1.718   1.189   2.230  0.2333 -0.2090 -0.1151
 7328SOL    HW133620   1.799   1.146   2.257 -0.0343  0.6346  2.0110
 7328SOL    HW233621   1.665   1.116   2.199 -0.0627  0.4154 -1.0797
 7329SOL     OW33622   0.702   4.575  14.972 -0.0997  0.0540  0.1222
 7329SOL    HW133623   0.754   4.628  15.033 -0.1117  1.6814 -1.2888
 7329SOL    HW233624   0.654   4.643  14.926 -2.6738 -1.9345 -0.1179
 7330SOL     OW33625   0.088   3.268   3.139  0.7301  0.0827  0.6613
 7330SOL    HW133626   0.040   3.346   3.168  1.2596 -0.0213  1.8449
 7330SOL    HW233627   0.095   3.217   3.220  0.5013  0.5489  0.9775
 7331SOL     OW33628   1.788   1.082   6.290 -0.2416 -0.3144 -0.6804
 7331SOL    HW133629   1.789   1.092   6.385  1.6534 -1.5841 -0.5785
 7331SOL    HW233630   1.787   1.170   6.253  0.3916 -0.0771 -0.1398
 7332SOL     OW33631   3.167   4.371   4.150  0.2602  0.2224  0.0535
 7332SOL    HW133632   3.132   4.381   4.062 -2.1573 -0.6753  0.8960
 7332SOL    HW233633   3.153   4.277   4.160 -2.2365  0.5423 -0.3883
 7333SOL     OW33634   1.281   1.632   7.183 -0.1851 -0.2691  0.1102
 7333SOL    HW133635   1.229   1.579   7.243  0.7778 -0.2903  0.9169
 7333SOL    HW233636   1.358   1.636   7.239  1.5048  2.0755 -2.3739
 7334SOL     OW33637   3.990   3.241   2.230 -0.2847 -0.2042  0.3370
 7334SOL    HW133638   4.013   3.158   2.188 -0.6618  0.8598 -1.9942
 7334SOL    HW233639   3.896   3.248   2.214 -0.2678 -1.4096 -0.3557
 7335SOL     OW33640   0.011   2.860   0.246 -0.1137 -0.8256 -0.0330
 7335SOL    HW133641   4.708   2.858   0.333  0.2899  0.9350  0.1950
 7335SOL    HW233642   4.733   2.769   0.219 -1.0060 -0.2451 -1.4536
 7336SOL     OW33643   2.551   2.049   8.248 -0.2173  0.6142  0.3452
 7336SOL    HW133644   2.548   1.982   8.316  1.3959 -1.2143 -1.3843
 7336SOL    HW233645   2.466   2.019   8.215 -0.6025  2.5886 -0.4280
 7337SOL     OW33646   3.423   2.959   0.785  0.3457  0.3429 -0.1307
 7337SOL    HW133647   3.356   2.905   0.827 -0.0591 -0.5252 -1.8758
 7337SOL    HW233648   3.459   2.999   0.864 -1.1585 -0.2068  0.8167
 7338SOL     OW33649   2.646   1.932   2.145  0.0069 -0.1955 -0.1379
 7338SOL    HW133650   2.551   1.923   2.154 -0.3420  2.8732 -0.7742
 7338SOL    HW233651   2.667   1.966   2.233 -0.2340 -1.8837  0.5586
 7339SOL     OW33652   3.210   4.052   6.855  0.3869 -0.6435 -0.3519
 7339SOL    HW133653   3.253   3.990   6.795 -1.5520 -2.0140 -0.3088
 7339SOL    HW233654   3.288   4.107   6.865 -0.2299  0.1712 -0.1092
 7340SOL     OW33655   1.880   4.431   7.094 -0.7881 -0.2121  0.5185
 7340SOL    HW133656   1.972   4.455   7.088 -1.2298  0.9734 -1.4289
 7340SOL    HW233657   1.863   4.388   7.010  0.4797  1.3868 -0.5417
 7341SOL     OW33658   3.255   2.254   2.134 -0.0519 -0.4751  0.1719
 7341SOL    HW133659   3.315   2.220   2.067  0.5576 -0.7558  0.8631
 7341SOL    HW233660   3.307   2.329   2.163  0.4577  0.0294 -2.0674
 7342SOL     OW33661   1.108   0.878   4.680  0.3693  0.0383 -0.0800
 7342SOL    HW133662   1.178   0.935   4.648 -1.0683  0.6870 -2.0767
 7342SOL    HW233663   1.033   0.920   4.636 -0.2138 -0.8483  0.0723
 7343SOL     OW33664   4.702   1.730   4.771  0.2034  0.6511 -0.1155
 7343SOL    HW133665   0.056   1.754   4.751  0.2473 -0.1324 -0.8535
 7343SOL    HW233666   4.727   1.638   4.771  2.4829  1.2669 -0.9510
 7344SOL     OW33667   3.564   2.425   2.842  0.5312 -0.2872 -0.2892
 7344SOL    HW133668   3.536   2.480   2.915 -0.0589  1.6525 -1.9975
 7344SOL    HW233669   3.523   2.474   2.772 -0.1647 -1.1125 -0.4587
 7345SOL     OW33670   3.525   4.127  11.764  0.2544 -0.5548  0.0080
 7345SOL    HW133671   3.602   4.084  11.728  0.8243 -0.9298  1.6879
 7345SOL    HW233672   3.477   4.153  11.685 -2.3298  1.6707  2.2712
 7346SOL     OW33673   2.297   2.166   3.197  0.1544 -0.2471  0.4096
 7346SOL    HW133674   2.233   2.177   3.125  0.8837 -0.1768 -0.2279
 7346SOL    HW233675   2.233   2.150   3.266  1.5602 -0.2788  1.6920
 7347SOL     OW33676   3.272   3.377   3.659 -0.3835 -0.0307  0.2175
 7347SOL    HW133677   3.260   3.439   3.730  1.4551 -0.3353  0.7970
 7347SOL    HW233678   3.261   3.434   3.583  1.0829 -2.6245 -1.9480
 7348SOL     OW33679   1.772   4.511   3.914  0.1107  0.2600  0.9447
 7348SOL    HW133680   1.681   4.539   3.928 -0.5314  0.1382 -2.9447
 7348SOL    HW233681   1.779   4.537   3.823 -1.0247  0.5896  0.9454
 7349SOL     OW33682   3.207   0.321   6.190 -0.0655  0.0182  0.8690
 7349SOL    HW133683   3.245   0.275   6.265  2.1702  1.7796  0.8419
 7349SOL    HW233684   3.168   0.398   6.232  1.1801  1.4186 -0.5212
 7350SOL     OW33685   1.714   0.237   6.727  0.2605 -0.0120 -0.2028
 7350SOL    HW133686   1.637   0.189   6.694  0.4335 -0.1381 -0.4187
 7350SOL    HW233687   1.678   0.277   6.807  1.2078 -1.1479  0.8015
 7351SOL     OW33688   4.342   1.067   2.015  0.1696 -0.1046  0.0377
 7351SOL    HW133689   4.330   0.972   2.014 -1.5237  0.0975  0.2533
 7351SOL    HW233690   4.268   1.090   2.071 -1.1875 -1.4505 -1.2022
 7352SOL     OW33691   0.528   0.093  14.122  0.2870 -0.0317  0.3683
 7352SOL    HW133692   0.499   0.032  14.055 -1.0553  1.0984 -0.0689
 7352SOL    HW233693   0.592   0.032  14.160  0.7132  0.4865  0.4917
 7353SOL     OW33694   1.450   3.568   5.327 -0.3365 -0.3899 -0.2454
 7353SOL    HW133695   1.537   3.543   5.295  0.5988  1.8958  0.5238
 7353SOL    HW233696   1.423   3.499   5.388  0.8423 -0.6563 -0.0290
 7354SOL     OW33697   2.559   4.339   2.127  0.3615 -0.1296 -0.2628
 7354SOL    HW133698   2.544   4.317   2.036  0.7555 -1.0126 -0.1083
 7354SOL    HW233699   2.645   4.302   2.147  0.7692  0.8781 -0.1539
 7355SOL     OW33700   4.039   4.335   6.743  0.0118 -0.9584  0.5342
 7355SOL    HW133701   4.021   4.424   6.712  1.4363 -1.2673 -1.1794
 7355SOL    HW233702   4.084   4.299   6.667 -0.6216  0.4393 -0.5098
 7356SOL     OW33703   1.453   4.081  15.426  0.4059 -0.0407  0.1065
 7356SOL    HW133704   1.387   4.042  15.370  0.0999  1.6260 -0.6864
 7356SOL    HW233705   1.464   4.169  15.390 -1.6816  0.2813  0.2708
 7357SOL     OW33706   1.520   4.173   3.411 -0.3858  0.7916 -0.0244
 7357SOL    HW133707   1.445   4.127   3.374 -0.5899 -0.9946  2.6428
 7357SOL    HW233708   1.543   4.103   3.471 -0.3201 -1.1610 -2.3423
 7358SOL     OW33709   1.933   4.719  15.877  0.3305 -0.3511 -0.2542
 7358SOL    HW133710   1.881   4.678  15.946  1.9096 -0.1533  1.0571
 7358SOL    HW233711   1.892   0.068  15.882  2.8611  0.9027 -0.9534
 7359SOL     OW33712   4.599   1.964  12.562 -0.5670 -0.5209 -0.4324
 7359SOL    HW133713   4.664   1.958  12.492 -0.3223 -1.0580 -0.1546
 7359SOL    HW233714   4.599   1.874  12.595  1.1504 -1.4155 -2.9254
 7360SOL     OW33715   4.422   3.825  16.058  0.2928  0.4433 -0.2467
 7360SOL    HW133716   4.331   3.796  16.064  0.3863  0.0195 -0.8278
 7360SOL    HW233717   4.413   3.888  16.129  0.4597 -0.1173  0.2773
 7361SOL     OW33718   0.075   0.318   7.579  0.2073  0.0986 -0.2066
 7361SOL    HW133719   0.167   0.341   7.588 -0.2551  2.2438 -0.9365
 7361SOL    HW233720   0.075   0.270   7.496  1.8875  2.2544 -1.4614
 7362SOL     OW33721   3.927   3.948   2.770 -0.2664 -0.1792  0.3617
 7362SOL    HW133722   3.992   3.906   2.826  0.6361  0.4490 -0.2151
 7362SOL    HW233723   3.915   4.033   2.813  0.1775 -0.9791  2.0624
 7363SOL     OW33724   0.340   3.095   6.929  0.2357  0.5516  0.1388
 7363SOL    HW133725   0.268   3.032   6.935  0.1998  0.6830  0.9978
 7363SOL    HW233726   0.344   3.124   6.837 -0.6522  1.5959  0.4214
 7364SOL     OW33727   4.615   4.336  15.990 -0.0944 -0.0420 -0.0778
 7364SOL    HW133728   4.624   4.317  15.896  1.5630 -0.4935  0.1653
 7364SOL    HW233729   4.692   4.393  15.994  0.5446 -0.8814 -0.2944
 7365SOL     OW33730   3.403   1.232   5.934 -0.3044  0.3361 -0.2172
 7365SOL    HW133731   3.415   1.218   6.028 -0.2945  0.0799 -0.2549
 7365SOL    HW233732   3.336   1.300   5.930  0.5694  1.2828  1.0330
 7366SOL     OW33733   1.876   4.194   1.157  0.3899  0.1772 -0.2873
 7366SOL    HW133734   1.790   4.234   1.146  0.3815 -0.0778 -1.1020
 7366SOL    HW233735   1.935   4.251   1.109 -1.0770  0.6703 -1.4782
 7367SOL     OW33736   3.522   0.046   3.623 -0.5406  0.2074  0.6264
 7367SOL    HW133737   3.441   4.734   3.641 -0.2832 -0.4548  0.0031
 7367SOL    HW233738   3.556   4.722   3.557 -1.9252  1.2631 -1.0529
 7368SOL     OW33739   2.302   1.117   4.329 -0.3516 -0.0453  0.3511
 7368SOL    HW133740   2.337   1.167   4.256  0.0933  0.8030  1.1468
 7368SOL    HW233741   2.270   1.041   4.281  1.1242  0.1433 -0.9176
 7369SOL     OW33742   0.461   3.799   9.683 -0.3447 -0.2259 -0.3436
 7369SOL    HW133743   0.419   3.774   9.765 -0.3665 -1.0012 -0.5928
 7369SOL    HW233744   0.548   3.761   9.687  0.1661  1.3184  2.9375
 7370SOL     OW33745   4.629   0.175  15.909 -0.2684 -0.3630  0.1051
 7370SOL    HW133746   4.717   0.171  15.946  0.0789 -0.0977 -0.6904
 7370SOL    HW233747   4.576   0.139  15.980 -1.9253  1.3482 -0.2402
 7371SOL     OW33748   2.930   3.568   5.191 -0.6798  0.6120  0.3045
 7371SOL    HW133749   3.004   3.629   5.194 -0.4765  0.2667  2.2059
 7371SOL    HW233750   2.965   3.497   5.136  0.4285  2.2019 -1.0416
 7372SOL     OW33751   3.333   1.404   6.617  0.3998  0.3213 -0.2150
 7372SOL    HW133752   3.339   1.331   6.678  1.4231  2.4096  2.2330
 7372SOL    HW233753   3.424   1.433   6.610  0.3652  0.5278  0.1774
 7373SOL     OW33754   0.621   4.146   0.734  0.0726  0.3409 -0.6597
 7373SOL    HW133755   0.545   4.089   0.745  1.2565 -0.7084  2.1037
 7373SOL    HW233756   0.604   4.184   0.648  0.0201  1.2676 -0.2533
 7374SOL     OW33757   2.893   0.704   7.673  1.0705 -0.2885 -0.0930
 7374SOL    HW133758   2.967   0.764   7.668 -0.4232  1.7293  1.7938
 7374SOL    HW233759   2.867   0.713   7.765 -3.6436 -0.6239 -1.3684
 7375SOL     OW33760   1.558   1.007  15.651 -0.6232 -0.1894 -0.4823
 7375SOL    HW133761   1.479   1.017  15.705  0.8175  0.5660  1.5181
 7375SOL    HW233762   1.540   0.930  15.598  2.4218 -1.8971  1.0051
 7376SOL     OW33763   0.948   2.904   6.540 -0.0972 -0.1267  0.2387
 7376SOL    HW133764   0.886   2.892   6.612 -0.4149  1.2617  0.2008
 7376SOL    HW233765   0.972   2.812   6.535 -0.3359 -0.2129  0.6095
 7377SOL     OW33766   0.131   3.679  16.973  0.3099  0.2813 -0.1988
 7377SOL    HW133767   0.045   3.685  17.015  1.1241 -0.5301  1.6085
 7377SOL    HW233768   0.097   3.624  16.902  0.2102 -0.3080  0.3035
 7378SOL     OW33769   2.017   0.016  13.291 -0.1481  0.3893  0.3239
 7378SOL    HW133770   1.969   0.076  13.234 -0.9366 -1.4518 -0.9765
 7378SOL    HW233771   1.951   4.685  13.307  0.2637 -0.1156 -0.1321
 7379SOL     OW33772   2.126   1.296   5.697  0.0276 -0.3947 -0.6089
 7379SOL    HW133773   2.102   1.324   5.786 -1.0199 -0.6592 -0.8083
 7379SOL    HW233774   2.099   1.372   5.646  1.1362  0.9047  0.7335
 7380SOL     OW33775   3.046   2.632   7.489  0.0852 -0.2431 -0.4289
 7380SOL    HW133776   3.021   2.672   7.573  0.2998 -0.5684 -0.2098
 7380SOL    HW233777   2.963   2.603   7.452  0.9866 -2.8209 -0.4268
 7381SOL     OW33778   2.729   3.295   5.251  0.0526 -0.0340 -0.0359
 7381SOL    HW133779   2.804   3.353   5.241  0.9329 -1.0404  0.8462
 7381SOL    HW233780   2.658   3.346   5.210  0.9073  0.4764 -0.8720
 7382SOL     OW33781   4.255   2.785   8.102 -0.0506  0.1745 -0.2553
 7382SOL    HW133782   4.206   2.717   8.150  1.6396 -1.4125 -0.8023
 7382SOL    HW233783   4.246   2.758   8.011  1.2893 -0.6511 -0.1442
 7383SOL     OW33784   3.632   4.389   7.629  0.3389  0.4465 -0.1882
 7383SOL    HW133785   3.684   4.412   7.705  1.4449  0.2874 -0.9046
 7383SOL    HW233786   3.551   4.364   7.674  0.4111 -0.2527 -0.4504
 7384SOL     OW33787   3.836   2.855  16.566  0.0713 -0.7195 -0.5499
 7384SOL    HW133788   3.804   2.944  16.578  0.4140 -0.4680 -1.5381
 7384SOL    HW233789   3.757   2.806  16.589 -0.0668 -0.2972 -0.1274
 7385SOL     OW33790   3.317   1.328  16.114 -0.3211 -0.0510  0.1620
 7385SOL    HW133791   3.364   1.335  16.196  2.1846  1.0066 -1.3669
 7385SOL    HW233792   3.227   1.323  16.145 -0.8604 -1.7358 -1.5941
 7386SOL     OW33793   3.891   0.816   9.731  0.3274 -0.5196 -0.1001
 7386SOL    HW133794   3.972   0.783   9.771  0.2460 -3.9153 -2.6708
 7386SOL    HW233795   3.825   0.823   9.800  2.0273 -1.6316  1.6464
 7387SOL     OW33796   3.398   3.845   3.993  0.5416  0.2512 -0.1959
 7387SOL    HW133797   3.391   3.823   4.086  0.3589  1.0732 -0.0134
 7387SOL    HW233798   3.305   3.858   3.972  0.6465  2.2043  0.5021
 7388SOL     OW33799   0.630   1.185   8.313 -0.4965  0.1722 -0.2455
 7388SOL    HW133800   0.603   1.276   8.301 -0.9492 -0.2746 -2.5800
 7388SOL    HW233801   0.573   1.168   8.388  0.3987  0.2559  0.4471
 7389SOL     OW33802   3.100   1.744   8.690  0.2052 -0.2965 -0.3176
 7389SOL    HW133803   3.170   1.678   8.687  0.7714  0.2475  0.9172
 7389SOL    HW233804   3.133   1.817   8.742 -0.3660  0.1165 -0.5367
 7390SOL     OW33805   0.940   4.717   8.066  0.0560 -0.3427  0.0839
 7390SOL    HW133806   0.962   4.731   8.158 -0.8883 -0.3302  0.3007
 7390SOL    HW233807   0.968   4.625   8.061  1.4536  0.0940 -0.1985
 7391SOL     OW33808   4.705   2.700  16.012  0.4535 -0.2909 -0.0741
 7391SOL    HW133809   4.651   2.632  15.972 -0.6965 -0.4252  1.7264
 7391SOL    HW233810   4.651   2.738  16.081 -0.6677 -2.6147  0.3192
 7392SOL     OW33811   3.488   2.488  17.282 -0.3200 -0.0626 -0.2353
 7392SOL    HW133812   3.511   2.571  17.325  2.2566 -0.6776 -0.4077
 7392SOL    HW233813   3.417   2.509  17.222 -1.0211  0.2967  0.7306
 7393SOL     OW33814   1.023   2.288   7.844  0.1382 -0.1554 -0.1774
 7393SOL    HW133815   1.021   2.383   7.841  0.6306 -0.2032 -1.8925
 7393SOL    HW233816   1.102   2.269   7.894  0.4394  2.1302  0.2166
 7394SOL     OW33817   3.894   1.786   4.989 -0.2857  0.0229  0.0561
 7394SOL    HW133818   3.932   1.851   5.049 -1.9891  2.0109 -1.0011
 7394SOL    HW233819   3.968   1.733   4.959  0.4426  0.6619  0.7175
 7395SOL     OW33820   0.936   4.027   2.110 -0.4914  0.1738 -0.1041
 7395SOL    HW133821   0.870   3.974   2.064 -3.1414  1.0602  2.6329
 7395SOL    HW233822   1.016   3.983   2.084 -0.9178 -1.0727  0.7346
 7396SOL     OW33823   3.085   0.550  12.704  0.0508 -0.1015  0.1470
 7396SOL    HW133824   3.109   0.513  12.789  0.9984 -0.3539 -0.2228
 7396SOL    HW233825   3.098   0.466  12.660  1.9869  0.2694 -0.0220
 7397SOL     OW33826   2.500   2.001   6.406  0.3844 -0.5468  0.0053
 7397SOL    HW133827   2.473   1.945   6.479  0.6407 -0.5762  0.0765
 7397SOL    HW233828   2.529   1.945   6.334 -1.3168 -1.5640  0.1053
 7398SOL     OW33829   0.884   3.105  11.805  0.1486  0.0282  0.2133
 7398SOL    HW133830   0.889   3.200  11.809  1.5549  0.0555 -1.9165
 7398SOL    HW233831   0.898   3.073  11.894  1.2286 -1.6498 -0.5630
 7399SOL     OW33832   3.347   2.622   2.031  0.4713 -0.0133  0.1098
 7399SOL    HW133833   3.374   2.592   2.118  0.0028 -0.1290  0.2157
 7399SOL    HW233834   3.252   2.620   2.034  0.3099  2.8292 -2.0050
 7400SOL     OW33835   4.013   0.410   8.793 -0.3415  0.1938 -0.0306
 7400SOL    HW133836   4.059   0.372   8.868  0.4346  0.4686 -0.3597
 7400SOL    HW233837   3.924   0.379   8.808  1.0230 -2.7855  1.9396
 7401SOL     OW33838   4.387   1.386   6.957 -0.2677 -0.4163  0.2801
 7401SOL    HW133839   4.365   1.293   6.947 -2.2983  0.0559  0.2575
 7401SOL    HW233840   4.387   1.378   7.052 -1.0209 -0.4902  0.2726
 7402SOL     OW33841   4.143   3.032   6.304  0.3076  0.1410 -0.1973
 7402SOL    HW133842   4.222   3.061   6.350  0.2949  0.9386 -0.6734
 7402SOL    HW233843   4.154   2.938   6.294 -0.6804 -0.2296  2.3379
 7403SOL     OW33844   4.001   1.937   8.030 -0.0509 -0.2760  0.1493
 7403SOL    HW133845   3.960   1.953   7.944  1.5961 -3.3015 -1.1980
 7403SOL    HW233846   4.063   2.010   8.029 -0.4904  0.0991 -0.4680
 7404SOL     OW33847   1.023   2.821   2.581  0.0081  0.3174 -0.3964
 7404SOL    HW133848   1.037   2.800   2.673 -1.2949  2.7037  0.3349
 7404SOL    HW233849   1.112   2.827   2.546  0.1056  2.0413  0.1318
 7405SOL     OW33850   4.397   4.299   6.194 -0.1752  0.1706  0.0356
 7405SOL    HW133851   4.387   4.309   6.099  0.5172 -1.6956 -0.2305
 7405SOL    HW233852   4.310   4.330   6.220 -0.0585 -0.4610  1.1822
 7406SOL     OW33853   2.645   2.485  15.716  0.4992  0.2780 -0.2612
 7406SOL    HW133854   2.678   2.542  15.786 -1.7194 -0.0316  1.0418
 7406SOL    HW233855   2.612   2.556  15.661  0.6676  0.7246  0.2194
 7407SOL     OW33856   2.866   3.430   1.485  0.2485 -0.3741  0.8322
 7407SOL    HW133857   2.921   3.491   1.434  2.7633 -2.4910  1.0110
 7407SOL    HW233858   2.832   3.485   1.556 -0.7277 -0.2007  0.2367
 7408SOL     OW33859   1.327   0.958   8.825 -0.1902  0.2839  0.8892
 7408SOL    HW133860   1.343   1.050   8.843  0.2074  0.1625  1.1643
 7408SOL    HW233861   1.343   0.913   8.909 -0.9531  1.8830  1.8753
 7409SOL     OW33862   4.005   3.685   5.198  0.0378 -0.4287 -0.7077
 7409SOL    HW133863   4.035   3.774   5.219 -0.7791 -0.8910  2.4252
 7409SOL    HW233864   3.920   3.717   5.167 -0.1490 -1.5559 -1.3523
 7410SOL     OW33865   3.876   0.092  15.590  0.3128  0.4763  0.1398
 7410SOL    HW133866   3.874   0.005  15.629  0.1227  0.2381 -0.4065
 7410SOL    HW233867   3.784   0.119  15.591 -0.2291 -1.3612 -0.3630
 7411SOL     OW33868   0.028   3.185  14.370 -0.9501 -0.0450  0.0863
 7411SOL    HW133869   4.674   3.194  14.343 -1.3963  0.5426  1.8474
 7411SOL    HW233870   0.037   3.091  14.350  0.8419  0.0548  0.4319
 7412SOL     OW33871   3.963   3.885   6.987  0.6493  0.3498  0.0787
 7412SOL    HW133872   4.001   3.889   6.900  0.7173 -1.9554  0.0225
 7412SOL    HW233873   3.878   3.922   6.962  0.6297  1.4200  1.7363
 7413SOL     OW33874   2.132   2.401  11.719  0.5014 -0.2438 -0.1482
 7413SOL    HW133875   2.109   2.327  11.774  0.1189 -0.9794 -1.2885
 7413SOL    HW233876   2.067   2.412  11.649 -0.6292  1.4402  1.1470
 7414SOL     OW33877   1.452   3.540   2.793  0.1872  0.4713 -0.3059
 7414SOL    HW133878   1.391   3.490   2.848 -0.2019  1.4329  0.1374
 7414SOL    HW233879   1.508   3.591   2.853 -1.0443  0.4869  0.8302
 7415SOL     OW33880   4.399   1.466  16.711  0.2882 -0.6157 -0.1132
 7415SOL    HW133881   4.424   1.408  16.783  0.7494  0.2931  0.4569
 7415SOL    HW233882   4.465   1.445  16.644 -1.4905 -3.2305 -1.0549
 7416SOL     OW33883   4.089   0.188  12.728 -0.3457  0.2305  0.2611
 7416SOL    HW133884   4.067   0.243  12.803  0.8656  1.3315 -0.1948
 7416SOL    HW233885   4.080   0.101  12.765  1.3171  0.3498  0.9380
 7417SOL     OW33886   2.995   2.534   9.384  0.3462  0.0379  0.1262
 7417SOL    HW133887   3.032   2.584   9.311  2.3465  0.4199  1.3809
 7417SOL    HW233888   3.041   2.579   9.456  2.8633 -0.3592 -1.2264
 7418SOL     OW33889   2.500   2.389   4.772 -0.1915 -0.0939 -0.7448
 7418SOL    HW133890   2.463   2.478   4.773  0.1894  0.0230  2.0807
 7418SOL    HW233891   2.437   2.343   4.827  2.2634 -1.3258  1.0375
 7419SOL     OW33892   4.162   1.928   5.935 -0.1480 -0.4716  0.0118
 7419SOL    HW133893   4.077   1.899   5.901 -0.2824 -0.0276 -0.0317
 7419SOL    HW233894   4.220   1.870   5.885  0.0939  0.5402 -0.8935
 7420SOL     OW33895   2.719   1.546  17.448 -0.5255  0.4482  0.0093
 7420SOL    HW133896   2.698   1.615  17.385 -0.2141  0.5791  0.0486
 7420SOL    HW233897   2.732   1.589  17.533  3.8355 -0.2705 -0.3103
 7421SOL     OW33898   1.131   0.728   7.538  0.6776  0.0394  0.7249
 7421SOL    HW133899   1.156   0.648   7.584 -1.9682 -1.9894 -1.4171
 7421SOL    HW233900   1.200   0.737   7.473  0.7535  2.3932  1.1084
 7422SOL     OW33901   0.221   3.448   8.868  0.2019  0.4547 -0.1781
 7422SOL    HW133902   0.137   3.482   8.838 -0.9434 -1.0414  1.3473
 7422SOL    HW233903   0.234   3.487   8.954  1.8257 -2.5075  0.9507
 7423SOL     OW33904   1.110   0.714   2.608 -0.2887 -0.5768  0.4641
 7423SOL    HW133905   1.109   0.700   2.513  0.3986  1.9074  0.1056
 7423SOL    HW233906   1.104   0.624   2.641  0.7156 -0.3598  1.2345
 7424SOL     OW33907   3.708   2.862   9.862 -0.0635  0.0221  0.4396
 7424SOL    HW133908   3.764   2.938   9.873 -0.1788 -0.0824  1.6625
 7424SOL    HW233909   3.633   2.882   9.917 -0.0428  0.3908  0.3309
 7425SOL     OW33910   0.811   4.426   5.005 -0.2240 -0.1923 -0.5288
 7425SOL    HW133911   0.845   4.515   5.010  0.3244 -0.3292 -1.8261
 7425SOL    HW233912   0.873   4.394   4.940  1.0283  0.5158  0.2922
 7426SOL     OW33913   1.068   2.909   5.665 -0.1662  0.1057  0.2690
 7426SOL    HW133914   1.092   2.840   5.603  0.9387  0.3403  0.4398
 7426SOL    HW233915   1.114   2.985   5.630 -1.4738  0.9249  0.3243
 7427SOL     OW33916   1.469   1.598   0.968  0.2933 -0.2078 -0.1550
 7427SOL    HW133917   1.470   1.510   0.929  4.8759 -0.2509  0.0121
 7427SOL    HW233918   1.440   1.648   0.892 -2.6824 -1.4346  0.1772
 7428SOL     OW33919   4.713   2.318  17.223 -0.2418  0.6405  0.1150
 7428SOL    HW133920   4.696   2.362  17.140  1.4875 -1.2850 -1.2715
 7428SOL    HW233921   0.039   2.376  17.266 -0.6551  1.9785 -1.1038
 7429SOL     OW33922   2.287   4.530   8.082 -0.0583  0.0563 -0.8031
 7429SOL    HW133923   2.289   4.544   7.988 -0.1462 -0.7801 -0.9278
 7429SOL    HW233924   2.199   4.494   8.089 -0.1425  0.4976  0.4191
 7430SOL     OW33925   3.312   2.700  11.629 -0.0542 -0.3523  0.1763
 7430SOL    HW133926   3.394   2.659  11.656 -0.9776 -1.8461  0.6819
 7430SOL    HW233927   3.252   2.688  11.703 -2.3900  1.6949 -1.3521
 7431SOL     OW33928   3.513   2.885   2.713  0.2514 -0.3388  0.4877
 7431SOL    HW133929   3.598   2.912   2.677 -0.2480  1.1573  0.4121
 7431SOL    HW233930   3.455   2.939   2.660 -2.1632 -1.3238  2.1237
 7432SOL     OW33931   2.119   1.627   8.649  0.3620 -0.8878 -0.4806
 7432SOL    HW133932   2.043   1.605   8.702  2.2834 -0.1074  2.5848
 7432SOL    HW233933   2.139   1.546   8.601 -3.3360 -1.0062 -1.7977
 7433SOL     OW33934   4.213   2.128   7.943 -0.3230 -0.2535  0.2725
 7433SOL    HW133935   4.290   2.091   7.901  0.5052  0.9282  0.7458
 7433SOL    HW233936   4.227   2.214   7.903  2.9454  0.3625  2.7031
 7434SOL     OW33937   4.287   3.773   2.626  0.7386 -0.1347  0.7671
 7434SOL    HW133938   4.211   3.717   2.640  2.7473 -2.7686  1.2212
 7434SOL    HW233939   4.356   3.710   2.606  1.1176  0.6244 -0.2975
 7435SOL     OW33940   2.947   2.109   6.979  0.3124 -0.4161  0.2495
 7435SOL    HW133941   2.877   2.043   6.982 -0.4807  0.4105 -0.3902
 7435SOL    HW233942   2.912   2.164   6.909  1.0355 -1.5798 -1.0279
 7436SOL     OW33943   3.593   4.404  13.140  0.5593 -0.2840 -0.5624
 7436SOL    HW133944   3.606   4.377  13.050 -0.0763 -1.0391 -0.4365
 7436SOL    HW233945   3.585   4.320  13.187 -1.3519 -0.5513 -1.3700
 7437SOL     OW33946   2.347   0.386   7.631 -0.1568  0.4612  0.4356
 7437SOL    HW133947   2.386   0.308   7.671  1.7359  0.6995 -0.9329
 7437SOL    HW233948   2.355   0.374   7.537  0.8693 -0.8879  0.6933
 7438SOL     OW33949   1.579   4.616  10.803  0.3272  0.1831 -0.2915
 7438SOL    HW133950   1.500   4.669  10.817  1.5823  2.0114 -0.2340
 7438SOL    HW233951   1.634   4.668  10.861  0.8188 -0.2362 -0.3839
 7439SOL     OW33952   3.910   4.107   0.435 -0.0488  0.2018 -0.1446
 7439SOL    HW133953   3.958   4.060   0.367 -1.3325 -1.9096  0.4007
 7439SOL    HW233954   3.885   4.034   0.491  0.2906  0.5878  0.5124
 7440SOL     OW33955   1.519   1.838  14.055  0.1916 -0.1202 -0.5377
 7440SOL    HW133956   1.522   1.759  14.001  1.1622  2.3221 -4.0496
 7440SOL    HW233957   1.590   1.823  14.117  0.2552  0.2082 -0.5297
 7441SOL     OW33958   2.791   0.549  10.042 -0.2086 -0.5497  0.4700
 7441SOL    HW133959   2.846   0.618  10.078 -1.1210  0.1117  0.6077
 7441SOL    HW233960   2.707   0.595  10.038 -0.0561 -0.4986 -2.2807
 7442SOL     OW33961   3.010   3.197   1.542 -0.3797 -0.1412  0.0055
 7442SOL    HW133962   2.974   3.286   1.541 -1.8276 -0.7257  0.6090
 7442SOL    HW233963   2.930   3.145   1.550 -1.6180  1.5473 -1.4380
 7443SOL     OW33964   0.850   2.740   0.458  0.2137  0.3856 -0.0164
 7443SOL    HW133965   0.804   2.712   0.378 -0.4748  1.2199  0.0888
 7443SOL    HW233966   0.786   2.728   0.528  1.5158  0.2132  1.1490
 7444SOL     OW33967   4.430   1.771  15.764  0.1630  0.2957  0.3734
 7444SOL    HW133968   4.462   1.708  15.829 -1.9461 -1.9312 -0.7520
 7444SOL    HW233969   4.513   1.805  15.732  0.0646  0.9932  0.8701
 7445SOL     OW33970   3.723   0.147  15.027  0.2919  0.2213 -0.6815
 7445SOL    HW133971   3.796   0.192  15.070  0.5702  0.2179 -1.1523
 7445SOL    HW233972   3.658   0.206  15.064 -0.4947 -1.9016  1.3704
 7446SOL     OW33973   4.134   4.587   8.989 -0.2008 -0.1586  0.3883
 7446SOL    HW133974   4.064   4.560   9.047 -2.0072  1.5269 -0.9855
 7446SOL    HW233975   4.107   4.675   8.959 -2.8151 -1.1546 -0.1951
 7447SOL     OW33976   3.084   0.182   2.553  0.1097 -0.1507 -0.4332
 7447SOL    HW133977   2.990   0.167   2.566  0.5402 -0.6966  1.9962
 7447SOL    HW233978   3.082   0.223   2.467  1.2498  0.2020 -0.2909
 7448SOL     OW33979   3.353   0.825   5.761 -0.3024 -0.0649  0.1045
 7448SOL    HW133980   3.415   0.889   5.797 -1.6547  1.3516 -0.0735
 7448SOL    HW233981   3.416   0.753   5.765  1.1217  1.0384 -2.0118
 7449SOL     OW33982   2.120   1.881  10.062  0.0656  0.3867  0.3538
 7449SOL    HW133983   2.072   1.897  10.144 -1.7560 -0.8234 -0.4691
 7449SOL    HW233984   2.099   1.790  10.043  0.5231  0.1343  1.0389
 7450SOL     OW33985   0.268   0.789   9.515  0.3700  0.2845  0.0402
 7450SOL    HW133986   0.306   0.830   9.438  2.7987 -3.0453 -0.5250
 7450SOL    HW233987   0.334   0.809   9.582 -0.0040 -0.7063  0.6998
 7451SOL     OW33988   0.585   2.397   2.234 -0.2593 -0.1887  0.3412
 7451SOL    HW133989   0.582   2.423   2.142 -1.2932  2.1085  1.0084
 7451SOL    HW233990   0.516   2.333   2.250  0.2092 -0.5313  1.0175
 7452SOL     OW33991   4.138   1.661   5.605 -0.0260 -0.1800  0.1069
 7452SOL    HW133992   4.062   1.710   5.575  1.8171  2.0482 -0.8793
 7452SOL    HW233993   4.202   1.682   5.536 -1.0978 -1.1504 -1.1998
 7453SOL     OW33994   0.363   0.108  11.061 -0.4897  0.1559  0.2064
 7453SOL    HW133995   0.391   0.056  10.986 -1.1782  1.4528 -0.9434
 7453SOL    HW233996   0.281   0.149  11.034 -2.0108 -1.7465  1.9316
 7454SOL     OW33997   0.777   3.275   2.915  0.1890  0.0425  0.3707
 7454SOL    HW133998   0.733   3.245   2.835 -0.0971 -0.8677  0.8723
 7454SOL    HW233999   0.708   3.316   2.968  2.3624  0.8253  2.5944
 7455SOL     OW34000   4.213   2.890  15.327 -0.6436  0.3287  0.0018
 7455SOL    HW134001   4.202   2.909  15.420  0.1032 -0.7563  0.3202
 7455SOL    HW234002   4.217   2.794  15.330  0.0709  0.3635  0.0907
 7456SOL     OW34003   3.087   1.692   6.012  0.2503  0.0754 -0.2140
 7456SOL    HW134004   3.033   1.649   6.079  1.1966  1.7232  1.6036
 7456SOL    HW234005   3.023   1.701   5.942 -0.1737  2.3187  0.4581
 7457SOL     OW34006   1.305   2.672   5.995  0.5264  0.2670  0.5901
 7457SOL    HW134007   1.217   2.641   6.013  0.2208  0.6261 -0.2573
 7457SOL    HW234008   1.355   2.638   6.069 -0.1926 -0.5002  0.7194
 7458SOL     OW34009   3.225   1.457   1.453  0.0652  0.6944 -0.1657
 7458SOL    HW134010   3.215   1.407   1.533 -0.7949 -1.1408 -1.4142
 7458SOL    HW234011   3.317   1.434   1.440  0.0462  1.0737 -1.0196
 7459SOL     OW34012   2.437   4.736  12.067 -0.5263 -0.3375  0.0337
 7459SOL    HW134013   2.498   0.050  12.014 -0.0900 -0.2518  0.6161
 7459SOL    HW234014   2.403   0.071  12.119  0.1391  0.8353 -1.1638
 7460SOL     OW34015   0.654   0.288   3.579 -0.5516  0.0917 -0.1313
 7460SOL    HW134016   0.594   0.241   3.521 -1.3989  1.7708 -0.5869
 7460SOL    HW234017   0.658   0.238   3.660  1.5028  1.7377  0.7801
 7461SOL     OW34018   1.229   3.895  13.403  0.6060  0.2418  0.5905
 7461SOL    HW134019   1.151   3.850  13.434 -0.2008  1.2995  0.0926
 7461SOL    HW234020   1.267   3.819  13.360 -0.8502  1.0209 -2.0620
 7462SOL     OW34021   1.758   2.248  10.145 -0.4883 -0.4032  0.1580
 7462SOL    HW134022   1.846   2.221  10.170 -0.5316 -0.6736  0.0241
 7462SOL    HW234023   1.715   2.232  10.229 -0.9221 -1.1061 -0.2018
 7463SOL     OW34024   2.467   1.060  11.602 -0.1585  1.0167  0.5736
 7463SOL    HW134025   2.559   1.052  11.626 -0.6346 -0.1949  2.0006
 7463SOL    HW234026   2.479   1.047  11.508 -0.3044 -0.5086  0.7546
 7464SOL     OW34027   0.061   0.803   5.712 -0.1588  0.3547  0.6142
 7464SOL    HW134028   0.066   0.709   5.693  1.2470  0.5384  0.0599
 7464SOL    HW234029   0.118   0.796   5.788  0.6148 -0.0434  0.0038
 7465SOL     OW34030   4.731   0.947   1.942 -0.5752 -0.1940  0.0315
 7465SOL    HW134031   0.071   0.995   1.911  0.2206 -1.0390  0.7055
 7465SOL    HW234032   4.686   1.014   1.993 -0.1061 -0.4113  0.7334
 7466SOL     OW34033   3.854   2.098   8.843  0.3036  0.3920 -0.0559
 7466SOL    HW134034   3.792   2.136   8.781 -0.0756  0.5719  0.4376
 7466SOL    HW234035   3.799   2.098   8.921 -1.9343 -1.2617 -1.6258
 7467SOL     OW34036   1.540   3.195  10.320 -0.6178  0.1885  0.2086
 7467SOL    HW134037   1.620   3.246  10.326 -0.5131 -0.0286  0.6544
 7467SOL    HW234038   1.530   3.193  10.225  1.3536  0.0102  0.0045
 7468SOL     OW34039   4.094   1.616   8.660 -0.0268  0.2941  0.2993
 7468SOL    HW134040   4.000   1.633   8.662 -0.2859 -1.0542 -0.4136
 7468SOL    HW234041   4.116   1.684   8.596 -2.8488  1.4406  0.5251
 7469SOL     OW34042   0.152   0.332   4.683  0.2007 -0.0437 -0.0112
 7469SOL    HW134043   0.197   0.275   4.621  0.6538 -0.5423  0.7721
 7469SOL    HW234044   0.088   0.369   4.623 -0.9639  2.1922  2.5953
 7470SOL     OW34045   0.211   0.668  16.802 -0.6312 -0.2081 -0.0414
 7470SOL    HW134046   0.295   0.634  16.834 -1.2633 -1.3022  0.4583
 7470SOL    HW234047   0.169   0.657  16.888 -1.0507 -1.0887 -0.3552
 7471SOL     OW34048   3.066   0.539   8.994  0.1988  0.2408 -0.3886
 7471SOL    HW134049   2.993   0.505   8.943  0.6316 -2.6508  0.9381
 7471SOL    HW234050   3.037   0.626   9.023 -0.1244  0.5916 -1.7426
 7472SOL     OW34051   3.084   1.337   6.268  0.3632  0.1041  0.5952
 7472SOL    HW134052   3.107   1.250   6.300  2.1937  0.2240 -0.4105
 7472SOL    HW234053   3.158   1.393   6.290 -0.3209  1.0410  0.5097
 7473SOL     OW34054   4.404   0.620   5.017  0.2361  0.0004  0.1971
 7473SOL    HW134055   4.423   0.555   4.949  0.4408  0.7465 -0.4519
 7473SOL    HW234056   4.345   0.684   4.977  1.2860  0.3055 -0.8423
 7474SOL     OW34057   3.362   0.347   2.802  0.5822  0.5588 -0.3151
 7474SOL    HW134058   3.450   0.319   2.828  0.6040  1.5550  0.6838
 7474SOL    HW234059   3.327   0.263   2.771 -2.2813  1.8174 -0.4636
 7475SOL     OW34060   2.134   2.885   6.262  0.5946 -0.3290  0.0564
 7475SOL    HW134061   2.219   2.888   6.220  0.0830  1.6340 -0.8147
 7475SOL    HW234062   2.113   2.791   6.264 -1.1502  0.0455 -0.1889
 7476SOL     OW34063   3.441   1.938   3.391  0.3318  0.1063 -0.2448
 7476SOL    HW134064   3.416   1.922   3.482  0.1612 -2.2417 -0.7046
 7476SOL    HW234065   3.356   1.927   3.350 -0.5210  3.4577  0.6408
 7477SOL     OW34066   0.313   3.250   2.012  0.2125 -0.8931  0.2897
 7477SOL    HW134067   0.340   3.266   1.921 -0.3647 -1.3497  0.0404
 7477SOL    HW234068   0.401   3.248   2.050  0.1216 -0.3850  0.5264
 7478SOL     OW34069   3.149   2.310   4.200  0.2764 -0.8037 -0.2084
 7478SOL    HW134070   3.194   2.368   4.263 -0.4719  2.3428 -2.5770
 7478SOL    HW234071   3.135   2.226   4.244 -2.7192  1.2550  2.7424
 7479SOL     OW34072   2.986   0.608   8.392  0.7714 -0.7241  0.0831
 7479SOL    HW134073   2.926   0.671   8.431 -0.9487 -2.6066  0.4866
 7479SOL    HW234074   3.066   0.660   8.399 -0.2723  1.1271 -1.7796
 7480SOL     OW34075   1.110   2.613   9.259  0.1633  0.0715  0.3677
 7480SOL    HW134076   1.119   2.540   9.319 -0.9326 -1.2589 -1.0785
 7480SOL    HW234077   1.066   2.674   9.318 -0.2840  0.9974 -0.9240
 7481SOL     OW34078   4.499   4.397   3.065 -0.4299  0.1807  0.4689
 7481SOL    HW134079   4.441   4.468   3.036 -0.9224 -0.2557  0.3771
 7481SOL    HW234080   4.574   4.415   3.009  0.8701 -0.2880  2.0291
 7482SOL     OW34081   0.397   3.147   4.381 -0.3693  0.2345  0.1476
 7482SOL    HW134082   0.422   3.055   4.389 -0.4555  0.3725  2.2430
 7482SOL    HW234083   0.381   3.171   4.473  0.4280  0.5947  0.1935
 7483SOL     OW34084   3.442   1.685   2.214  0.6418  0.5745  0.1738
 7483SOL    HW134085   3.525   1.697   2.258 -0.1542 -0.7498  2.0343
 7483SOL    HW234086   3.385   1.720   2.282  0.8642  1.4502 -0.0904
 7484SOL     OW34087   0.850   3.566   2.533  0.3002 -0.1060  0.1979
 7484SOL    HW134088   0.782   3.590   2.471 -0.1891 -0.2111  0.6867
 7484SOL    HW234089   0.921   3.625   2.508  2.1403 -2.2141  0.4734
 7485SOL     OW34090   3.989   3.835  10.091 -0.2954  0.2642 -0.1672
 7485SOL    HW134091   3.903   3.846  10.131  1.7051  2.7714  3.4537
 7485SOL    HW234092   3.968   3.758  10.038  1.6912 -0.0710 -0.4960
 7486SOL     OW34093   2.703   1.762  17.269 -0.0894  0.2232  0.6974
 7486SOL    HW134094   2.684   1.813  17.348 -0.8039  3.1718 -1.3592
 7486SOL    HW234095   2.633   1.791  17.210 -0.3045 -1.4328  0.1360
 7487SOL     OW34096   0.232   4.591   3.869 -0.2200  0.7004 -0.1308
 7487SOL    HW134097   0.203   4.509   3.829 -0.5879  0.4319  0.6636
 7487SOL    HW234098   0.171   4.656   3.834 -0.7530  1.7969  2.7998
 7488SOL     OW34099   0.910   3.943   7.514  0.2369 -0.1131 -0.0607
 7488SOL    HW134100   0.942   3.916   7.600 -1.0213 -0.1692  0.3901
 7488SOL    HW234101   0.964   3.883   7.461 -0.5107 -1.1584  0.3546
 7489SOL     OW34102   0.320   2.367   2.537 -0.1106 -0.1164 -0.3252
 7489SOL    HW134103   0.382   2.437   2.516 -0.9824  0.4499 -1.0287
 7489SOL    HW234104   0.231   2.401   2.539 -0.0146  0.1485 -0.5498
 7490SOL     OW34105   3.559   1.746  17.198  0.0586 -0.9541 -0.5232
 7490SOL    HW134106   3.548   1.788  17.113  3.2912 -1.1293 -1.0336
 7490SOL    HW234107   3.646   1.707  17.190  0.4699 -0.0500 -0.4242
 7491SOL     OW34108   1.797   0.107   8.056 -0.6429  0.4277  0.4233
 7491SOL    HW134109   1.830   0.095   8.145 -0.4708  3.3558  0.7623
 7491SOL    HW234110   1.864   0.169   8.028  1.9523 -2.0349  1.2209
 7492SOL     OW34111   1.676   1.521   8.663 -0.3693 -0.2778  0.1139
 7492SOL    HW134112   1.649   1.574   8.738 -0.2351  0.9939 -0.7197
 7492SOL    HW234113   1.596   1.525   8.611 -2.0613 -0.6669  2.6824
 7493SOL     OW34114   0.554   3.188   7.751 -0.1348  0.1325 -0.1093
 7493SOL    HW134115   0.585   3.134   7.824  0.8336  0.1413 -0.5064
 7493SOL    HW234116   0.469   3.225   7.773 -0.3999 -0.8626  0.5423
 7494SOL     OW34117   3.538   0.766   7.116  0.4419  0.3097 -0.0976
 7494SOL    HW134118   3.556   0.694   7.176 -2.3291  0.5916  1.0812
 7494SOL    HW234119   3.585   0.841   7.153  0.5267 -0.9193  2.3133
 7495SOL     OW34120   4.090   0.937  15.437 -0.0778 -0.3807  0.2129
 7495SOL    HW134121   4.005   0.972  15.412 -0.9671 -1.8426  1.2399
 7495SOL    HW234122   4.145   1.005  15.398 -0.1529 -0.7559 -0.5500
 7496SOL     OW34123   4.162   1.615  15.517  0.3641  0.4034  0.6378
 7496SOL    HW134124   4.144   1.529  15.554 -1.3869  0.0921 -0.9904
 7496SOL    HW234125   4.186   1.593  15.427 -2.8898  0.6934 -0.2988
 7497SOL     OW34126   2.102   4.413   3.714 -0.5542 -0.5866  0.1165
 7497SOL    HW134127   2.188   4.421   3.673 -0.6291  1.0798  0.3191
 7497SOL    HW234128   2.070   4.502   3.704 -1.1832 -0.9415 -1.0980
 7498SOL     OW34129   1.943   4.439   6.480  0.1890  0.0438 -0.0080
 7498SOL    HW134130   2.018   4.447   6.540 -0.5628 -0.2397  0.9633
 7498SOL    HW234131   1.879   4.491   6.528  2.1258  0.0750  2.5740
 7499SOL     OW34132   4.417   0.782  10.392 -0.4113  0.3171  0.9473
 7499SOL    HW134133   4.456   0.744  10.313 -1.8882 -0.8601  0.7708
 7499SOL    HW234134   4.327   0.750  10.383 -0.8954  1.5949  1.2104
 7500SOL     OW34135   4.558   3.591   4.632  0.1523  0.1167  0.8195
 7500SOL    HW134136   4.489   3.617   4.693 -0.9390 -1.0321  0.0696
 7500SOL    HW234137   4.615   3.668   4.635 -1.2095  1.1076  1.3165
 7501SOL     OW34138   0.805   3.420   6.105 -0.6716 -0.2245  0.4027
 7501SOL    HW134139   0.728   3.377   6.142 -2.1515  1.3870 -0.7602
 7501SOL    HW234140   0.874   3.366   6.142 -0.4241  0.4844  0.9868
 7502SOL     OW34141   0.488   4.025   3.976  0.2121 -0.0046 -0.0759
 7502SOL    HW134142   0.547   3.951   3.968 -0.5235 -0.4060 -1.7302
 7502SOL    HW234143   0.551   4.095   3.995  0.0424  0.7374 -2.2339
 7503SOL     OW34144   2.114   4.559   0.361  0.2136  0.5892 -0.0377
 7503SOL    HW134145   2.044   4.612   0.397  1.4819  1.3875  1.2366
 7503SOL    HW234146   2.067   4.502   0.300  1.2720  0.6388 -0.8899
 7504SOL     OW34147   3.502   2.594   7.387  0.0306  0.7723 -0.4787
 7504SOL    HW134148   3.597   2.585   7.390 -0.0718  0.6762  2.2335
 7504SOL    HW234149   3.481   2.515   7.437  0.7737  1.3666  0.7644
 7505SOL     OW34150   0.607   4.345   8.945 -0.5669 -0.6786 -0.4349
 7505SOL    HW134151   0.563   4.278   8.997 -0.4244 -0.2363  0.2583
 7505SOL    HW234152   0.697   4.333   8.974 -0.5155  3.6451  1.2814
 7506SOL     OW34153   2.149   4.043   2.671 -0.2596  0.3181  0.5915
 7506SOL    HW134154   2.139   4.120   2.616 -0.8056  0.4381  0.8616
 7506SOL    HW234155   2.216   4.001   2.617 -0.3006  0.7195  0.2232
 7507SOL     OW34156   4.626   2.777   6.134  0.5766  0.4257 -0.1417
 7507SOL    HW134157   4.588   2.856   6.174  1.2247  0.4588  0.4104
 7507SOL    HW234158   4.696   2.805   6.076  1.8672 -0.0420  1.2024
 7508SOL     OW34159   2.756   3.371  10.112  0.2099  0.1226  0.0085
 7508SOL    HW134160   2.766   3.387  10.206 -0.3290 -0.6339  0.1887
 7508SOL    HW234161   2.759   3.458  10.072  2.4881 -0.0044 -0.0942
 7509SOL     OW34162   3.437   1.188   6.776 -0.2133 -0.3064 -0.4358
 7509SOL    HW134163   3.379   1.160   6.847 -1.6580  0.2954 -1.3952
 7509SOL    HW234164   3.511   1.128   6.782 -0.9304 -1.0900  0.4553
 7510SOL     OW34165   4.220   0.116   2.407 -0.0924  0.0805 -0.1883
 7510SOL    HW134166   4.251   0.042   2.460 -0.0081  0.9075  0.9137
 7510SOL    HW234167   4.248   0.092   2.319 -3.1644 -1.4429 -0.7285
 7511SOL     OW34168   2.703   2.240  11.630 -0.1527  0.3555  0.1499
 7511SOL    HW134169   2.728   2.300  11.700  0.0598 -0.1652  0.5266
 7511SOL    HW234170   2.775   2.179  11.644  0.3451  0.8934 -0.1215
 7512SOL     OW34171   1.987   4.588   6.206 -0.2933 -0.2257 -0.4438
 7512SOL    HW134172   2.011   4.558   6.294 -0.0523 -0.7207 -0.6795
 7512SOL    HW234173   1.905   4.542   6.193 -0.5183  0.2715 -0.7837
 7513SOL     OW34174   4.339   1.781   2.930  0.0321  0.5311 -0.3324
 7513SOL    HW134175   4.256   1.788   2.883  0.7354  0.4027 -1.5882
 7513SOL    HW234176   4.302   1.733   3.004  1.0534  3.2638  1.9323
 7514SOL     OW34177   0.485   3.027   8.142  0.7452  0.2760 -0.5173
 7514SOL    HW134178   0.457   3.074   8.220 -0.1281 -0.1618 -0.5659
 7514SOL    HW234179   0.403   2.988   8.111 -0.3323  1.2298  1.1211
 7515SOL     OW34180   3.165   0.266   8.249  0.0281  0.0270 -0.7577
 7515SOL    HW134181   3.238   0.328   8.253  0.7794 -0.8420 -0.8847
 7515SOL    HW234182   3.139   0.286   8.159  0.0550  0.5609 -0.6512
 7516SOL     OW34183   1.802   2.520   8.326 -0.0684 -0.5218  0.1756
 7516SOL    HW134184   1.767   2.498   8.412 -0.2312 -1.5638 -0.1643
 7516SOL    HW234185   1.776   2.612   8.319  1.8183  0.0640  0.9371
 7517SOL     OW34186   0.696   2.800   2.776 -0.3156 -0.4387 -0.3409
 7517SOL    HW134187   0.613   2.780   2.820  0.2647  0.0702  0.9940
 7517SOL    HW234188   0.670   2.797   2.684 -0.8959  2.1895 -0.2446
 7518SOL     OW34189   2.351   0.104   6.039 -0.1278 -0.1988 -0.2355
 7518SOL    HW134190   2.393   0.107   5.953  0.0296 -0.4897 -0.1719
 7518SOL    HW234191   2.409   0.161   6.090  0.4486 -0.5629 -0.4804
 7519SOL     OW34192   0.401   0.831   4.624 -0.3105  0.3135 -0.0403
 7519SOL    HW134193   0.403   0.865   4.535  1.3200 -1.9854 -0.8575
 7519SOL    HW234194   0.451   0.750   4.611  0.7961  1.0986 -0.6235
 7520SOL     OW34195   1.024   2.800  17.422 -0.7883  0.1681  0.5046
 7520SOL    HW134196   1.021   2.707  17.445  0.9956 -0.0489 -0.1432
 7520SOL    HW234197   1.010   2.815  17.329 -0.9167 -1.0675  0.3274
 7521SOL     OW34198   3.315   2.967   1.719  0.1464 -0.0025  0.7499
 7521SOL    HW134199   3.225   2.934   1.709  0.7258 -0.6417 -2.2813
 7521SOL    HW234200   3.324   2.996   1.628  0.6671  1.6275  1.3263
 7522SOL     OW34201   1.014   4.716  16.395  0.0087  0.1661 -0.0148
 7522SOL    HW134202   1.076   4.712  16.468 -0.2680 -2.9620  0.0796
 7522SOL    HW234203   0.986   4.625  16.386 -0.3307  0.0921  1.8404
 7523SOL     OW34204   4.560   0.165   9.139 -0.1501 -0.0806  0.3478
 7523SOL    HW134205   4.518   0.201   9.217 -0.4987  1.3335 -0.4923
 7523SOL    HW234206   4.603   0.245   9.110  1.8074 -0.2203  2.8561
 7524SOL     OW34207   0.059   1.732   2.614 -0.5597 -0.0954 -0.0618
 7524SOL    HW134208   4.719   1.680   2.637 -0.2026  0.8729  3.2272
 7524SOL    HW234209   0.129   1.666   2.612  1.5748  2.1565  0.7863
 7525SOL     OW34210   0.617   1.658   8.081 -0.1507  0.6703  0.5363
 7525SOL    HW134211   0.610   1.683   8.173  3.1939 -0.0855  0.9856
 7525SOL    HW234212   0.534   1.687   8.044  0.1455 -0.2694 -0.8585
 7526SOL     OW34213   1.619   3.641  14.210 -0.4905 -0.0086 -0.2452
 7526SOL    HW134214   1.539   3.621  14.161 -0.9214  0.2889  0.3406
 7526SOL    HW234215   1.595   3.590  14.287  1.2363 -1.3471 -0.5955
 7527SOL     OW34216   1.754   2.569   8.650 -0.8307 -0.2720 -0.5713
 7527SOL    HW134217   1.754   2.594   8.742 -0.3858 -1.4556 -0.2402
 7527SOL    HW234218   1.796   2.646   8.612 -1.0721  0.3467  0.4277
 7528SOL     OW34219   2.582   0.652   8.995  0.0471 -0.0010  0.0421
 7528SOL    HW134220   2.665   0.605   8.983  0.5785  0.4780  1.8500
 7528SOL    HW234221   2.520   0.594   8.950 -0.8485  0.7260  0.3393
 7529SOL     OW34222   4.059   0.227   1.349  0.1784  0.0326  0.2030
 7529SOL    HW134223   4.083   0.303   1.296 -2.1135  1.1570  0.7608
 7529SOL    HW234224   4.123   0.234   1.420 -0.6114 -0.3478  0.9561
 7530SOL     OW34225   0.610   4.352   7.056 -0.2578  0.1162  0.0644
 7530SOL    HW134226   0.666   4.399   7.118  1.5833 -2.6069  0.4898
 7530SOL    HW234227   0.634   4.378   6.967 -1.9637  0.7937 -0.1982
 7531SOL     OW34228   4.651   1.678   4.055 -0.2950 -0.0954 -0.1347
 7531SOL    HW134229   4.573   1.711   4.010  0.5266 -0.9849 -2.2051
 7531SOL    HW234230   4.712   1.743   4.021 -1.0230 -0.6042 -2.3669
 7532SOL     OW34231   3.998   1.569  12.209  0.1684  0.2645 -0.2816
 7532SOL    HW134232   3.978   1.534  12.296 -0.8044  0.0548 -0.5994
 7532SOL    HW234233   3.949   1.651  12.202 -1.2137 -0.6291 -1.0066
 7533SOL     OW34234   2.140   2.384   1.431  0.1589 -0.5304  0.2160
 7533SOL    HW134235   2.066   2.374   1.490 -1.3381 -0.1806 -1.6034
 7533SOL    HW234236   2.181   2.298   1.440  1.7314 -0.0436 -2.2184
 7534SOL     OW34237   3.221   0.746   8.499  0.3128 -0.4423 -0.3398
 7534SOL    HW134238   3.250   0.742   8.590  2.1908  2.4247 -0.8009
 7534SOL    HW234239   3.272   0.679   8.454  0.2870 -0.8869  0.2896
 7535SOL     OW34240   1.798   0.759   0.174  0.5315 -0.4216 -0.2176
 7535SOL    HW134241   1.873   0.701   0.186 -0.5870 -1.6510  0.7165
 7535SOL    HW234242   1.767   0.741   0.085  1.4779  1.8706 -1.0157
 7536SOL     OW34243   0.037   1.530  15.869 -0.1772 -0.4514  0.1527
 7536SOL    HW134244   0.056   1.581  15.791 -1.2157  1.4271  1.1098
 7536SOL    HW234245   0.029   1.442  15.833  4.7235 -1.0529  0.4371
 7537SOL     OW34246   1.312   2.920   3.188  0.2063  0.0185 -0.6432
 7537SOL    HW134247   1.274   2.858   3.125 -1.5337 -0.2249  0.6359
 7537SOL    HW234248   1.402   2.888   3.200 -0.7947 -3.0082 -1.1106
 7538SOL     OW34249   3.428   3.134   9.886 -0.5020 -0.5626 -0.3048
 7538SOL    HW134250   3.393   3.109   9.801  0.1552 -2.0439 -0.1453
 7538SOL    HW234251   3.481   3.210   9.860  1.4923 -1.7543  0.2751
 7539SOL     OW34252   3.961   3.899   6.358 -0.0553  0.5302  0.1074
 7539SOL    HW134253   3.911   3.819   6.343  0.8347 -0.1327  0.6177
 7539SOL    HW234254   4.045   3.864   6.388  0.3911 -0.2971 -2.1246
 7540SOL     OW34255   1.720   3.196   3.904  0.3720  0.1103  0.3266
 7540SOL    HW134256   1.685   3.195   3.993  1.7076 -0.0958  0.8532
 7540SOL    HW234257   1.653   3.253   3.867  1.6003  0.7393 -0.9585
 7541SOL     OW34258   2.418   0.078   1.958 -0.0556  0.3716 -0.3585
 7541SOL    HW134259   2.454   0.152   2.007 -0.3593 -0.7792  1.6392
 7541SOL    HW234260   2.499   0.029   1.948 -1.3463 -1.6646 -0.9003
 7542SOL     OW34261   3.125   3.815   3.307  0.4421  0.2333 -0.4178
 7542SOL    HW134262   3.198   3.870   3.279 -0.6249  0.9977 -1.7001
 7542SOL    HW234263   3.165   3.766   3.378  0.6389 -0.2709 -0.8746
 7543SOL     OW34264   1.234   4.570   1.327 -0.2155 -0.4570 -0.2341
 7543SOL    HW134265   1.300   4.627   1.288 -0.8137 -0.0199 -0.6088
 7543SOL    HW234266   1.289   4.503   1.367 -0.8102 -1.6982 -1.5068
 7544SOL     OW34267   2.603   2.218   5.400 -0.2128  0.6789  0.5666
 7544SOL    HW134268   2.588   2.163   5.478  0.2139 -0.0901  0.1116
 7544SOL    HW234269   2.642   2.158   5.337  2.1639  2.1412  0.6378
 7545SOL     OW34270   0.205   1.849  15.671 -0.0204 -0.0201 -0.4501
 7545SOL    HW134271   0.218   1.928  15.620 -2.8618 -0.3294 -1.6944
 7545SOL    HW234272   0.286   1.844  15.722  0.4711 -0.4990 -1.2806
 7546SOL     OW34273   2.354   2.917   3.011 -0.1652  0.2153 -0.3352
 7546SOL    HW134274   2.391   2.838   3.050  1.9952  1.3119 -0.1325
 7546SOL    HW234275   2.314   2.964   3.085 -0.7361 -0.5566 -0.1525
 7547SOL     OW34276   4.347   3.791  15.356  0.8017 -0.3539  0.0116
 7547SOL    HW134277   4.337   3.742  15.438 -1.0137  0.0803  0.0434
 7547SOL    HW234278   4.403   3.863  15.386 -1.8277  2.1925 -1.2584
 7548SOL     OW34279   2.216   1.850   4.812  0.0919 -0.2487 -0.2762
 7548SOL    HW134280   2.307   1.819   4.819 -0.1543 -1.2420 -1.4881
 7548SOL    HW234281   2.220   1.868   4.718 -1.7642 -0.1785 -0.3349
 7549SOL     OW34282   3.384   4.186  14.212 -0.0029  0.1520  0.5947
 7549SOL    HW134283   3.333   4.194  14.131  0.1990 -3.1251  0.1417
 7549SOL    HW234284   3.312   4.157  14.268  1.7024 -0.3013  2.5411
 7550SOL     OW34285   4.473   2.895   5.533 -0.7325  0.1494 -0.0542
 7550SOL    HW134286   4.545   2.841   5.501 -0.3198 -0.0783  1.2355
 7550SOL    HW234287   4.410   2.898   5.461 -1.2862  3.9146  0.5815
 7551SOL     OW34288   4.417   2.925   7.250 -0.2253 -0.0975 -0.2816
 7551SOL    HW134289   4.480   2.944   7.320 -0.3466 -0.9326  0.0541
 7551SOL    HW234290   4.344   2.973   7.288 -1.8769 -1.5582 -1.5846
 7552SOL     OW34291   2.287   1.505  10.068 -0.1979  0.2457  0.2355
 7552SOL    HW134292   2.354   1.463  10.012 -0.2152 -0.7583  0.9674
 7552SOL    HW234293   2.316   1.494  10.158 -1.1474 -0.5715  0.4329
 7553SOL     OW34294   3.929   2.095  14.246 -0.4666  0.1828 -0.7885
 7553SOL    HW134295   3.839   2.069  14.226 -0.6777 -1.0158  1.7104
 7553SOL    HW234296   3.971   2.009  14.243 -2.3701 -0.8664  2.5038
 7554SOL     OW34297   3.148   4.734  14.744 -0.0972 -0.2782  0.1322
 7554SOL    HW134298   3.065   4.695  14.771  1.1115 -1.4481  2.1718
 7554SOL    HW234299   3.212   4.665  14.761 -2.0378 -2.0752  0.1976
 7555SOL     OW34300   2.081   2.816   8.126  0.1721  0.0196 -0.3522
 7555SOL    HW134301   2.031   2.751   8.077 -1.0986  1.0223 -0.3710
 7555SOL    HW234302   2.008   2.871   8.153  0.7034  0.1683  0.7923
 7556SOL     OW34303   4.499   2.492   4.198 -0.2145 -0.4572  0.1555
 7556SOL    HW134304   4.495   2.461   4.289 -1.4528  1.8211  0.8977
 7556SOL    HW234305   4.584   2.451   4.181 -0.2871 -0.3155 -0.5546
 7557SOL     OW34306   1.784   1.256   2.991 -0.1913  0.4703  0.5528
 7557SOL    HW134307   1.743   1.230   2.909 -1.2469  3.9228 -0.0073
 7557SOL    HW234308   1.811   1.172   3.027  1.1431  0.5363 -0.2695
 7558SOL     OW34309   3.552   2.050  14.102  0.2568  0.3131 -0.0297
 7558SOL    HW134310   3.582   2.064  14.192 -0.8928 -0.9977  0.5461
 7558SOL    HW234311   3.463   2.074  14.127  0.1857 -0.4632  0.4595
 7559SOL     OW34312   0.148   0.477   9.388  0.4569  0.1746  0.1580
 7559SOL    HW134313   0.209   0.404   9.387  0.9072  0.5715 -0.7351
 7559SOL    HW234314   0.070   0.425   9.406  1.1108 -1.2141 -1.0427
 7560SOL     OW34315   0.791   0.340   1.393  0.6011  0.2393  0.1550
 7560SOL    HW134316   0.767   0.264   1.447 -0.0792  0.3333 -0.0110
 7560SOL    HW234317   0.734   0.320   1.318  0.2027  0.4276  0.4049
 7561SOL     OW34318   0.402   1.551   1.949 -0.4921  0.3009  0.5451
 7561SOL    HW134319   0.389   1.628   2.004 -0.3885 -2.1703  3.9813
 7561SOL    HW234320   0.431   1.604   1.874 -0.9086  1.3043  1.0948
 7562SOL     OW34321   4.436   0.495   1.933  0.5542  0.0795  0.5280
 7562SOL    HW134322   4.341   0.506   1.930  0.4707 -0.8777 -0.5647
 7562SOL    HW234323   4.429   0.440   2.011  0.7849 -0.1282  0.4043
 7563SOL     OW34324   2.520   1.469   2.612  0.5869  0.0156  0.6868
 7563SOL    HW134325   2.461   1.425   2.551  0.8037 -1.6970  1.7176
 7563SOL    HW234326   2.560   1.540   2.562  0.4417 -1.1987 -1.1476
 7564SOL     OW34327   0.548   2.689  12.530  0.3489  0.2043 -0.6701
 7564SOL    HW134328   0.619   2.670  12.591 -1.6627 -0.0287  1.5832
 7564SOL    HW234329   0.564   2.617  12.469 -0.7246 -1.3474  0.8796
 7565SOL     OW34330   3.151   0.500   4.518 -0.3283  0.4469 -0.4347
 7565SOL    HW134331   3.208   0.424   4.514 -1.4990 -0.4334 -0.4751
 7565SOL    HW234332   3.190   0.569   4.465 -2.4067  1.7249 -0.3021
 7566SOL     OW34333   0.100   3.019   6.191 -0.1772  0.3014 -0.0111
 7566SOL    HW134334   0.106   3.007   6.096 -0.5379 -0.9131  0.1164
 7566SOL    HW234335   0.172   2.967   6.227  1.4562  1.8716 -0.9861
 7567SOL     OW34336   4.372   1.012  11.463 -0.0458 -0.0259 -0.2796
 7567SOL    HW134337   4.354   0.930  11.509 -0.7266  0.3365  0.1109
 7567SOL    HW234338   4.466   1.019  11.449 -0.0163  0.7177  0.3013
 7568SOL     OW34339   1.766   1.146   7.615  0.3532  0.3272  0.0064
 7568SOL    HW134340   1.741   1.086   7.685 -3.3936  0.7834 -0.9010
 7568SOL    HW234341   1.861   1.149   7.611  0.2971  2.8843  0.4668
 7569SOL     OW34342   0.712   2.920   8.792 -0.1006  0.0496  0.1734
 7569SOL    HW134343   0.739   2.966   8.872 -1.3725  0.9291  0.1132
 7569SOL    HW234344   0.627   2.962   8.781  0.1525  0.7161  0.7558
 7570SOL     OW34345   2.227   2.237   7.837  0.0527 -0.4992  0.6695
 7570SOL    HW134346   2.158   2.191   7.885  0.8907 -2.3589  0.0615
 7570SOL    HW234347   2.219   2.329   7.864  1.0469 -0.3714  0.5562
 7571SOL     OW34348   1.559   1.668   1.212  0.3767  0.1442 -0.1405
 7571SOL    HW134349   1.506   1.632   1.141 -2.6267  0.2149  2.0479
 7571SOL    HW234350   1.647   1.662   1.175  0.0551  3.6531 -1.4994
 7572SOL     OW34351   4.635   1.196   7.490 -0.3881 -0.7574  0.5262
 7572SOL    HW134352   4.696   1.123   7.482 -0.0743 -0.4683  0.3103
 7572SOL    HW234353   4.674   1.236   7.567 -1.1635  0.3947  0.3194
 7573SOL     OW34354   3.082   3.094   5.818 -0.7020  0.3778 -0.0061
 7573SOL    HW134355   3.067   3.168   5.759  0.0812  1.6469  1.3453
 7573SOL    HW234356   3.072   3.021   5.757 -1.0130  0.3648  0.0612
 7574SOL     OW34357   2.312   3.766   5.336  0.1281 -0.3109  0.1088
 7574SOL    HW134358   2.244   3.831   5.349 -0.9792 -1.3992 -0.1792
 7574SOL    HW234359   2.262   3.701   5.286 -1.5872  0.4521  0.8264
 7575SOL     OW34360   2.894   4.690   2.391  0.6964  0.0521  0.2348
 7575SOL    HW134361   2.827   4.625   2.412 -0.9732  1.5682 -0.3514
 7575SOL    HW234362   2.855   0.038   2.415 -3.0113 -1.5506 -0.0558
 7576SOL     OW34363   4.214   3.669   5.042 -0.2948 -0.0250 -0.1151
 7576SOL    HW134364   4.252   3.719   5.114 -1.0015 -0.8303  0.8176
 7576SOL    HW234365   4.132   3.657   5.089 -0.1819  0.6851  0.2588
 7577SOL     OW34366   3.973   3.145   6.799  0.1791 -0.2872  0.1817
 7577SOL    HW134367   3.958   3.160   6.706 -0.7014  1.2858  0.5724
 7577SOL    HW234368   3.887   3.109   6.821 -0.3602 -0.5973 -2.4146
 7578SOL     OW34369   1.388   0.703  16.367 -0.3166  0.1725 -0.0767
 7578SOL    HW134370   1.362   0.611  16.364  1.1587 -0.2958  1.2166
 7578SOL    HW234371   1.481   0.702  16.342 -0.4365  2.0940 -0.5727
 7579SOL     OW34372   0.279   1.384  10.315  0.3787  0.1372 -0.0663
 7579SOL    HW134373   0.236   1.362  10.233  0.2266  0.8726 -0.1879
 7579SOL    HW234374   0.217   1.360  10.384  0.6773 -0.4243  0.0098
 7580SOL     OW34375   0.575   2.120   5.989 -0.0815 -0.2566 -0.0581
 7580SOL    HW134376   0.639   2.056   6.021  0.5841  0.8176  0.7598
 7580SOL    HW234377   0.597   2.129   5.896  0.0463  0.9687  0.0851
 7581SOL     OW34378   1.059   1.931   6.459 -0.2089  0.0528 -0.9937
 7581SOL    HW134379   1.123   1.974   6.516  1.3630 -1.6311 -1.4878
 7581SOL    HW234380   1.109   1.849   6.462 -0.9777 -0.4399 -2.0302
 7582SOL     OW34381   3.538   3.438   4.719  0.2691  0.0901  0.1927
 7582SOL    HW134382   3.467   3.421   4.656 -1.3296  0.2889  1.9363
 7582SOL    HW234383   3.487   3.454   4.798 -2.7862  0.2988 -1.7981
 7583SOL     OW34384   2.063   4.488   8.715 -0.1173 -0.5939  0.6471
 7583SOL    HW134385   2.059   4.533   8.631 -1.1997 -1.0256  0.4608
 7583SOL    HW234386   2.033   4.398   8.697  0.9683 -0.7380 -0.4568
 7584SOL     OW34387   0.854   1.072  11.708  0.3223 -0.2097 -0.1805
 7584SOL    HW134388   0.765   1.108  11.711  1.3737  2.4552 -0.7165
 7584SOL    HW234389   0.836   0.982  11.682  0.5560  1.0067 -4.6350
 7585SOL     OW34390   0.053   1.257   1.811 -0.1535 -0.0755  0.1696
 7585SOL    HW134391   0.060   1.343   1.850 -1.3065 -0.9141  2.2186
 7585SOL    HW234392   4.707   1.224   1.847  0.4682 -0.7816  0.9478
 7586SOL     OW34393   2.707   2.526   3.378 -0.2743 -0.1287 -0.1391
 7586SOL    HW134394   2.678   2.585   3.309 -0.3349  1.1729  1.0127
 7586SOL    HW234395   2.634   2.464   3.378 -0.0522 -0.3885 -0.4231
 7587SOL     OW34396   1.905   1.988   5.596 -0.4160 -0.0582 -0.4616
 7587SOL    HW134397   1.867   1.935   5.526  1.9344 -1.1342 -0.9182
 7587SOL    HW234398   1.870   2.073   5.569 -1.2227 -0.2448 -0.0085
 7588SOL     OW34399   3.812   1.907   4.135  0.2550 -0.6830  0.1066
 7588SOL    HW134400   3.829   1.920   4.228 -0.8055  0.2983  0.1630
 7588SOL    HW234401   3.866   1.973   4.092 -0.5534 -0.2755 -0.2827
 7589SOL     OW34402   1.077   3.705   2.476  0.2571 -0.0473  0.0551
 7589SOL    HW134403   1.163   3.708   2.519  0.4944  1.2339 -0.4756
 7589SOL    HW234404   1.096   3.771   2.409 -0.9787 -1.1035 -1.3280
 7590SOL     OW34405   2.182   2.133   6.744 -0.3977 -0.0089  0.0895
 7590SOL    HW134406   2.214   2.047   6.715  1.1167  0.8092 -0.6481
 7590SOL    HW234407   2.137   2.100   6.822 -0.0932  0.7724  0.5979
 7591SOL     OW34408   4.456   2.371   4.520 -0.2632 -0.5425 -0.1692
 7591SOL    HW134409   4.436   2.311   4.449  1.5064  1.3368 -2.2312
 7591SOL    HW234410   4.362   2.379   4.536 -0.3367 -1.0774 -0.3336
 7592SOL     OW34411   0.722   2.789   7.890  0.3338  0.4929  0.1649
 7592SOL    HW134412   0.727   2.883   7.908  2.7669  0.0791  1.6977
 7592SOL    HW234413   0.672   2.757   7.965 -2.4077 -0.8023 -2.2374
 7593SOL     OW34414   2.057   4.190   3.904 -0.3857 -0.1541 -0.3038
 7593SOL    HW134415   1.982   4.139   3.874 -0.1286 -1.3279  1.0438
 7593SOL    HW234416   2.032   4.279   3.879 -0.6580  0.1890  1.1974
 7594SOL     OW34417   1.806   0.834   7.385 -0.2760 -0.2062 -0.5636
 7594SOL    HW134418   1.772   0.769   7.323  0.2998 -1.6905  0.6656
 7594SOL    HW234419   1.861   0.785   7.446  1.2591  1.1380 -0.8775
 7595SOL     OW34420   3.032   1.923   5.795  0.3488 -0.6283 -0.0712
 7595SOL    HW134421   2.947   1.882   5.813  0.6547 -2.1138 -1.9903
 7595SOL    HW234422   3.008   2.009   5.761 -0.8812 -1.4881 -1.3605
 7596SOL     OW34423   1.019   3.080   5.910  0.2249  0.3930  0.9313
 7596SOL    HW134424   1.041   3.023   5.836  0.8691  0.4171  1.1061
 7596SOL    HW234425   1.038   3.024   5.986 -0.5784  0.4021  1.1380
 7597SOL     OW34426   3.357   1.205   8.834  0.3239 -0.7052  0.1480
 7597SOL    HW134427   3.389   1.249   8.913 -2.3170 -0.4411  1.0911
 7597SOL    HW234428   3.278   1.156   8.859  0.3270  0.1344  1.8185
 7598SOL     OW34429   2.941   3.888   0.693 -0.0524  0.4407 -0.5404
 7598SOL    HW134430   2.994   3.831   0.749  0.4130  0.2026 -1.2182
 7598SOL    HW234431   2.999   3.900   0.617  0.8559  1.6473  0.3387
 7599SOL     OW34432   4.404   2.252  10.303  0.0719  0.1040  0.1713
 7599SOL    HW134433   4.426   2.269  10.211  1.3448 -0.8332  0.3189
 7599SOL    HW234434   4.349   2.175  10.285 -0.2462  0.3131  0.2534
 7600SOL     OW34435   2.180   4.023   4.682  0.2621  0.9299  0.4096
 7600SOL    HW134436   2.254   3.962   4.684  0.6657  1.4424  0.8736
 7600SOL    HW234437   2.163   4.042   4.774  0.9844  1.6024  0.4042
 7601SOL     OW34438   2.273   4.201  16.785  0.5099  0.1548 -0.2283
 7601SOL    HW134439   2.308   4.287  16.762 -1.3375  0.5417 -1.5085
 7601SOL    HW234440   2.351   4.152  16.812  0.6866  1.0702  0.9350
 7602SOL     OW34441   0.153   2.392   3.467 -0.2002  0.4034 -0.3157
 7602SOL    HW134442   0.214   2.440   3.412  0.7266  0.4319  0.7499
 7602SOL    HW234443   0.148   2.453   3.541 -1.6001 -0.1511  0.0631
 7603SOL     OW34444   1.290   4.560  11.183 -0.7505  0.0027 -0.2173
 7603SOL    HW134445   1.212   4.598  11.224  0.7760  1.3977  1.3705
 7603SOL    HW234446   1.318   4.496  11.249  0.8291  3.0366  2.0337
 7604SOL     OW34447   1.473   0.688   8.483  0.3725  0.4311 -0.3531
 7604SOL    HW134448   1.410   0.619   8.461 -0.2065 -0.1525  3.0640
 7604SOL    HW234449   1.433   0.711   8.567 -2.9259  1.1363 -2.1453
 7605SOL     OW34450   2.320   3.535   2.014 -0.5281 -0.2360 -0.7851
 7605SOL    HW134451   2.244   3.532   2.072  0.0675 -0.4469 -0.0143
 7605SOL    HW234452   2.375   3.475   2.064 -0.0425 -1.2829 -2.6083
 7606SOL     OW34453   1.272   0.514  10.669 -0.1093  0.3433 -0.4835
 7606SOL    HW134454   1.231   0.467  10.597 -3.5696 -0.1002  1.7841
 7606SOL    HW234455   1.227   0.598  10.655 -0.4142  0.8832  3.5806
 7607SOL     OW34456   1.890   3.410   5.709  0.0722 -0.7247 -0.5327
 7607SOL    HW134457   1.871   3.319   5.732  1.1021 -0.7367  0.2650
 7607SOL    HW234458   1.953   3.437   5.776  1.0501  1.6882 -2.4421
 7608SOL     OW34459   0.324   3.013   5.949  0.0293  0.3812 -0.4797
 7608SOL    HW134460   0.399   3.071   5.961  0.5961 -0.7164  1.4474
 7608SOL    HW234461   0.323   3.006   5.854  2.3007  3.5980 -0.7430
 7609SOL     OW34462   4.286   2.771   4.253  0.2486 -0.1923 -0.2694
 7609SOL    HW134463   4.214   2.824   4.218  1.4001  0.5103 -1.5659
 7609SOL    HW234464   4.329   2.835   4.310  1.5393 -1.6616  0.3985
 7610SOL     OW34465   3.952   3.786  15.347  0.5132 -0.2134 -0.4233
 7610SOL    HW134466   3.866   3.756  15.376 -0.0405  1.8058  0.0554
 7610SOL    HW234467   3.942   3.874  15.384  0.9885 -0.3923  0.1522
 7611SOL     OW34468   1.914   4.367   7.697  0.2874  0.3454  0.1919
 7611SOL    HW134469   2.004   4.337   7.708  0.0365 -0.6756 -0.4945
 7611SOL    HW234470   1.857   4.290   7.705  1.1850 -0.3122  0.3030
 7612SOL     OW34471   0.084   1.107   5.289  0.2407 -0.5265  0.1481
 7612SOL    HW134472   0.129   1.186   5.258 -0.2541 -0.3355 -0.0873
 7612SOL    HW234473   0.030   1.091   5.212  0.8575 -3.0402  0.2424
 7613SOL     OW34474   2.666   0.295   1.353 -0.2234  0.4243  0.0289
 7613SOL    HW134475   2.664   0.200   1.366  1.2007  0.4939  0.7276
 7613SOL    HW234476   2.738   0.340   1.397 -0.1763 -0.2893  0.6925
 7614SOL     OW34477   3.272   3.563   9.148  0.0916 -0.0544  0.3052
 7614SOL    HW134478   3.271   3.658   9.134  1.0156  0.0325  0.8571
 7614SOL    HW234479   3.354   3.547   9.195  0.3026  0.2943  0.0512
 7615SOL     OW34480   2.905   4.174   5.132 -0.3152  0.6793 -0.2537
 7615SOL    HW134481   3.000   4.180   5.122 -0.5371  0.7228 -2.4984
 7615SOL    HW234482   2.881   4.229   5.057  1.7973 -1.8822 -2.8359
 7616SOL     OW34483   3.789   1.848   2.967  0.0826  0.4639 -0.0726
 7616SOL    HW134484   3.783   1.789   3.042  1.9900  0.2781 -0.0746
 7616SOL    HW234485   3.721   1.824   2.903  0.0348 -0.4658  0.3331
 7617SOL     OW34486   3.174   2.204   9.191  0.1186 -0.2324 -0.1512
 7617SOL    HW134487   3.086   2.171   9.209  0.4515  0.0615  2.0773
 7617SOL    HW234488   3.222   2.139   9.242  0.1032  0.1637  0.3672
 7618SOL     OW34489   0.586   3.735   6.739  0.5150  0.0553 -0.2170
 7618SOL    HW134490   0.562   3.643   6.745  1.2581 -0.1169  0.0525
 7618SOL    HW234491   0.676   3.731   6.706  0.3346 -1.0584 -0.5632
 7619SOL     OW34492   0.555   4.118   8.165 -0.6594 -0.0516  0.0122
 7619SOL    HW134493   0.568   4.084   8.077  1.8802  1.3102 -0.1428
 7619SOL    HW234494   0.480   4.068   8.198 -0.9061  0.3008 -0.0203
 7620SOL     OW34495   4.299   4.258  14.621  0.8213 -0.1746  0.4831
 7620SOL    HW134496   4.287   4.214  14.705  0.9817  0.0476  0.6241
 7620SOL    HW234497   4.339   4.188  14.570  0.0394  0.9050 -1.6162
 7621SOL     OW34498   3.196   2.435  11.460  0.2963  0.1999 -0.1369
 7621SOL    HW134499   3.234   2.397  11.381 -2.0545 -1.3142 -0.5184
 7621SOL    HW234500   3.120   2.379  11.470 -0.7329  1.6639  0.2057
 7622SOL     OW34501   3.591   1.765   2.802  0.5897 -0.1601  0.5065
 7622SOL    HW134502   3.516   1.785   2.859 -0.0747 -0.1724 -0.3714
 7622SOL    HW234503   3.545   1.698   2.750  0.4403  0.2719  0.0868
 7623SOL     OW34504   1.928   0.028   2.345  0.3466 -0.0919  0.0346
 7623SOL    HW134505   1.959   0.081   2.271  0.7859  0.7225  0.8106
 7623SOL    HW234506   1.964   4.679   2.325 -1.7995 -1.0927  0.4472
 7624SOL     OW34507   4.199   1.807   1.982 -0.1439  0.4625 -0.0800
 7624SOL    HW134508   4.132   1.876   1.976 -0.8807 -0.1696  1.0086
 7624SOL    HW234509   4.205   1.798   1.887 -1.1243 -0.3265 -0.0553
 7625SOL     OW34510   1.505   4.396  17.648 -0.5128  0.0577  0.2530
 7625SOL    HW134511   1.517   4.407  17.554  2.1236 -0.6492  0.5128
 7625SOL    HW234512   1.443   4.465  17.673  1.0041  1.4387  0.1875
 7626SOL     OW34513   1.646   2.755   5.535 -0.0995  0.3395  0.3709
 7626SOL    HW134514   1.725   2.754   5.589  1.2948 -1.4581 -1.7272
 7626SOL    HW234515   1.591   2.820   5.579  2.8142  3.5841 -0.7821
 7627SOL     OW34516   4.206   1.211  11.828  0.1297  0.3587  0.5194
 7627SOL    HW134517   4.272   1.156  11.870 -0.7751  2.9711  5.3548
 7627SOL    HW234518   4.167   1.154  11.761 -0.2766 -1.2905  2.1855
 7628SOL     OW34519   4.196   1.056   5.077 -0.2029 -0.1461 -0.3561
 7628SOL    HW134520   4.235   1.024   5.158  1.4464  1.8958 -0.3457
 7628SOL    HW234521   4.101   1.039   5.079 -0.3728  0.9428  0.6094
 7629SOL     OW34522   2.214   2.033   2.483 -0.0240 -0.1685  0.4660
 7629SOL    HW134523   2.265   1.964   2.526 -0.6598 -1.2844 -0.5936
 7629SOL    HW234524   2.145   1.985   2.437  0.7261 -1.3464  0.5497
 7630SOL     OW34525   4.030   0.376   3.946  0.2376  0.0426 -0.2768
 7630SOL    HW134526   4.035   0.385   4.041 -0.4384 -2.8938  0.0396
 7630SOL    HW234527   3.954   0.429   3.923  0.6509  1.0695  0.7362
 7631SOL     OW34528   3.644   0.114   6.998 -0.1720 -0.0807  0.5495
 7631SOL    HW134529   3.733   0.080   7.001  0.0863  0.5109 -0.4854
 7631SOL    HW234530   3.589   0.044   7.033  1.5684 -1.8936 -0.3703
 7632SOL     OW34531   3.009   2.030   0.843  0.0961  0.6026  0.1562
 7632SOL    HW134532   2.925   1.987   0.857  0.0013  0.9958  0.8014
 7632SOL    HW234533   3.054   2.016   0.926 -0.1830 -2.8389 -0.2827
 7633SOL     OW34534   0.403   2.216   2.271  0.3981 -0.2552 -0.1746
 7633SOL    HW134535   0.434   2.167   2.194 -0.6462 -1.5318  0.2122
 7633SOL    HW234536   0.434   2.166   2.346  0.5801 -1.1653 -0.8615
 7634SOL     OW34537   0.813   0.313   3.311 -0.0783 -1.1271 -0.1570
 7634SOL    HW134538   0.777   0.229   3.338  0.6872 -2.4522 -3.1871
 7634SOL    HW234539   0.767   0.371   3.372 -1.1597  0.3094 -2.3197
 7635SOL     OW34540   3.186   1.360   1.704  0.3516  0.5316  0.6674
 7635SOL    HW134541   3.181   1.266   1.688  0.6188  0.3940  1.4212
 7635SOL    HW234542   3.126   1.373   1.778  0.5954  2.2105  0.5709
 7636SOL     OW34543   2.738   1.606   1.323 -0.9785  0.0706  0.1578
 7636SOL    HW134544   2.820   1.579   1.366 -1.7770  0.6062  2.0203
 7636SOL    HW234545   2.696   1.636   1.404 -1.8205 -0.2025 -0.1859
 7637SOL     OW34546   3.985   3.301   8.330  0.5146  0.6956  0.3255
 7637SOL    HW134547   3.963   3.210   8.346 -0.4864  1.0032  0.7074
 7637SOL    HW234548   3.932   3.341   8.399  1.7122 -0.4744  1.8890
 7638SOL     OW34549   0.115   1.518   7.735  0.3687 -0.0223  0.7314
 7638SOL    HW134550   0.083   1.428   7.736 -1.8249  0.7408 -3.5077
 7638SOL    HW234551   0.203   1.504   7.770  0.6693 -0.9230 -0.3976
 7639SOL     OW34552   1.321   1.248   3.419 -0.0132 -0.1849 -0.7137
 7639SOL    HW134553   1.243   1.290   3.456  0.2839 -1.3508  1.2531
 7639SOL    HW234554   1.276   1.174   3.380 -2.5313  0.9073  0.1203
 7640SOL     OW34555   1.336   4.214   5.607  0.4694  0.8229 -0.2708
 7640SOL    HW134556   1.386   4.286   5.647  0.8857  1.1919 -1.4524
 7640SOL    HW234557   1.262   4.257   5.563  1.1758  1.3293 -0.9651
 7641SOL     OW34558   3.006   2.503   0.516 -0.2254  0.6338  0.2815
 7641SOL    HW134559   3.040   2.589   0.541  1.0378 -0.8770  3.8315
 7641SOL    HW234560   2.943   2.520   0.446  1.7088 -1.8693 -2.0761
 7642SOL     OW34561   4.248   3.312   0.813 -0.2703 -0.4586  0.1804
 7642SOL    HW134562   4.193   3.237   0.793 -2.6626  0.8456  1.7890
 7642SOL    HW234563   4.248   3.314   0.909  0.0823 -1.3294  0.1991
 7643SOL     OW34564   2.396   2.952   3.384  0.2261  0.0970  0.2518
 7643SOL    HW134565   2.311   2.990   3.360  1.4672  3.3979  1.1675
 7643SOL    HW234566   2.383   2.857   3.379  0.7042  0.0726 -0.5078
 7644SOL     OW34567   0.172   1.039   4.131  0.5052  0.0127  0.6561
 7644SOL    HW134568   0.080   1.060   4.115  0.8573  2.4888  1.9168
 7644SOL    HW234569   0.196   1.074   4.045 -0.5502 -2.8128 -0.7862
 7645SOL     OW34570   1.753   0.536  15.006 -0.4146 -0.5835 -0.1020
 7645SOL    HW134571   1.723   0.622  14.976  0.6934 -0.0747  0.2386
 7645SOL    HW234572   1.834   0.557  15.054 -1.0568 -1.9984  1.6014
 7646SOL     OW34573   4.259   2.663   5.531  0.0185  0.3254  0.0912
 7646SOL    HW134574   4.314   2.595   5.570 -0.6170 -0.3924 -0.2693
 7646SOL    HW234575   4.224   2.709   5.608 -0.9674  1.6082 -1.1162
 7647SOL     OW34576   2.049   2.356   5.745  0.1277 -0.0857 -0.0690
 7647SOL    HW134577   2.093   2.271   5.746 -0.5368 -0.4374 -0.5371
 7647SOL    HW234578   2.077   2.389   5.830 -0.5317  2.4116 -0.8273
 7648SOL     OW34579   1.866   3.709   7.130 -0.0100  0.0076  0.5269
 7648SOL    HW134580   1.856   3.636   7.191 -0.4818  0.1553  0.6239
 7648SOL    HW234581   1.943   3.671   7.088 -0.3119  0.1964 -0.1936
 7649SOL     OW34582   4.310   0.138   7.836 -0.1596 -0.2566  1.0132
 7649SOL    HW134583   4.398   0.114   7.809  0.2861  0.8935  1.4344
 7649SOL    HW234584   4.263   0.095   7.764 -0.0312  1.3277 -0.0067
 7650SOL     OW34585   0.735   0.430   4.786  0.3995  0.5207  0.1763
 7650SOL    HW134586   0.745   0.429   4.691 -1.8917  2.0256 -0.0878
 7650SOL    HW234587   0.781   0.509   4.814  1.2724  0.1701 -0.2796
 7651SOL     OW34588   3.194   1.590   4.041  0.1639 -0.7266 -0.5298
 7651SOL    HW134589   3.185   1.502   4.004 -1.8329 -1.0218  0.6168
 7651SOL    HW234590   3.142   1.636   3.975  0.7536  0.4306 -0.1832
 7652SOL     OW34591   4.418   3.827  14.590  0.1214 -0.1375  0.3551
 7652SOL    HW134592   4.499   3.799  14.633 -2.6486 -1.2987  4.9108
 7652SOL    HW234593   4.375   3.748  14.557 -2.4812  1.5098 -0.1858
 7653SOL     OW34594   4.541   4.502   7.219 -0.2506 -0.1507 -0.5875
 7653SOL    HW134595   4.520   4.545   7.136  1.6400  1.7718 -0.0570
 7653SOL    HW234596   4.625   4.543   7.238 -1.5044  0.4982  3.6172
 7654SOL     OW34597   3.666   0.006  11.727 -0.1343 -0.7292 -0.3418
 7654SOL    HW134598   3.706   0.083  11.766  1.8311 -0.7046 -2.4199
 7654SOL    HW234599   3.733   4.683  11.694  0.1949  0.6512 -2.2022
 7655SOL     OW34600   2.843   3.735   5.390  0.0834 -0.2534  0.0452
 7655SOL    HW134601   2.845   3.665   5.325 -0.1459  1.7033 -2.0559
 7655SOL    HW234602   2.763   3.781   5.362  0.9963  1.2242 -0.1362
 7656SOL     OW34603   0.521   3.188  12.399  0.2001  1.1991  0.4484
 7656SOL    HW134604   0.462   3.210  12.471 -1.5549 -1.3690 -0.1816
 7656SOL    HW234605   0.572   3.120  12.442 -0.6997  0.4726  0.3700
 7657SOL     OW34606   1.618   4.037   1.648 -0.4792  0.1494 -0.3170
 7657SOL    HW134607   1.706   4.024   1.682 -0.1772 -0.3328 -1.2680
 7657SOL    HW234608   1.632   3.999   1.561  1.3846  0.1568 -0.0078
 7658SOL     OW34609   4.690   0.848   1.680 -0.4005 -0.1045 -0.1100
 7658SOL    HW134610   4.596   0.845   1.697 -0.2761 -2.0624  0.2346
 7658SOL    HW234611   4.720   0.873   1.767 -1.9398  0.1034  0.3433
 7659SOL     OW34612   4.733   2.071   6.155  0.0518  0.0049  0.1879
 7659SOL    HW134613   4.670   2.008   6.189 -0.5524  0.4365 -0.1356
 7659SOL    HW234614   4.686   2.149   6.126 -0.2385  0.2389  1.2960
 7660SOL     OW34615   3.770   4.683  12.967  0.4163  0.1600 -0.8654
 7660SOL    HW134616   3.807   4.612  13.020 -1.6399 -1.2025 -1.2746
 7660SOL    HW234617   3.816   0.025  12.995 -1.2629  0.4459  1.0270
 7661SOL     OW34618   0.770   3.434   5.555 -0.6808 -0.0032 -0.1399
 7661SOL    HW134619   0.762   3.364   5.619  0.9559 -0.7925 -0.8207
 7661SOL    HW234620   0.714   3.498   5.599 -0.4687 -0.5065  0.8666
 7662SOL     OW34621   2.806   2.018   3.465  0.1881  1.0844 -0.6000
 7662SOL    HW134622   2.737   2.078   3.438  2.1812  4.2132  1.3568
 7662SOL    HW234623   2.830   1.971   3.385 -3.0556 -0.3542 -0.7109
 7663SOL     OW34624   3.904   1.536  15.687  0.3607  0.3437 -0.3948
 7663SOL    HW134625   3.865   1.489  15.761  3.1264  0.4352  1.0794
 7663SOL    HW234626   3.908   1.463  15.625 -0.7041 -0.1208  0.0812
 7664SOL     OW34627   1.376   4.076  13.571 -0.0305 -0.2869 -0.7164
 7664SOL    HW134628   1.307   4.140  13.588  0.0986 -0.9416  2.2600
 7664SOL    HW234629   1.338   4.006  13.518 -0.8558 -0.4464  0.0828
 7665SOL     OW34630   3.348   2.357   7.030  0.1335  0.1481 -0.8300
 7665SOL    HW134631   3.291   2.295   7.074  2.3325 -0.9725  0.4703
 7665SOL    HW234632   3.359   2.415   7.105 -0.5269 -1.2455  0.3291
 7666SOL     OW34633   1.373   2.358   2.943  0.4839  0.1082 -0.0323
 7666SOL    HW134634   1.363   2.319   3.030  1.4600 -1.3657 -0.5864
 7666SOL    HW234635   1.299   2.419   2.946  0.4178  0.0901 -1.4806
 7667SOL     OW34636   2.625   2.459   1.115 -0.2145 -0.0863 -0.0041
 7667SOL    HW134637   2.642   2.453   1.209 -0.1075  2.4778  0.1584
 7667SOL    HW234638   2.570   2.538   1.108  1.6783  1.0670 -1.9812
 7668SOL     OW34639   3.318   2.646   2.421 -0.0458 -0.6717  0.7530
 7668SOL    HW134640   3.248   2.711   2.418  1.2138  0.6639  0.8014
 7668SOL    HW234641   3.349   2.655   2.511  2.2232  0.4257 -0.1315
 7669SOL     OW34642   0.913   0.766   2.292 -0.6543  0.0318 -0.5604
 7669SOL    HW134643   0.912   0.722   2.207  0.5599 -0.6877 -0.1994
 7669SOL    HW234644   0.993   0.724   2.323 -0.1258  0.8761 -0.7723
 7670SOL     OW34645   2.151   0.979  12.623 -0.3574 -0.0562  0.3004
 7670SOL    HW134646   2.241   1.009  12.609 -0.6682 -0.3677 -2.3108
 7670SOL    HW234647   2.164   0.924  12.701  0.0599  0.4927  0.6258
 7671SOL     OW34648   1.177   1.317   2.616  0.3126  0.0203 -0.6282
 7671SOL    HW134649   1.186   1.256   2.543 -1.2583 -3.1163  1.7817
 7671SOL    HW234650   1.127   1.388   2.577 -1.2601 -1.8397 -2.0000
 7672SOL     OW34651   0.983   2.753  14.506  0.6248  0.2752 -0.3980
 7672SOL    HW134652   0.974   2.683  14.440 -0.2205  0.9839 -1.0382
 7672SOL    HW234653   0.969   2.831  14.453  2.7363  1.5513  0.9167
 7673SOL     OW34654   4.273   2.781  13.442 -0.7346  0.4013  0.2911
 7673SOL    HW134655   4.307   2.869  13.456 -0.8128  0.0870  2.4205
 7673SOL    HW234656   4.179   2.798  13.449 -1.0051 -0.2971 -1.5760
 7674SOL     OW34657   2.375   1.961   7.728 -0.0572  0.1301  0.2364
 7674SOL    HW134658   2.412   2.041   7.764 -1.0058  1.1846 -1.1402
 7674SOL    HW234659   2.373   1.891   7.794 -0.0492  1.0185  1.1815
 7675SOL     OW34660   3.244   0.521   2.202 -0.0551  0.1944 -0.2191
 7675SOL    HW134661   3.325   0.571   2.193  0.3035 -0.2968  0.2685
 7675SOL    HW234662   3.204   0.543   2.118  1.4291 -0.1113 -1.0018
 7676SOL     OW34663   2.436   1.136   7.254 -0.4213  0.5275 -0.0097
 7676SOL    HW134664   2.471   1.092   7.177  2.2749  1.4035  0.7390
 7676SOL    HW234665   2.371   1.073   7.286  1.0004 -0.9696 -0.0712
 7677SOL     OW34666   3.456   0.835   7.618  0.2095  0.5071  0.6738
 7677SOL    HW134667   3.409   0.810   7.538  1.2876 -2.2927  0.9150
 7677SOL    HW234668   3.443   0.930   7.624  1.9370  0.7343  0.9163
 7678SOL     OW34669   3.267   3.084   8.369 -0.4222 -0.4938 -0.0444
 7678SOL    HW134670   3.271   3.120   8.457  0.0856  0.6111 -0.5222
 7678SOL    HW234671   3.342   3.121   8.322  0.1609  1.7776  2.6913
 7679SOL     OW34672   1.715   2.759   1.973  0.3790  0.0154 -0.2734
 7679SOL    HW134673   1.775   2.736   1.902 -0.7669 -1.4214 -0.7631
 7679SOL    HW234674   1.717   2.683   2.031  2.5305 -0.7959 -1.3837
 7680SOL     OW34675   3.467   0.189  10.178 -0.6269 -0.2172  1.0233
 7680SOL    HW134676   3.455   0.189  10.083  4.3019  1.4559  0.3830
 7680SOL    HW234677   3.404   0.123  10.207  0.1810 -0.8964  1.2326
 7681SOL     OW34678   1.601   2.053   2.462 -0.8157  0.3232  0.6225
 7681SOL    HW134679   1.648   2.014   2.535  1.7413 -0.2300 -1.3263
 7681SOL    HW234680   1.645   2.138   2.466 -1.4242  0.6931 -0.5664
 7682SOL     OW34681   0.422   0.028   6.781  0.5493  0.3773 -0.0456
 7682SOL    HW134682   0.505   0.050   6.823 -0.2302  2.5082  0.3610
 7682SOL    HW234683   0.369   0.098   6.818 -1.9640 -0.3976 -2.1359
 7683SOL     OW34684   1.424   0.956   4.161  0.0334 -0.2189  0.0030
 7683SOL    HW134685   1.436   0.872   4.116  0.9547  0.4730 -1.0315
 7683SOL    HW234686   1.328   0.960   4.154 -0.0153 -2.2600 -0.6484
 7684SOL     OW34687   2.943   4.363   7.475 -0.0306  0.0586 -0.6002
 7684SOL    HW134688   2.985   4.443   7.443  1.0784 -0.5792 -0.7028
 7684SOL    HW234689   3.004   4.298   7.441 -0.3875 -1.0064  0.8120
 7685SOL     OW34690   3.657   2.870   0.423 -0.0067 -0.5807  0.0531
 7685SOL    HW134691   3.581   2.859   0.479 -1.1090 -1.2404 -1.5556
 7685SOL    HW234692   3.622   2.925   0.352  1.4531 -1.2258 -1.1607
 7686SOL     OW34693   0.347   3.420   2.580  0.1043 -0.3193  0.5078
 7686SOL    HW134694   0.388   3.407   2.665 -0.1295 -0.6732  0.5627
 7686SOL    HW234695   0.358   3.336   2.535 -0.8905  0.4648 -1.1950
 7687SOL     OW34696   1.522   4.375   5.002 -0.3722 -0.0985 -0.1910
 7687SOL    HW134697   1.562   4.440   4.945 -4.3036  0.7466 -1.9978
 7687SOL    HW234698   1.546   4.293   4.960  2.5047  1.0007 -0.7003
 7688SOL     OW34699   4.283   1.185   4.480 -0.4120 -0.4431 -0.3639
 7688SOL    HW134700   4.278   1.278   4.501  1.2806 -0.1408 -1.2960
 7688SOL    HW234701   4.360   1.153   4.526 -0.8901 -2.3377 -0.8334
 7689SOL     OW34702   3.475   4.118   0.010 -0.9489 -0.2566  0.0027
 7689SOL    HW134703   3.541   4.107   0.079 -0.2292  0.8748 -0.5181
 7689SOL    HW234704   3.487   4.205  17.721 -0.3749 -0.7979 -1.1096
 7690SOL     OW34705   4.398   0.031   8.772 -0.5406  0.5544  0.2927
 7690SOL    HW134706   4.344   4.716   8.832  0.7578  0.2979  1.2369
 7690SOL    HW234707   4.332   0.075   8.718 -0.8087 -1.3442 -0.9272
 7691SOL     OW34708   0.246   4.118   7.982 -0.3756 -0.0839 -0.1256
 7691SOL    HW134709   0.282   4.067   8.055 -0.7494 -0.5439 -0.2613
 7691SOL    HW234710   0.253   4.065   7.903  0.4456  1.0490 -0.8116
 7692SOL     OW34711   2.984   0.215  10.450 -0.9722 -0.1566  0.8589
 7692SOL    HW134712   3.058   0.160  10.475 -0.0357  1.9313  2.6817
 7692SOL    HW234713   3.024   0.228  10.364  0.3628  2.6431  1.9144
 7693SOL     OW34714   1.670   2.512   4.392 -0.2465 -0.1349 -0.1874
 7693SOL    HW134715   1.653   2.420   4.414  0.2920  0.1015  1.2558
 7693SOL    HW234716   1.766   2.517   4.390 -0.1346 -1.1656  1.8117
 7694SOL     OW34717   1.173   4.249  12.817 -0.1613 -0.5490  0.2115
 7694SOL    HW134718   1.256   4.265  12.863 -1.2508  0.8782  1.6740
 7694SOL    HW234719   1.193   4.298  12.736 -0.9063 -0.4040  0.1196
 7695SOL     OW34720   1.093   1.355   9.016  0.1369 -0.0743 -0.3721
 7695SOL    HW134721   1.186   1.336   9.009 -0.0089 -1.1951  0.8611
 7695SOL    HW234722   1.103   1.438   9.062 -1.9194 -0.0737  0.0898
 7696SOL     OW34723   0.454   2.879   9.800  1.0640 -0.5588  0.4340
 7696SOL    HW134724   0.377   2.900   9.853 -0.2441 -0.5340 -1.4900
 7696SOL    HW234725   0.424   2.820   9.730 -0.5479  0.3842  0.3263
 7697SOL     OW34726   1.099   3.942  12.899  0.2986  0.1527  0.1583
 7697SOL    HW134727   1.129   4.014  12.843 -0.7739 -0.6120 -1.3976
 7697SOL    HW234728   1.127   3.866  12.848 -0.3969  0.6058 -0.9018
 7698SOL     OW34729   0.728   4.301   9.590  0.2028 -0.6244 -0.5690
 7698SOL    HW134730   0.763   4.304   9.680 -2.5414 -0.2563  0.4749
 7698SOL    HW234731   0.656   4.363   9.597  0.2076 -0.4768 -1.8160
 7699SOL     OW34732   0.138   1.522   5.014 -0.3211  0.5820 -0.1069
 7699SOL    HW134733   0.160   1.615   5.021  0.8041  0.4817 -2.2636
 7699SOL    HW234734   0.111   1.520   4.922  2.1437  0.2942 -0.8171
 7700SOL     OW34735   2.481   2.691  10.957 -0.0379 -0.5258  0.0113
 7700SOL    HW134736   2.511   2.768  11.005 -1.3142 -0.2828  0.4092
 7700SOL    HW234737   2.391   2.715  10.937  0.6208  2.3218  0.4575
 7701SOL     OW34738   3.576   0.325   4.234 -1.0222 -0.4401 -0.1499
 7701SOL    HW134739   3.532   0.326   4.150 -0.7712  0.5522 -0.2604
 7701SOL    HW234740   3.670   0.323   4.212 -1.0578  0.1497 -0.3409
 7702SOL     OW34741   1.145   3.545  15.268  0.0577 -0.2755 -0.2537
 7702SOL    HW134742   1.227   3.506  15.300  1.3517 -0.3030 -3.5561
 7702SOL    HW234743   1.152   3.630  15.309  0.5571 -2.2051  3.6478
 7703SOL     OW34744   4.580   4.736   2.293  0.1260  0.9041  0.2804
 7703SOL    HW134745   4.584   4.663   2.355  0.0014  1.7307  1.2677
 7703SOL    HW234746   4.632   4.692   2.226 -0.6587  0.3915  0.0209
 7704SOL     OW34747   2.292   3.467   5.192  0.8061  0.2549 -0.0587
 7704SOL    HW134748   2.227   3.439   5.127 -0.4882  1.3223  0.7949
 7704SOL    HW234749   2.249   3.425   5.267  0.1956  0.1162 -0.4850
 7705SOL     OW34750   4.539   0.613  12.728  0.5141 -0.2784 -0.4881
 7705SOL    HW134751   4.611   0.666  12.762  2.0289 -2.2009 -0.6589
 7705SOL    HW234752   4.502   0.664  12.656  2.3475 -1.0716 -2.0029
 7706SOL     OW34753   4.093   2.075   3.187 -0.0388 -0.2368 -0.9822
 7706SOL    HW134754   4.163   2.080   3.122  1.8201 -0.1039  1.0408
 7706SOL    HW234755   4.035   2.150   3.174 -1.1807 -1.1371 -1.1389
 7707SOL     OW34756   3.329   2.778   6.563 -0.3525 -0.0644 -0.4166
 7707SOL    HW134757   3.240   2.762   6.593  0.1579 -1.4442  0.3241
 7707SOL    HW234758   3.310   2.846   6.498 -1.9642  0.6780  0.8251
 7708SOL     OW34759   3.061   4.571   5.804  0.3095  0.2805  0.2772
 7708SOL    HW134760   2.997   4.509   5.839  1.8849 -1.3576  0.2760
 7708SOL    HW234761   3.141   4.538   5.846 -0.9605  0.4783  2.8732
 7709SOL     OW34762   1.451   2.085   1.639  0.1249  0.2045 -0.4770
 7709SOL    HW134763   1.363   2.049   1.649 -0.3476  1.1348 -1.2839
 7709SOL    HW234764   1.479   2.038   1.561 -0.6827  0.7115 -1.0684
 7710SOL     OW34765   3.444   3.661   8.906 -0.3550  0.1195  0.3828
 7710SOL    HW134766   3.432   3.756   8.910  1.2046  0.3008  0.7179
 7710SOL    HW234767   3.370   3.623   8.858 -0.1526  0.4339 -0.1798
 7711SOL     OW34768   3.859   2.805   4.971  0.2378 -0.5764  0.2783
 7711SOL    HW134769   3.895   2.861   4.901 -4.1882  1.5677 -0.3270
 7711SOL    HW234770   3.842   2.870   5.040 -0.5049 -0.9816  0.4799
 7712SOL     OW34771   0.908   4.465   8.640  0.2333 -0.1898  0.0613
 7712SOL    HW134772   0.889   4.372   8.626 -2.1853 -0.1389  3.0926
 7712SOL    HW234773   1.004   4.470   8.650  0.1559  4.9294 -1.4446
 7713SOL     OW34774   0.152   4.404   9.918 -0.2579  0.1294  0.0062
 7713SOL    HW134775   0.165   4.332   9.979  1.4240  0.1802 -0.2868
 7713SOL    HW234776   0.242   4.431   9.900  0.0250 -0.8610 -0.0560
 7714SOL     OW34777   2.430   4.663  16.538 -0.0114 -0.4209  0.5035
 7714SOL    HW134778   2.508   4.717  16.531  0.3741 -1.1497 -0.7381
 7714SOL    HW234779   2.407   4.689  16.449 -2.0225 -1.4616  0.7080
 7715SOL     OW34780   3.780   0.615  15.774 -0.3217 -0.0563 -0.1239
 7715SOL    HW134781   3.813   0.697  15.738  0.4683  0.3275  1.4968
 7715SOL    HW234782   3.688   0.639  15.784 -0.9714 -1.6902 -2.0152
 7716SOL     OW34783   1.386   2.569   8.628 -0.2927 -0.1171  0.9296
 7716SOL    HW134784   1.439   2.530   8.698 -1.3656 -2.8988  0.1705
 7716SOL    HW234785   1.309   2.583   8.683 -0.0121 -2.1241  1.8444
 7717SOL     OW34786   2.765   1.290   9.407 -0.8112 -0.8348  0.0334
 7717SOL    HW134787   2.712   1.331   9.476 -1.4571 -0.6337 -0.5832
 7717SOL    HW234788   2.743   1.197   9.408 -0.6318 -0.8771  0.2336
 7718SOL     OW34789   3.220   2.636  16.444 -0.1994 -0.4641 -0.4013
 7718SOL    HW134790   3.293   2.694  16.463  1.7539 -3.0488  0.0819
 7718SOL    HW234791   3.200   2.641  16.350 -0.1337 -2.2773 -0.5131
 7719SOL     OW34792   1.607   4.041  16.611 -0.3047 -0.2600 -0.2092
 7719SOL    HW134793   1.546   3.968  16.624  1.6386 -1.1578  3.9273
 7719SOL    HW234794   1.634   4.063  16.700  1.9162 -0.5489 -0.8119
 7720SOL     OW34795   3.299   4.700   8.780  0.0123  0.0670  0.0512
 7720SOL    HW134796   3.219   0.017   8.781 -0.2929 -0.3747 -0.7168
 7720SOL    HW234797   3.359   0.034   8.801 -1.9170  2.4998 -2.5783
 7721SOL     OW34798   1.585   4.361  11.312 -0.0897  0.9492 -0.1917
 7721SOL    HW134799   1.666   4.312  11.329 -0.1886  0.5272 -0.9488
 7721SOL    HW234800   1.569   4.346  11.219  2.6602 -1.8499 -0.2307
 7722SOL     OW34801   0.960   2.717   5.448 -0.1521  0.2635 -0.1749
 7722SOL    HW134802   0.875   2.740   5.410 -0.4604  0.5427  0.6920
 7722SOL    HW234803   0.935   2.690   5.536 -0.2811  1.4413  0.1480
 7723SOL     OW34804   0.440   0.397   1.517  0.0308  0.1442 -0.2961
 7723SOL    HW134805   0.478   0.466   1.464  1.1844  0.1642  0.5560
 7723SOL    HW234806   0.412   0.339   1.446  1.5929 -0.5072 -0.3885
 7724SOL     OW34807   3.859   1.409   3.949 -0.2288  0.0168  0.0841
 7724SOL    HW134808   3.815   1.373   4.026 -0.8982 -0.0996 -0.3515
 7724SOL    HW234809   3.884   1.496   3.979  1.3560 -0.1848 -0.6404
 7725SOL     OW34810   0.749   1.965   2.373 -0.5235  0.3578  0.1217
 7725SOL    HW134811   0.834   2.005   2.391 -1.2542  2.1586 -0.4728
 7725SOL    HW234812   0.732   1.915   2.453 -1.0682 -0.3495 -0.4375
 7726SOL     OW34813   1.315   1.488   6.171  0.5169 -0.2655 -0.2063
 7726SOL    HW134814   1.312   1.465   6.078 -0.9626  0.8702 -0.4481
 7726SOL    HW234815   1.230   1.533   6.178  1.0116  0.0451  3.4589
 7727SOL     OW34816   4.032   0.281  15.722 -0.2358  0.5102 -0.0524
 7727SOL    HW134817   3.994   0.227  15.653 -1.1371 -1.1624  1.7381
 7727SOL    HW234818   3.979   0.249  15.795  0.5955 -1.2064 -0.1933
 7728SOL     OW34819   3.314   4.444  10.211  0.2587 -0.1420 -0.6502
 7728SOL    HW134820   3.375   4.371  10.205  0.9620  0.3556  0.4254
 7728SOL    HW234821   3.263   4.414  10.286  0.0875 -2.3060 -1.6220
 7729SOL     OW34822   3.469   0.638   2.304 -0.0654  0.3054  0.1037
 7729SOL    HW134823   3.486   0.617   2.396  0.3983  2.5495  0.5416
 7729SOL    HW234824   3.553   0.683   2.292 -0.0898  0.4244  0.3736
 7730SOL     OW34825   1.658   4.158  16.864  0.2788 -0.2872  0.2668
 7730SOL    HW134826   1.592   4.139  16.931  0.5149 -0.0174  0.5724
 7730SOL    HW234827   1.639   4.250  16.847 -0.2340 -1.3029 -4.8218
 7731SOL     OW34828   1.509   1.237   2.456  0.5534  0.3995  0.0147
 7731SOL    HW134829   1.457   1.229   2.376  0.5972  1.8108 -0.1579
 7731SOL    HW234830   1.592   1.201   2.424  0.2765  0.3744 -0.6983
 7732SOL     OW34831   0.864   2.574   7.570 -0.4878 -0.1367  0.3707
 7732SOL    HW134832   0.861   2.590   7.664 -1.7500  0.6163  0.1933
 7732SOL    HW234833   0.949   2.531   7.562 -2.1176 -3.1812 -0.8384
 7733SOL     OW34834   3.600   0.209   8.432  0.7321 -0.3445  0.2395
 7733SOL    HW134835   3.622   0.117   8.450  0.2025 -0.6064 -0.4395
 7733SOL    HW234836   3.625   0.248   8.515  1.7302 -2.3359  0.8731
 7734SOL     OW34837   2.101   1.121   2.512  0.7902  0.6827  0.0042
 7734SOL    HW134838   2.089   1.168   2.429  1.9783  1.0687  0.0570
 7734SOL    HW234839   2.073   1.194   2.567 -3.4252 -0.6161 -0.4203
 7735SOL     OW34840   2.228   4.170   2.104 -0.5025  0.1534  0.3091
 7735SOL    HW134841   2.287   4.202   2.036 -0.0551 -1.0451  0.1331
 7735SOL    HW234842   2.252   4.235   2.169 -1.4980  1.8003 -0.9738
 7736SOL     OW34843   1.939   4.274   3.540  0.1213  0.1164  0.0740
 7736SOL    HW134844   2.007   4.305   3.600 -1.6870  0.6664  1.8453
 7736SOL    HW234845   1.949   4.178   3.544 -0.6227  0.1451  2.7186
 7737SOL     OW34846   3.814   2.447   2.518 -0.2751 -0.2024 -0.0096
 7737SOL    HW134847   3.776   2.529   2.548 -0.2782  0.3159 -1.4295
 7737SOL    HW234848   3.830   2.402   2.601  2.3681 -1.8272 -1.4001
 7738SOL     OW34849   0.872   1.028   8.562  0.0658 -0.0701 -0.3958
 7738SOL    HW134850   0.927   1.074   8.499  0.3274  0.6664  0.3537
 7738SOL    HW234851   0.930   1.021   8.638 -0.5887 -3.5306 -0.2301
 7739SOL     OW34852   3.297   3.093  13.380  0.0277  0.1448 -0.0978
 7739SOL    HW134853   3.228   3.078  13.315 -0.6125  0.7263  0.4367
 7739SOL    HW234854   3.245   3.160  13.426 -0.4089  0.2146 -0.6934
 7740SOL     OW34855   4.625   1.902  13.789 -0.1964  0.6948  0.5389
 7740SOL    HW134856   4.656   1.920  13.878  0.6110 -2.4959  0.9059
 7740SOL    HW234857   4.607   1.808  13.793  0.5211  0.5230 -0.3536
 7741SOL     OW34858   0.888   2.438  16.802  0.0262 -0.2114  0.0847
 7741SOL    HW134859   0.971   2.465  16.761  0.4191 -1.0363  0.3388
 7741SOL    HW234860   0.838   2.517  16.781 -1.3397 -1.2640 -0.6579
 7742SOL     OW34861   0.561   1.729   3.402  0.6329  0.2176 -0.2843
 7742SOL    HW134862   0.479   1.740   3.353  0.5466  0.1572 -0.1516
 7742SOL    HW234863   0.569   1.638   3.431 -0.3132 -0.3657 -1.8390
 7743SOL     OW34864   1.851   2.585   6.286 -0.3031 -0.1393 -0.3232
 7743SOL    HW134865   1.830   2.544   6.370  2.1924 -1.1530 -0.2148
 7743SOL    HW234866   1.791   2.658   6.271 -0.7824 -0.3511  0.5403
 7744SOL     OW34867   2.319   0.482  15.040  0.1221  0.1914  0.4750
 7744SOL    HW134868   2.287   0.491  15.130  1.2847  1.5048  0.7600
 7744SOL    HW234869   2.411   0.472  15.061  0.2727  1.2429  0.2998
 7745SOL     OW34870   4.064   0.264  14.752  0.4228 -0.0927 -0.2924
 7745SOL    HW134871   3.993   0.295  14.696  1.7268 -0.4314 -2.1400
 7745SOL    HW234872   4.073   0.341  14.808 -1.9435  1.6680 -2.3348
 7746SOL     OW34873   4.566   2.405  15.505 -0.2076  0.8890  0.0707
 7746SOL    HW134874   4.585   2.496  15.485 -1.5450  0.8701 -1.2746
 7746SOL    HW234875   4.508   2.419  15.580  1.0994  0.6472  1.1387
 7747SOL     OW34876   0.781   1.927  16.146 -0.2268 -0.5018  0.0347
 7747SOL    HW134877   0.775   1.895  16.056  0.9164  1.4902 -0.7574
 7747SOL    HW234878   0.707   1.985  16.160  0.7013  0.8135 -0.4288
 7748SOL     OW34879   2.273   4.036  11.981 -0.0535 -0.3525  0.0047
 7748SOL    HW134880   2.368   4.033  11.994 -0.0540 -0.0855  0.0629
 7748SOL    HW234881   2.233   4.077  12.058 -0.6304  1.2000 -1.1251
 7749SOL     OW34882   4.577   2.353   5.367  0.1840  0.0343  0.0992
 7749SOL    HW134883   4.567   2.316   5.454 -0.4374 -0.3149 -0.1190
 7749SOL    HW234884   4.495   2.400   5.354  0.4037  0.8672  1.8313
 7750SOL     OW34885   0.017   0.062   5.408  0.2938 -0.0570 -0.0503
 7750SOL    HW134886   0.075   0.038   5.336  0.6396 -0.3109  0.3090
 7750SOL    HW234887   4.679   0.014   5.376  0.0392  1.6541 -1.9963
 7751SOL     OW34888   1.249   0.278  11.467 -0.1496  0.2066 -0.3887
 7751SOL    HW134889   1.163   0.237  11.459 -0.3521  0.3473  1.0176
 7751SOL    HW234890   1.230   0.321  11.551  0.6666  0.6407 -0.4252
 7752SOL     OW34891   1.636   3.866   3.911 -0.1834 -0.1186  0.2323
 7752SOL    HW134892   1.541   3.869   3.918 -0.2063  2.4256 -1.0784
 7752SOL    HW234893   1.648   3.807   3.837 -0.8323  1.2892 -1.0072
 7753SOL     OW34894   0.706   3.390   8.182 -0.3800 -0.2587 -0.2019
 7753SOL    HW134895   0.746   3.424   8.102 -0.0539  1.8618  0.8693
 7753SOL    HW234896   0.784   3.366   8.232 -1.4285 -3.0337  0.0837
 7754SOL     OW34897   2.356   4.270   2.329  0.1486  0.0773 -0.1284
 7754SOL    HW134898   2.381   4.353   2.369 -1.1774  1.4824 -2.1988
 7754SOL    HW234899   2.438   4.248   2.285 -0.6478 -0.3087 -1.4063
 7755SOL     OW34900   2.066   2.303   3.363  0.7508  0.0473  0.3357
 7755SOL    HW134901   2.140   2.341   3.412  1.0325  1.5610 -1.2751
 7755SOL    HW234902   2.067   2.217   3.405 -1.1312  0.1659  0.6126
 7756SOL     OW34903   1.138   3.883   1.985  0.0031 -0.9316 -0.0561
 7756SOL    HW134904   1.181   3.830   2.053 -2.6838 -2.3885  0.5005
 7756SOL    HW234905   1.084   3.818   1.940 -0.1487 -1.3237  0.6923
 7757SOL     OW34906   4.194   2.958   3.591 -0.0576 -0.0983 -0.0192
 7757SOL    HW134907   4.259   3.018   3.628  1.8454 -1.3267 -1.3477
 7757SOL    HW234908   4.113   2.989   3.631  0.2495  1.4977 -0.6228
 7758SOL     OW34909   2.000   3.651   8.119 -0.1716  0.1128  0.2979
 7758SOL    HW134910   1.955   3.572   8.089  0.3990 -1.1190  2.6975
 7758SOL    HW234911   1.962   3.715   8.058 -0.4335  0.1693  0.5191
 7759SOL     OW34912   2.846   0.369  11.320  0.5862  0.0285 -0.3255
 7759SOL    HW134913   2.756   0.382  11.349  0.8739 -2.3215  1.5550
 7759SOL    HW234914   2.860   0.451  11.272  3.5523 -1.0089 -1.1977
 7760SOL     OW34915   0.471   4.475   1.147  0.2386  0.3594 -0.1983
 7760SOL    HW134916   0.396   4.512   1.192  0.0791 -1.0229  0.6477
 7760SOL    HW234917   0.476   4.384   1.175  2.1759  0.7707  0.8245
 7761SOL     OW34918   1.210   3.922   2.347  0.4976  0.3627 -0.4978
 7761SOL    HW134919   1.242   3.979   2.278 -0.1898  1.3048 -0.0395
 7761SOL    HW234920   1.148   3.977   2.395  0.8320  0.4610 -0.1751
 7762SOL     OW34921   3.889   2.413   8.327 -0.1753  0.2154  0.1427
 7762SOL    HW134922   3.975   2.415   8.284 -0.1190 -0.8158  0.1983
 7762SOL    HW234923   3.863   2.322   8.311 -0.7419  0.5530 -0.9383
 7763SOL     OW34924   2.340   4.512  10.547 -0.4500  0.6330 -0.4243
 7763SOL    HW134925   2.338   4.416  10.545 -1.9580  0.6033  2.7940
 7763SOL    HW234926   2.349   4.530  10.640  1.5438 -0.5246 -0.3896
 7764SOL     OW34927   4.020   1.332  15.533  0.2882  0.3216 -0.1318
 7764SOL    HW134928   4.101   1.313  15.581 -0.3834 -0.7900  0.5652
 7764SOL    HW234929   4.000   1.241  15.510 -0.0856  1.2518 -3.5427
 7765SOL     OW34930   4.591   0.726   1.406 -0.0055  0.4692  0.1364
 7765SOL    HW134931   4.684   0.706   1.400 -0.8530 -3.3658 -0.3941
 7765SOL    HW234932   4.586   0.745   1.500  2.0408  1.2552  0.0975
 7766SOL     OW34933   3.593   4.652  17.214 -0.3142  0.0755 -0.4245
 7766SOL    HW134934   3.522   4.690  17.162 -1.4413  2.0231  2.5099
 7766SOL    HW234935   3.666   4.678  17.159 -0.1714  0.0080 -0.2651
 7767SOL     OW34936   3.088   2.985   6.850  0.1880 -0.1343 -0.1780
 7767SOL    HW134937   3.107   2.960   6.760 -1.5144 -1.4701 -0.1705
 7767SOL    HW234938   3.131   2.919   6.905  0.4317  0.9484  0.9589
 7768SOL     OW34939   1.714   3.184  11.784 -0.2329  0.3169  0.3803
 7768SOL    HW134940   1.681   3.107  11.737  2.4404  0.0063 -1.0308
 7768SOL    HW234941   1.642   3.191  11.847  0.1778  1.2607  0.7338
 7769SOL     OW34942   0.930   4.538  17.339  0.1791  0.2963  0.6180
 7769SOL    HW134943   1.010   4.511  17.385  0.4562  3.6362  2.0825
 7769SOL    HW234944   0.966   4.533  17.250  1.0024 -3.1337  1.1080
 7770SOL     OW34945   2.973   1.592   1.463  0.7217  0.2741 -0.7983
 7770SOL    HW134946   3.012   1.637   1.538  0.1362  0.3867 -0.5608
 7770SOL    HW234947   3.028   1.514   1.478  2.0696  1.4337  0.2823
 7771SOL     OW34948   1.863   2.237   7.011  0.1113 -0.1509 -1.0415
 7771SOL    HW134949   1.919   2.304   6.972  0.5174 -0.9466 -1.8322
 7771SOL    HW234950   1.925   2.166   7.024 -0.1289  0.1214  1.4811
 7772SOL     OW34951   1.274   3.982  15.825  0.3249 -0.7464 -0.1607
 7772SOL    HW134952   1.339   3.931  15.777 -1.3924 -2.1100 -1.0581
 7772SOL    HW234953   1.212   3.920  15.863 -0.9864 -0.7227 -2.2282
 7773SOL     OW34954   1.984   2.989   5.023 -0.1656 -1.1265  0.1779
 7773SOL    HW134955   1.936   2.932   5.083  0.0800 -1.1249  0.3768
 7773SOL    HW234956   2.024   3.039   5.094 -0.7343  0.6307 -0.7188
 7774SOL     OW34957   0.682   1.607   6.697 -0.3930 -0.3137 -0.2845
 7774SOL    HW134958   0.589   1.628   6.709 -0.1435  0.1871  0.7137
 7774SOL    HW234959   0.716   1.692   6.671 -0.4255 -0.4698 -0.8496
 7775SOL     OW34960   2.537   2.917   5.238  0.3468 -0.1564  0.0104
 7775SOL    HW134961   2.556   2.848   5.301  0.5639 -0.9001 -0.8656
 7775SOL    HW234962   2.445   2.898   5.218  1.0037 -0.8566 -2.3331
 7776SOL     OW34963   3.942   0.783   6.034 -0.5086  0.5548 -0.1479
 7776SOL    HW134964   3.944   0.829   5.950 -1.4738 -0.9285 -0.9842
 7776SOL    HW234965   4.002   0.708   6.028 -1.6855 -0.2356 -2.1786
 7777SOL     OW34966   1.353   3.352   8.383  0.2589 -0.4869  0.1514
 7777SOL    HW134967   1.267   3.373   8.421  0.8785 -0.0389  1.2965
 7777SOL    HW234968   1.378   3.277   8.437 -1.2941  0.5359  2.2915
 7778SOL     OW34969   0.148   1.694   9.241  0.7796  0.1061 -0.0899
 7778SOL    HW134970   0.099   1.726   9.317 -1.5636  1.7706 -2.2866
 7778SOL    HW234971   0.237   1.727   9.252  0.3557  0.5516  1.9742
 7779SOL     OW34972   0.823   2.369   3.152 -0.3815 -0.6745  0.2371
 7779SOL    HW134973   0.740   2.339   3.190 -0.3248 -1.7386 -0.4758
 7779SOL    HW234974   0.867   2.392   3.233 -0.4190  1.2852 -0.2945
 7780SOL     OW34975   2.332   4.439  16.691  0.2532 -0.7843 -0.2919
 7780SOL    HW134976   2.386   4.505  16.648  0.0151 -0.2132  0.2879
 7780SOL    HW234977   2.267   4.450  16.621  1.0556  4.6056 -0.2191
 7781SOL     OW34978   3.225   2.076   9.628  0.2630 -0.1559 -0.0490
 7781SOL    HW134979   3.188   2.063   9.715  1.8947  0.4904  0.7562
 7781SOL    HW234980   3.316   2.079   9.661  0.0192  0.8430  0.5239
 7782SOL     OW34981   4.592   1.584   9.762  0.2281 -0.6157 -0.0392
 7782SOL    HW134982   4.620   1.675   9.765  1.1040 -0.8421 -1.3523
 7782SOL    HW234983   4.525   1.580   9.693  0.9903  0.6798 -0.8494
 7783SOL     OW34984   2.329   4.384   5.841 -0.2791  0.0970 -0.1717
 7783SOL    HW134985   2.407   4.371   5.894 -0.0028  1.1308 -0.3354
 7783SOL    HW234986   2.264   4.389   5.912  0.1565 -0.2879  0.2545
 7784SOL     OW34987   0.066   3.184   1.741 -0.0645 -0.0778  0.6381
 7784SOL    HW134988   0.075   3.188   1.837 -3.2376 -3.6026  1.0739
 7784SOL    HW234989   0.093   3.273   1.719  2.0856 -0.3054  2.2894
 7785SOL     OW34990   0.903   2.597   9.057 -0.1166 -0.2169 -0.6482
 7785SOL    HW134991   0.946   2.538   9.119 -1.3068 -0.1436  0.2574
 7785SOL    HW234992   0.900   2.685   9.094 -2.4021 -0.7235  0.3782
 7786SOL     OW34993   2.709   0.386   2.687 -0.3195 -0.3100 -0.3994
 7786SOL    HW134994   2.629   0.336   2.707 -2.9843  4.8942  1.8775
 7786SOL    HW234995   2.676   0.444   2.619 -0.3824  1.5778  1.2275
 7787SOL     OW34996   3.262   2.611   0.122  0.5144  0.2744  0.1480
 7787SOL    HW134997   3.196   2.544   0.139  0.8156  0.4899  2.1944
 7787SOL    HW234998   3.342   2.568   0.152  1.4257  2.0104  0.2098
 7788SOL     OW34999   4.709   2.273   3.669  0.4658  0.5000  0.2734
 7788SOL    HW135000   4.621   2.261   3.631  0.3332 -0.2702  0.8208
 7788SOL    HW235001   4.736   2.363   3.651  1.6990  0.1188  0.2479
 7789SOL     OW35002   2.798   4.231   1.446 -0.3099  0.0095  0.3039
 7789SOL    HW135003   2.774   4.246   1.355 -0.4651  0.9498  0.5001
 7789SOL    HW235004   2.721   4.268   1.490 -0.1027  0.5878  0.1864
 7790SOL     OW35005   0.907   0.834  14.539 -0.3616 -0.2898 -0.6417
 7790SOL    HW135006   0.847   0.833  14.465  0.0146  1.1020 -0.9652
 7790SOL    HW235007   0.969   0.900  14.509 -1.3882  0.3964 -1.2359
 7791SOL     OW35008   2.006   0.430   7.422 -0.4107 -0.2611  0.5077
 7791SOL    HW135009   1.991   0.345   7.464 -0.2152 -0.3903  0.3171
 7791SOL    HW235010   1.949   0.413   7.347  0.9106 -0.8430 -0.3648
 7792SOL     OW35011   3.828   2.400   3.911 -0.8687  0.6661 -0.0351
 7792SOL    HW135012   3.888   2.469   3.940 -1.2476  0.7794  0.4753
 7792SOL    HW235013   3.806   2.432   3.823 -0.7749 -0.9968 -0.6549
 7793SOL     OW35014   1.011   0.167  11.476  0.0701 -0.0809  0.7825
 7793SOL    HW135015   0.998   0.085  11.523 -0.1526  0.0434  0.9403
 7793SOL    HW235016   0.928   0.213  11.490 -1.3280 -1.8294 -1.9453
 7794SOL     OW35017   1.633   0.794  13.034 -0.7340 -0.0142 -0.4009
 7794SOL    HW135018   1.686   0.715  13.021 -1.5581 -0.8895  1.4471
 7794SOL    HW235019   1.549   0.763  12.999 -0.5821  0.7210 -1.4139
 7795SOL     OW35020   0.546   2.450   6.391 -0.0314  0.8163  0.5643
 7795SOL    HW135021   0.639   2.467   6.377 -0.2206  2.3914  1.2604
 7795SOL    HW235022   0.517   2.436   6.301  0.8093 -2.4205  0.7843
 7796SOL     OW35023   0.379   3.967   7.434 -0.2616  0.0313 -0.1564
 7796SOL    HW135024   0.401   3.920   7.514  0.9992  0.7729 -0.0619
 7796SOL    HW235025   0.413   3.909   7.365  2.2721  1.5933 -0.2109
 7797SOL     OW35026   0.215   3.328  12.999 -0.3316 -0.1131  0.2879
 7797SOL    HW135027   0.255   3.313  13.084 -1.3724 -2.2807  0.3774
 7797SOL    HW235028   0.293   3.324  12.943 -1.8431 -0.3985 -1.7742
 7798SOL     OW35029   3.997   3.139  13.018 -0.0378  0.0410 -0.1139
 7798SOL    HW135030   3.989   3.105  13.107  3.1409  1.3219  0.6871
 7798SOL    HW235031   4.007   3.233  13.036 -1.8870  0.3650 -0.7913
 7799SOL     OW35032   1.715   3.768  14.536  0.6367  0.6669 -0.1795
 7799SOL    HW135033   1.806   3.741  14.554  0.8581  2.6377  1.7220
 7799SOL    HW235034   1.686   3.793  14.624 -0.6075  0.5308 -0.5547
 7800SOL     OW35035   3.712   1.427   3.703 -0.0111  0.0586  0.7241
 7800SOL    HW135036   3.710   1.522   3.691  0.0031  0.0345  0.5379
 7800SOL    HW235037   3.751   1.426   3.791 -1.3221  0.5935  1.3108
 7801SOL     OW35038   0.546   3.382   6.126 -0.2826 -0.0589  0.1455
 7801SOL    HW135039   0.521   3.474   6.127  1.1423  0.3121  1.9838
 7801SOL    HW235040   0.520   3.354   6.038  0.2761  1.8349 -0.6090
 7802SOL     OW35041   1.856   2.679   2.883 -0.1970 -0.2592 -0.5931
 7802SOL    HW135042   1.801   2.652   2.956  0.7370 -1.7819 -0.4489
 7802SOL    HW235043   1.839   2.772   2.870  1.0947  0.3214  2.0063
 7803SOL     OW35044   2.575   3.839   8.059 -0.3285  0.0577  0.1082
 7803SOL    HW135045   2.559   3.892   8.137  0.5782 -0.3522  0.5754
 7803SOL    HW235046   2.601   3.759   8.104 -0.5757 -1.3846 -2.2989
 7804SOL     OW35047   2.987   0.351   2.755 -0.2221  0.2847  0.2013
 7804SOL    HW135048   2.897   0.361   2.724  0.2154 -1.1602 -1.5481
 7804SOL    HW235049   3.008   0.268   2.712 -2.0023  0.5803 -1.2198
 7805SOL     OW35050   0.092   0.520   6.368 -0.4447  0.4310  0.4531
 7805SOL    HW135051   0.080   0.497   6.460 -1.6623  1.0307  0.4342
 7805SOL    HW235052   0.027   0.590   6.357 -0.7942 -0.4188 -2.7828
 7806SOL     OW35053   3.632   1.321   7.692  0.1378  0.0582 -0.5022
 7806SOL    HW135054   3.589   1.401   7.723  0.9254 -0.4995  2.0369
 7806SOL    HW235055   3.630   1.336   7.598 -0.2331  3.7143  0.1189
 7807SOL     OW35056   3.620   2.402   5.392 -0.0371 -0.3418 -0.1036
 7807SOL    HW135057   3.609   2.309   5.373 -1.2981 -0.5517  1.6710
 7807SOL    HW235058   3.671   2.403   5.473 -0.3349  3.1806  0.0380
 7808SOL     OW35059   0.203   0.914   5.429  0.8719 -0.1097 -0.2906
 7808SOL    HW135060   0.143   0.840   5.422 -0.8202  1.3916 -1.8255
 7808SOL    HW235061   0.165   0.970   5.360  0.6995 -0.0587 -0.1557
 7809SOL     OW35062   2.867   0.697   7.945  0.1274 -0.8302  0.0695
 7809SOL    HW135063   2.811   0.720   8.019 -0.1888 -0.7580 -0.1894
 7809SOL    HW235064   2.952   0.726   7.978  0.4846  1.1685 -2.5666
 7810SOL     OW35065   2.834   2.604   0.297  0.0595  0.4655 -0.0613
 7810SOL    HW135066   2.744   2.579   0.277  0.0116  0.4786  0.1385
 7810SOL    HW235067   2.850   2.681   0.243  0.7545 -0.3283 -0.9746
 7811SOL     OW35068   3.578   2.897  12.370 -0.1160 -0.1424 -0.2522
 7811SOL    HW135069   3.533   2.884  12.453  0.9967  1.7851  0.6730
 7811SOL    HW235070   3.639   2.823  12.369  1.7438  1.3719  0.7652
 7812SOL     OW35071   0.703   4.118  10.464  0.4487 -0.4829 -0.4960
 7812SOL    HW135072   0.693   4.201  10.418 -2.9065 -0.4855  0.2639
 7812SOL    HW235073   0.754   4.145  10.541 -0.1469 -0.1973 -0.2050
 7813SOL     OW35074   1.394   1.198   6.325 -0.0460 -0.7700  0.4374
 7813SOL    HW135075   1.386   1.103   6.322 -2.0180 -0.5525 -1.2776
 7813SOL    HW235076   1.462   1.205   6.258 -1.2380  1.0556 -0.6092
 7814SOL     OW35077   3.317   1.877   4.725  0.1777 -0.1670  0.4004
 7814SOL    HW135078   3.320   1.782   4.736 -2.8411 -0.3857 -0.6537
 7814SOL    HW235079   3.379   1.895   4.655 -2.2139 -1.0133 -1.9354
 7815SOL     OW35080   0.504   4.542   5.656  0.4848 -0.4690 -0.6662
 7815SOL    HW135081   0.438   4.489   5.612 -0.8804 -0.0909  0.9329
 7815SOL    HW235082   0.539   4.598   5.586 -0.9625  1.4519  0.1290
 7816SOL     OW35083   4.269   3.068   7.724  0.1876  0.7451  0.1537
 7816SOL    HW135084   4.259   2.999   7.659  0.8550  0.7833  0.0079
 7816SOL    HW235085   4.307   3.136   7.668  2.0034  0.5645  1.1749
 7817SOL     OW35086   2.382   2.946   6.163 -0.6316  0.3327 -0.2274
 7817SOL    HW135087   2.439   2.951   6.086  1.8669 -0.2645  1.5889
 7817SOL    HW235088   2.431   2.988   6.234  2.2875 -1.3994 -1.2297
 7818SOL     OW35089   0.350   0.062  17.728 -0.2647  0.1242 -0.0579
 7818SOL    HW135090   0.316   0.151  17.734  1.3577  0.7695 -0.3737
 7818SOL    HW235091   0.431   0.080  17.680 -1.0751  0.3337 -1.3604
 7819SOL     OW35092   0.463   3.495   6.732  0.0293 -1.6114 -0.2741
 7819SOL    HW135093   0.394   3.547   6.773  2.3646  1.7285 -0.5671
 7819SOL    HW235094   0.444   3.500   6.638 -3.0149  0.4073  0.4491
 7820SOL     OW35095   1.857   1.134   6.710  1.2684  0.1238 -0.3620
 7820SOL    HW135096   1.940   1.090   6.692 -0.2543 -2.2589 -1.6377
 7820SOL    HW235097   1.800   1.087   6.649  2.9608 -2.5118  0.0763
 7821SOL     OW35098   3.859   3.807   3.312 -0.6027  0.0298  0.0151
 7821SOL    HW135099   3.879   3.894   3.276  3.4048 -1.2554 -0.7733
 7821SOL    HW235100   3.935   3.752   3.294  0.3892  1.1341  0.8422
 7822SOL     OW35101   0.505   4.590   9.126 -0.2523  0.2671 -0.4744
 7822SOL    HW135102   0.468   4.675   9.104  2.6615  1.6323 -0.1110
 7822SOL    HW235103   0.492   4.543   9.044 -1.9877  1.0152 -0.6135
 7823SOL     OW35104   4.419   1.149   8.312 -0.1410  0.5523 -0.0598
 7823SOL    HW135105   4.443   1.087   8.381  1.5421  1.5058  0.2148
 7823SOL    HW235106   4.465   1.105   8.241 -0.2039 -1.4865  1.1535
 7824SOL     OW35107   4.719   4.306   3.961  0.3966  0.3615  0.1385
 7824SOL    HW135108   0.039   4.320   3.885 -0.3767  1.3256 -0.2581
 7824SOL    HW235109   4.660   4.233   3.942  0.9617 -0.6375  2.1817
 7825SOL     OW35110   3.142   3.297   1.262  0.3997  0.4507 -0.3406
 7825SOL    HW135111   3.226   3.276   1.301  0.7082 -1.3065 -1.9444
 7825SOL    HW235112   3.125   3.375   1.316 -0.5945  0.9172 -1.3294
 7826SOL     OW35113   0.375   2.253  13.821 -0.5604 -0.1073  0.1440
 7826SOL    HW135114   0.367   2.349  13.816 -3.1969 -0.3594 -0.7484
 7826SOL    HW235115   0.442   2.245  13.889 -1.4732  0.5414  1.1367
 7827SOL     OW35116   3.230   0.216   4.119 -0.3513  0.1458  0.0316
 7827SOL    HW135117   3.255   0.130   4.085  0.2673  0.5061 -0.4376
 7827SOL    HW235118   3.302   0.278   4.105 -0.4250  0.1928 -0.1441
 7828SOL     OW35119   3.583   4.037   6.514  0.3106 -0.6655  0.3233
 7828SOL    HW135120   3.581   4.007   6.423  0.5845  1.7831 -0.5001
 7828SOL    HW235121   3.562   4.131   6.511 -1.1876 -0.9982  0.1150
 7829SOL     OW35122   0.477   2.848   2.497 -0.1330  0.3970  0.1144
 7829SOL    HW135123   0.421   2.864   2.573  0.9812  0.0907  1.0053
 7829SOL    HW235124   0.452   2.759   2.471 -0.5112  0.6856 -0.5316
 7830SOL     OW35125   3.398   3.228   1.752 -0.1741 -0.2174 -0.6806
 7830SOL    HW135126   3.365   3.140   1.773 -1.4914 -0.0619 -2.0329
 7830SOL    HW235127   3.386   3.268   1.838  1.4385  0.3319 -0.7147
 7831SOL     OW35128   3.306   0.987  13.731  0.1803 -0.1101 -0.0685
 7831SOL    HW135129   3.238   0.920  13.721 -0.5965  0.3788  1.8872
 7831SOL    HW235130   3.334   0.975  13.822 -1.2654 -1.6307  0.1766
 7832SOL     OW35131   3.236   3.212   4.904  0.3834  0.2324 -0.1624
 7832SOL    HW135132   3.240   3.220   4.808 -1.8570  0.6488 -0.2288
 7832SOL    HW235133   3.329   3.194   4.911  0.5003  1.3269  1.0823
 7833SOL     OW35134   4.179   2.165  16.021 -0.0142 -0.0487 -0.0068
 7833SOL    HW135135   4.246   2.234  16.018 -0.0141 -0.0680 -0.4946
 7833SOL    HW235136   4.138   2.193  16.103  0.4245 -3.1360  1.2923
 7834SOL     OW35137   3.604   3.875   4.359  0.0239  0.0483 -0.2696
 7834SOL    HW135138   3.677   3.897   4.302 -0.3416  1.0655 -0.3463
 7834SOL    HW235139   3.614   3.930   4.437 -0.1011  2.3881 -1.8952
 7835SOL     OW35140   4.424   3.722  13.175 -0.4104  0.3455  0.0404
 7835SOL    HW135141   4.403   3.718  13.082 -0.3790 -0.5502  0.0754
 7835SOL    HW235142   4.503   3.776  13.174 -0.8417  0.9875  0.8288
 7836SOL     OW35143   0.771   3.279   6.429 -0.0897  0.8434 -0.2368
 7836SOL    HW135144   0.819   3.207   6.387  0.2017 -0.5865  2.5750
 7836SOL    HW235145   0.680   3.250   6.422  0.7956 -2.0372  0.0681
 7837SOL     OW35146   3.526   1.837   3.884  0.2119  0.4618 -0.3929
 7837SOL    HW135147   3.603   1.816   3.937  0.0126  2.7183  0.7658
 7837SOL    HW235148   3.533   1.932   3.877  0.0276  0.4290 -0.9853
 7838SOL     OW35149   1.864   1.826  13.922  0.1103  0.3793 -0.1230
 7838SOL    HW135150   1.829   1.816  14.010 -0.0848  2.3662  0.0417
 7838SOL    HW235151   1.813   1.896  13.880 -0.1750  1.4123  1.9479
 7839SOL     OW35152   0.734   2.270  17.393  0.3858  0.0158  0.4570
 7839SOL    HW135153   0.652   2.222  17.389 -0.1963  0.9663  1.0022
 7839SOL    HW235154   0.778   2.185  17.385  0.8236  0.2555  0.2610
 7840SOL     OW35155   1.513   0.390   1.874 -0.4602 -0.1872 -0.1304
 7840SOL    HW135156   1.514   0.485   1.864  1.2811 -0.2523 -0.5175
 7840SOL    HW235157   1.594   0.379   1.924 -0.7898  1.0863  0.6843
 7841SOL     OW35158   1.760   4.517   5.422 -0.3333  0.1476 -0.3203
 7841SOL    HW135159   1.853   4.521   5.442  0.0978  0.9980 -2.4810
 7841SOL    HW235160   1.771   4.500   5.328 -0.1912 -0.0981 -0.2602
 7842SOL     OW35161   1.751   0.319  11.374  0.7352 -0.2228  0.2294
 7842SOL    HW135162   1.768   0.281  11.288 -0.4165  0.4009 -0.2791
 7842SOL    HW235163   1.660   0.292  11.386  1.1577 -1.0028  1.7004
 7843SOL     OW35164   4.613   4.622   1.777  0.2873  0.0291 -0.3298
 7843SOL    HW135165   4.637   4.715   1.776 -0.4337  0.2025 -1.7904
 7843SOL    HW235166   4.693   4.582   1.743  0.4130 -0.8655  1.0153
 7844SOL     OW35167   1.239   1.958   2.696 -0.4470  0.6056  0.1738
 7844SOL    HW135168   1.172   2.025   2.708  0.2757  1.4681 -0.6188
 7844SOL    HW235169   1.228   1.912   2.780  0.6317 -0.6017 -0.3415
 7845SOL     OW35170   1.142   2.919   8.231 -0.2776  0.2413 -0.3546
 7845SOL    HW135171   1.164   2.918   8.324 -0.2460 -1.4975 -0.3901
 7845SOL    HW235172   1.051   2.889   8.240 -0.2756 -0.2821 -2.0509
 7846SOL     OW35173   0.473   0.143   3.373  0.2873 -0.3601 -0.5286
 7846SOL    HW135174   0.506   0.062   3.335  1.2714 -1.5980  2.9889
 7846SOL    HW235175   0.410   0.174   3.307 -1.0255  0.9934  1.3619
 7847SOL     OW35176   1.876   3.976   4.569  0.5535 -0.0227 -0.1351
 7847SOL    HW135177   1.954   3.993   4.621 -0.9435 -0.6675  2.2973
 7847SOL    HW235178   1.835   3.901   4.612  1.4864 -0.5451 -0.1549
 7848SOL     OW35179   4.294   0.805   4.333 -0.1553  0.1837 -0.3125
 7848SOL    HW135180   4.258   0.765   4.413  0.3303  0.3910  0.0132
 7848SOL    HW235181   4.221   0.804   4.272  1.0864  0.0417 -1.7812
 7849SOL     OW35182   0.062   2.705  14.135 -0.1175  0.1246 -0.2183
 7849SOL    HW135183   0.128   2.736  14.073  2.9745 -0.6593  2.6845
 7849SOL    HW235184   0.010   2.644  14.082 -0.3909 -0.2200  0.4486
 7850SOL     OW35185   0.158   0.308  12.425 -0.0961  0.1375  0.4806
 7850SOL    HW135186   0.082   0.322  12.483 -2.3257 -0.1272 -2.3983
 7850SOL    HW235187   0.215   0.380  12.453 -0.8913  0.9371  0.0457
 7851SOL     OW35188   1.803   2.110   3.146  0.4435  0.4556  0.5939
 7851SOL    HW135189   1.710   2.099   3.125 -0.0719  0.0160  3.0927
 7851SOL    HW235190   1.808   2.202   3.118 -0.4252  0.8814  1.7914
 7852SOL     OW35191   1.891   1.524   2.292  0.0036  0.2071 -0.0941
 7852SOL    HW135192   1.797   1.509   2.303 -0.3011  2.6143  0.6424
 7852SOL    HW235193   1.891   1.560   2.204 -0.5458 -0.6130 -0.4286
 7853SOL     OW35194   4.571   4.648   5.287 -0.4039 -0.0910  0.4072
 7853SOL    HW135195   4.541   4.630   5.198 -1.0260  1.0817  0.3660
 7853SOL    HW235196   4.486   4.652   5.332 -0.7761 -1.4270 -0.1895
 7854SOL     OW35197   4.623   2.616   6.345  0.5484 -0.1923 -0.6335
 7854SOL    HW135198   4.528   2.602   6.335  0.1119  2.7918 -0.6502
 7854SOL    HW235199   4.641   2.665   6.265 -1.4231 -0.5997 -1.3370
 7855SOL     OW35200   1.063   2.731   4.358  0.4076  0.1197  0.2650
 7855SOL    HW135201   1.114   2.655   4.387  0.3881 -0.2111 -0.5759
 7855SOL    HW235202   1.033   2.713   4.269  0.6503  0.4383  0.1167
 7856SOL     OW35203   0.199   2.292  12.550 -0.6947 -0.6093  0.2720
 7856SOL    HW135204   0.124   2.324  12.499 -0.9282  0.5796  1.3628
 7856SOL    HW235205   0.167   2.220  12.604 -2.4949 -0.3247 -0.4223
 7857SOL     OW35206   2.656   2.404  17.599 -0.0563 -0.1173 -0.2231
 7857SOL    HW135207   2.598   2.353  17.544 -0.2830  0.1403 -0.2217
 7857SOL    HW235208   2.590   2.465  17.630  0.3378  0.2985 -0.1965
 7858SOL     OW35209   0.862   0.341   7.556 -0.0410 -0.2118  0.2126
 7858SOL    HW135210   0.918   0.395   7.611 -0.9602  0.3256  0.6012
 7858SOL    HW235211   0.811   0.304   7.628  0.8337 -0.5255  0.6708
 7859SOL     OW35212   0.434   2.470   0.253  0.1187  0.3669  0.5150
 7859SOL    HW135213   0.459   2.548   0.302 -1.6720  1.1147  0.2510
 7859SOL    HW235214   0.503   2.448   0.190  0.0944 -1.0729  0.9858
 7860SOL     OW35215   1.785   3.647   3.519  0.5101  0.3672 -0.4841
 7860SOL    HW135216   1.852   3.680   3.580 -0.2871  1.9619 -0.4604
 7860SOL    HW235217   1.718   3.620   3.581  2.3909  0.6077  1.6666
 7861SOL     OW35218   4.111   3.099  11.914 -0.4050  0.2731  0.4000
 7861SOL    HW135219   4.055   3.165  11.955  0.0003 -1.0898  3.1659
 7861SOL    HW235220   4.054   3.023  11.919  0.2892 -0.2455  0.4802
 7862SOL     OW35221   0.969   2.845  17.152  0.1445  0.1094  0.2632
 7862SOL    HW135222   0.906   2.821  17.084  0.0571  1.3410 -0.0933
 7862SOL    HW235223   1.029   2.772  17.134  2.0653  1.3952  1.4496
 7863SOL     OW35224   1.607   2.662   3.717 -0.2797  0.0590 -0.1480
 7863SOL    HW135225   1.599   2.592   3.653  0.9276  0.4329 -0.7153
 7863SOL    HW235226   1.702   2.678   3.721 -0.3094  0.7523 -2.8174
 7864SOL     OW35227   4.091   0.454   3.609 -0.9875  0.1843 -0.5090
 7864SOL    HW135228   4.078   0.363   3.581 -0.1667 -1.0996  3.2954
 7864SOL    HW235229   4.014   0.488   3.655 -1.1701 -1.7216  0.5882
 7865SOL     OW35230   2.371   4.401   4.747  0.1466  0.4075 -0.0460
 7865SOL    HW135231   2.413   4.322   4.713 -1.0060 -0.4505  0.5073
 7865SOL    HW235232   2.296   4.411   4.688 -1.2138 -2.9793  1.1130
 7866SOL     OW35233   1.035   1.592  17.149  0.1582 -0.3484  0.1913
 7866SOL    HW135234   1.011   1.567  17.238 -0.0507  0.7998  0.4618
 7866SOL    HW235235   1.099   1.526  17.123  1.6526  1.9174 -1.8709
 7867SOL     OW35236   1.779   0.741  12.745  0.0003 -0.5450 -0.1560
 7867SOL    HW135237   1.704   0.771  12.692  2.4395  0.3437 -3.1104
 7867SOL    HW235238   1.846   0.752  12.677 -0.4069 -0.8787 -0.6196
 7868SOL     OW35239   1.515   1.362   0.825  0.5665  0.0055 -0.0557
 7868SOL    HW135240   1.552   1.361   0.737  1.7725 -0.4405  0.4560
 7868SOL    HW235241   1.448   1.294   0.826  1.8327 -1.2652 -1.2726
 7869SOL     OW35242   1.417   1.837   3.474 -0.1705 -0.4151 -0.3218
 7869SOL    HW135243   1.418   1.741   3.477 -0.9084 -0.3284  1.9533
 7869SOL    HW235244   1.511   1.858   3.477 -0.9986  3.4440 -0.8724
 7870SOL     OW35245   2.626   1.206   5.610 -0.4982 -0.2777 -0.0096
 7870SOL    HW135246   2.700   1.180   5.666  0.5059 -1.6074 -1.9642
 7870SOL    HW235247   2.562   1.240   5.672  1.8209  0.8856  1.7841
 7871SOL     OW35248   1.748   3.585   1.627  0.0506 -0.1783  0.2494
 7871SOL    HW135249   1.778   3.495   1.641  1.7694 -0.0679 -2.7270
 7871SOL    HW235250   1.828   3.615   1.585  0.4812  0.2493  1.3686
 7872SOL     OW35251   3.580   2.549   8.661  0.3457  0.1315  0.0972
 7872SOL    HW135252   3.584   2.621   8.599 -1.9925 -0.2141 -0.4864
 7872SOL    HW235253   3.485   2.544   8.674  0.4888  1.8388  1.7856
 7873SOL     OW35254   3.806   1.822   6.748  0.0217  0.0338 -0.2779
 7873SOL    HW135255   3.820   1.756   6.816  0.4643  0.6389  0.2150
 7873SOL    HW235256   3.883   1.878   6.757  0.2710 -0.4106  0.3521
 7874SOL     OW35257   3.969   1.351   7.613 -0.5390  0.3814 -0.0497
 7874SOL    HW135258   3.960   1.446   7.606  0.7166  0.6613  2.0237
 7874SOL    HW235259   3.922   1.331   7.694 -0.0887 -1.3678 -0.2180
 7875SOL     OW35260   2.632   2.504   0.640  0.1951 -0.0721 -0.2704
 7875SOL    HW135261   2.686   2.429   0.665 -0.1871  0.9743  3.8297
 7875SOL    HW235262   2.606   2.543   0.724  1.7392 -1.5265  0.8662
 7876SOL     OW35263   0.909   2.841   4.740  0.4632 -0.8387 -0.2194
 7876SOL    HW135264   0.925   2.884   4.656 -0.2072  0.9641  0.5794
 7876SOL    HW235265   0.937   2.753   4.713 -0.8282 -2.4305  3.5855
 7877SOL     OW35266   3.500   1.884   5.313  0.2438 -0.1517  0.4664
 7877SOL    HW135267   3.428   1.834   5.351 -2.0330  2.0806 -0.8729
 7877SOL    HW235268   3.492   1.864   5.220 -0.3957  0.9564  0.2881
 7878SOL     OW35269   1.895   0.651  13.202 -0.0533  0.0727 -0.3984
 7878SOL    HW135270   1.979   0.694  13.186 -1.0595  1.5335 -1.8160
 7878SOL    HW235271   1.867   0.620  13.116 -2.8740 -0.2092  0.6102
 7879SOL     OW35272   2.243   2.674   8.662  0.4576 -0.1666 -0.3422
 7879SOL    HW135273   2.160   2.650   8.703 -0.2610 -4.3151 -4.2493
 7879SOL    HW235274   2.309   2.638   8.722  0.4286 -0.1655 -0.3098
 7880SOL     OW35275   0.357   2.891   5.293  0.7378  0.0360  0.0205
 7880SOL    HW135276   0.295   2.870   5.223  0.6686 -1.8937  0.6413
 7880SOL    HW235277   0.436   2.914   5.244 -0.2496  2.5386 -0.4086
 7881SOL     OW35278   2.499   3.294  11.851  0.4571 -0.0510  0.3705
 7881SOL    HW135279   2.491   3.286  11.946  1.3927  1.6748  0.6017
 7881SOL    HW235280   2.487   3.389  11.845 -0.6043 -0.2140 -0.0825
 7882SOL     OW35281   0.949   1.778   2.724  0.4116 -0.9317  0.1106
 7882SOL    HW135282   0.895   1.855   2.706  2.3825  0.0767 -1.4639
 7882SOL    HW235283   1.024   1.818   2.768  0.2900 -0.2485 -0.3107
 7883SOL     OW35284   4.153   3.627   6.908 -0.1838  0.0353 -0.0189
 7883SOL    HW135285   4.112   3.559   6.962  1.1007 -1.1169 -0.4778
 7883SOL    HW235286   4.243   3.595   6.917  0.5495  1.5363 -2.2231
 7884SOL     OW35287   0.918   2.884   7.011 -0.4430  0.1065  0.2705
 7884SOL    HW135288   0.852   2.936   7.058  0.0317  0.7613  0.2073
 7884SOL    HW235289   0.920   2.799   7.055  2.3825 -1.1210 -2.2475
 7885SOL     OW35290   1.905   3.975   5.932  0.6555 -0.5945 -0.3611
 7885SOL    HW135291   1.828   3.981   5.989  0.6862 -0.2779 -0.3517
 7885SOL    HW235292   1.947   4.048   5.978 -2.4335 -0.0553  1.6634
 7886SOL     OW35293   0.872   0.656   5.240  0.1076 -0.3330  0.0783
 7886SOL    HW135294   0.865   0.676   5.147  1.2838  0.6154  0.1798
 7886SOL    HW235295   0.903   0.739   5.277 -0.4324 -0.0233 -0.1682
 7887SOL     OW35296   0.185   2.830   5.101  0.4724  0.2983 -0.2721
 7887SOL    HW135297   0.180   2.845   5.007  0.3051  1.0570 -0.1481
 7887SOL    HW235298   0.201   2.736   5.101 -1.0046  0.0582 -1.2468
 7888SOL     OW35299   1.584   0.653   1.818 -0.0781  0.3269 -0.2583
 7888SOL    HW135300   1.675   0.684   1.816  0.5793 -1.6020 -0.2505
 7888SOL    HW235301   1.543   0.688   1.738 -0.2630  1.7779  0.4747
 7889SOL     OW35302   4.518   3.243   4.619  0.0017  0.7152  0.4188
 7889SOL    HW135303   4.585   3.174   4.616  1.0550  1.8390 -2.3436
 7889SOL    HW235304   4.569   3.324   4.618  1.5987 -0.2697  1.0710
 7890SOL     OW35305   4.638   3.163   8.754  0.7186 -0.0953 -0.3203
 7890SOL    HW135306   4.685   3.109   8.817 -1.7920 -1.4212  0.4190
 7890SOL    HW235307   4.576   3.202   8.816  1.7549 -0.9814  1.2658
 7891SOL     OW35308   3.195   2.419   5.732 -0.2948 -0.2992  0.3126
 7891SOL    HW135309   3.138   2.350   5.766  1.0891 -1.5764  0.0336
 7891SOL    HW235310   3.194   2.386   5.642  1.4550 -1.6760  0.7903
 7892SOL     OW35311   3.639   4.697   9.013 -0.0992 -0.2020 -0.1875
 7892SOL    HW135312   3.625   4.629   9.079 -0.3100  1.9941  2.0280
 7892SOL    HW235313   3.664   4.634   8.945  0.5968 -0.2028  0.0684
 7893SOL     OW35314   4.722   4.728  15.448  0.4276  0.7038 -0.1926
 7893SOL    HW135315   0.078   0.009  15.460  0.3066  1.4020 -0.3770
 7893SOL    HW235316   4.687   0.032  15.527 -2.1220  0.5097 -1.2242
 7894SOL     OW35317   1.968   0.552  12.656 -0.5402  0.3748 -0.3191
 7894SOL    HW135318   1.935   0.555  12.566  0.5191  0.0023 -0.7194
 7894SOL    HW235319   1.913   0.481  12.689  1.4924  0.0239  2.2951
 7895SOL     OW35320   3.052   2.740   1.134  0.0108  0.7142  0.6786
 7895SOL    HW135321   3.033   2.646   1.129 -1.0466  0.9378  0.6632
 7895SOL    HW235322   2.967   2.780   1.117  1.1804  2.1747 -1.7994
 7896SOL     OW35323   0.125   3.055   5.313 -0.1284 -0.5706  0.5292
 7896SOL    HW135324   0.105   3.036   5.221 -0.8631  0.4703  0.4701
 7896SOL    HW235325   0.216   3.027   5.320  0.1786  0.0666 -0.8783
 7897SOL     OW35326   2.603   2.736   5.433  0.2543 -0.0025  0.9000
 7897SOL    HW135327   2.667   2.735   5.504  1.5823 -0.2909 -0.3007
 7897SOL    HW235328   2.625   2.656   5.385 -0.4544  0.7654 -0.7262
 7898SOL     OW35329   1.230   4.463   7.957  0.8025 -0.6025 -0.6941
 7898SOL    HW135330   1.169   4.463   8.031  1.5744 -1.8035 -0.0607
 7898SOL    HW235331   1.212   4.376   7.922 -1.2955 -1.1536  1.7921
 7899SOL     OW35332   2.307   0.156   2.631  0.3211  0.5055  0.0423
 7899SOL    HW135333   2.265   0.070   2.633  1.8692 -0.2458  0.5350
 7899SOL    HW235334   2.235   0.208   2.595  1.1275 -0.6155 -3.2080
 7900SOL     OW35335   0.775   4.611   2.392 -0.4723 -0.6555 -0.0152
 7900SOL    HW135336   0.724   4.543   2.347  0.0269 -1.2199  0.2727
 7900SOL    HW235337   0.792   4.569   2.476  1.1548  0.2731  0.1065
 7901SOL     OW35338   2.059   3.359  12.477  0.0659 -0.0294  0.0354
 7901SOL    HW135339   2.054   3.299  12.551  0.0673  1.3112  1.1185
 7901SOL    HW235340   2.149   3.385  12.491  0.7208 -1.3361 -1.6966
 7902SOL     OW35341   4.187   1.343   9.063  0.3406  0.2344 -0.2899
 7902SOL    HW135342   4.145   1.390   9.135 -0.0473 -0.6064  0.0386
 7902SOL    HW235343   4.142   1.382   8.988 -2.5218 -3.8781 -0.6792
 7903SOL     OW35344   2.575   1.162  10.195 -0.0193 -0.2450 -0.3982
 7903SOL    HW135345   2.543   1.079  10.230  1.7388 -0.5938  0.3681
 7903SOL    HW235346   2.650   1.191  10.246 -0.5006  0.3102  0.0007
 7904SOL     OW35347   4.109   3.557  15.366  0.2263 -0.5910 -0.3610
 7904SOL    HW135348   4.038   3.506  15.407  1.2910 -2.3875 -0.7360
 7904SOL    HW235349   4.053   3.633  15.354  1.4183  0.1286 -1.3574
 7905SOL     OW35350   2.046   0.753   7.084  0.0106 -0.4717 -0.1768
 7905SOL    HW135351   2.063   0.678   7.141  2.0793  2.0489  2.5893
 7905SOL    HW235352   2.053   0.828   7.144  0.7645 -0.6651 -0.0185
 7906SOL     OW35353   2.541   1.838   3.871 -0.3174  0.5788 -0.4632
 7906SOL    HW135354   2.607   1.875   3.813 -1.1661  0.9464 -1.2097
 7906SOL    HW235355   2.579   1.753   3.894  0.9915  0.9938 -1.0910
 7907SOL     OW35356   0.661   2.113  14.802 -0.7392 -0.5898 -0.5676
 7907SOL    HW135357   0.676   2.051  14.731  1.3779 -1.0485  0.2555
 7907SOL    HW235358   0.584   2.085  14.851 -0.6716 -0.6376 -0.4863
 7908SOL     OW35359   3.941   1.021   5.088 -0.3004  0.2204  0.3009
 7908SOL    HW135360   3.889   0.950   5.127  1.1689 -0.8136  0.4065
 7908SOL    HW235361   3.870   1.075   5.054 -1.5144 -1.3906  0.2748
 7909SOL     OW35362   1.428   1.704   9.224  0.3575  0.2980  0.4757
 7909SOL    HW135363   1.506   1.736   9.178  0.3735 -1.0113 -0.4229
 7909SOL    HW235364   1.417   1.767   9.294  0.1709  0.5614  0.2103
 7910SOL     OW35365   3.072   0.388   6.972 -0.2015 -0.0516 -0.1482
 7910SOL    HW135366   3.133   0.340   7.028 -0.4375 -2.6830 -2.1463
 7910SOL    HW235367   2.985   0.376   7.009 -0.2564 -1.5111 -0.7487
 7911SOL     OW35368   2.485   0.234   4.750  0.3444 -0.1376 -0.6006
 7911SOL    HW135369   2.446   0.322   4.751  0.1587 -0.2329  0.9290
 7911SOL    HW235370   2.421   0.199   4.813  1.8636  1.0330  1.6164
 7912SOL     OW35371   1.462   2.900   5.148 -0.2861  0.6054 -0.0540
 7912SOL    HW135372   1.457   2.822   5.202  2.7722  0.5917  0.1855
 7912SOL    HW235373   1.459   2.965   5.218  0.8005  0.3709  0.2131
 7913SOL     OW35374   3.903   4.583  15.702 -0.6051 -0.7878 -0.5902
 7913SOL    HW135375   3.862   4.567  15.788  1.3824  0.4685  0.5831
 7913SOL    HW235376   3.968   4.513  15.693  1.4773  1.3073 -1.7296
 7914SOL     OW35377   0.158   3.691  12.025  0.1609 -0.8223 -0.2825
 7914SOL    HW135378   0.152   3.710  12.118 -1.1553 -0.6916 -0.3952
 7914SOL    HW235379   0.121   3.603  12.024 -0.0921 -0.6411 -4.8586
 7915SOL     OW35380   2.487   3.763   2.241 -0.0814 -0.1528  0.1281
 7915SOL    HW135381   2.555   3.706   2.204 -1.5578 -0.6601 -1.8161
 7915SOL    HW235382   2.451   3.705   2.308 -1.4648  0.6399  0.0534
 7916SOL     OW35383   3.192   1.443  13.657  0.0448 -0.8674 -0.6812
 7916SOL    HW135384   3.110   1.454  13.609 -1.4707  0.8078  2.2099
 7916SOL    HW235385   3.177   1.358  13.699 -2.2068  0.1396  0.5680
 7917SOL     OW35386   0.792   3.339  13.749 -0.2622  0.0841  0.3860
 7917SOL    HW135387   0.728   3.283  13.706  0.9847 -0.9620 -0.1200
 7917SOL    HW235388   0.817   3.411  13.692 -1.3947  1.0955  1.1851
 7918SOL     OW35389   0.143   4.212   2.836  0.0697  0.6502 -0.2442
 7918SOL    HW135390   0.114   4.194   2.926 -2.7032 -0.0561 -1.2721
 7918SOL    HW235391   0.132   4.306   2.843 -0.6372  0.6629 -1.4480
 7919SOL     OW35392   1.098   0.565  10.238 -0.4794  0.1804  0.5363
 7919SOL    HW135393   1.026   0.559  10.175  0.6158 -0.6643 -0.6502
 7919SOL    HW235394   1.139   0.649  10.217 -0.2711 -0.2207 -0.6671
 7920SOL     OW35395   4.026   1.449   8.859 -0.4771 -0.3680 -0.0489
 7920SOL    HW135396   4.040   1.357   8.836  1.4625 -0.8352  2.8930
 7920SOL    HW235397   4.094   1.484   8.802 -1.6208  2.5908  0.4077
 7921SOL     OW35398   4.392   4.358   5.291  0.2990 -0.1099  0.0308
 7921SOL    HW135399   4.393   4.347   5.386  1.8256  0.7161  0.1024
 7921SOL    HW235400   4.368   4.450   5.283 -0.5915 -0.2202  1.2696
 7922SOL     OW35401   3.462   2.347   4.887  0.2206  0.2655 -1.0137
 7922SOL    HW135402   3.487   2.415   4.825  2.9846  1.8450  1.7679
 7922SOL    HW235403   3.547   2.324   4.925 -2.0138 -2.3086  2.4780
 7923SOL     OW35404   0.006   2.384   3.032  0.8225 -0.3645 -0.4732
 7923SOL    HW135405   4.706   2.336   3.106 -3.4861  1.3033 -1.5120
 7923SOL    HW235406   0.077   2.325   3.008 -0.8115 -2.1327 -0.9286
 7924SOL     OW35407   3.708   0.554   5.322 -0.0261  0.5448  0.5738
 7924SOL    HW135408   3.797   0.548   5.359 -0.5168 -0.8687  1.5544
 7924SOL    HW235409   3.647   0.536   5.394  0.4133  0.1793  0.8571
 7925SOL     OW35410   3.975   1.334   3.362  0.1413  0.5812  0.0986
 7925SOL    HW135411   3.931   1.337   3.277 -0.0504 -0.9359  0.1493
 7925SOL    HW235412   4.027   1.414   3.363 -0.8150  1.1746  2.6913
 7926SOL     OW35413   1.560   1.809   2.392  0.1684  0.0927  0.0346
 7926SOL    HW135414   1.468   1.787   2.403  0.1702 -0.3429 -0.8544
 7926SOL    HW235415   1.576   1.903   2.400 -0.1635  0.2663 -1.3488
 7927SOL     OW35416   1.133   2.284   8.296  0.4957  0.3535 -0.3324
 7927SOL    HW135417   1.204   2.289   8.232 -0.2681  1.0493 -1.1307
 7927SOL    HW235418   1.082   2.357   8.259 -0.9857 -0.4479  0.1229
 7928SOL     OW35419   4.611   3.579   5.394  0.1510 -0.0480  0.2987
 7928SOL    HW135420   4.670   3.503   5.390  0.4286  0.3222 -2.4200
 7928SOL    HW235421   4.582   3.583   5.486 -0.4886 -0.4868  0.1193
 7929SOL     OW35422   1.853   4.186   6.464  0.1140  0.4638  0.0466
 7929SOL    HW135423   1.884   4.276   6.472 -0.4655  0.3959  3.0388
 7929SOL    HW235424   1.827   4.181   6.372 -0.1581 -1.5448  0.2364
 7930SOL     OW35425   2.069   4.089   4.152 -0.2455 -0.0037 -0.1479
 7930SOL    HW135426   2.004   4.019   4.161 -1.8293  1.5624  0.6472
 7930SOL    HW235427   2.063   4.112   4.059 -0.7992 -0.2608 -0.1742
 7931SOL     OW35428   0.304   0.380   9.956  0.6298  0.0968 -0.5975
 7931SOL    HW135429   0.247   0.341   9.890  1.0853  0.9886 -1.5229
 7931SOL    HW235430   0.379   0.409   9.903  1.3983  0.7645  0.8640
 7932SOL     OW35431   3.582   3.603   4.410  0.2062  0.1436 -0.0025
 7932SOL    HW135432   3.635   3.561   4.343  0.1979  0.7137 -0.3645
 7932SOL    HW235433   3.572   3.693   4.380 -1.4120 -0.7768 -2.2401
 7933SOL     OW35434   0.388   2.721  12.294 -0.2106  0.1374  0.7736
 7933SOL    HW135435   0.381   2.626  12.310 -0.8241  0.5709  3.0594
 7933SOL    HW235436   0.470   2.735  12.342 -0.5041 -0.0244  1.3229
 7934SOL     OW35437   4.226   2.790  17.135  0.2285 -0.6820 -0.1484
 7934SOL    HW135438   4.262   2.702  17.137  1.0270 -0.3792 -0.7739
 7934SOL    HW235439   4.303   2.839  17.166  1.2676 -2.5112  0.1412
 7935SOL     OW35440   1.605   1.531   6.116 -0.1908 -0.0804 -0.2258
 7935SOL    HW135441   1.573   1.467   6.052  0.5926  0.2904 -0.9987
 7935SOL    HW235442   1.521   1.542   6.160  1.0156 -1.2459  2.3275
 7936SOL     OW35443   0.627   1.226   5.292 -0.6854 -0.1800 -0.4129
 7936SOL    HW135444   0.677   1.293   5.245 -0.5664 -0.0370 -0.0818
 7936SOL    HW235445   0.562   1.201   5.226 -0.6342 -0.5248 -0.3311
 7937SOL     OW35446   3.030   2.437   1.876 -0.4491  0.5268  0.9147
 7937SOL    HW135447   3.042   2.481   1.960  2.8801 -0.2409  0.8235
 7937SOL    HW235448   3.014   2.346   1.901  0.7749 -0.0101 -0.2542
 7938SOL     OW35449   0.584   0.415  16.691 -0.6392  0.2174 -0.2497
 7938SOL    HW135450   0.560   0.476  16.621  0.1118 -0.4936 -1.1171
 7938SOL    HW235451   0.678   0.423  16.677 -0.7489  0.6350 -0.7374
 7939SOL     OW35452   1.103   3.352   8.495 -0.3452  0.1550 -0.2269
 7939SOL    HW135453   1.107   3.349   8.591  0.4814  0.6506 -0.2396
 7939SOL    HW235454   1.012   3.330   8.477 -0.8543  2.7394 -0.7151
 7940SOL     OW35455   1.489   1.316  10.107  0.2981 -0.3571 -0.3344
 7940SOL    HW135456   1.469   1.265  10.029  1.6952 -1.1815 -0.1553
 7940SOL    HW235457   1.542   1.378  10.058  0.3681  0.4868  0.7943
 7941SOL     OW35458   3.274   1.414   5.197  0.6641  0.0423 -0.2434
 7941SOL    HW135459   3.272   1.326   5.234  0.8216 -0.0389 -0.4261
 7941SOL    HW235460   3.345   1.404   5.134  1.1872  1.5302  0.0978
 7942SOL     OW35461   4.335   1.136   2.388  0.1726  0.0498 -0.4844
 7942SOL    HW135462   4.389   1.073   2.436 -1.1640  0.5841  1.7619
 7942SOL    HW235463   4.408   1.193   2.362  0.6176 -0.0547  0.5328
 7943SOL     OW35464   4.081   2.136  14.838  0.0257 -0.6569  0.0760
 7943SOL    HW135465   4.077   2.162  14.930  2.3027  0.0989 -0.0506
 7943SOL    HW235466   4.175   2.133  14.819 -0.5428 -2.6679 -2.4792
 7944SOL     OW35467   0.523   3.229   7.091 -0.1570  0.1950 -0.0507
 7944SOL    HW135468   0.569   3.289   7.032 -3.6685  2.2348 -0.6714
 7944SOL    HW235469   0.471   3.175   7.031 -0.8464 -0.6844  1.3556
 7945SOL     OW35470   0.595   2.955  12.529  0.0562 -0.2409 -0.0279
 7945SOL    HW135471   0.637   2.946  12.614 -1.2972  0.8634  0.7531
 7945SOL    HW235472   0.576   2.866  12.501 -1.8081  0.3766 -0.7427
 7946SOL     OW35473   3.748   0.523  17.048 -0.0978 -0.9744 -0.7467
 7946SOL    HW135474   3.843   0.536  17.041 -0.0094 -1.0713  0.3579
 7946SOL    HW235475   3.744   0.500  17.141  1.0682 -1.3643 -0.7929
 7947SOL     OW35476   0.232   0.923   9.094 -0.3722 -0.2107  0.1261
 7947SOL    HW135477   0.235   0.908   8.999  1.1157 -2.9439  0.6370
 7947SOL    HW235478   0.274   0.848   9.135 -0.7533  0.2704  1.3937
 7948SOL     OW35479   2.812   0.196   5.777  0.2843 -0.4084  0.5032
 7948SOL    HW135480   2.834   0.267   5.838 -0.6942  1.7050 -1.6261
 7948SOL    HW235481   2.895   0.158   5.749 -0.5142 -0.7843 -1.3127
 7949SOL     OW35482   2.882   0.851   7.116 -0.4676 -0.0030  0.3118
 7949SOL    HW135483   2.966   0.888   7.143 -0.4326  1.8897 -2.4772
 7949SOL    HW235484   2.894   0.824   7.026  0.1366 -0.1298  0.4315
 7950SOL     OW35485   1.049   2.950   4.512  0.1869  0.1535 -0.1670
 7950SOL    HW135486   1.047   2.898   4.432  3.2083  0.5471 -0.5121
 7950SOL    HW235487   1.143   2.951   4.532 -0.1081  0.9725  1.1768
 7951SOL     OW35488   3.791   1.973   7.830  0.5157 -0.2574 -0.0448
 7951SOL    HW135489   3.748   1.926   7.901  0.5481  0.4422  0.4491
 7951SOL    HW235490   3.769   1.916   7.757  0.6102  0.5526 -0.7087
 7952SOL     OW35491   3.494   2.148   7.979 -0.1249  0.2691  0.4408
 7952SOL    HW135492   3.416   2.145   8.035 -0.4909 -1.0409 -0.1429
 7952SOL    HW235493   3.567   2.174   8.036  1.5298  0.1347 -1.6132
 7953SOL     OW35494   1.142   4.242   7.840  0.3778  0.1688 -0.3616
 7953SOL    HW135495   1.072   4.235   7.775 -0.4861  3.5773  0.2112
 7953SOL    HW235496   1.206   4.175   7.814 -1.1744 -0.2881 -3.0422
 7954SOL     OW35497   2.741   4.660   8.565 -0.1628  0.2416  0.4793
 7954SOL    HW135498   2.782   4.576   8.586 -1.7951 -0.7086 -0.1193
 7954SOL    HW235499   2.685   4.636   8.490  1.1586 -0.3056 -0.3359
 7955SOL     OW35500   1.258   3.665   0.655 -0.1380  0.3153  0.1778
 7955SOL    HW135501   1.223   3.624   0.734 -0.1465  1.7065  0.8938
 7955SOL    HW235502   1.353   3.658   0.663 -0.3391 -1.7438  0.6111
 7956SOL     OW35503   2.373   1.333   9.501  0.2369 -0.4343 -0.3422
 7956SOL    HW135504   2.433   1.272   9.544  0.1818  0.8015  1.4948
 7956SOL    HW235505   2.330   1.361   9.582 -0.2920  0.3094 -0.8761
 7957SOL     OW35506   4.661   2.622   6.734  0.4106 -0.4655 -0.2148
 7957SOL    HW135507   4.566   2.622   6.741  0.3579  3.3315 -0.6956
 7957SOL    HW235508   4.699   2.582   6.812 -0.3062 -0.0446  0.3459
 7958SOL     OW35509   3.119   4.117   4.072 -0.1178  0.2491 -0.1712
 7958SOL    HW135510   3.032   4.078   4.073 -0.8492  1.8037 -1.9439
 7958SOL    HW235511   3.154   4.075   3.993  0.5164 -1.9226  1.2929
 7959SOL     OW35512   2.333   3.520  15.126  0.0071 -0.0639  0.7674
 7959SOL    HW135513   2.263   3.558  15.073  2.0629  0.6359 -1.4324
 7959SOL    HW235514   2.284   3.511  15.207 -1.0471  1.0147  0.2426
 7960SOL     OW35515   2.179   3.741  11.972 -0.5790  0.5355 -0.0561
 7960SOL    HW135516   2.088   3.744  12.001 -1.2423  0.4133 -2.1184
 7960SOL    HW235517   2.216   3.805  12.033 -0.3239  1.5728 -1.2875
 7961SOL     OW35518   4.131   1.932  17.434 -0.2319 -0.1532  0.1239
 7961SOL    HW135519   4.165   1.948  17.346  3.2632  2.3473  1.9114
 7961SOL    HW235520   4.088   1.850  17.410 -0.5244  0.1724 -0.4616
 7962SOL     OW35521   0.718   1.413   9.019  0.1113 -0.0667 -0.3033
 7962SOL    HW135522   0.707   1.356   9.094 -0.9407  0.5876  0.0300
 7962SOL    HW235523   0.791   1.370   8.974 -0.4558 -1.6318  0.2840
 7963SOL     OW35524   3.124   1.922   4.515 -0.3753 -0.0928  0.1222
 7963SOL    HW135525   3.087   2.010   4.522  0.2437  0.3088 -1.5474
 7963SOL    HW235526   3.201   1.937   4.570  0.3602 -0.6684 -0.7539
 7964SOL     OW35527   0.983   0.299   3.780  0.2276 -0.1753  0.0360
 7964SOL    HW135528   1.009   0.371   3.838  1.6940 -0.8456  0.1913
 7964SOL    HW235529   0.959   0.348   3.702 -0.6469  0.8993  0.9751
 7965SOL     OW35530   4.699   0.929   6.031  0.2172 -0.0213  0.2922
 7965SOL    HW135531   4.677   0.996   5.967 -0.2289 -0.5553 -0.1063
 7965SOL    HW235532   4.613   0.908   6.069  0.8795 -4.0921 -0.4940
 7966SOL     OW35533   4.255   3.612   7.554 -0.2690  0.1078  0.4898
 7966SOL    HW135534   4.321   3.561   7.506  0.3426 -0.1484  1.6004
 7966SOL    HW235535   4.304   3.694   7.560  1.1226 -0.7562  1.0652
 7967SOL     OW35536   0.011   4.270   2.430 -0.2067  0.7034  0.3979
 7967SOL    HW135537   4.678   4.205   2.441  0.8615 -0.5988 -0.5570
 7967SOL    HW235538   0.089   4.219   2.411 -0.0043  1.3544 -0.4959
 7968SOL     OW35539   1.464   3.789   3.455  0.2702 -0.2892  0.2050
 7968SOL    HW135540   1.370   3.783   3.435  0.0007 -0.1160  1.3837
 7968SOL    HW235541   1.494   3.725   3.390 -2.6622  0.7322 -2.1635
 7969SOL     OW35542   4.407   1.160   3.573 -0.2250  0.3295  0.8848
 7969SOL    HW135543   4.331   1.165   3.516  0.7214 -2.1209 -0.6170
 7969SOL    HW235544   4.446   1.074   3.561 -0.3211  0.4154 -0.0323
 7970SOL     OW35545   2.276   2.216   2.266  0.1042 -0.1527 -0.7301
 7970SOL    HW135546   2.242   2.243   2.352  1.2555 -0.0161 -0.3147
 7970SOL    HW235547   2.363   2.256   2.269 -0.0891  0.2112  0.1141
 7971SOL     OW35548   1.632   0.686  12.308  0.0129 -0.1841 -0.2462
 7971SOL    HW135549   1.661   0.640  12.229 -1.8150  0.1676 -1.1167
 7971SOL    HW235550   1.615   0.766  12.259  1.7047  1.5740  2.0290
 7972SOL     OW35551   2.575   1.374   7.763  0.2808 -0.3371 -1.3991
 7972SOL    HW135552   2.636   1.440   7.731 -2.3827  2.3152 -1.0719
 7972SOL    HW235553   2.613   1.287   7.755  0.0021 -0.7171  1.7440
 7973SOL     OW35554   2.395   2.079  12.672 -0.1406  0.8979  0.5359
 7973SOL    HW135555   2.405   2.046  12.761  0.4475 -0.0351  0.1247
 7973SOL    HW235556   2.313   2.043  12.638  0.0511  0.0862  0.9259
 7974SOL     OW35557   0.969   3.409   3.353  0.4245  1.0833 -0.4795
 7974SOL    HW135558   0.898   3.407   3.417  0.1574 -1.8001 -0.8896
 7974SOL    HW235559   0.942   3.487   3.304 -1.1799 -1.0161 -2.9097
 7975SOL     OW35560   0.286   0.002   6.528  0.2579  0.5599 -0.0996
 7975SOL    HW135561   0.248   4.654   6.509 -2.2271  1.3690  1.2352
 7975SOL    HW235562   0.326   0.007   6.615  0.3116 -0.2697 -0.0832
 7976SOL     OW35563   2.448   1.380  12.030  0.2209  0.1721 -0.4954
 7976SOL    HW135564   2.481   1.300  12.070  0.9533  0.6726 -0.1037
 7976SOL    HW235565   2.455   1.451  12.094  0.7533  0.6872 -1.1266
 7977SOL     OW35566   0.273   4.575   5.998  0.7982 -0.0939 -0.7525
 7977SOL    HW135567   0.212   4.610   5.934 -2.0416 -1.0955  1.4042
 7977SOL    HW235568   0.210   4.565   6.069  1.5004  0.1286 -0.0997
 7978SOL     OW35569   3.883   0.928   2.069  0.2866  0.1490  1.1836
 7978SOL    HW135570   3.919   0.955   2.153  0.7899  1.1900  0.6384
 7978SOL    HW235571   3.891   1.004   2.010 -0.9570  0.3037  1.2024
 7979SOL     OW35572   0.542   2.193   5.188 -0.0438 -0.6426 -0.5095
 7979SOL    HW135573   0.471   2.253   5.210 -0.0364  0.0855 -2.4634
 7979SOL    HW235574   0.624   2.242   5.193 -0.4162 -0.2531  1.6876
 7980SOL     OW35575   0.010   3.276   3.581  0.2355 -0.1461 -0.2450
 7980SOL    HW135576   0.032   3.208   3.645  1.3955  1.6915  1.3046
 7980SOL    HW235577   0.083   3.334   3.603 -1.7264  2.2982 -0.1505
 7981SOL     OW35578   2.927   1.573  14.191  0.3509  0.2209  0.6043
 7981SOL    HW135579   2.832   1.578  14.179  0.5890 -1.2543 -1.9030
 7981SOL    HW235580   2.955   1.653  14.146 -0.4795  0.1025 -0.1222
 7982SOL     OW35581   4.064   1.679  10.983  0.6285 -0.0695  0.2041
 7982SOL    HW135582   3.977   1.675  10.942  2.4434 -1.9155 -3.3842
 7982SOL    HW235583   4.038   1.677  11.076  0.1674 -0.6075  0.0610
 7983SOL     OW35584   1.771   3.123   2.556 -0.3496 -0.9270  0.1670
 7983SOL    HW135585   1.819   3.044   2.581 -0.6234 -1.0799  0.2105
 7983SOL    HW235586   1.731   3.102   2.472  0.7416 -3.0870  0.1980
 7984SOL     OW35587   0.707   0.231  15.065  0.1449 -0.6647  0.2649
 7984SOL    HW135588   0.635   0.196  15.012 -0.4848  1.4184 -0.2660
 7984SOL    HW235589   0.713   0.160  15.128  0.5553 -0.9992 -0.1485
 7985SOL     OW35590   1.315   0.240   1.166  0.1539  0.4215  0.5605
 7985SOL    HW135591   1.227   0.238   1.203  0.4977 -0.2208  1.3658
 7985SOL    HW235592   1.371   0.223   1.243  1.4312 -2.2837 -0.9698
 7986SOL     OW35593   2.257   2.448   3.534 -0.1701  0.2853  0.6283
 7986SOL    HW135594   2.199   2.518   3.564 -1.4086 -0.1462 -0.7251
 7986SOL    HW235595   2.301   2.431   3.617  2.4385 -2.7950 -1.3950
 7987SOL     OW35596   3.034   1.076   2.147 -0.2450  0.2942 -0.4291
 7987SOL    HW135597   3.074   1.007   2.199 -2.9877 -0.5608  0.5426
 7987SOL    HW235598   3.108   1.092   2.089 -0.0407  0.0437 -0.2351
 7988SOL     OW35599   3.174   2.530   1.452 -0.8014  0.1895  0.0014
 7988SOL    HW135600   3.185   2.542   1.546  1.7687 -0.3493 -0.2544
 7988SOL    HW235601   3.110   2.458   1.446 -2.4973  1.6725  0.2009
 7989SOL     OW35602   3.180   1.024  11.189 -0.5997  0.0773  0.1981
 7989SOL    HW135603   3.207   0.969  11.115  0.6089  1.9825 -0.8072
 7989SOL    HW235604   3.261   1.022  11.240 -0.9307 -0.7299  0.6768
 7990SOL     OW35605   2.608   2.936   8.662 -0.2899 -0.3553 -0.2533
 7990SOL    HW135606   2.567   2.939   8.576 -1.2790 -0.4732  0.2057
 7990SOL    HW235607   2.530   2.938   8.717 -0.0926  2.9822 -0.1054
 7991SOL     OW35608   0.913   0.466  10.695 -0.4794  0.0859  0.5646
 7991SOL    HW135609   0.889   0.552  10.661 -4.5803 -0.7404  1.3185
 7991SOL    HW235610   0.968   0.436  10.622 -1.5368 -0.7093  0.0924
 7992SOL     OW35611   2.160   2.546  17.387 -0.7506  0.3762 -0.4590
 7992SOL    HW135612   2.133   2.459  17.414 -0.1228  0.5379  0.6706
 7992SOL    HW235613   2.230   2.532  17.323 -0.4163  1.7742 -0.4161
 7993SOL     OW35614   1.306   1.942  10.473  0.3724  0.6329 -0.0664
 7993SOL    HW135615   1.299   1.987  10.389 -2.3092  2.7880  1.3274
 7993SOL    HW235616   1.220   1.899  10.471 -0.4954  2.3574  1.1800
 7994SOL     OW35617   2.278   1.789   8.497  0.1587  0.2223  0.1407
 7994SOL    HW135618   2.344   1.745   8.443  0.3262  1.5807 -0.7858
 7994SOL    HW235619   2.224   1.716   8.526 -1.5121  0.9496 -1.1302
 7995SOL     OW35620   2.208   3.518   1.735  0.2258 -0.7441 -0.0000
 7995SOL    HW135621   2.150   3.558   1.799  1.5412 -2.6701  2.3955
 7995SOL    HW235622   2.262   3.468   1.797  1.0324 -1.4775 -1.2870
 7996SOL     OW35623   1.249   2.191   8.850 -0.0119 -0.2022  0.2722
 7996SOL    HW135624   1.212   2.259   8.907 -0.6700  0.3934 -0.8535
 7996SOL    HW235625   1.233   2.226   8.763  1.6694 -1.6504 -0.6151
 7997SOL     OW35626   4.708   0.661  17.300 -0.0943 -0.2352  0.2389
 7997SOL    HW135627   4.699   0.651  17.395  0.5129 -2.1161  0.0789
 7997SOL    HW235628   4.624   0.697  17.271  0.0637 -0.0141  0.0496
 7998SOL     OW35629   0.800   4.540   3.905  0.2641  0.1787  0.4141
 7998SOL    HW135630   0.724   4.536   3.963 -0.8630  2.6209 -0.8935
 7998SOL    HW235631   0.842   4.454   3.906  0.4330  0.2662  0.8751
 7999SOL     OW35632   1.854   3.182   7.313 -0.3870 -0.5132  0.2312
 7999SOL    HW135633   1.788   3.171   7.381  0.4128 -2.9878  0.6208
 7999SOL    HW235634   1.883   3.091   7.321  0.7689 -0.3984 -2.5304
 8000SOL     OW35635   3.283   0.015   0.665  0.2411 -0.5056 -0.5967
 8000SOL    HW135636   3.239   0.096   0.638  0.1181 -0.4791 -0.3270
 8000SOL    HW235637   3.373   0.044   0.654  0.0134  0.0611 -0.9474
 8001SOL     OW35638   3.886   1.483   4.396  0.1136  0.2627  0.1359
 8001SOL    HW135639   3.828   1.480   4.319  0.0902  3.6707  0.0031
 8001SOL    HW235640   3.965   1.453   4.352  0.5749  2.3544 -0.4684
 8002SOL     OW35641   1.026   3.335  13.912 -0.0903  0.3001 -0.2104
 8002SOL    HW135642   0.968   3.270  13.871 -0.0359  0.9532 -1.3298
 8002SOL    HW235643   0.957   3.396  13.937 -0.2049  0.2134 -0.3098
 8003SOL     OW35644   4.728   1.590   6.262 -0.1592  0.2842  0.0985
 8003SOL    HW135645   4.730   1.662   6.325 -0.0560  0.0096  0.4102
 8003SOL    HW235646   4.718   1.641   6.181  2.5403 -3.0057 -2.3097
 8004SOL     OW35647   0.394   2.444   2.020  0.6571 -0.4605  0.5874
 8004SOL    HW135648   0.427   2.529   2.048  1.3729 -1.3994  2.5454
 8004SOL    HW235649   0.328   2.415   2.082  0.7479 -2.6987 -0.3474
 8005SOL     OW35650   4.099   2.355   8.162 -0.4516  0.5503  0.5043
 8005SOL    HW135651   4.179   2.408   8.157  0.2263 -0.5227 -0.2451
 8005SOL    HW235652   4.127   2.272   8.124  0.7226  0.6098  1.2321
 8006SOL     OW35653   1.508   3.632   9.237 -0.0541  0.1558  0.2327
 8006SOL    HW135654   1.520   3.721   9.204  0.4898 -0.1069 -0.2768
 8006SOL    HW235655   1.538   3.629   9.328 -1.0175 -2.6576  0.4662
 8007SOL     OW35656   3.283   1.855   1.624  0.1431 -0.4254  0.1907
 8007SOL    HW135657   3.370   1.880   1.593 -0.7104  0.3567 -1.5744
 8007SOL    HW235658   3.259   1.796   1.553 -1.5031 -0.3595  0.6767
 8008SOL     OW35659   2.535   1.983   3.206  0.0248 -0.1054  0.2205
 8008SOL    HW135660   2.440   1.991   3.217  0.0342  1.1416 -0.5835
 8008SOL    HW235661   2.574   2.055   3.256  0.7215 -0.9134  0.8241
 8009SOL     OW35662   1.775   2.344   4.793 -0.2356 -0.7157  0.5604
 8009SOL    HW135663   1.750   2.323   4.883  0.2398  0.2128  0.9121
 8009SOL    HW235664   1.826   2.264   4.775  0.0416 -0.4920  0.3416
 8010SOL     OW35665   2.122   0.443   7.802  0.2752 -0.1510 -0.8949
 8010SOL    HW135666   2.115   0.363   7.854  1.9685 -0.8666 -1.7599
 8010SOL    HW235667   2.193   0.427   7.740  0.4739 -0.1306 -0.6734
 8011SOL     OW35668   1.621   2.380   7.007 -0.2741 -0.0048 -0.2895
 8011SOL    HW135669   1.692   2.316   7.007  0.9293  1.3083  1.4358
 8011SOL    HW235670   1.665   2.444   6.950 -0.4800 -0.3011 -0.7826
 8012SOL     OW35671   1.910   1.444   8.809 -0.0592  0.0134  0.0399
 8012SOL    HW135672   1.828   1.484   8.780  0.5136 -0.7366 -2.5978
 8012SOL    HW235673   1.883   1.361   8.847 -2.2813  0.9824  0.6173
 8013SOL     OW35674   1.136   0.971  16.568  0.2906  0.2957  0.0060
 8013SOL    HW135675   1.108   0.887  16.532  0.6998 -0.0515  0.5016
 8013SOL    HW235676   1.183   0.947  16.648 -1.3729 -2.2350  0.2155
 8014SOL     OW35677   1.153   1.114   2.827 -0.0049 -0.1277  0.9267
 8014SOL    HW135678   1.120   1.200   2.851  0.2223  0.5386 -1.1633
 8014SOL    HW235679   1.126   1.099   2.736 -1.2021  0.3026  1.2184
 8015SOL     OW35680   1.776   3.366   3.404 -0.4743 -0.4102  0.4896
 8015SOL    HW135681   1.691   3.349   3.444 -0.5259 -1.8376 -0.2181
 8015SOL    HW235682   1.756   3.453   3.369 -0.9603 -0.5503  0.4145
 8016SOL     OW35683   0.740   3.029   0.516  0.0463  0.2657  0.5658
 8016SOL    HW135684   0.684   3.105   0.499  1.0337  0.2861 -2.6252
 8016SOL    HW235685   0.736   3.034   0.611 -1.9169 -3.6066  0.6743
 8017SOL     OW35686   2.156   3.476   0.508 -0.2737  0.2911 -0.1464
 8017SOL    HW135687   2.116   3.404   0.556  0.3233  0.2913  0.3452
 8017SOL    HW235688   2.185   3.545   0.568 -0.4360 -0.4177  0.7524
 8018SOL     OW35689   3.914   2.460  14.666  0.0067 -0.6452 -0.0696
 8018SOL    HW135690   3.899   2.463  14.760 -1.0408  0.6608 -0.2811
 8018SOL    HW235691   3.909   2.365  14.664  1.2481 -0.7482  2.6497
 8019SOL     OW35692   4.241   2.943  14.856  0.2287 -0.5294  0.0719
 8019SOL    HW135693   4.196   2.901  14.783  1.1910  0.8579 -1.3274
 8019SOL    HW235694   4.183   2.926  14.930  1.6366 -1.6923  0.9194
 8020SOL     OW35695   0.243   0.032   3.566 -0.1038 -0.3196 -0.0065
 8020SOL    HW135696   0.308   0.058   3.501 -0.1902  0.4484  0.2224
 8020SOL    HW235697   0.216   0.116   3.602  1.6419  0.0752  0.3841
 8021SOL     OW35698   2.812   0.629   4.058 -0.1230  0.0454 -0.1081
 8021SOL    HW135699   2.849   0.558   4.004  0.1975 -0.1574  0.3786
 8021SOL    HW235700   2.762   0.665   3.985  0.4338  0.7870 -0.1202
 8022SOL     OW35701   2.423   4.621   6.183 -0.5919 -0.6678 -0.5615
 8022SOL    HW135702   2.489   4.673   6.229  2.0266 -2.0830 -2.7347
 8022SOL    HW235703   2.387   4.690   6.128  1.5461  1.5571  0.8197
 8023SOL     OW35704   0.235   2.685  11.912 -0.3083  0.0599  0.2902
 8023SOL    HW135705   0.153   2.714  11.873  0.1982  0.4652 -0.4667
 8023SOL    HW235706   0.279   2.769  11.909 -1.1944  0.4601 -1.1320
 8024SOL     OW35707   0.062   2.249   9.343 -0.2450 -0.5392 -0.1478
 8024SOL    HW135708   0.002   2.176   9.327  1.5061 -1.4865 -2.3438
 8024SOL    HW235709   0.143   2.205   9.319  0.5045  2.1147 -2.5584
 8025SOL     OW35710   2.950   0.896   4.130 -0.1206 -0.1872  0.4813
 8025SOL    HW135711   2.876   0.838   4.146 -0.2622 -0.3158 -0.6812
 8025SOL    HW235712   3.029   0.843   4.138 -0.3063 -0.7097 -1.2338
 8026SOL     OW35713   0.896   0.185   8.527  0.1655  0.2842 -0.0613
 8026SOL    HW135714   0.841   0.232   8.465  0.4926  0.5736 -0.1347
 8026SOL    HW235715   0.852   0.101   8.513 -2.1167  1.4590  0.0151
 8027SOL     OW35716   1.797   2.345   3.350  0.4837 -0.6288  0.1702
 8027SOL    HW135717   1.892   2.345   3.362  0.6403 -0.2678 -1.0380
 8027SOL    HW235718   1.796   2.391   3.266 -0.9816 -1.1787 -0.1012
 8028SOL     OW35719   1.995   3.405   6.170 -0.4018 -0.2146 -0.4240
 8028SOL    HW135720   2.091   3.407   6.163 -0.4459 -1.1520 -1.3572
 8028SOL    HW235721   1.994   3.437   6.260  1.4819  0.8578 -0.7878
 8029SOL     OW35722   2.241   1.008   1.919  0.4336 -0.2007  0.3645
 8029SOL    HW135723   2.300   0.938   1.890  3.4118  1.8538  1.5062
 8029SOL    HW235724   2.238   1.049   1.832  0.7790  1.0123  0.9307
 8030SOL     OW35725   3.077   0.725   6.014  0.5534 -0.6492  0.4003
 8030SOL    HW135726   3.149   0.663   6.003  0.2244 -0.5404 -2.2111
 8030SOL    HW235727   3.114   0.782   6.082  0.3206  1.4198 -1.2108
 8031SOL     OW35728   0.120   0.085   4.544 -0.4960 -0.0879  0.5603
 8031SOL    HW135729   0.089   0.031   4.617 -0.9552 -0.9846 -0.2879
 8031SOL    HW235730   0.170   0.023   4.491  1.1071  0.5822  1.2985
 8032SOL     OW35731   4.550   0.707   9.664  0.1287  0.1943  0.5549
 8032SOL    HW135732   4.534   0.765   9.590 -2.8076 -1.1432  0.1577
 8032SOL    HW235733   4.621   0.655   9.628 -0.3720 -0.1954  0.1408
 8033SOL     OW35734   0.139   4.198   6.785 -0.2000 -0.7204 -0.2900
 8033SOL    HW135735   0.091   4.253   6.724 -1.5696 -0.2253  1.2368
 8033SOL    HW235736   0.100   4.210   6.871 -0.3138 -1.5277 -0.2227
 8034SOL     OW35737   2.279   4.373   6.557  0.6164  0.3979  0.1156
 8034SOL    HW135738   2.250   4.305   6.497  0.5245  0.6339 -0.1069
 8034SOL    HW235739   2.279   4.332   6.644  2.5706 -0.7870 -0.4509
 8035SOL     OW35740   0.378   4.418   3.130 -0.3198  0.0563  0.0157
 8035SOL    HW135741   0.327   4.344   3.162 -0.9153  0.4441 -0.0362
 8035SOL    HW235742   0.446   4.370   3.082  0.3143  1.2157 -0.2514
 8036SOL     OW35743   4.644   3.746  14.773 -0.0349 -0.1125  0.6042
 8036SOL    HW135744   4.594   3.665  14.760 -0.9686  0.5106  0.3122
 8036SOL    HW235745   4.735   3.718  14.785 -0.1688 -0.8171 -0.0224
 8037SOL     OW35746   1.757   4.360   3.077  0.4841  0.4026  0.7402
 8037SOL    HW135747   1.797   4.440   3.044 -0.3114  0.3264 -0.3981
 8037SOL    HW235748   1.832   4.308   3.105 -1.4055 -2.3737  0.6033
 8038SOL     OW35749   2.813   3.936   2.811 -0.2499  0.3708 -0.0001
 8038SOL    HW135750   2.758   3.874   2.859  0.2527  0.3439  0.5280
 8038SOL    HW235751   2.826   3.997   2.883 -0.0227 -0.2709  0.5078
 8039SOL     OW35752   0.234   0.177   2.539 -1.0024  0.0392  0.1390
 8039SOL    HW135753   0.153   0.207   2.499 -0.3430  0.6356 -0.7615
 8039SOL    HW235754   0.288   0.254   2.520 -0.8073 -0.0005  0.5251
 8040SOL     OW35755   2.700   0.068   7.052 -0.2689 -0.3502  0.6343
 8040SOL    HW135756   2.742   0.009   6.990  0.1064  0.5629  0.0250
 8040SOL    HW235757   2.755   0.146   7.050  1.8490 -1.8889 -0.6364
 8041SOL     OW35758   1.417   2.288   5.968 -0.6376  0.0883 -0.7045
 8041SOL    HW135759   1.336   2.307   6.015 -0.7860 -0.7720 -0.6181
 8041SOL    HW235760   1.396   2.325   5.882 -1.9110 -1.2568 -0.9636
 8042SOL     OW35761   0.921   2.873   3.283  0.1736 -0.2988 -0.1548
 8042SOL    HW135762   0.969   2.791   3.273  2.0248  0.7719 -0.0019
 8042SOL    HW235763   0.967   2.943   3.236 -1.2161  1.5702  1.2928
 8043SOL     OW35764   3.741   4.319   0.269 -0.3913  0.1459 -0.3525
 8043SOL    HW135765   3.762   4.230   0.299 -0.7464  0.6011  1.2425
 8043SOL    HW235766   3.767   4.307   0.178 -1.0032  1.7686 -0.7276
 8044SOL     OW35767   1.863   0.895   6.088 -0.3987 -0.3836 -0.3959
 8044SOL    HW135768   1.823   0.951   6.155 -2.0775 -0.8449 -1.0370
 8044SOL    HW235769   1.948   0.877   6.130 -0.5065 -1.6133 -0.7318
 8045SOL     OW35770   0.556   0.693   6.139 -0.5287 -0.4966 -0.6969
 8045SOL    HW135771   0.511   0.768   6.177 -0.2017 -0.6055 -0.0973
 8045SOL    HW235772   0.533   0.704   6.047 -0.6413  0.0212 -0.6070
 8046SOL     OW35773   0.874   0.430  16.682 -0.0217 -0.3330 -0.7138
 8046SOL    HW135774   0.969   0.433  16.692 -0.3208 -0.6259  2.2117
 8046SOL    HW235775   0.861   0.346  16.726  0.6053  0.2379  0.5530
 8047SOL     OW35776   2.557   1.111  16.513  0.0865 -0.2465 -0.1803
 8047SOL    HW135777   2.497   1.042  16.542  0.1349 -1.0519 -1.9620
 8047SOL    HW235778   2.551   1.168  16.590 -0.8457 -0.5252 -0.0383
 8048SOL     OW35779   3.659   3.252   2.426  0.4884 -0.0666  0.2663
 8048SOL    HW135780   3.622   3.164   2.415 -0.2348  0.3422 -0.6172
 8048SOL    HW235781   3.683   3.280   2.338 -0.3021 -0.6365 -0.1389
 8049SOL     OW35782   1.080   4.413   1.614 -0.3917 -0.3247 -0.4594
 8049SOL    HW135783   1.097   4.400   1.707  2.5122 -5.6435 -1.6863
 8049SOL    HW235784   1.156   4.367   1.577  1.0956  1.3241  0.5174
 8050SOL     OW35785   1.823   3.389   9.232 -0.2847 -0.0401  0.0240
 8050SOL    HW135786   1.904   3.441   9.228  1.9104 -3.3825  0.9626
 8050SOL    HW235787   1.808   3.375   9.139 -0.4614  0.6922 -0.0550
 8051SOL     OW35788   2.698   2.980  14.110  0.0775  0.4188  0.0016
 8051SOL    HW135789   2.647   2.931  14.174  0.7307  1.0765  1.0216
 8051SOL    HW235790   2.746   3.038  14.169 -0.4817  0.2278  0.6402
 8052SOL     OW35791   3.395   1.452   7.159  0.0874 -0.0975  0.0236
 8052SOL    HW135792   3.376   1.358   7.152  1.2238 -0.3088 -0.1676
 8052SOL    HW235793   3.455   1.458   7.233 -0.0736  2.5564 -0.0576
 8053SOL     OW35794   2.342   0.362   6.374  0.4715 -0.3892 -0.4843
 8053SOL    HW135795   2.248   0.359   6.391  0.7596  0.5908  1.3273
 8053SOL    HW235796   2.348   0.455   6.356 -1.1823 -0.0510  0.7108
 8054SOL     OW35797   1.017   2.618   3.254 -0.9176 -0.0045  0.6290
 8054SOL    HW135798   1.084   2.553   3.233  0.5828  2.4225 -1.9961
 8054SOL    HW235799   0.963   2.569   3.316 -0.8678 -1.1924 -0.2729
 8055SOL     OW35800   3.759   0.972   8.667 -0.1314 -0.5292 -0.1601
 8055SOL    HW135801   3.744   1.066   8.665 -2.5785 -0.8950  1.3819
 8055SOL    HW235802   3.819   0.970   8.593 -1.4508  0.8827 -1.2716
 8056SOL     OW35803   3.189   4.103   7.273  0.0160 -0.0882 -0.2743
 8056SOL    HW135804   3.200   4.173   7.337 -0.8828 -0.0751 -0.1419
 8056SOL    HW235805   3.185   4.034   7.339  2.1304  0.9167  0.9229
 8057SOL     OW35806   4.095   1.982   8.965  0.1380  0.2759  0.6776
 8057SOL    HW135807   4.076   1.994   8.872 -0.7759  1.6582  1.0494
 8057SOL    HW235808   4.094   1.887   8.972 -0.0593  0.3615  1.7413
 8058SOL     OW35809   2.687   4.477   7.721 -0.2837 -0.0509  0.4238
 8058SOL    HW135810   2.719   4.397   7.679  0.3442 -0.4989  1.7573
 8058SOL    HW235811   2.592   4.468   7.712 -0.2017 -0.7741  0.2682
 8059SOL     OW35812   3.250   3.654   6.428 -0.4330  0.1383  0.1810
 8059SOL    HW135813   3.198   3.602   6.367  0.2058  0.7348 -0.8725
 8059SOL    HW235814   3.187   3.702   6.482 -1.1142 -1.5133  0.8526
 8060SOL     OW35815   2.407   2.898   6.486 -0.1257  0.5738  0.0160
 8060SOL    HW135816   2.385   2.980   6.531  1.8427  1.6881 -1.0304
 8060SOL    HW235817   2.461   2.937   6.417  1.0799 -2.0302 -0.5401
 8061SOL     OW35818   1.660   0.713  14.348  0.0583  0.1163  0.0368
 8061SOL    HW135819   1.747   0.673  14.356 -0.0364 -0.1891 -0.4661
 8061SOL    HW235820   1.687   0.802  14.371  0.7145  0.8141 -3.4614
 8062SOL     OW35821   2.376   2.437   5.895  0.5293  0.4007  0.5280
 8062SOL    HW135822   2.398   2.517   5.943  0.6465  0.3012  0.6374
 8062SOL    HW235823   2.389   2.474   5.808  0.3195 -0.8627 -0.0297
 8063SOL     OW35824   4.242   2.934   3.064 -0.0152 -0.0354  0.0091
 8063SOL    HW135825   4.277   2.957   3.150 -0.4470  0.7711 -0.0286
 8063SOL    HW235826   4.307   2.988   3.018  0.8069 -1.6053 -0.6898
 8064SOL     OW35827   3.279   0.791   9.654 -0.0209 -0.2105 -0.6239
 8064SOL    HW135828   3.362   0.839   9.656 -0.2557  0.1498  0.2177
 8064SOL    HW235829   3.233   0.843   9.588 -2.9666 -0.0765  1.5489
 8065SOL     OW35830   0.498   0.762   3.420 -0.0029  0.2430 -0.5653
 8065SOL    HW135831   0.549   0.716   3.487 -1.2936 -2.4419 -1.4153
 8065SOL    HW235832   0.420   0.788   3.468  0.1466  1.9950 -1.2836
 8066SOL     OW35833   2.114   1.423   3.811  0.3725 -0.0326  0.9899
 8066SOL    HW135834   2.191   1.479   3.812 -0.4050  1.0767 -1.6334
 8066SOL    HW235835   2.044   1.488   3.801  0.5754  0.0306  0.0641
 8067SOL     OW35836   0.369   2.056   2.518  0.1712 -0.4436 -0.0089
 8067SOL    HW135837   0.293   2.005   2.544  0.7281 -1.9927 -1.4475
 8067SOL    HW235838   0.340   2.147   2.509 -1.3620 -1.0723 -1.2454
 8068SOL     OW35839   2.732   3.826   0.991 -0.1115  0.4951  0.3464
 8068SOL    HW135840   2.747   3.769   0.915  0.0538 -0.0555  0.7975
 8068SOL    HW235841   2.753   3.910   0.950  1.2054  0.1151  0.2241
 8069SOL     OW35842   2.002   3.742   0.677 -0.1218 -0.4339 -0.4820
 8069SOL    HW135843   2.063   3.694   0.733  2.4236  1.9323 -1.2408
 8069SOL    HW235844   2.055   3.813   0.639  0.2952 -0.9188 -0.8128
 8070SOL     OW35845   4.032   1.186  15.097 -0.1471  0.1559 -0.6297
 8070SOL    HW135846   4.000   1.113  15.043  0.9783 -0.8021 -0.0064
 8070SOL    HW235847   4.020   1.261  15.040 -1.9191 -0.0876 -0.5923
 8071SOL     OW35848   4.119   3.670   4.155  0.1208  0.7076 -0.1766
 8071SOL    HW135849   4.048   3.641   4.099 -0.7980  1.0497  0.8084
 8071SOL    HW235850   4.191   3.668   4.092 -1.9753  2.4576 -2.6271
 8072SOL     OW35851   0.283   2.723  13.498 -0.1758  0.3295 -0.0835
 8072SOL    HW135852   0.259   2.634  13.521 -0.5308 -0.0162 -1.7831
 8072SOL    HW235853   0.345   2.708  13.426  1.0661 -0.2212  1.1101
 8073SOL     OW35854   3.230   0.566   8.094  0.0719  0.1879 -0.1813
 8073SOL    HW135855   3.213   0.659   8.108 -0.4761 -0.0790  0.9230
 8073SOL    HW235856   3.242   0.550   8.001  1.6617 -2.4323  0.4673
 8074SOL     OW35857   2.186   1.645   1.216  0.4838  0.2071  0.4736
 8074SOL    HW135858   2.106   1.693   1.194  1.2866  0.8605 -0.9229
 8074SOL    HW235859   2.227   1.626   1.132 -0.2184 -3.0662  0.8412
 8075SOL     OW35860   4.062   3.265   7.400 -0.4528  0.1408 -0.0429
 8075SOL    HW135861   4.102   3.317   7.470 -0.6538 -0.2729  0.3798
 8075SOL    HW235862   4.131   3.259   7.334  0.2848  2.1535  0.5545
 8076SOL     OW35863   4.088   1.411   2.452 -0.2590 -0.1489  0.1145
 8076SOL    HW135864   4.017   1.468   2.480 -1.2292 -1.0321 -0.5665
 8076SOL    HW235865   4.057   1.347   2.388 -0.4834  0.8282 -0.7497
 8077SOL     OW35866   3.757   2.990   7.869  0.7359 -0.4370  0.3152
 8077SOL    HW135867   3.769   3.037   7.952 -3.1354 -0.0742  0.6714
 8077SOL    HW235868   3.804   3.040   7.803 -5.0605  3.7405 -0.6891
 8078SOL     OW35869   2.512   0.827   1.417 -0.1659  0.2039  0.1330
 8078SOL    HW135870   2.497   0.764   1.487 -0.5717  0.1899  0.0297
 8078SOL    HW235871   2.575   0.788   1.356  0.0949  1.5510 -0.4641
 8079SOL     OW35872   0.877   2.447   6.808 -0.0986 -0.3064 -0.8579
 8079SOL    HW135873   0.962   2.439   6.851  0.5803 -0.5483 -2.2475
 8079SOL    HW235874   0.818   2.456   6.883 -0.8926  2.4597 -1.8178
 8080SOL     OW35875   1.747   4.381   4.763 -0.1533  0.0206  0.0643
 8080SOL    HW135876   1.805   4.376   4.687 -1.3266 -2.0242 -0.6864
 8080SOL    HW235877   1.660   4.358   4.731 -1.0783  2.6149  0.7461
 8081SOL     OW35878   3.162   1.070  10.161  0.1974  0.1493 -0.0825
 8081SOL    HW135879   3.111   1.133  10.212 -0.6144 -0.6072  0.0427
 8081SOL    HW235880   3.249   1.109  10.164  0.4958 -0.3806 -2.3428
 8082SOL     OW35881   3.780   4.668   2.060 -0.7234 -0.1657  0.2811
 8082SOL    HW135882   3.718   4.723   2.109 -0.6496  0.8534 -0.7617
 8082SOL    HW235883   3.862   4.715   2.069 -1.1376  0.7724 -0.7993
 8083SOL     OW35884   2.816   0.550   6.106  0.0537 -0.3486  0.0004
 8083SOL    HW135885   2.797   0.511   6.020 -0.6970  0.8032 -0.3566
 8083SOL    HW235886   2.772   0.635   6.100  0.0515 -0.3612 -0.1802
 8084SOL     OW35887   0.159   3.213  14.790  0.1449  0.0226 -0.0930
 8084SOL    HW135888   0.127   3.143  14.733 -0.0843 -0.8351  1.1159
 8084SOL    HW235889   0.075   3.238  14.828  1.0923  1.0393  1.3050
 8085SOL     OW35890   4.278   4.343   3.939  0.0624  0.3420 -0.2740
 8085SOL    HW135891   4.199   4.382   3.900  0.8612  2.1271 -0.1193
 8085SOL    HW235892   4.257   4.363   4.030 -0.3363  3.9916 -1.1456
 8086SOL     OW35893   0.840   2.794  14.731  0.9448 -0.3288  0.1506
 8086SOL    HW135894   0.897   2.775  14.657  0.9761 -1.0271  0.3605
 8086SOL    HW235895   0.778   2.722  14.719  1.5175 -0.6547 -0.8486
 8087SOL     OW35896   1.146   4.735   5.922 -0.1494  0.3220  0.0919
 8087SOL    HW135897   1.059   0.012   5.885  0.8786  0.1893 -2.3875
 8087SOL    HW235898   1.191   4.701   5.844 -2.7768 -3.3089  0.1258
 8088SOL     OW35899   1.102   0.534   4.031 -0.2212 -0.1044  0.0805
 8088SOL    HW135900   1.176   0.559   3.976 -0.5369  0.9485  0.1268
 8088SOL    HW235901   1.032   0.599   4.022  0.3642  0.7915  1.9988
 8089SOL     OW35902   3.334   3.287   6.793  0.1944 -0.4822  0.1519
 8089SOL    HW135903   3.278   3.321   6.863  2.8749  0.6615  1.7426
 8089SOL    HW235904   3.360   3.363   6.742 -1.4384 -0.3033 -0.4224
 8090SOL     OW35905   2.914   1.945   2.072 -0.2324 -0.6181  0.2000
 8090SOL    HW135906   2.824   1.944   2.105  0.2355 -1.5734  1.4663
 8090SOL    HW235907   2.899   1.943   1.978  0.5453 -2.9275  0.1201
 8091SOL     OW35908   3.895   0.273   5.660  0.4253 -0.1719 -0.1226
 8091SOL    HW135909   3.952   0.270   5.737  1.0959  0.2681 -0.6075
 8091SOL    HW235910   3.964   0.306   5.603  0.4824 -0.9171 -0.4807
 8092SOL     OW35911   1.063   4.591  12.189  0.4373  0.0221  0.0642
 8092SOL    HW135912   0.983   4.572  12.140 -0.2122  0.3306  0.9908
 8092SOL    HW235913   1.127   4.602  12.120  1.6371  2.9808  1.6341
 8093SOL     OW35914   3.477   0.242   5.077  0.2159  0.2959  0.0761
 8093SOL    HW135915   3.518   0.193   5.149  1.8929  0.5288 -0.7280
 8093SOL    HW235916   3.502   0.179   5.009  0.6014  1.7301 -1.1205
 8094SOL     OW35917   4.571   3.044   1.810  0.0550 -0.3145  0.4661
 8094SOL    HW135918   4.651   3.090   1.785 -0.6576 -0.2144 -1.6097
 8094SOL    HW235919   4.531   3.108   1.869 -0.6559  0.7365 -1.1523
 8095SOL     OW35920   1.337   1.411   3.808 -0.7675 -0.6308 -0.5373
 8095SOL    HW135921   1.318   1.365   3.889 -1.5672 -0.0015 -0.3656
 8095SOL    HW235922   1.403   1.357   3.765  1.4110  1.9277 -0.4304
 8096SOL     OW35923   2.241   3.380   2.975  1.1348  0.0608 -0.0358
 8096SOL    HW135924   2.176   3.444   3.002  1.1441  0.1119 -0.1330
 8096SOL    HW235925   2.217   3.365   2.883 -0.2136  1.8129  0.0240
 8097SOL     OW35926   3.100   0.982   5.811  0.8866  0.2340 -0.9013
 8097SOL    HW135927   3.078   0.892   5.787 -0.7428  0.7121 -1.1646
 8097SOL    HW235928   3.195   0.983   5.795  1.1658  1.2267  0.7925
 8098SOL     OW35929   4.354   3.917   3.075 -0.1188 -0.1308 -0.0945
 8098SOL    HW135930   4.354   3.842   3.135 -0.0082 -0.6313 -0.7321
 8098SOL    HW235931   4.418   3.976   3.114 -1.8033  1.6611 -0.0022
 8099SOL     OW35932   1.089   0.535   6.254 -0.0776  0.1576 -0.3222
 8099SOL    HW135933   1.108   0.476   6.326  3.1219  1.9710  0.3229
 8099SOL    HW235934   1.020   0.588   6.293 -1.4265 -0.5352 -1.7611
 8100SOL     OW35935   0.776   3.496   8.902  0.4190 -0.2101 -0.6088
 8100SOL    HW135936   0.777   3.560   8.831 -0.4794 -0.7353 -1.0945
 8100SOL    HW235937   0.766   3.409   8.863  0.9916  0.7112 -2.8170
 8101SOL     OW35938   0.713   3.393   1.123  0.2699 -0.5068  0.1513
 8101SOL    HW135939   0.733   3.431   1.038 -0.2276  0.8556  0.6460
 8101SOL    HW235940   0.783   3.328   1.135  0.8181 -0.0869 -0.8202
 8102SOL     OW35941   1.333   3.555  16.024 -0.4792 -0.1363 -0.0660
 8102SOL    HW135942   1.254   3.563  16.076  0.3181 -2.1873  1.4636
 8102SOL    HW235943   1.350   3.648  16.009  1.1568 -0.3228  0.6088
 8103SOL     OW35944   1.794   2.882  10.901  0.0977  0.4856  0.3901
 8103SOL    HW135945   1.792   2.817  10.971 -1.5757 -2.0082 -1.9684
 8103SOL    HW235946   1.722   2.939  10.929 -2.0383 -2.1962  0.4488
 8104SOL     OW35947   0.297   0.272   8.451  0.0953  0.5576  0.0320
 8104SOL    HW135948   0.370   0.315   8.405  0.4042 -0.1578 -0.1475
 8104SOL    HW235949   0.335   0.201   8.502 -1.3156  1.2998  2.0780
 8105SOL     OW35950   0.565   3.737   8.710  0.0653 -1.1712  0.0352
 8105SOL    HW135951   0.535   3.822   8.678 -1.2084 -1.4839  0.4062
 8105SOL    HW235952   0.479   3.698   8.722 -0.5974  1.0078  2.5182
 8106SOL     OW35953   3.494   0.005   3.194 -0.2374 -0.2448 -0.0436
 8106SOL    HW135954   3.482   0.017   3.099  1.1419 -0.7031 -0.2727
 8106SOL    HW235955   3.519   0.096   3.209 -0.1964 -0.3027  0.2348
 8107SOL     OW35956   2.267   3.767   8.114  0.1196  0.7933  0.5837
 8107SOL    HW135957   2.255   3.854   8.151  1.6810  1.3433 -0.2112
 8107SOL    HW235958   2.186   3.717   8.124  0.4897  0.4308  1.7237
 8108SOL     OW35959   1.858   3.246  12.733  0.2695 -0.6134 -0.2197
 8108SOL    HW135960   1.952   3.251  12.751  0.2925  1.1555 -0.7732
 8108SOL    HW235961   1.856   3.172  12.673 -2.3571  0.0412 -0.9513
 8109SOL     OW35962   1.817   3.001   2.101  0.5183 -0.0843 -0.0316
 8109SOL    HW135963   1.795   2.919   2.056 -0.8952  0.5031 -0.4115
 8109SOL    HW235964   1.879   2.974   2.169  0.1854 -0.7722 -0.0027
 8110SOL     OW35965   1.442   3.664  14.511  0.3292  0.2641 -0.4257
 8110SOL    HW135966   1.412   3.587  14.462 -0.6919  0.1669  0.3562
 8110SOL    HW235967   1.531   3.633  14.525  0.2152 -0.7449 -1.9299
 8111SOL     OW35968   2.585   1.353   3.267 -0.0012  0.0521 -0.0288
 8111SOL    HW135969   2.498   1.383   3.240  0.0545 -1.1263 -1.5413
 8111SOL    HW235970   2.585   1.266   3.228 -1.0984 -1.0774  2.4755
 8112SOL     OW35971   4.056   2.444   7.098 -0.2909 -0.0686 -0.1691
 8112SOL    HW135972   4.003   2.509   7.052 -0.1623 -0.9439 -1.5560
 8112SOL    HW235973   3.995   2.410   7.163  0.0560  0.3071  0.3553
 8113SOL     OW35974   2.471   2.512   7.424 -0.2421  0.2464  0.7778
 8113SOL    HW135975   2.465   2.430   7.374  0.2422 -0.8820  2.5475
 8113SOL    HW235976   2.508   2.491   7.510 -2.3522 -1.0846  1.3672
 8114SOL     OW35977   0.647   0.943   9.078 -0.0324 -0.5117 -0.2555
 8114SOL    HW135978   0.650   0.947   8.983 -0.6940  2.3451 -0.1497
 8114SOL    HW235979   0.616   0.856   9.106 -0.5372 -0.7480 -1.5947
 8115SOL     OW35980   2.027   1.829   3.007  0.3949  0.4456 -0.0568
 8115SOL    HW135981   2.105   1.791   2.966 -0.2671  1.3225 -2.1529
 8115SOL    HW235982   2.020   1.901   2.944 -0.1532  0.9750  0.6069
 8116SOL     OW35983   2.717   1.613   3.068 -0.0831 -0.3261 -0.0501
 8116SOL    HW135984   2.696   1.550   3.138  0.0302 -0.6660 -0.3247
 8116SOL    HW235985   2.785   1.656   3.120 -2.6094  2.6891  0.7885
 8117SOL     OW35986   2.671   3.254   0.861  0.3289  0.1789 -0.1252
 8117SOL    HW135987   2.610   3.279   0.791  0.0754 -1.4421 -0.4823
 8117SOL    HW235988   2.635   3.170   0.888 -0.8461  1.1339  1.2964
 8118SOL     OW35989   2.072   3.740  12.547 -0.0245  0.1331 -0.0356
 8118SOL    HW135990   2.149   3.704  12.503 -1.3943 -2.1079 -0.6425
 8118SOL    HW235991   2.091   3.728  12.640  0.8312 -1.8857 -0.4683
 8119SOL     OW35992   3.807   0.225   2.533 -0.2640 -0.4411  0.2314
 8119SOL    HW135993   3.852   0.208   2.450  0.4109  0.8522  0.3321
 8119SOL    HW235994   3.846   0.310   2.557  2.2328 -1.0853 -1.4792
 8120SOL     OW35995   4.655   3.988   3.889 -0.0803 -0.3278 -0.2964
 8120SOL    HW135996   4.723   3.979   3.822  0.9601 -0.1774  0.7580
 8120SOL    HW235997   4.624   4.072   3.856 -0.1039  0.3761  1.5553
 8121SOL     OW35998   0.404   0.116  12.930  0.6694  0.5161 -0.0048
 8121SOL    HW135999   0.319   0.080  12.956  0.5661  1.2424  0.6649
 8121SOL    HW236000   0.384   0.148  12.842  0.0984  1.0536  0.3154
 8122SOL     OW36001   2.596   1.065  15.333  0.3094  0.6253 -0.0888
 8122SOL    HW136002   2.646   1.102  15.261  1.5905  1.6975  1.3434
 8122SOL    HW236003   2.526   1.021  15.285 -0.0363 -0.2278  1.1784
 8123SOL     OW36004   3.553   3.152   9.551 -0.1425 -0.0893  0.5697
 8123SOL    HW136005   3.472   3.137   9.600 -1.2107  1.7742 -0.6550
 8123SOL    HW236006   3.598   3.204   9.618 -0.1734  1.1775 -0.4115
 8124SOL     OW36007   4.285   2.328  17.457 -0.2899 -0.1735 -0.1546
 8124SOL    HW136008   4.258   2.271  17.530 -2.0118  0.0901 -0.5766
 8124SOL    HW236009   4.373   2.349  17.489 -1.1909  1.2725  1.4035
 8125SOL     OW36010   4.261   4.006  13.372 -0.1508 -0.6572  0.4373
 8125SOL    HW136011   4.296   4.018  13.284 -1.0747  1.9508  0.4513
 8125SOL    HW236012   4.280   3.913  13.388 -1.6908 -0.8709  1.0216
 8126SOL     OW36013   3.338   2.191  12.743  0.0836 -0.0552 -0.1458
 8126SOL    HW136014   3.407   2.125  12.750 -0.4419 -0.6661 -0.7065
 8126SOL    HW236015   3.261   2.177  12.798 -2.1101  1.2964 -2.8754
 8127SOL     OW36016   3.423   0.222   8.944 -0.1604  0.0546  0.4535
 8127SOL    HW136017   3.410   0.313   8.968  1.2531  0.8531 -1.8253
 8127SOL    HW236018   3.517   0.216   8.956 -0.0028  2.6250  0.3314
 8128SOL     OW36019   0.493   0.465  16.046  0.5983  0.5064  0.0948
 8128SOL    HW136020   0.420   0.405  16.062  0.9316  0.6312  2.0566
 8128SOL    HW236021   0.555   0.420  16.104  0.5641  0.2234 -0.0832
 8129SOL     OW36022   1.704   4.424   1.008 -0.0064 -0.1592 -0.4314
 8129SOL    HW136023   1.740   4.510   1.028  2.1725 -1.4199  1.0279
 8129SOL    HW236024   1.755   4.399   0.931  1.8644  0.4809  0.6160
 8130SOL     OW36025   0.470   3.354   8.037 -0.5040 -0.4792 -0.0231
 8130SOL    HW136026   0.425   3.308   8.108  1.8142 -0.2743  1.5617
 8130SOL    HW236027   0.560   3.337   8.063 -0.1197  0.0522 -1.0267
 8131SOL     OW36028   3.537   3.669   4.949 -0.7517  0.3277  0.1475
 8131SOL    HW136029   3.475   3.598   4.930  1.1289 -0.7129 -2.1828
 8131SOL    HW236030   3.548   3.647   5.041 -0.3210  3.9861  0.9566
 8132SOL     OW36031   2.475   3.912   4.599 -0.2221  0.2653  0.2760
 8132SOL    HW136032   2.489   3.832   4.548 -2.3739 -0.9392  1.5566
 8132SOL    HW236033   2.447   3.871   4.681 -0.0318 -1.8146 -0.6904
 8133SOL     OW36034   2.913   3.277   8.531  0.1780  0.5028  0.0814
 8133SOL    HW136035   2.865   3.250   8.453  1.9833  1.7803 -1.4779
 8133SOL    HW236036   2.896   3.201   8.587  0.3961 -0.4653 -1.1602
 8134SOL     OW36037   3.345   1.143  16.670 -0.5167  0.0035 -0.3182
 8134SOL    HW136038   3.375   1.081  16.604  0.7164  0.0507  0.1966
 8134SOL    HW236039   3.312   1.084  16.738 -0.8680  3.2462  2.3070
 8135SOL     OW36040   4.250   3.800   7.132 -0.2097 -0.0674 -0.3488
 8135SOL    HW136041   4.308   3.724   7.143  0.7099  0.8793  1.2079
 8135SOL    HW236042   4.195   3.762   7.062 -0.4948 -1.5262  0.6652
 8136SOL     OW36043   0.248   3.116   7.783  0.4063 -0.1350  0.5392
 8136SOL    HW136044   0.257   3.033   7.735  2.1458  1.5526 -2.0236
 8136SOL    HW236045   0.238   3.084   7.873  1.7704 -2.0299  0.0131
 8137SOL     OW36046   1.894   0.183   1.161 -0.2466 -0.6273  0.2162
 8137SOL    HW136047   1.854   0.177   1.248 -0.3553  0.8191  0.2747
 8137SOL    HW236048   1.974   0.132   1.165  0.8749  1.0147 -1.2995
 8138SOL     OW36049   4.369   1.942   3.428 -0.1664 -0.0018 -0.1851
 8138SOL    HW136050   4.350   2.034   3.448 -0.6772  0.1412 -1.3194
 8138SOL    HW236051   4.423   1.915   3.502 -1.0531  1.0825  0.8669
 8139SOL     OW36052   3.058   2.179   4.514  0.3286  0.2745 -0.1317
 8139SOL    HW136053   3.120   2.248   4.488  0.5392 -0.2211 -0.9263
 8139SOL    HW236054   2.981   2.233   4.533  0.0353 -0.4622  0.8125
 8140SOL     OW36055   2.540   4.530   1.447 -0.1208 -0.5611 -0.0684
 8140SOL    HW136056   2.531   4.467   1.518 -1.3460  0.0309  0.2906
 8140SOL    HW236057   2.460   4.516   1.397 -0.5566 -0.9947  0.7673
 8141SOL     OW36058   4.130   1.553  15.177  0.0863 -0.1988  0.0130
 8141SOL    HW136059   4.048   1.505  15.190 -0.3443  0.6835  0.5539
 8141SOL    HW236060   4.100   1.627  15.125 -1.5988 -1.5898 -1.0148
 8142SOL     OW36061   1.569   3.695   1.207 -0.6825 -0.0134  0.0387
 8142SOL    HW136062   1.475   3.702   1.189 -0.4342  0.1352 -1.2372
 8142SOL    HW236063   1.588   3.634   1.136  0.1430  0.7787 -0.4200
 8143SOL     OW36064   2.433   0.540   8.801 -0.6441 -0.3340 -0.3091
 8143SOL    HW136065   2.359   0.599   8.785  0.3464  0.2958 -2.5768
 8143SOL    HW236066   2.417   0.483   8.726 -1.7197  1.2348 -1.2861
 8144SOL     OW36067   0.823   0.313   5.656 -0.6411 -0.2614 -0.0337
 8144SOL    HW136068   0.886   0.245   5.631 -0.9241 -0.5818  0.1233
 8144SOL    HW236069   0.744   0.269   5.687  0.1235 -1.3586  0.3399
 8145SOL     OW36070   0.593   1.129  11.671 -0.0906 -0.0953  0.4208
 8145SOL    HW136071   0.586   1.049  11.619 -1.9007  0.4753 -0.2028
 8145SOL    HW236072   0.527   1.115  11.738 -0.0534  0.1751  0.5160
 8146SOL     OW36073   0.882   2.256   8.834  0.0416 -0.2094 -0.0092
 8146SOL    HW136074   0.896   2.210   8.917  2.4874  2.9226  1.2909
 8146SOL    HW236075   0.816   2.191   8.809  0.1928  0.1946 -1.4339
 8147SOL     OW36076   0.136   4.287   3.707  0.7177 -1.1962  0.3086
 8147SOL    HW136077   0.136   4.211   3.649 -2.2037  0.7834 -2.2690
 8147SOL    HW236078   0.122   4.355   3.642  0.0267  0.1378  1.8363
 8148SOL     OW36079   0.255   2.449   7.845 -0.2564 -0.2168  0.1180
 8148SOL    HW136080   0.338   2.427   7.889  0.0910 -1.1040 -0.9669
 8148SOL    HW236081   0.292   2.510   7.781  1.5266 -1.2472  0.1672
 8149SOL     OW36082   0.448   3.562   1.575  0.1653 -0.1393 -0.5597
 8149SOL    HW136083   0.443   3.656   1.560 -1.6683  0.1635  2.0561
 8149SOL    HW236084   0.369   3.538   1.527  1.5607 -0.9590 -2.4592
 8150SOL     OW36085   3.856   2.996   5.376  0.1178 -0.3128  0.5146
 8150SOL    HW136086   3.780   3.029   5.423 -0.1814 -2.0182  1.2577
 8150SOL    HW236087   3.843   2.901   5.375  0.3442 -0.3079 -3.0641
 8151SOL     OW36088   4.394   2.065   0.519  0.1456  0.5617  0.6052
 8151SOL    HW136089   4.415   1.990   0.464  4.0297  1.5513  0.7157
 8151SOL    HW236090   4.334   2.120   0.469 -0.6095 -1.1076 -0.3296
 8152SOL     OW36091   3.806   0.335   3.587  0.7737 -0.5449 -0.0073
 8152SOL    HW136092   3.713   0.322   3.607  0.7159 -1.4584 -0.8920
 8152SOL    HW236093   3.806   0.431   3.581  0.7402 -0.5841 -0.6891
 8153SOL     OW36094   1.615   0.354   0.677  0.2263 -0.1723 -0.3684
 8153SOL    HW136095   1.604   0.444   0.709  0.0482 -0.8663  1.5123
 8153SOL    HW236096   1.645   0.314   0.759 -0.6643  0.5583  0.3189
 8154SOL     OW36097   1.363   3.037   4.908 -0.1871 -0.5171  0.1418
 8154SOL    HW136098   1.375   2.971   4.976 -0.2970 -1.0157 -0.3171
 8154SOL    HW236099   1.351   3.122   4.951 -1.1751 -0.7086  0.2430
 8155SOL     OW36100   2.564   1.063   2.662  0.1677  0.1175 -0.7826
 8155SOL    HW136101   2.521   1.089   2.743  0.8948  0.4133 -0.4912
 8155SOL    HW236102   2.484   1.061   2.609  0.4511 -1.6768 -1.1340
 8156SOL     OW36103   2.381   4.247  10.493 -0.4372  0.2149 -0.0727
 8156SOL    HW136104   2.407   4.158  10.520  0.4332 -0.1293 -2.0088
 8156SOL    HW236105   2.311   4.227  10.431 -0.2506 -2.0444  0.4432
 8157SOL     OW36106   2.973   4.641  16.346  0.0978  0.1498 -0.5359
 8157SOL    HW136107   2.972   4.671  16.437 -0.4403  1.7427 -1.0709
 8157SOL    HW236108   3.012   4.555  16.363 -0.7561 -0.2540 -0.6018
 8158SOL     OW36109   3.632   1.772   5.013  0.3509 -0.1633  0.0816
 8158SOL    HW136110   3.619   1.693   4.960  0.9116 -0.6642  0.6886
 8158SOL    HW236111   3.724   1.783   4.992  0.2958 -1.8014 -1.0213
 8159SOL     OW36112   1.761   2.746   6.486 -0.5402  0.5938  0.5678
 8159SOL    HW136113   1.807   2.820   6.447  1.1249 -0.1305  1.1533
 8159SOL    HW236114   1.818   2.696   6.545  0.4899  0.7690 -0.2682
 8160SOL     OW36115   4.232   1.045   6.096  0.4038  0.2508  0.2272
 8160SOL    HW136116   4.211   1.058   6.003  2.3699 -2.6187 -0.6116
 8160SOL    HW236117   4.321   1.081   6.097 -0.0490  1.3814  0.4358
 8161SOL     OW36118   0.475   3.314   0.240 -0.0125  0.1047  0.9216
 8161SOL    HW136119   0.494   3.348   0.152 -2.2226  1.6480  1.0452
 8161SOL    HW236120   0.379   3.315   0.240 -0.0017  1.5074 -1.1209
 8162SOL     OW36121   1.104   3.573   1.488  0.1150 -0.3846 -0.1388
 8162SOL    HW136122   1.104   3.668   1.494  1.0360 -0.4025  0.1270
 8162SOL    HW236123   1.053   3.551   1.566  1.4377 -2.5789  0.1283
 8163SOL     OW36124   3.849   4.405   7.824 -0.3810  0.1999  0.1322
 8163SOL    HW136125   3.942   4.411   7.843 -0.6067  2.1416  0.5349
 8163SOL    HW236126   3.828   4.496   7.803 -2.1128 -0.6910 -1.9920
 8164SOL     OW36127   2.237   3.112   5.692 -0.2682 -0.0159 -0.0381
 8164SOL    HW136128   2.231   3.128   5.597  2.8600  0.0743 -0.2073
 8164SOL    HW236129   2.155   3.063   5.705  0.5585 -1.0522  1.2607
 8165SOL     OW36130   0.930   3.395  11.041 -0.2965 -0.4614  0.1550
 8165SOL    HW136131   0.924   3.300  11.044  2.1091 -0.7005 -2.7337
 8165SOL    HW236132   1.019   3.418  11.016 -0.3812 -0.1694  0.1190
 8166SOL     OW36133   0.784   4.346   5.376  0.3411  0.4352 -0.1679
 8166SOL    HW136134   0.858   4.300   5.337 -0.1438 -0.0107 -0.5630
 8166SOL    HW236135   0.801   4.436   5.348 -1.2073  0.9003  0.3785
 8167SOL     OW36136   3.833   0.466   7.758 -0.1407  0.1298 -0.2299
 8167SOL    HW136137   3.899   0.524   7.720  0.1478 -0.0444  0.0069
 8167SOL    HW236138   3.773   0.531   7.793 -2.1924 -1.4689 -0.7868
 8168SOL     OW36139   3.377   1.614  14.897  0.4134 -0.2318 -0.0058
 8168SOL    HW136140   3.343   1.610  14.987  0.2471 -3.2057 -0.1988
 8168SOL    HW236141   3.408   1.704  14.883 -1.6741  0.2606 -1.3695
 8169SOL     OW36142   3.421   4.308   4.248  0.3871  0.6684  0.3452
 8169SOL    HW136143   3.334   4.329   4.212  0.7416 -0.1344 -0.9589
 8169SOL    HW236144   3.385   4.276   4.331  0.8050 -1.9562 -0.4929
 8170SOL     OW36145   0.061   2.899   7.604  0.3195  0.3680 -0.4167
 8170SOL    HW136146   0.058   2.813   7.646  0.1954  0.6530  0.1581
 8170SOL    HW236147   4.731   2.937   7.661 -0.3981 -1.8487  0.2174
 8171SOL     OW36148   3.397   2.460   6.514 -0.4630  0.0614 -0.4646
 8171SOL    HW136149   3.457   2.532   6.493  0.2495 -0.6803 -0.9344
 8171SOL    HW236150   3.378   2.480   6.606  0.6346  0.4927 -0.3205
 8172SOL     OW36151   3.470   1.997   9.317 -0.2447  0.6559 -0.6655
 8172SOL    HW136152   3.496   2.085   9.346 -4.2899  1.0235  1.7388
 8172SOL    HW236153   3.375   2.001   9.309 -0.1569  1.3047 -1.4223
 8173SOL     OW36154   1.147   1.702   9.540 -0.2585  0.0961 -0.4101
 8173SOL    HW136155   1.211   1.770   9.517 -0.1982  0.0091 -0.5013
 8173SOL    HW236156   1.114   1.693   9.451  0.0915  2.9539 -0.8464
 8174SOL     OW36157   2.903   1.265   4.080 -0.1368  0.0698  0.4238
 8174SOL    HW136158   2.897   1.203   4.153  0.6019  0.3719  0.7451
 8174SOL    HW236159   2.936   1.347   4.117  1.4994 -0.3759 -0.0173
 8175SOL     OW36160   4.290   1.715   7.250  0.0594  0.1692  0.2430
 8175SOL    HW136161   4.346   1.708   7.173  0.6400  0.8359  0.6042
 8175SOL    HW236162   4.236   1.792   7.228  0.8975  0.6448 -0.1616
 8176SOL     OW36163   1.712   4.099   7.731  0.1460  0.3888 -0.1425
 8176SOL    HW136164   1.687   4.098   7.638  1.0256  0.1899 -0.3727
 8176SOL    HW236165   1.664   4.025   7.768  3.5147 -0.1531  3.0360
 8177SOL     OW36166   2.579   0.680  15.383  0.0353  0.7068  0.3607
 8177SOL    HW136167   2.602   0.596  15.422 -0.0077  0.6738  0.3145
 8177SOL    HW236168   2.647   0.680  15.316  1.3045  0.4358  1.6420
 8178SOL     OW36169   2.423   0.739   3.826 -0.3022 -0.3032  0.3586
 8178SOL    HW136170   2.424   0.675   3.897  3.5048  1.8611  2.2469
 8178SOL    HW236171   2.360   0.703   3.763 -0.7112 -0.0491  0.6279
 8179SOL     OW36172   0.297   0.980  10.126  0.1050 -0.4727  0.2043
 8179SOL    HW136173   0.239   1.017  10.193 -2.3650 -0.8813 -1.6835
 8179SOL    HW236174   0.270   0.888  10.129 -0.5912 -0.2233  2.0223
 8180SOL     OW36175   1.762   2.202   2.297  0.5388  0.4394 -0.4895
 8180SOL    HW136176   1.808   2.118   2.291 -0.5920 -0.2114 -0.1850
 8180SOL    HW236177   1.813   2.262   2.351  0.0275  0.7569 -0.3633
 8181SOL     OW36178   1.493   1.252   9.204 -0.0371 -0.0098  0.1563
 8181SOL    HW136179   1.516   1.324   9.262 -2.4973 -0.9005  2.2316
 8181SOL    HW236180   1.536   1.286   9.125  1.3707  1.1580  1.4446
 8182SOL     OW36181   3.975   0.836   7.997  0.4709 -0.3512 -0.1928
 8182SOL    HW136182   3.969   0.741   8.005  0.4497 -0.4916 -1.8776
 8182SOL    HW236183   4.055   0.846   8.049 -0.6308 -1.3578  1.7309
 8183SOL     OW36184   1.431   4.619  13.300  0.3679  0.0757 -0.4087
 8183SOL    HW136185   1.338   4.627  13.322  0.0072 -1.4227 -1.3934
 8183SOL    HW236186   1.442   4.535  13.344 -0.9654  0.8683  1.4533
 8184SOL     OW36187   3.989   3.911  12.011 -0.3164 -0.4163  0.6418
 8184SOL    HW136188   3.942   3.833  12.039 -0.8169 -0.1433  0.5749
 8184SOL    HW236189   4.000   3.970  12.086  1.9901 -0.5227  0.3725
 8185SOL     OW36190   1.147   4.275   9.704  0.2991 -0.3893  0.2719
 8185SOL    HW136191   1.234   4.314   9.716  1.2278 -1.7212 -2.0940
 8185SOL    HW236192   1.119   4.314   9.622  0.7030  0.6388  0.6268
 8186SOL     OW36193   4.206   1.640   5.229  0.3129  0.3527 -0.0152
 8186SOL    HW136194   4.219   1.552   5.195 -2.6510 -0.0864 -0.0503
 8186SOL    HW236195   4.110   1.640   5.235  0.2985 -2.4465 -0.1987
 8187SOL     OW36196   2.705   4.610   1.244  0.0908  0.4761  0.5633
 8187SOL    HW136197   2.776   4.646   1.296  1.8953  0.0150 -1.5759
 8187SOL    HW236198   2.659   4.556   1.309 -2.2174  2.2115  0.3777
 8188SOL     OW36199   1.990   1.213   3.370 -0.4729  0.2892  0.0708
 8188SOL    HW136200   2.035   1.242   3.449  0.6357  1.3317 -0.9471
 8188SOL    HW236201   2.067   1.173   3.331  0.4913  2.5595 -0.3309
 8189SOL     OW36202   0.324   1.349   6.012 -0.4848 -0.0208 -0.0988
 8189SOL    HW136203   0.365   1.370   5.928  0.5630  0.1926  0.4669
 8189SOL    HW236204   0.298   1.432   6.051  0.6488  0.0000  0.6210
 8190SOL     OW36205   3.463   3.189  17.674 -0.2886 -0.4433 -0.1969
 8190SOL    HW136206   3.530   3.207  17.608 -1.0409 -0.1485 -0.8662
 8190SOL    HW236207   3.479   3.095  17.689  2.3404  0.0224 -0.0612
 8191SOL     OW36208   2.818   3.943   4.802 -0.0542 -0.6197  0.5964
 8191SOL    HW136209   2.806   3.860   4.756  3.2115 -0.1430 -1.0762
 8191SOL    HW236210   2.771   3.932   4.885 -2.3592  0.3038 -0.5856
 8192SOL     OW36211   3.525   3.629  14.851  0.5810  0.4640  0.0793
 8192SOL    HW136212   3.550   3.660  14.764 -0.9705  1.0934 -0.1535
 8192SOL    HW236213   3.514   3.536  14.832 -1.0729  0.6399  0.1798
 8193SOL     OW36214   0.226   1.283  11.287  0.4002 -0.1434  0.6633
 8193SOL    HW136215   0.186   1.319  11.208  1.0293 -0.6948  0.0959
 8193SOL    HW236216   0.193   1.193  11.291  0.9926 -0.3898 -0.0163
 8194SOL     OW36217   1.551   3.541   1.430 -0.3099  0.2614  0.4364
 8194SOL    HW136218   1.618   3.557   1.496  0.6291 -1.7649 -0.0533
 8194SOL    HW236219   1.580   3.597   1.358  0.3948 -1.1418 -0.3741
 8195SOL     OW36220   0.033   2.967   9.760 -0.1619 -0.7372 -0.0133
 8195SOL    HW136221   0.010   3.051   9.801  0.4138  0.3254 -1.8983
 8195SOL    HW236222   0.103   2.933   9.817  1.9557  0.9601 -1.6171
 8196SOL     OW36223   3.585   0.290   3.149  0.2954 -0.2426  0.3070
 8196SOL    HW136224   3.628   0.353   3.207 -0.4372  0.7931 -0.2809
 8196SOL    HW236225   3.497   0.287   3.188 -1.1520  0.2910 -2.9331
 8197SOL     OW36226   4.711   2.197   7.683  0.0466 -0.0224 -0.0445
 8197SOL    HW136227   0.058   2.156   7.701 -0.2994 -0.2460  1.0604
 8197SOL    HW236228   4.689   2.161   7.597  0.8951 -0.7858  0.0704
 8198SOL     OW36229   0.714   0.564  10.314 -0.4166  0.5970  0.3440
 8198SOL    HW136230   0.629   0.595  10.345  0.1149  0.3316  2.0636
 8198SOL    HW236231   0.763   0.601  10.388  3.5239 -0.1082 -1.9414
 8199SOL     OW36232   0.007   2.769  10.031 -0.2568 -0.3700 -0.2135
 8199SOL    HW136233   4.659   2.810  10.015  0.0870  1.3071  2.1569
 8199SOL    HW236234   4.726   2.706  10.101  0.3381  0.4629  0.6842
 8200SOL     OW36235   1.145   2.685  13.554  0.1226 -0.2048  0.3705
 8200SOL    HW136236   1.188   2.763  13.518 -2.2491  0.0218 -1.9096
 8200SOL    HW236237   1.081   2.713  13.620 -1.1421 -1.5232 -0.3078
 8201SOL     OW36238   0.469   4.044   9.548  0.4529  0.7293 -0.1710
 8201SOL    HW136239   0.443   3.961   9.587 -0.9677  0.6157 -1.3307
 8201SOL    HW236240   0.479   4.086   9.633  2.7088  0.5646 -0.3653
 8202SOL     OW36241   1.376   0.012  15.300 -0.6200  0.2420 -0.4761
 8202SOL    HW136242   1.435   4.709  15.364 -0.5784  3.2419  1.3689
 8202SOL    HW236243   1.372   4.670  15.246 -0.4792  0.0445 -0.1981
 8203SOL     OW36244   0.646   1.412   7.445  0.0763  0.6237  0.4760
 8203SOL    HW136245   0.565   1.378   7.409 -0.0650  0.4114  0.9921
 8203SOL    HW236246   0.691   1.459   7.374 -1.0494  0.7949 -0.1160
 8204SOL     OW36247   4.430   3.994  16.263  0.0206  0.1646 -0.1402
 8204SOL    HW136248   4.488   3.988  16.339  1.1549  2.8606 -0.7666
 8204SOL    HW236249   4.425   4.090  16.267  3.0132  0.3625 -1.3572
 8205SOL     OW36250   3.833   1.686   6.279  0.7051 -0.1769 -0.3625
 8205SOL    HW136251   3.862   1.658   6.366 -0.9794 -0.5172  0.0773
 8205SOL    HW236252   3.824   1.781   6.288  0.0503 -0.2335 -0.4340
 8206SOL     OW36253   0.216   1.635   2.941  0.0445 -0.5380 -0.1647
 8206SOL    HW136254   0.255   1.688   2.871  0.6599  1.0081  1.3582
 8206SOL    HW236255   0.172   1.704   2.990  1.4914  0.2005  0.0932
 8207SOL     OW36256   4.394   3.976  12.834 -0.4853 -0.0177  0.1704
 8207SOL    HW136257   4.334   4.042  12.800  1.1394  2.1137  1.4695
 8207SOL    HW236258   4.444   3.964  12.753  0.4785 -2.1153  1.0687
 8208SOL     OW36259   3.292   1.233   2.400 -0.4407  0.5330 -0.3228
 8208SOL    HW136260   3.263   1.185   2.477 -1.2621 -0.8880 -1.5174
 8208SOL    HW236261   3.244   1.196   2.326 -1.1367 -0.2812  0.5360
 8209SOL     OW36262   1.410   2.371   1.586  0.0002 -0.2013  0.0459
 8209SOL    HW136263   1.408   2.316   1.507 -2.0590 -1.5325  1.0062
 8209SOL    HW236264   1.410   2.294   1.643  0.1475 -0.2608 -0.0361
 8210SOL     OW36265   3.540   0.654   2.020 -0.3583 -0.0985  0.6008
 8210SOL    HW136266   3.583   0.685   2.099  0.5056 -0.7663  0.3993
 8210SOL    HW236267   3.543   0.561   2.040 -2.6663 -0.4385 -0.6918
 8211SOL     OW36268   2.540   2.352   8.288 -0.6297 -0.1659  0.1150
 8211SOL    HW136269   2.516   2.428   8.234  0.5545 -1.9061 -2.8745
 8211SOL    HW236270   2.533   2.391   8.375  0.0165  1.3418 -0.5161
 8212SOL     OW36271   1.024   3.425   4.151 -0.1151  0.5149 -0.8928
 8212SOL    HW136272   1.017   3.509   4.104  1.9224  0.0310 -2.0642
 8212SOL    HW236273   0.930   3.406   4.145 -0.4576  1.2527  2.4009
 8213SOL     OW36274   0.082   4.212  16.781 -0.7086 -0.1964 -0.3799
 8213SOL    HW136275   0.046   4.262  16.854  0.2811  0.0220 -0.0376
 8213SOL    HW236276   0.137   4.144  16.820 -2.0064 -1.1669 -0.2703
 8214SOL     OW36277   3.599   3.776   7.894  0.6297 -0.4433 -0.6379
 8214SOL    HW136278   3.595   3.758   7.988  1.2951  2.3449 -0.0728
 8214SOL    HW236279   3.674   3.723   7.867  1.8975  0.6757  0.6497
 8215SOL     OW36280   2.039   3.594   6.652  0.5617  0.3777  0.0407
 8215SOL    HW136281   2.124   3.593   6.696  0.1780  1.0778  0.7916
 8215SOL    HW236282   1.978   3.610   6.723 -0.1176 -0.7754 -0.2702
 8216SOL     OW36283   1.767   0.818   1.719 -0.1757 -0.0521 -0.0786
 8216SOL    HW136284   1.737   0.906   1.743 -2.2181 -0.4263 -1.2159
 8216SOL    HW236285   1.762   0.831   1.624 -1.4509  1.0399  0.1257
 8217SOL     OW36286   4.220   1.955  12.460  0.1508  0.0279 -0.0437
 8217SOL    HW136287   4.131   1.978  12.485  0.6006  1.7207  0.0147
 8217SOL    HW236288   4.259   2.042  12.472  3.0446 -1.1507 -1.0619
 8218SOL     OW36289   1.320   0.977   4.571 -0.3751  0.2119 -0.8232
 8218SOL    HW136290   1.407   0.973   4.531  0.3359 -0.4822  0.8044
 8218SOL    HW236291   1.285   0.907   4.516 -1.0491  0.1037 -0.2455
 8219SOL     OW36292   1.675   0.743   6.612 -0.2515  0.4245 -0.2329
 8219SOL    HW136293   1.747   0.724   6.552 -1.5760 -0.8072 -1.4485
 8219SOL    HW236294   1.701   0.689   6.686 -2.6448  0.1673  0.4307
 8220SOL     OW36295   2.276   3.411  12.123 -0.0453  0.2119  0.6623
 8220SOL    HW136296   2.254   3.386  12.034 -0.7477  1.6260  0.4400
 8220SOL    HW236297   2.328   3.337  12.155  0.3055 -1.0149 -2.8359
 8221SOL     OW36298   1.354   3.299   6.956  0.5382 -0.2589 -0.0249
 8221SOL    HW136299   1.394   3.366   6.901 -1.6430 -0.9115 -2.4369
 8221SOL    HW236300   1.355   3.222   6.899 -1.8404  0.9038 -1.6302
 8222SOL     OW36301   4.644   3.830   3.285 -0.3511  0.6008 -0.4371
 8222SOL    HW136302   4.684   3.783   3.358 -1.7315  0.8970  0.5052
 8222SOL    HW236303   4.586   3.892   3.329  0.1949  0.2444  0.7999
 8223SOL     OW36304   3.737   2.179   1.245  0.2483  0.2274  0.0543
 8223SOL    HW136305   3.791   2.108   1.278  0.5055 -0.0132 -0.8742
 8223SOL    HW236306   3.654   2.141   1.215  0.8746 -1.4110  0.4376
 8224SOL     OW36307   4.349   3.480   4.894  0.3825  0.6432  0.3163
 8224SOL    HW136308   4.298   3.555   4.924 -1.5121  0.8416 -3.3308
 8224SOL    HW236309   4.391   3.448   4.974 -1.1553 -0.0004  0.8798
 8225SOL     OW36310   1.419   0.627   7.885 -0.1134 -0.1093  0.2901
 8225SOL    HW136311   1.372   0.611   7.967  0.0058 -1.4563  0.0852
 8225SOL    HW236312   1.443   0.718   7.900  1.5934 -0.3049 -1.2748
 8226SOL     OW36313   4.585   1.469  15.271 -0.4855 -0.6434 -0.1746
 8226SOL    HW136314   4.574   1.409  15.197 -0.7327 -0.1472 -0.5423
 8226SOL    HW236315   4.503   1.453  15.318 -1.3974  0.3193 -1.4187
 8227SOL     OW36316   2.624   0.920   6.819  0.4796  0.3741  0.6993
 8227SOL    HW136317   2.649   0.857   6.752 -0.3313  1.9905 -1.1329
 8227SOL    HW236318   2.592   0.860   6.887  1.3998  0.0279  0.8193
 8228SOL     OW36319   2.140   1.213   6.776 -0.1960 -0.1061  0.4010
 8228SOL    HW136320   2.118   1.147   6.842 -0.3662 -0.9629 -0.5171
 8228SOL    HW236321   2.202   1.265   6.827  0.9475 -0.1333 -0.9617
 8229SOL     OW36322   0.527   4.240  14.230  0.3392 -0.1147 -0.1962
 8229SOL    HW136323   0.451   4.212  14.280  0.3337 -1.4301 -0.9344
 8229SOL    HW236324   0.527   4.334  14.210  1.0926  0.0638  0.6207
 8230SOL     OW36325   1.239   1.738  12.010  0.5407 -0.0058  0.0163
 8230SOL    HW136326   1.235   1.748  11.915  0.2863  1.5849  0.1894
 8230SOL    HW236327   1.217   1.647  12.032  1.5032 -0.3959 -0.6166
 8231SOL     OW36328   0.645   1.326  11.138  0.4453 -0.4279 -1.0202
 8231SOL    HW136329   0.608   1.370  11.214  1.2090 -0.7593 -0.4652
 8231SOL    HW236330   0.596   1.245  11.138  1.9068 -1.3189  1.0465
 8232SOL     OW36331   3.895   4.176   3.589  0.6057 -0.2432 -0.3349
 8232SOL    HW136332   3.867   4.104   3.533 -0.0240 -0.4266  0.2246
 8232SOL    HW236333   3.818   4.184   3.645  0.1199 -1.5095 -0.8222
 8233SOL     OW36334   2.162   2.181  14.531 -0.3362  0.3286 -0.4784
 8233SOL    HW136335   2.214   2.111  14.569  0.8401  0.5713 -1.6442
 8233SOL    HW236336   2.118   2.227  14.603  1.6696  1.2046  0.1718
 8234SOL     OW36337   0.432   4.206   2.941  0.7111 -0.4296  0.1249
 8234SOL    HW136338   0.400   4.245   2.860 -0.0982 -0.5662  0.3688
 8234SOL    HW236339   0.394   4.118   2.933  0.7323 -0.4219 -0.0572
 8235SOL     OW36340   1.110   2.594   5.695 -0.4917  0.6012  0.1752
 8235SOL    HW136341   1.094   2.617   5.787 -1.1430  0.4942  0.0891
 8235SOL    HW236342   1.031   2.547   5.667 -0.6393  0.8187  0.2264
 8236SOL     OW36343   3.147   2.374   7.516 -0.5492 -0.4402  0.3457
 8236SOL    HW136344   3.088   2.345   7.447  0.0945 -1.6601  0.3220
 8236SOL    HW236345   3.102   2.458   7.529 -2.3496 -1.2814 -0.4571
 8237SOL     OW36346   1.049   0.268   9.410  0.1715 -0.1043 -0.1552
 8237SOL    HW136347   1.113   0.198   9.400 -0.5090 -0.4535 -2.0831
 8237SOL    HW236348   1.025   0.261   9.502 -0.4747 -2.2996 -0.4864
 8238SOL     OW36349   1.509   3.640   7.873 -0.2552  0.5429  0.4608
 8238SOL    HW136350   1.511   3.550   7.842 -1.9994  1.2817 -1.8283
 8238SOL    HW236351   1.551   3.639   7.959  0.2598  0.1544  0.2074
 8239SOL     OW36352   2.605   4.273   8.404  0.1346 -0.2843  0.1787
 8239SOL    HW136353   2.618   4.368   8.407 -1.2460 -0.0300 -1.7097
 8239SOL    HW236354   2.688   4.244   8.365 -0.5626  3.3802 -4.1097
 8240SOL     OW36355   3.099   2.423   9.072 -0.5202 -0.2514 -0.6285
 8240SOL    HW136356   3.159   2.405   8.999 -1.1548  0.0952 -1.2280
 8240SOL    HW236357   3.120   2.343   9.121 -2.4397 -0.1791  0.3063
 8241SOL     OW36358   4.057   4.374  14.779  0.0337  0.2401 -0.3116
 8241SOL    HW136359   4.108   4.398  14.856 -3.3232  0.6724  1.8231
 8241SOL    HW236360   4.118   4.321  14.729  2.2922  1.1422  1.5215
 8242SOL     OW36361   3.917   1.504  10.703 -0.0631 -0.6574 -0.2365
 8242SOL    HW136362   3.879   1.542  10.783  0.8985 -1.5891  0.6578
 8242SOL    HW236363   3.851   1.435  10.701 -0.1537 -0.5843  0.2093
 8243SOL     OW36364   4.553   4.633   4.435  0.3890  0.3040 -0.1725
 8243SOL    HW136365   4.638   4.635   4.390  0.5671  3.6265  0.3163
 8243SOL    HW236366   4.577   4.638   4.527  0.2935 -3.8080  0.0664
 8244SOL     OW36367   2.934   1.671   5.278 -0.5619 -0.5941 -0.4573
 8244SOL    HW136368   2.895   1.728   5.345 -0.1543 -0.9809  0.1073
 8244SOL    HW236369   2.925   1.583   5.315 -2.0747 -0.2878 -0.0720
 8245SOL     OW36370   2.886   3.815   8.179 -0.6890  0.1458  0.3468
 8245SOL    HW136371   2.881   3.910   8.189 -1.6831  0.6110 -4.8054
 8245SOL    HW236372   2.949   3.797   8.109  1.4566  0.3043  2.2223
 8246SOL     OW36373   1.925   2.952   2.359  0.1216 -1.0275 -0.4479
 8246SOL    HW136374   1.985   2.884   2.328 -1.3703 -2.8524  0.6838
 8246SOL    HW236375   1.983   3.002   2.417  1.8124 -1.2326 -1.9711
 8247SOL     OW36376   3.193   0.967   4.546 -0.2136 -0.2482 -0.9171
 8247SOL    HW136377   3.122   0.985   4.485 -1.4098 -2.2689 -0.1208
 8247SOL    HW236378   3.144   0.927   4.619 -0.8671 -0.6481 -1.5761
 8248SOL     OW36379   1.676   0.380   5.540  0.3964 -0.7595 -0.3402
 8248SOL    HW136380   1.724   0.379   5.623  2.3884  1.0422 -1.4861
 8248SOL    HW236381   1.748   0.416   5.488  0.4040 -1.7268 -0.9922
 8249SOL     OW36382   3.497   3.983   8.670 -0.4215 -0.2353  0.0408
 8249SOL    HW136383   3.445   4.063   8.659 -1.7058 -0.6954  2.9273
 8249SOL    HW236384   3.511   3.950   8.581  0.5562 -0.0757  0.1359
 8250SOL     OW36385   2.439   3.196  12.131 -0.0749 -0.0708 -0.1767
 8250SOL    HW136386   2.474   3.182  12.219 -2.1772  1.7011  0.9437
 8250SOL    HW236387   2.351   3.160  12.137  0.0864 -0.3440  0.5281
 8251SOL     OW36388   3.292   1.196   4.172 -0.3938  0.7796 -0.1456
 8251SOL    HW136389   3.243   1.261   4.121 -0.5631  0.3985 -0.4660
 8251SOL    HW236390   3.292   1.133   4.101 -0.7905  1.6119 -0.8897
 8252SOL     OW36391   0.795   2.465  10.288  0.4276  0.3614  0.1717
 8252SOL    HW136392   0.844   2.544  10.263  2.3253 -0.5428  1.0900
 8252SOL    HW236393   0.709   2.496  10.315  0.8265 -0.3257  2.1717
 8253SOL     OW36394   4.292   3.773   2.329 -0.7141 -0.3605  0.5507
 8253SOL    HW136395   4.287   3.856   2.377 -0.3480 -0.3616  0.5865
 8253SOL    HW236396   4.358   3.792   2.263 -1.4987  1.6098  0.3238
 8254SOL     OW36397   4.145   3.896  15.162 -0.2519 -0.3198 -0.7070
 8254SOL    HW136398   4.212   3.881  15.229 -0.2942  0.6491 -0.4428
 8254SOL    HW236399   4.074   3.840  15.193  1.0340 -1.3318  0.3721
 8255SOL     OW36400   4.077   2.085  15.104 -0.0493 -0.1998 -0.3176
 8255SOL    HW136401   3.984   2.099  15.125 -0.0284  1.1884 -1.1913
 8255SOL    HW236402   4.103   2.043  15.186  0.5324 -0.5186 -0.6645
 8256SOL     OW36403   1.861   2.237   6.143 -0.2716 -0.1148  0.5418
 8256SOL    HW136404   1.942   2.242   6.193 -0.4093  2.9737  0.4058
 8256SOL    HW236405   1.860   2.143   6.122  0.3555  0.0275 -0.1537
 8257SOL     OW36406   4.720   0.685   8.653  0.3027  0.0777  0.1118
 8257SOL    HW136407   4.723   0.781   8.646 -0.1094  0.0274 -0.8786
 8257SOL    HW236408   0.072   0.657   8.669 -0.2399 -2.1103 -0.6976
 8258SOL     OW36409   3.157   0.065   7.823 -0.1874 -0.1605  0.4914
 8258SOL    HW136410   3.124   0.049   7.911 -1.9853 -0.0151 -0.1397
 8258SOL    HW236411   3.218   0.137   7.833  1.0456 -1.0026 -0.8320
 8259SOL     OW36412   2.864   0.564   2.113 -0.3883  0.2744 -0.0859
 8259SOL    HW136413   2.859   0.631   2.045  0.7283 -1.0333 -1.4408
 8259SOL    HW236414   2.896   0.616   2.187 -0.8681 -1.5341  1.3893
 8260SOL     OW36415   1.283   3.565   3.258 -0.1554 -0.0930  0.2762
 8260SOL    HW136416   1.280   3.543   3.165  1.6531 -1.6495  0.5876
 8260SOL    HW236417   1.233   3.646   3.269  0.0147  0.1545 -0.8420
 8261SOL     OW36418   2.999   3.741   8.916  1.0130 -1.1228 -0.0446
 8261SOL    HW136419   3.024   3.683   8.844 -1.8444  0.1883 -2.1061
 8261SOL    HW236420   3.024   3.687   8.991  2.7085 -1.8319 -1.1289
 8262SOL     OW36421   4.643   3.700   7.975  0.3810  0.0590  0.8247
 8262SOL    HW136422   4.554   3.707   8.009 -0.6818 -2.4353 -1.3941
 8262SOL    HW236423   4.678   3.638   8.039  3.0231  0.2112 -0.4374
 8263SOL     OW36424   2.920   3.559   6.854  0.0184 -0.3175  0.2598
 8263SOL    HW136425   2.971   3.479   6.844 -0.4770 -0.5760 -0.2443
 8263SOL    HW236426   2.839   3.520   6.888 -0.3656 -0.8163 -1.2296
 8264SOL     OW36427   1.615   2.793   6.778  0.3441  0.4330  0.4122
 8264SOL    HW136428   1.524   2.808   6.801 -0.5350 -1.6648 -1.7281
 8264SOL    HW236429   1.620   2.846   6.698 -1.2475  0.1830  0.1500
 8265SOL     OW36430   0.374   0.474  13.335  0.1504  0.4471 -0.0074
 8265SOL    HW136431   0.466   0.452  13.321 -0.7305 -2.8179 -0.7617
 8265SOL    HW236432   0.326   0.393  13.355 -0.3977  1.1452  1.5256
 8266SOL     OW36433   1.075   2.037  12.428  0.0616  0.2724 -0.0135
 8266SOL    HW136434   1.148   2.002  12.377  0.7138  0.5574  0.7153
 8266SOL    HW236435   1.063   1.972  12.497 -0.7492  1.0406  0.5589
 8267SOL     OW36436   2.686   3.581   2.227 -0.2877  0.2047 -0.0588
 8267SOL    HW136437   2.715   3.587   2.136 -2.9444  1.2815 -0.8522
 8267SOL    HW236438   2.715   3.495   2.259 -2.5342 -0.5719 -0.0982
 8268SOL     OW36439   1.352   4.396   3.838  0.3626 -0.1826  0.1734
 8268SOL    HW136440   1.375   4.419   3.928  1.5403 -1.1380  0.1147
 8268SOL    HW236441   1.416   4.452   3.794 -0.8097  1.7785  0.9555
 8269SOL     OW36442   0.809   1.894   2.000 -0.3889 -0.2231 -0.2310
 8269SOL    HW136443   0.716   1.882   2.021 -0.7010  0.1372 -1.3774
 8269SOL    HW236444   0.813   1.988   1.984 -3.5048 -0.0572 -0.1126
 8270SOL     OW36445   3.678   4.625   5.593 -0.0943  0.1852 -0.1158
 8270SOL    HW136446   3.608   4.613   5.529  1.9890 -1.5737 -2.0557
 8270SOL    HW236447   3.754   4.585   5.551  0.0183  1.6384 -1.2724
 8271SOL     OW36448   4.004   0.841  14.645  0.2393  0.0489  0.1416
 8271SOL    HW136449   4.030   0.817  14.556  0.5268 -1.8337  0.7164
 8271SOL    HW236450   4.006   0.755  14.687  1.9174  0.4595  0.9046
 8272SOL     OW36451   4.618   1.370  12.025  0.4580  0.5138 -0.1940
 8272SOL    HW136452   4.595   1.278  12.039  0.0860  0.8043  1.1571
 8272SOL    HW236453   4.536   1.403  11.986  0.9295  1.2134 -0.6029
 8273SOL     OW36454   3.424   3.716   7.588 -0.1468  0.0611  0.4907
 8273SOL    HW136455   3.512   3.738   7.617  0.5924 -1.2080 -0.7931
 8273SOL    HW236456   3.385   3.700   7.674 -0.4249  1.8315  0.6883
 8274SOL     OW36457   3.854   4.713   3.689 -0.0827 -0.3677 -0.2050
 8274SOL    HW136458   3.778   4.665   3.723 -0.6589  1.1599  0.6700
 8274SOL    HW236459   3.841   0.059   3.734  0.3328 -0.4316  0.0351
 8275SOL     OW36460   3.339   1.914   3.651  0.4978  0.6783  0.0342
 8275SOL    HW136461   3.335   2.007   3.671 -0.5114  1.1403 -2.4015
 8275SOL    HW236462   3.382   1.882   3.730 -0.0011  2.2090  0.9325
 8276SOL     OW36463   2.423   1.658   5.606  0.2480  0.0871  0.0347
 8276SOL    HW136464   2.511   1.629   5.629 -0.2485 -0.7335  0.8831
 8276SOL    HW236465   2.409   1.659   5.511  1.5993  2.3022 -0.1379
 8277SOL     OW36466   2.209   4.127  12.861  0.4060 -0.3493  0.0673
 8277SOL    HW136467   2.190   4.169  12.777  3.6305  0.1980 -0.3600
 8277SOL    HW236468   2.119   4.102  12.883  0.0493  0.9294  0.0090
 8278SOL     OW36469   2.473   3.735   1.047  0.5678  0.0247  0.2542
 8278SOL    HW136470   2.550   3.722   0.991  0.5395  3.0706 -0.5088
 8278SOL    HW236471   2.397   3.762   0.995  1.6830  0.3137 -1.2305
 8279SOL     OW36472   4.589   3.970  16.488 -0.4993 -0.1321 -0.9156
 8279SOL    HW136473   4.675   3.997  16.520  0.1669 -0.2754 -2.5757
 8279SOL    HW236474   4.615   3.881  16.467  0.7586  0.0248  0.0311
 8280SOL     OW36475   0.070   0.748  11.654  0.3020 -0.9086 -0.5854
 8280SOL    HW136476   0.007   0.696  11.704  0.0206  0.8228  0.8498
 8280SOL    HW236477   0.143   0.686  11.659  0.9800  0.0132  0.8076
 8281SOL     OW36478   3.386   3.324   8.968 -0.5612 -0.0149 -0.4436
 8281SOL    HW136479   3.321   3.387   9.000  1.5468  1.1931  1.4713
 8281SOL    HW236480   3.420   3.369   8.890  0.9886  0.4696  0.5086
 8282SOL     OW36481   1.681   2.002  11.787 -0.0385  0.8812 -0.7087
 8282SOL    HW136482   1.719   2.086  11.761 -1.4613  1.2924 -1.4421
 8282SOL    HW236483   1.748   1.981  11.852  1.0801  0.7201 -1.9050
 8283SOL     OW36484   2.250   3.396  10.420  0.1693  0.4082 -0.0343
 8283SOL    HW136485   2.303   3.366  10.346 -0.9334 -0.6224 -0.4165
 8283SOL    HW236486   2.297   3.468  10.462  2.0801 -0.2571 -1.0802
 8284SOL     OW36487   1.446   3.632   4.553 -0.3136  0.1483  0.0800
 8284SOL    HW136488   1.500   3.589   4.487 -1.7320  0.4112 -1.2269
 8284SOL    HW236489   1.410   3.560   4.605  2.6195 -1.0378  0.4949
 8285SOL     OW36490   0.382   1.765   8.032 -0.3295  0.1047  0.2458
 8285SOL    HW136491   0.341   1.805   8.109  0.5887  1.2088  0.1613
 8285SOL    HW236492   0.322   1.695   8.006  2.0961 -1.2881 -1.5428
 8286SOL     OW36493   1.291   4.597   3.176 -0.1025  0.0138  0.0973
 8286SOL    HW136494   1.340   4.571   3.253 -0.1813 -0.8339 -0.1429
 8286SOL    HW236495   1.331   4.543   3.109 -3.2603 -0.7770 -1.1804
 8287SOL     OW36496   1.533   0.958   8.477 -0.2817  0.7004 -0.2911
 8287SOL    HW136497   1.540   0.866   8.501 -2.5749  0.5781 -0.0424
 8287SOL    HW236498   1.581   1.002   8.547  1.5922  0.1421 -1.2144
 8288SOL     OW36499   3.193   4.401   5.346  0.0777  0.2213  0.4914
 8288SOL    HW136500   3.114   4.356   5.376 -0.0097  0.2291  0.2797
 8288SOL    HW236501   3.260   4.335   5.362  0.2462  0.1152 -0.5996
 8289SOL     OW36502   0.947   2.419   8.124  0.1749 -0.3201  0.0972
 8289SOL    HW136503   0.942   2.435   8.030 -0.9699  0.4306  0.2797
 8289SOL    HW236504   0.854   2.410   8.146 -0.5794  3.7151 -1.3779
 8290SOL     OW36505   0.148   1.572   3.775 -0.0964 -0.2474  0.7095
 8290SOL    HW136506   0.086   1.522   3.721  0.3280  0.2220 -0.2033
 8290SOL    HW236507   0.143   1.658   3.735 -2.0111 -0.6662  0.0128
 8291SOL     OW36508   0.710   2.400   3.596 -0.0416 -0.7941 -0.3113
 8291SOL    HW136509   0.654   2.362   3.664  0.0749 -0.0412  0.2121
 8291SOL    HW236510   0.729   2.487   3.631 -1.2993 -1.5047  2.1542
 8292SOL     OW36511   1.514   0.875   2.490 -0.5659  0.2508 -0.4179
 8292SOL    HW136512   1.598   0.853   2.531 -1.3121  0.5417  1.2920
 8292SOL    HW236513   1.464   0.922   2.557  0.0177 -0.8919  0.8197
 8293SOL     OW36514   4.727   2.580   3.646 -0.4925  0.4445 -0.2132
 8293SOL    HW136515   0.055   2.606   3.711 -1.0771  2.2982 -0.3439
 8293SOL    HW236516   4.653   2.635   3.669  0.1137  1.3166 -0.3284
 8294SOL     OW36517   4.451   0.777   8.312 -0.0219 -0.0541 -0.0070
 8294SOL    HW136518   4.527   0.721   8.294  0.5779  0.3090  1.3361
 8294SOL    HW236519   4.494   0.857   8.280  0.0550 -0.6369 -1.3743
 8295SOL     OW36520   4.233   2.198   0.338  0.0041  0.1973  0.0077
 8295SOL    HW136521   4.219   2.121   0.282  2.4901  0.1975 -0.6112
 8295SOL    HW236522   4.143   2.212   0.369 -0.8783 -0.3675 -2.2716
 8296SOL     OW36523   4.454   2.103  13.870  0.1700  0.3625  0.4663
 8296SOL    HW136524   4.439   2.191  13.835 -2.6388 -0.4230 -0.2992
 8296SOL    HW236525   4.498   2.060  13.797 -0.3604 -2.6491  1.8876
 8297SOL     OW36526   4.379   4.229   7.623 -0.2702 -0.8912  0.0282
 8297SOL    HW136527   4.439   4.169   7.668  2.0028  1.3695  0.0527
 8297SOL    HW236528   4.428   4.236   7.541  0.0533 -0.5392  0.2493
 8298SOL     OW36529   4.416   3.722  16.970  0.1735 -0.4373 -0.6295
 8298SOL    HW136530   4.473   3.665  16.918  1.6850 -1.0925  1.7264
 8298SOL    HW236531   4.340   3.726  16.911 -1.0227  1.2325  1.0465
 8299SOL     OW36532   3.143   3.096   2.878 -0.2989  0.3676 -0.4325
 8299SOL    HW136533   3.230   3.130   2.898  0.2368 -1.4519  0.3617
 8299SOL    HW236534   3.100   3.094   2.964 -0.3937 -1.7405 -0.5226
 8300SOL     OW36535   2.259   2.017   8.362  0.0089  0.0907 -0.3736
 8300SOL    HW136536   2.280   1.933   8.404  0.7834  1.7886  2.5849
 8300SOL    HW236537   2.273   2.079   8.433  0.1054 -0.4132  0.0471
 8301SOL     OW36538   4.181   3.031   2.150  0.5574  0.6134  0.4262
 8301SOL    HW136539   4.175   2.936   2.165  1.0886  0.4799 -0.2389
 8301SOL    HW236540   4.242   3.063   2.216 -0.4124  0.6597  1.3151
 8302SOL     OW36541   1.185   3.676   4.836  0.0374 -0.1892  0.5059
 8302SOL    HW136542   1.191   3.720   4.921 -0.3113  0.2944  0.2750
 8302SOL    HW236543   1.268   3.627   4.838 -1.4998 -2.8586 -1.7913
 8303SOL     OW36544   1.823   2.413   9.380 -0.0401  0.1244  0.2554
 8303SOL    HW136545   1.904   2.451   9.348  0.4018  0.7154  2.0811
 8303SOL    HW236546   1.810   2.359   9.303  0.1597 -1.5935  1.4245
 8304SOL     OW36547   2.752   3.218   3.679 -0.3272  0.3683  0.0778
 8304SOL    HW136548   2.691   3.167   3.625 -1.7328  0.5309  1.5181
 8304SOL    HW236549   2.823   3.159   3.707 -1.9652 -1.0757  1.1578
 8305SOL     OW36550   1.535   1.557  16.173  0.0882  0.3494 -0.6117
 8305SOL    HW136551   1.539   1.466  16.143 -0.9757  0.0058  0.2763
 8305SOL    HW236552   1.490   1.599  16.100 -0.8528  1.1241  0.4072
 8306SOL     OW36553   4.321   2.443   6.991  0.1947  0.2255  0.3232
 8306SOL    HW136554   4.242   2.453   7.044  1.4744  3.9294  1.4663
 8306SOL    HW236555   4.383   2.458   7.062  2.3436 -0.3174 -1.4413
 8307SOL     OW36556   3.661   1.822   5.751 -0.7635  0.6424  0.5117
 8307SOL    HW136557   3.674   1.776   5.833 -1.2236  0.0183  0.2382
 8307SOL    HW236558   3.657   1.915   5.772  3.5734  0.4916  1.9331
 8308SOL     OW36559   4.330   2.741   0.084 -0.2239  0.0481 -0.0019
 8308SOL    HW136560   4.257   2.790   0.046  0.9333  1.5355 -0.3332
 8308SOL    HW236561   4.275   2.680   0.134 -0.7923  1.7725  1.5159
 8309SOL     OW36562   2.772   4.208   5.938 -0.3628  0.2430  0.2584
 8309SOL    HW136563   2.731   4.131   5.899  0.0932  0.0514  0.1572
 8309SOL    HW236564   2.861   4.209   5.905 -0.5166  1.4721 -0.1199
 8310SOL     OW36565   2.322   1.423   1.717 -0.0967  0.2760  0.8352
 8310SOL    HW136566   2.246   1.435   1.660 -1.9236 -2.3115  2.7530
 8310SOL    HW236567   2.298   1.470   1.797  2.9608  0.8499  1.3901
 8311SOL     OW36568   1.117   0.671   8.498  0.1949 -0.0982  0.6496
 8311SOL    HW136569   1.045   0.621   8.537  0.2295 -0.1002  0.7106
 8311SOL    HW236570   1.167   0.697   8.575  1.9375  1.3888 -0.9717
 8312SOL     OW36571   3.544   0.118   5.296  0.4942  0.5989  0.5645
 8312SOL    HW136572   3.602   0.151   5.365  0.8189 -1.1253  1.1327
 8312SOL    HW236573   3.465   0.108   5.349  0.6615  0.7149  0.8326
 8313SOL     OW36574   0.337   2.213   4.462 -0.0598 -0.1913 -0.2265
 8313SOL    HW136575   0.311   2.305   4.473  1.4724  0.2766 -0.5429
 8313SOL    HW236576   0.310   2.200   4.371 -0.3058 -1.3979  0.0211
 8314SOL     OW36577   1.528   1.413   5.122 -0.1993 -0.1773  0.3113
 8314SOL    HW136578   1.459   1.346   5.118  1.3251 -1.7184 -0.4424
 8314SOL    HW236579   1.555   1.398   5.031 -1.2628  0.5882 -0.1265
 8315SOL     OW36580   2.861   2.842   0.165  0.1325 -0.0759  0.1594
 8315SOL    HW136581   2.781   2.859   0.115  0.4570  0.5641 -0.1475
 8315SOL    HW236582   2.836   2.909   0.230 -0.0446  0.8486 -0.8592
 8316SOL     OW36583   3.686   0.549   4.569  0.1511  0.2640  0.2307
 8316SOL    HW136584   3.696   0.632   4.615  1.0249  1.8647 -2.8348
 8316SOL    HW236585   3.612   0.576   4.515  0.6096 -1.5321 -1.2967
 8317SOL     OW36586   0.682   3.918   3.171 -0.0845  0.4808 -0.2145
 8317SOL    HW136587   0.624   3.989   3.196 -2.6777 -1.6836 -0.0554
 8317SOL    HW236588   0.629   3.845   3.138  2.1526 -2.1718  2.0938
 8318SOL     OW36589   4.205   1.048   1.611  0.7048 -0.1355 -0.1980
 8318SOL    HW136590   4.186   1.117   1.674  1.8193  0.0339 -0.0457
 8318SOL    HW236591   4.293   1.068   1.579 -0.0276  1.4440 -1.2265
 8319SOL     OW36592   1.392   2.405  13.969  0.2679  0.3796 -0.0020
 8319SOL    HW136593   1.415   2.314  13.949 -0.5614  0.4814 -1.4115
 8319SOL    HW236594   1.394   2.397  14.065 -1.5790  1.0660  0.0712
 8320SOL     OW36595   1.176   2.679   6.549  0.1106 -0.1424 -0.3289
 8320SOL    HW136596   1.251   2.625   6.574  0.2821  0.3891  0.3010
 8320SOL    HW236597   1.130   2.699   6.630 -1.1838  2.3156 -1.6523
 8321SOL     OW36598   0.154   3.708   6.636  0.3995  1.3200  0.4345
 8321SOL    HW136599   0.201   3.676   6.713  1.3358  0.9091 -0.3029
 8321SOL    HW236600   0.195   3.794   6.625 -0.1998  1.5023 -0.4156
 8322SOL     OW36601   1.585   3.435   4.358 -0.2323  0.0325  0.6330
 8322SOL    HW136602   1.521   3.368   4.334  0.8362 -0.8682  0.3211
 8322SOL    HW236603   1.646   3.389   4.416 -1.5398  0.1974  2.1333
 8323SOL     OW36604   1.513   4.602  14.623 -0.1890 -0.3018 -0.2441
 8323SOL    HW136605   1.445   4.535  14.617  0.7475 -1.3671  1.1802
 8323SOL    HW236606   1.469   4.681  14.591 -3.2823 -2.3177 -0.9584
 8324SOL     OW36607   1.478   1.583  17.020  0.4006 -0.0542  0.3641
 8324SOL    HW136608   1.393   1.559  16.982 -1.3611  0.5598  3.9269
 8324SOL    HW236609   1.512   1.647  16.958 -2.8018  0.1727 -1.1437
 8325SOL     OW36610   4.434   3.947   7.998 -0.6197 -0.0770 -0.4625
 8325SOL    HW136611   4.383   3.902   7.931 -1.9488  0.6005  0.0973
 8325SOL    HW236612   4.503   3.991   7.948  0.3178  1.3615  2.1162
 8326SOL     OW36613   0.876   3.628   8.104 -0.3968  0.1436 -0.5063
 8326SOL    HW136614   0.900   3.586   8.187 -0.9222 -1.1416 -1.0111
 8326SOL    HW236615   0.919   3.713   8.110 -0.1802 -0.0268  0.4465
 8327SOL     OW36616   3.691   4.317  12.905  0.0478 -0.7322 -0.1988
 8327SOL    HW136617   3.774   4.269  12.903 -0.6040 -1.7872 -1.2961
 8327SOL    HW236618   3.708   4.381  12.836  1.8166 -0.0909  0.8420
 8328SOL     OW36619   1.503   0.235  11.363 -0.0017  0.3162  0.2472
 8328SOL    HW136620   1.422   0.265  11.406 -1.6321 -1.3038 -1.7335
 8328SOL    HW236621   1.465   0.185  11.291 -0.7747  1.2042  0.0270
 8329SOL     OW36622   4.704   1.721   6.005  0.2743  0.3982  0.2367
 8329SOL    HW136623   4.686   1.633   5.972  0.1076  0.3139  0.5495
 8329SOL    HW236624   0.024   1.753   5.935  1.3472 -2.8476 -0.4018
 8330SOL     OW36625   3.460   4.692  14.827  0.4942 -0.1639  0.2709
 8330SOL    HW136626   3.479   4.714  14.736  1.6572 -2.5374 -0.0364
 8330SOL    HW236627   3.428   0.040  14.859 -0.8212 -1.0527  1.3026
 8331SOL     OW36628   0.119   2.832   4.817  0.0224 -0.0832 -0.3015
 8331SOL    HW136629   0.198   2.878   4.788  0.8415 -1.2353  0.0950
 8331SOL    HW236630   0.089   2.789   4.737  0.2761  0.2244 -0.5615
 8332SOL     OW36631   1.690   0.534   8.111 -0.2987 -0.0741 -0.4943
 8332SOL    HW136632   1.724   0.509   8.025 -2.1386 -1.4543 -0.7949
 8332SOL    HW236633   1.599   0.556   8.091 -0.2649  0.4598 -0.0886
 8333SOL     OW36634   4.480   1.343   9.098  0.2598 -0.1845 -0.2064
 8333SOL    HW136635   4.398   1.368   9.057  1.0201  0.2438 -1.4520
 8333SOL    HW236636   4.476   1.358   9.192 -1.2995  0.3059 -0.3501
 8334SOL     OW36637   0.048   1.424  11.171 -0.0238 -0.3273 -0.3524
 8334SOL    HW136638   0.040   1.382  11.085 -0.7746 -0.6488 -0.1305
 8334SOL    HW236639   0.098   1.504  11.160 -0.8876  0.1793 -0.6337
 8335SOL     OW36640   4.196   3.244   5.279  0.0880  0.1553 -0.2343
 8335SOL    HW136641   4.186   3.339   5.285  0.1558  0.1042  0.7067
 8335SOL    HW236642   4.160   3.219   5.365 -0.0488 -1.1827 -0.6760
 8336SOL     OW36643   4.350   0.853  14.755 -0.4949  0.1367  0.0573
 8336SOL    HW136644   4.411   0.883  14.821  1.4524 -1.3301 -1.0814
 8336SOL    HW236645   4.268   0.880  14.797 -0.6820 -0.2998 -0.0207
 8337SOL     OW36646   3.315   1.612   4.716  0.2764 -0.4473 -0.0328
 8337SOL    HW136647   3.333   1.558   4.639  2.6896  1.0268 -0.5333
 8337SOL    HW236648   3.224   1.587   4.728  0.3247 -0.6043 -0.0017
 8338SOL     OW36649   4.354   2.104   4.895  0.2259 -0.0483 -0.5662
 8338SOL    HW136650   4.260   2.123   4.903 -0.1928 -1.2289 -2.4250
 8338SOL    HW236651   4.388   2.079   4.980 -0.9088  0.2351 -0.0266
 8339SOL     OW36652   1.455   0.120  14.573 -0.4619 -0.1440  0.5139
 8339SOL    HW136653   1.440   0.211  14.548 -1.4182 -0.7994 -1.3038
 8339SOL    HW236654   1.486   0.140  14.661  1.5328 -2.8825  0.4581
 8340SOL     OW36655   1.476   2.399   8.818 -0.2350  0.1151  0.5138
 8340SOL    HW136656   1.416   2.325   8.827 -1.7884  1.2655 -0.3128
 8340SOL    HW236657   1.557   2.375   8.863 -0.0657 -0.2173  0.0228
 8341SOL     OW36658   1.861   3.568   8.394  0.1412  0.3575 -0.2932
 8341SOL    HW136659   1.895   3.552   8.306  0.1646 -1.2545  0.0024
 8341SOL    HW236660   1.787   3.507   8.395 -0.4767  1.0947 -1.4204
 8342SOL     OW36661   0.940   3.852   0.063  0.5807  0.4308  0.6749
 8342SOL    HW136662   0.934   3.799  17.731 -1.0023  1.6419 -0.0290
 8342SOL    HW236663   1.035   3.840   0.070  0.6991  1.0415  0.1322
 8343SOL     OW36664   3.709   4.353   6.953  0.1428 -0.4018  0.1894
 8343SOL    HW136665   3.681   4.349   7.044  0.0363  0.6725  0.2018
 8343SOL    HW236666   3.773   4.423   6.965  0.4535 -0.7602  0.6386
 8344SOL     OW36667   0.494   0.178   8.082 -0.4176  0.4843 -0.0753
 8344SOL    HW136668   0.565   0.174   8.146  0.0555 -0.4901 -0.6544
 8344SOL    HW236669   0.549   0.173   8.004  0.3791  0.5064  0.4747
 8345SOL     OW36670   2.952   2.980   5.068  0.5633  0.0727 -0.2859
 8345SOL    HW136671   2.870   3.025   5.047  0.0068 -1.1643 -0.7873
 8345SOL    HW236672   2.968   3.012   5.157  0.2049 -1.2489  0.2552
 8346SOL     OW36673   0.238   2.557   3.232 -0.8672 -0.5083  0.4990
 8346SOL    HW136674   0.205   2.647   3.233  1.2916  0.3210 -1.1804
 8346SOL    HW236675   0.327   2.575   3.201 -1.3266 -1.0868 -1.1525
 8347SOL     OW36676   3.824   2.451   1.767 -0.4783  0.1456 -0.7125
 8347SOL    HW136677   3.880   2.470   1.843 -1.7476  0.8378  0.0495
 8347SOL    HW236678   3.780   2.372   1.799  2.0167 -0.9890 -0.0720
 8348SOL     OW36679   3.991   4.545  13.121 -0.1258 -0.7014  0.3737
 8348SOL    HW136680   4.051   4.491  13.174  1.4665  0.6047 -0.1236
 8348SOL    HW236681   3.996   4.502  13.036 -2.8124 -1.4374  0.5878
 8349SOL     OW36682   0.317   2.606   8.268 -0.6488 -0.5382  0.3660
 8349SOL    HW136683   0.242   2.647   8.312 -0.6565 -1.7450  1.4680
 8349SOL    HW236684   0.348   2.563   8.348 -1.6398  0.8591  1.5079
 8350SOL     OW36685   2.072   1.913   1.803  0.2713  0.1279  0.0770
 8350SOL    HW136686   1.980   1.889   1.792  0.3003 -0.5990  1.4522
 8350SOL    HW236687   2.059   1.982   1.868 -1.8710 -0.8038  0.6320
 8351SOL     OW36688   0.355   0.145   5.523  0.3150 -0.3279  0.8197
 8351SOL    HW136689   0.394   0.202   5.456  1.7180  0.2234  2.1224
 8351SOL    HW236690   0.304   0.088   5.465 -0.9726  1.9391 -0.2778
 8352SOL     OW36691   2.341   2.905   8.766 -0.0580 -0.2778  0.2426
 8352SOL    HW136692   2.274   2.889   8.833  0.5943  0.2056  1.0094
 8352SOL    HW236693   2.320   2.829   8.713 -0.7950  0.0962 -0.0043
 8353SOL     OW36694   0.323   0.349  14.536 -0.6093  0.3625  0.0035
 8353SOL    HW136695   0.236   0.379  14.509 -2.2936 -4.1081  0.4611
 8353SOL    HW236696   0.356   0.326  14.450 -0.6800 -0.0476  0.0850
 8354SOL     OW36697   0.468   3.355   2.815  0.5192 -0.1579 -0.1886
 8354SOL    HW136698   0.538   3.420   2.823 -0.6022  1.3047 -2.2700
 8354SOL    HW236699   0.461   3.330   2.907  0.7397  2.3694  0.5230
 8355SOL     OW36700   3.193   2.022   7.353 -0.7100  0.3782 -0.0087
 8355SOL    HW136701   3.105   1.989   7.332 -0.2270 -0.8988 -0.0282
 8355SOL    HW236702   3.192   2.086   7.281  0.3321 -0.2646 -0.5972
 8356SOL     OW36703   0.463   1.142  11.181  0.2745  0.0193  0.0247
 8356SOL    HW136704   0.385   1.177  11.138 -1.0971 -1.6485  1.1581
 8356SOL    HW236705   0.461   1.186  11.265 -0.0896 -0.7105  0.4012
 8357SOL     OW36706   2.973   2.499   2.732  0.0373 -1.0587  0.3233
 8357SOL    HW136707   2.950   2.591   2.747  1.8710 -0.7464  1.2605
 8357SOL    HW236708   2.944   2.450   2.809  0.8029 -0.8070  0.7679
 8358SOL     OW36709   3.652   1.086   4.737 -0.2568 -0.1264 -0.4431
 8358SOL    HW136710   3.742   1.103   4.707  0.0495 -0.4697  0.2729
 8358SOL    HW236711   3.604   1.154   4.690  2.7728  1.3908 -1.3298
 8359SOL     OW36712   2.739   2.984   5.652 -0.2304  0.1464 -0.1485
 8359SOL    HW136713   2.735   3.023   5.565  1.1832  1.0204  0.1644
 8359SOL    HW236714   2.783   3.056   5.699  2.2197  0.8011 -3.4456
 8360SOL     OW36715   4.045   1.231   3.799 -0.0560  0.1787  0.2449
 8360SOL    HW136716   3.966   1.207   3.749 -0.1366  0.1878  0.3669
 8360SOL    HW236717   4.016   1.310   3.844  0.7977  0.8102 -0.3148
 8361SOL     OW36718   3.480   3.412   5.579  0.3219 -0.3856 -0.0196
 8361SOL    HW136719   3.439   3.355   5.644  2.7465 -0.8745  1.1105
 8361SOL    HW236720   3.422   3.488   5.579 -0.1454 -0.7384  2.5336
 8362SOL     OW36721   4.613   0.806  13.096  0.0274 -0.4930  0.2856
 8362SOL    HW136722   4.651   0.844  13.176  0.4803  0.8515 -0.5726
 8362SOL    HW236723   4.693   0.764  13.066 -0.3799 -1.3604  0.3936
 8363SOL     OW36724   2.006   0.737  14.246 -0.3117 -0.1564  0.5153
 8363SOL    HW136725   1.979   0.760  14.335  3.2050 -2.0258  2.0765
 8363SOL    HW236726   1.951   0.660  14.234 -0.4757 -0.1650  1.2772
 8364SOL     OW36727   3.093   3.084   3.533 -0.4635  0.2934 -0.2153
 8364SOL    HW136728   3.051   3.007   3.570  1.2164  0.4720  2.1108
 8364SOL    HW236729   3.023   3.125   3.482 -0.5294  0.0295 -0.3343
 8365SOL     OW36730   1.907   4.470   4.514  0.1072  0.0018 -0.2025
 8365SOL    HW136731   1.844   4.447   4.446 -0.3526 -1.3138  0.6668
 8365SOL    HW236732   1.887   4.559   4.543 -1.9929  0.0870 -1.9988
 8366SOL     OW36733   0.121   3.695  11.481  0.3749 -0.3204  0.0049
 8366SOL    HW136734   0.051   3.632  11.497 -1.4224  1.5181 -0.5331
 8366SOL    HW236735   0.198   3.652  11.518 -0.3604 -1.9631 -0.3872
 8367SOL     OW36736   0.507   2.021   3.273 -0.9140  0.9526  0.5878
 8367SOL    HW136737   0.539   1.933   3.293 -0.2829  1.1217  0.3253
 8367SOL    HW236738   0.512   2.030   3.178  2.0489 -1.2405  0.5547
 8368SOL     OW36739   1.038   0.142   7.219 -0.4329 -0.1166  0.6806
 8368SOL    HW136740   1.051   0.109   7.308  1.2541 -0.7076  0.2141
 8368SOL    HW236741   1.095   0.218   7.220 -0.0726 -0.3674 -1.0121
 8369SOL     OW36742   0.299   3.905   6.365 -0.8992 -0.5512 -0.7229
 8369SOL    HW136743   0.327   3.916   6.456  3.1943  0.0388 -2.0111
 8369SOL    HW236744   0.209   3.935   6.355 -0.4763  1.3952  1.4724
 8370SOL     OW36745   1.918   3.932  17.246  0.0324 -0.3701  0.2606
 8370SOL    HW136746   1.918   3.838  17.260  1.3109 -0.2833  0.8363
 8370SOL    HW236747   1.912   3.936  17.151  0.7083 -2.1300  0.1427
 8371SOL     OW36748   1.954   3.866   4.299 -0.6309  0.4470 -0.4037
 8371SOL    HW136749   2.008   3.825   4.367 -0.6156 -0.0239 -0.6971
 8371SOL    HW236750   1.886   3.915   4.345 -1.4379 -1.5964  0.6075
 8372SOL     OW36751   0.875   2.847  10.954  0.3024 -0.5328  0.1612
 8372SOL    HW136752   0.878   2.753  10.936  1.2406 -0.1123 -1.9107
 8372SOL    HW236753   0.915   2.851  11.041 -1.3574 -0.1186  0.9161
 8373SOL     OW36754   4.211   1.658  17.125  0.1558  0.1364  0.1392
 8373SOL    HW136755   4.278   1.593  17.105 -1.4981 -1.5130 -0.0508
 8373SOL    HW236756   4.190   1.694  17.039  0.3502 -0.5317 -0.1882
 8374SOL     OW36757   1.401   4.444   2.983  0.4589  0.5175  0.0552
 8374SOL    HW136758   1.483   4.483   3.013 -0.0547  1.0956  0.7207
 8374SOL    HW236759   1.398   4.460   2.889 -1.3771  0.0540  0.0271
 8375SOL     OW36760   1.400   2.626   8.199  0.2495 -0.3863  0.7001
 8375SOL    HW136761   1.420   2.542   8.240  1.1434 -0.0164  1.0174
 8375SOL    HW236762   1.426   2.685   8.269 -2.5966  0.3545  1.1274
 8376SOL     OW36763   3.296   1.179  15.633 -0.1726  0.1970  0.1423
 8376SOL    HW136764   3.226   1.140  15.580  1.9601 -2.1939 -0.9055
 8376SOL    HW236765   3.357   1.211  15.567 -2.3861  1.1245 -1.4486
 8377SOL     OW36766   2.008   1.307   1.424  0.5387  0.0184  0.4417
 8377SOL    HW136767   2.099   1.304   1.393 -0.1629 -2.5014 -1.4042
 8377SOL    HW236768   2.005   1.222   1.468  1.3995 -0.5888 -0.6504
 8378SOL     OW36769   3.988   2.558   3.446 -0.0220  0.5402 -0.5781
 8378SOL    HW136770   4.074   2.595   3.427  0.4901 -0.0937  0.4542
 8378SOL    HW236771   3.945   2.616   3.384 -0.8202  1.3447  0.7321
 8379SOL     OW36772   0.367   0.214  16.153  0.6063 -0.3610  0.4262
 8379SOL    HW136773   0.412   0.131  16.140 -0.2016 -0.6065 -0.8667
 8379SOL    HW236774   0.328   0.196  16.238 -0.1497  2.3116  0.6578
 8380SOL     OW36775   3.256   4.402   1.623  0.6199  0.1679 -0.7639
 8380SOL    HW136776   3.241   4.342   1.696  1.5666 -1.2284 -1.7308
 8380SOL    HW236777   3.169   4.389   1.586  0.6638  1.1803 -1.2428
 8381SOL     OW36778   2.001   4.169   6.082  0.0837 -0.0497 -0.7501
 8381SOL    HW136779   1.942   4.227   6.131  0.4006  0.5779 -1.1026
 8381SOL    HW236780   2.089   4.204   6.098 -0.8934  1.6642  0.8385
 8382SOL     OW36781   1.248   1.139   9.627 -0.3319 -0.2714  0.3135
 8382SOL    HW136782   1.218   1.219   9.584  1.4959 -0.7326 -1.8042
 8382SOL    HW236783   1.162   1.098   9.618 -0.7918  0.9544 -0.9235
 8383SOL     OW36784   0.809   2.355  14.082 -0.3467  0.5315 -0.2286
 8383SOL    HW136785   0.808   2.414  14.006  1.5573  0.0942 -0.6012
 8383SOL    HW236786   0.903   2.365  14.099 -0.5557  1.6862  0.3088
 8384SOL     OW36787   0.472   3.698   9.325  0.1907  0.1249  0.5368
 8384SOL    HW136788   0.464   3.674   9.233  1.4261 -1.6751  0.9059
 8384SOL    HW236789   0.555   3.656   9.346  0.3182 -0.7049 -1.6607
 8385SOL     OW36790   3.941   1.487  16.922  0.7252 -0.2932  0.0746
 8385SOL    HW136791   4.014   1.461  16.866 -0.9034 -0.9065 -1.7273
 8385SOL    HW236792   3.917   1.571  16.883 -2.2464 -0.7732  0.8949
 8386SOL     OW36793   2.235   0.598   3.181 -0.0748  0.6818  0.1105
 8386SOL    HW136794   2.159   0.595   3.239 -0.4749  2.6065 -0.3389
 8386SOL    HW236795   2.263   0.507   3.195 -1.7341  0.3483  1.3162
 8387SOL     OW36796   4.211   0.140   8.610 -0.1321 -0.0088  0.1084
 8387SOL    HW136797   4.140   0.164   8.549  1.2719 -0.9880 -1.8799
 8387SOL    HW236798   4.268   0.216   8.596  1.0928 -0.8467  0.6096
 8388SOL     OW36799   2.201   4.424   6.957 -0.3738 -0.0759 -0.1443
 8388SOL    HW136800   2.219   4.353   7.019 -1.3652 -1.3342 -1.3051
 8388SOL    HW236801   2.232   4.387   6.875  0.0018 -0.2419  0.0752
 8389SOL     OW36802   0.102   1.081   7.295 -0.0673  0.2748 -0.1637
 8389SOL    HW136803   0.153   1.023   7.239  0.6744  0.6976  0.0769
 8389SOL    HW236804   0.080   1.153   7.235 -2.8703  0.6218  1.2467
 8390SOL     OW36805   4.722   1.649   0.182  0.0603  0.2038 -0.0862
 8390SOL    HW136806   4.659   1.617   0.247 -0.5550  1.0761 -0.2555
 8390SOL    HW236807   4.658   1.693   0.126  0.8892  0.1337 -1.0829
 8391SOL     OW36808   0.086   4.065   9.264  0.5988 -0.1984 -0.1713
 8391SOL    HW136809   0.123   4.096   9.182 -2.0218 -2.2103 -2.0966
 8391SOL    HW236810   0.152   4.002   9.292  0.3057  0.5847  2.2765
 8392SOL     OW36811   0.794   2.866   5.693  0.7037  0.2239  0.4160
 8392SOL    HW136812   0.766   2.811   5.766 -1.0006  0.8913  0.2818
 8392SOL    HW236813   0.888   2.870   5.707  0.3480 -0.4380  3.0398
 8393SOL     OW36814   1.183   0.929   5.315 -0.0960 -0.0243 -0.5470
 8393SOL    HW136815   1.264   0.974   5.339  0.2068  0.3037 -2.1883
 8393SOL    HW236816   1.144   0.917   5.401 -0.4453  1.6348 -0.4826
 8394SOL     OW36817   1.135   4.653   1.821 -0.1300  0.5592 -0.3283
 8394SOL    HW136818   1.169   4.570   1.855 -0.9972  0.2709 -0.1711
 8394SOL    HW236819   1.194   4.679   1.751 -0.0730  0.7778 -0.1983
 8395SOL     OW36820   1.479   2.293   7.716 -0.2939  0.6988  0.3338
 8395SOL    HW136821   1.542   2.342   7.663  0.6544 -1.9205 -0.9353
 8395SOL    HW236822   1.461   2.349   7.791  1.2330  0.6385  0.7429
 8396SOL     OW36823   2.945   0.330  10.187 -0.1916 -0.1159 -0.0749
 8396SOL    HW136824   3.002   0.397  10.150 -0.3976  1.0724  1.7505
 8396SOL    HW236825   2.871   0.376  10.227  1.2658  0.9727  1.3448
 8397SOL     OW36826   2.812   3.689   3.575  0.9068 -0.5871 -0.0844
 8397SOL    HW136827   2.874   3.636   3.525  1.6844  0.2504 -0.0008
 8397SOL    HW236828   2.825   3.648   3.661  0.9875  1.4374  0.8601
 8398SOL     OW36829   4.553   4.366   3.572 -0.1821 -0.0840  0.0415
 8398SOL    HW136830   4.593   4.399   3.492  0.5939  0.4035  0.6197
 8398SOL    HW236831   4.473   4.419   3.569  0.6407  1.0614 -1.6799
 8399SOL     OW36832   4.500   1.695   3.709  0.0757  0.5156 -0.3191
 8399SOL    HW136833   4.520   1.783   3.679  0.6264  0.7849  0.8585
 8399SOL    HW236834   4.444   1.710   3.785  0.3221 -0.3790  0.0422
 8400SOL     OW36835   0.662   3.565   7.134 -0.2483  0.7686  0.0579
 8400SOL    HW136836   0.656   3.498   7.066 -3.5986  1.1958 -0.0548
 8400SOL    HW236837   0.675   3.643   7.080  0.1141 -0.4902 -1.6717
 8401SOL     OW36838   3.763   0.024   8.742  0.3261 -0.0023  0.3077
 8401SOL    HW136839   3.720   0.053   8.822  0.0550  0.9529 -0.1881
 8401SOL    HW236840   3.852   0.033   8.776  0.3216 -1.2414  0.6479
 8402SOL     OW36841   1.953   3.199   6.793  0.3613  0.1984  0.4160
 8402SOL    HW136842   1.956   3.254   6.872  2.7528  1.9603 -0.8913
 8402SOL    HW236843   1.858   3.200   6.777  0.5252 -1.4225 -0.6122
 8403SOL     OW36844   1.257   4.533  11.460 -0.5052 -0.0579 -0.7418
 8403SOL    HW136845   1.291   4.451  11.495 -0.3299  1.5074  2.8028
 8403SOL    HW236846   1.336   4.587  11.460  0.8437 -2.0347  0.1373
 8404SOL     OW36847   2.676   3.561   7.826  0.7485  0.2069 -0.0712
 8404SOL    HW136848   2.658   3.467   7.817  1.2722  0.3735 -2.7837
 8404SOL    HW236849   2.656   3.598   7.741 -0.4091 -0.3290 -0.0227
 8405SOL     OW36850   2.239   0.617   6.565  0.4779  0.5098  0.3217
 8405SOL    HW136851   2.264   0.675   6.636  1.8169  0.8248 -0.4109
 8405SOL    HW236852   2.293   0.651   6.493 -0.4877  0.9231 -0.2187
 8406SOL     OW36853   4.710   0.266   6.674 -0.1983 -0.4562  0.9516
 8406SOL    HW136854   4.694   0.173   6.695 -1.9868  0.0563  1.9005
 8406SOL    HW236855   0.045   0.254   6.613 -0.4779  0.8748  0.3766
 8407SOL     OW36856   2.480   0.657   5.170  0.5748 -0.3756 -0.0524
 8407SOL    HW136857   2.389   0.649   5.199  0.6364  0.1189  0.2765
 8407SOL    HW236858   2.504   0.722   5.236 -0.4783 -1.3174  1.2599
 8408SOL     OW36859   3.397   3.944   8.921  0.4259 -0.1210 -0.0678
 8408SOL    HW136860   3.432   4.027   8.953 -0.8589  0.3913 -0.0010
 8408SOL    HW236861   3.435   3.941   8.833 -3.7762  0.9476 -1.9149
 8409SOL     OW36862   1.648   2.141   7.885 -0.4576 -0.1250 -0.4152
 8409SOL    HW136863   1.613   2.194   7.814  0.3770  0.4241 -0.4119
 8409SOL    HW236864   1.707   2.083   7.836  0.2931  0.1443  0.1639
 8410SOL     OW36865   1.381   1.768  12.622  0.2829  0.4497  0.3756
 8410SOL    HW136866   1.411   1.719  12.546  0.9077  1.0932  0.2117
 8410SOL    HW236867   1.363   1.853  12.582 -1.4539  0.0684  0.3209
 8411SOL     OW36868   3.407   2.332  16.846  0.2219 -0.0503  0.0030
 8411SOL    HW136869   3.333   2.376  16.888 -0.9217  1.1996 -3.2570
 8411SOL    HW236870   3.371   2.271  16.781  0.2766 -1.8726  1.6706
 8412SOL     OW36871   2.275   0.260   4.372 -0.0753  0.0817  0.1641
 8412SOL    HW136872   2.325   0.231   4.448  1.0340 -1.0732 -0.9887
 8412SOL    HW236873   2.327   0.221   4.301  1.0937  0.2706  0.9103
 8413SOL     OW36874   1.057   2.982   4.189 -0.3049  0.1439  0.1714
 8413SOL    HW136875   1.061   2.901   4.240 -0.2648  0.1314  0.1485
 8413SOL    HW236876   1.047   2.939   4.104  3.0777  2.2570 -1.2911
 8414SOL     OW36877   2.521   1.107   3.471 -0.2332 -0.4861 -0.1785
 8414SOL    HW136878   2.468   1.146   3.540  2.2877 -0.6204  1.8478
 8414SOL    HW236879   2.606   1.140   3.501 -1.5066  0.7336  2.0629
 8415SOL     OW36880   3.829   1.566   9.185 -0.2062 -0.1761 -0.0846
 8415SOL    HW136881   3.766   1.638   9.179  0.4515  0.3715 -0.3856
 8415SOL    HW236882   3.821   1.529   9.097  0.7186 -0.7379  0.0669
 8416SOL     OW36883   3.800   0.683  12.795 -0.4114  0.4500  0.5599
 8416SOL    HW136884   3.826   0.772  12.820  0.0058  0.4130  0.2510
 8416SOL    HW236885   3.730   0.698  12.730  1.8992  0.4692 -1.9187
 8417SOL     OW36886   1.307   2.856  15.139 -0.3871 -0.1838  0.1447
 8417SOL    HW136887   1.386   2.827  15.092  0.5527  1.0748  0.9540
 8417SOL    HW236888   1.337   2.946  15.154  2.6186 -1.2953  0.9563
 8418SOL     OW36889   3.936   1.312   1.604 -0.2160 -0.2045 -0.4594
 8418SOL    HW136890   3.851   1.300   1.561 -0.7820  0.2085  0.5343
 8418SOL    HW236891   3.982   1.334   1.523 -2.2054  0.3937 -1.4322
 8419SOL     OW36892   0.001   4.716   3.760 -0.3491 -0.3214  0.2235
 8419SOL    HW136893   4.647   4.719   3.787 -0.0467 -2.5980  1.4428
 8419SOL    HW236894   4.733   4.698   3.666  0.7619  1.3540 -0.1699
 8420SOL     OW36895   4.294   1.645  17.650 -0.4676  0.1660 -0.3399
 8420SOL    HW136896   4.280   1.668  17.742  3.9360  2.0922 -0.1651
 8420SOL    HW236897   4.216   1.594  17.629 -0.1805 -1.3935  2.4100
 8421SOL     OW36898   1.068   2.530  17.522  0.3148 -0.0054  0.2735
 8421SOL    HW136899   1.135   2.517  17.589  0.5413  1.9986  0.4518
 8421SOL    HW236900   1.068   2.440  17.491 -2.3067 -0.0610  0.4248
 8422SOL     OW36901   4.057   3.100  14.486 -0.3975 -0.0429 -0.3839
 8422SOL    HW136902   4.047   3.123  14.579 -2.5440  0.7925 -0.8229
 8422SOL    HW236903   4.063   3.004  14.487 -1.3110 -0.0962  0.0081
 8423SOL     OW36904   0.603   3.148   1.466 -0.1791 -0.5263  0.1793
 8423SOL    HW136905   0.673   3.097   1.423  0.9244  0.6914  0.5365
 8423SOL    HW236906   0.647   3.233   1.470  1.1818 -1.2096 -0.0414
 8424SOL     OW36907   1.007   2.368   1.441  0.0603  0.4467  0.4873
 8424SOL    HW136908   0.983   2.422   1.366 -2.5630  0.5320  1.3681
 8424SOL    HW236909   0.976   2.422   1.514  0.6610  0.2559  0.8798
 8425SOL     OW36910   0.143   2.517  10.705 -0.1664 -0.0657 -0.4390
 8425SOL    HW136911   0.176   2.519  10.615 -0.2923  0.7197 -0.4664
 8425SOL    HW236912   0.113   2.607  10.716  0.0034 -0.1207  0.5181
 8426SOL     OW36913   2.318   1.334   9.799  0.4602 -0.6179 -0.0801
 8426SOL    HW136914   2.394   1.331   9.858  0.2302  1.6908  0.3036
 8426SOL    HW236915   2.248   1.280   9.835  0.3822 -1.7930 -1.9768
 8427SOL     OW36916   0.672   1.502  15.307 -0.5349 -0.2216  0.0601
 8427SOL    HW136917   0.621   1.500  15.226 -0.4969  0.8977  0.0106
 8427SOL    HW236918   0.609   1.496  15.379  2.4301 -0.8838  2.5898
 8428SOL     OW36919   1.582   1.101   9.681  0.5453  0.1479 -0.1036
 8428SOL    HW136920   1.597   1.193   9.705 -2.1287  0.5679 -0.0287
 8428SOL    HW236921   1.515   1.105   9.613  0.5358 -0.0799 -0.1061
 8429SOL     OW36922   4.641   1.794  10.891 -0.1221 -0.2871  0.0563
 8429SOL    HW136923   4.647   1.705  10.925 -2.2748  0.0555  1.3453
 8429SOL    HW236924   4.617   1.776  10.800 -1.0278 -2.5381  0.7455
 8430SOL     OW36925   3.303   0.345   4.868 -0.2656  0.1989  0.0307
 8430SOL    HW136926   3.236   0.289   4.829  0.9996 -0.3224 -1.4022
 8430SOL    HW236927   3.329   0.296   4.946  1.1392 -1.7256 -1.6186
 8431SOL     OW36928   0.211   2.933   6.532  0.2075  0.5501 -0.1422
 8431SOL    HW136929   0.259   2.861   6.572  1.4409  1.7237  0.5017
 8431SOL    HW236930   0.123   2.896   6.539 -0.0210  0.7536 -1.8252
 8432SOL     OW36931   3.901   2.109   6.413  0.4001  0.3492  0.3117
 8432SOL    HW136932   3.861   2.022   6.414  0.6754  0.2435  1.9203
 8432SOL    HW236933   3.979   2.111   6.469  0.8907  1.3052 -0.3909
 8433SOL     OW36934   1.958   4.400   0.173  0.5157 -0.1449  0.2286
 8433SOL    HW136935   1.980   4.418   0.082 -0.6765 -0.2375 -0.0730
 8433SOL    HW236936   1.864   4.413   0.165  0.5107 -0.0943  0.3690
 8434SOL     OW36937   4.688   3.217   2.695 -0.5184 -0.5997  0.0945
 8434SOL    HW136938   4.670   3.173   2.778  1.2360 -1.4169  0.0398
 8434SOL    HW236939   0.040   3.191   2.670  0.0902  0.2108  1.4430
 8435SOL     OW36940   0.279   1.439   3.201  0.7012  0.4902  0.2154
 8435SOL    HW136941   0.203   1.380   3.197  1.7957 -0.9263  0.0892
 8435SOL    HW236942   0.302   1.419   3.291  0.9777 -1.0088 -0.1776
 8436SOL     OW36943   1.111   1.532  10.539  0.3015 -0.8144  0.2627
 8436SOL    HW136944   1.206   1.528  10.536  0.4529  2.2785  1.4507
 8436SOL    HW236945   1.084   1.557  10.627 -2.4298 -0.0671 -0.7532
 8437SOL     OW36946   3.363   1.269   5.432 -0.1072 -0.7226 -0.1154
 8437SOL    HW136947   3.437   1.247   5.488  0.0221  0.7825  0.2856
 8437SOL    HW236948   3.355   1.361   5.454  2.8855 -0.2469 -1.0717
 8438SOL     OW36949   4.465   4.190   8.823  0.7116 -0.1208  0.3114
 8438SOL    HW136950   4.390   4.232   8.781 -0.9963 -3.3855  0.0609
 8438SOL    HW236951   4.454   4.098   8.799  1.4353  0.2126 -1.3759
 8439SOL     OW36952   3.754   0.758   9.995  0.2783 -0.3075 -0.0837
 8439SOL    HW136953   3.772   0.697  10.067  0.4741  1.2840  1.2182
 8439SOL    HW236954   3.663   0.745   9.969  0.0712 -2.2224  1.6240
 8440SOL     OW36955   4.386   0.125   4.895  0.3645  0.3091  0.6961
 8440SOL    HW136956   4.310   0.176   4.923 -0.9300 -0.9662 -0.4686
 8440SOL    HW236957   4.367   0.037   4.929 -1.8040  1.4416  2.4047
 8441SOL     OW36958   1.089   3.334   8.149  0.7868  0.1723 -0.0199
 8441SOL    HW136959   1.131   3.407   8.105 -0.3216 -0.6096 -2.3791
 8441SOL    HW236960   1.153   3.275   8.190 -0.3963 -1.4753 -0.5178
 8442SOL     OW36961   1.188   4.095  12.197 -0.0541  0.4870 -0.2433
 8442SOL    HW136962   1.217   4.140  12.276 -0.0659 -2.6221  1.5269
 8442SOL    HW236963   1.237   4.147  12.133  1.8027 -0.0045  0.7918
 8443SOL     OW36964   1.488   4.192   4.161 -0.4021 -0.1865  0.6288
 8443SOL    HW136965   1.499   4.118   4.220  1.8116  0.1026  0.5725
 8443SOL    HW236966   1.570   4.196   4.112 -0.6714  1.7093  0.3112
 8444SOL     OW36967   2.118   2.849   8.937  0.8252 -0.4054 -0.6929
 8444SOL    HW136968   2.092   2.757   8.927  0.5317 -0.3355 -0.6001
 8444SOL    HW236969   2.036   2.891   8.910  0.2253 -0.2683  1.2864
 8445SOL     OW36970   2.502   2.719   1.892  0.1569 -0.5092  0.5537
 8445SOL    HW136971   2.567   2.782   1.921  0.9059 -2.3805  2.9570
 8445SOL    HW236972   2.528   2.693   1.804 -0.6232  1.6362 -0.3054
 8446SOL     OW36973   4.064   1.829   9.379 -0.8175  0.5942  0.0626
 8446SOL    HW136974   4.132   1.782   9.331 -2.0843  0.5431 -1.6649
 8446SOL    HW236975   3.990   1.848   9.321  0.0371  1.6692 -0.6710
 8447SOL     OW36976   0.779   3.240   6.697 -0.0189  0.0780 -0.7908
 8447SOL    HW136977   0.822   3.236   6.611 -0.1451  1.8181 -0.9269
 8447SOL    HW236978   0.696   3.196   6.679 -0.1983 -0.6243  1.7299
 8448SOL     OW36979   4.623   4.106   7.719 -0.4009  0.1713 -0.3820
 8448SOL    HW136980   4.639   4.155   7.800 -0.9414 -0.2342 -0.0351
 8448SOL    HW236981   4.646   4.018   7.748 -0.6803  0.7692  1.6320
 8449SOL     OW36982   3.544   0.814  11.113  0.0089 -0.3607  0.1425
 8449SOL    HW136983   3.498   0.731  11.128 -3.1665  1.8834  2.8180
 8449SOL    HW236984   3.512   0.861  11.189 -1.1038 -0.9292  0.0393
 8450SOL     OW36985   3.529   2.534  15.043 -0.6753 -0.4670 -0.0885
 8450SOL    HW136986   3.543   2.628  15.059  0.8363 -0.7054 -0.0276
 8450SOL    HW236987   3.511   2.505  15.132  0.3188 -1.7686 -0.3151
 8451SOL     OW36988   3.071   0.266   5.937  0.0734 -0.5434 -0.2095
 8451SOL    HW136989   3.151   0.223   5.907 -0.0286 -1.4753  0.8583
 8451SOL    HW236990   3.108   0.290   6.022  0.7544 -0.1433 -0.6189
 8452SOL     OW36991   2.424   0.469   6.955 -0.7157  0.3962  0.2156
 8452SOL    HW136992   2.341   0.474   6.908 -0.6286  2.5163  0.2955
 8452SOL    HW236993   2.386   0.483   7.042 -1.2264 -4.2192  0.7577
 8453SOL     OW36994   1.910   3.239   1.991 -0.3019  0.2429  0.1482
 8453SOL    HW136995   1.891   3.153   2.027 -0.9677 -0.2255 -1.3025
 8453SOL    HW236996   1.903   3.300   2.064  1.7580 -0.1854  0.7065
 8454SOL     OW36997   0.544   1.340  16.883  0.4302 -0.5347 -0.0362
 8454SOL    HW136998   0.556   1.257  16.929 -1.4420  0.1146  1.6293
 8454SOL    HW236999   0.485   1.388  16.941 -0.9974 -1.1254 -1.0205
 8455SOL     OW37000   4.456   1.967   7.874  0.3335  0.1736  0.1998
 8455SOL    HW137001   4.440   1.874   7.893  1.5623  0.1425  1.1236
 8455SOL    HW237002   4.548   1.976   7.897  0.0726 -1.0550  1.8331
 8456SOL     OW37003   0.574   2.939   5.128  0.3134 -0.3370  0.1645
 8456SOL    HW137004   0.566   3.033   5.111 -4.2678 -0.0789  3.7133
 8456SOL    HW237005   0.641   2.917   5.064  0.5170 -0.9060  0.5787
 8457SOL     OW37006   4.200   3.870   3.790  0.0930  0.2137 -0.1294
 8457SOL    HW137007   4.176   3.807   3.722 -1.1007 -0.4216  0.8742
 8457SOL    HW237008   4.132   3.938   3.784  0.2474  0.5622  2.3153
 8458SOL     OW37009   0.059   2.847   3.380  0.5286  0.1093 -0.2836
 8458SOL    HW137010   4.726   2.792   3.346 -0.2545  1.4904 -0.8849
 8458SOL    HW237011   0.066   2.828   3.474 -2.5376 -0.1753 -0.1198
 8459SOL     OW37012   2.274   1.874   3.284  0.2107 -0.4736  0.2800
 8459SOL    HW137013   2.252   1.786   3.315  1.7148 -1.3783 -1.1944
 8459SOL    HW237014   2.191   1.915   3.262 -1.1371 -3.2839  0.0612
 8460SOL     OW37015   4.536   1.608  15.961 -0.1139  0.3213 -0.4161
 8460SOL    HW137016   4.629   1.599  15.942 -0.1966 -0.1223 -0.6151
 8460SOL    HW237017   4.518   1.518  15.987 -1.5821  1.7066  3.3928
 8461SOL     OW37018   2.050   3.326   7.907  0.4357 -0.4311  0.1556
 8461SOL    HW137019   2.074   3.367   7.824 -2.9376 -0.4677 -0.8378
 8461SOL    HW237020   2.132   3.334   7.955 -0.3140  2.7206  0.9161
 8462SOL     OW37021   1.606   1.020   3.878 -0.3275 -0.0210  0.0009
 8462SOL    HW137022   1.688   1.048   3.838  0.9975 -3.0206  0.6579
 8462SOL    HW237023   1.547   1.007   3.803 -0.9077  2.2698  0.0612
 8463SOL     OW37024   4.655   0.305   7.003  0.9081  0.0889 -0.0405
 8463SOL    HW137025   4.585   0.285   7.066  0.6457 -0.3335 -0.4629
 8463SOL    HW237026   4.722   0.240   7.024  0.2986 -0.7002 -0.5175
 8464SOL     OW37027   3.953   2.458   1.556 -0.6751 -0.2530  0.3287
 8464SOL    HW137028   3.881   2.455   1.493 -1.2053 -0.6578  0.9616
 8464SOL    HW237029   3.895   2.462   1.632 -1.6074 -0.3855 -0.3860
 8465SOL     OW37030   4.587   3.174   8.036 -0.2116  0.5981 -0.5559
 8465SOL    HW137031   4.569   3.261   8.001  0.7627  0.0015 -2.5554
 8465SOL    HW237032   4.500   3.151   8.069 -1.3358  0.9720 -3.2578
 8466SOL     OW37033   0.147   2.049   5.445  0.0321 -0.9650  0.2088
 8466SOL    HW137034   0.103   1.975   5.487  2.6330 -3.3673 -1.2881
 8466SOL    HW237035   0.122   2.038   5.353  0.1736  0.8536 -0.0486
 8467SOL     OW37036   4.557   0.659   5.512 -0.1407 -0.2792  0.4945
 8467SOL    HW137037   4.614   0.725   5.471 -0.7462  1.1271  1.9145
 8467SOL    HW237038   4.624   0.612   5.561  0.2831 -1.3890 -1.1441
 8468SOL     OW37039   1.823   3.491   7.320  0.2755  0.2820 -0.4710
 8468SOL    HW137040   1.735   3.455   7.305  0.2311 -0.0294  0.5424
 8468SOL    HW237041   1.808   3.515   7.412 -0.6234 -1.7475 -0.0868
 8469SOL     OW37042   2.617   1.880   2.667  0.5996 -0.4444  0.1707
 8469SOL    HW137043   2.660   1.796   2.681 -1.0376 -1.6223 -2.0393
 8469SOL    HW237044   2.655   1.929   2.741 -0.0470 -0.4559  0.5095
 8470SOL     OW37045   4.112   0.552  11.743 -0.2097  0.3164 -0.5539
 8470SOL    HW137046   4.192   0.601  11.765 -0.6292  1.8077 -2.2829
 8470SOL    HW237047   4.053   0.571  11.816 -1.0915  0.2289 -1.2406
 8471SOL     OW37048   4.039   4.384   0.698 -0.0192 -0.4542 -0.0785
 8471SOL    HW137049   3.992   4.302   0.710 -2.0040  0.5780 -0.7566
 8471SOL    HW237050   4.056   4.378   0.604 -0.9387  0.2198 -0.2811
 8472SOL     OW37051   2.039   4.470   5.783 -0.5123  0.2487  0.1273
 8472SOL    HW137052   2.125   4.429   5.773 -1.3709 -1.7567  1.0048
 8472SOL    HW237053   2.060   4.559   5.810 -3.3194  1.0003 -0.1931
 8473SOL     OW37054   0.113   4.517   1.673 -0.0990 -0.2387  0.3415
 8473SOL    HW137055   0.190   4.573   1.687 -1.1889  2.0236 -2.7315
 8473SOL    HW237056   0.133   4.462   1.598 -0.9560 -1.2392  0.8586
 8474SOL     OW37057   4.266   2.740   2.154 -0.2865 -0.2541 -0.5526
 8474SOL    HW137058   4.305   2.693   2.227 -3.0706 -0.5259  0.7504
 8474SOL    HW237059   4.337   2.760   2.093  1.2449 -2.3402  0.5238
 8475SOL     OW37060   4.228   1.095  12.991 -0.2995  0.3469 -0.1322
 8475SOL    HW137061   4.139   1.119  12.967 -1.0002 -0.1303  1.9429
 8475SOL    HW237062   4.248   1.161  13.058 -1.6457 -0.7691  1.3474
 8476SOL     OW37063   1.103   0.568   4.679  0.2409  0.7953 -0.0520
 8476SOL    HW137064   1.100   0.541   4.770 -1.8641  1.5892  0.1255
 8476SOL    HW237065   1.078   0.661   4.682  0.0346  0.7476 -0.2842
 8477SOL     OW37066   4.448   2.075  12.749  0.6155 -0.4842  0.1349
 8477SOL    HW137067   4.499   2.047  12.673 -1.0989  0.0214 -1.2049
 8477SOL    HW237068   4.402   2.145  12.702 -1.0428 -1.7394 -0.0861
 8478SOL     OW37069   1.986   0.767   4.330  0.6594 -0.7754 -0.4152
 8478SOL    HW137070   1.989   0.713   4.409 -0.9777  1.3085  1.0779
 8478SOL    HW237071   1.996   0.858   4.358  0.4342 -0.2699 -1.9982
 8479SOL     OW37072   1.037   0.013  17.079  0.1171 -1.0096  0.1139
 8479SOL    HW137073   1.046   0.098  17.123  1.0674 -0.0203 -1.9537
 8479SOL    HW237074   1.012   0.031  16.988  0.3638  1.3767  0.5245
 8480SOL     OW37075   1.900   0.331   7.000  0.0961  0.3727 -0.2250
 8480SOL    HW137076   1.963   0.284   6.946 -0.4008  1.8977 -2.1168
 8480SOL    HW237077   1.915   0.419   6.965 -0.4941  0.7227  0.4125
 8481SOL     OW37078   4.537   2.343  14.510 -0.2465  0.8098  0.6928
 8481SOL    HW137079   4.622   2.386  14.515 -0.2982  0.9369  0.5023
 8481SOL    HW237080   4.564   2.279  14.576  1.7141  0.0146 -0.8733
 8482SOL     OW37081   4.599   1.699   3.437  0.2185 -0.1329  0.7951
 8482SOL    HW137082   4.583   1.718   3.529 -1.8900  0.8297  0.2172
 8482SOL    HW237083   4.635   1.784   3.413  1.3468 -0.9510 -0.4268
 8483SOL     OW37084   4.497   2.128   6.406  0.4419 -0.2003 -0.7879
 8483SOL    HW137085   4.472   2.065   6.338 -3.9179  0.9207 -0.2273
 8483SOL    HW237086   4.587   2.099   6.421 -0.2297 -1.7645  0.1643
 8484SOL     OW37087   1.430   1.709   4.790  0.4785 -0.4183 -0.6840
 8484SOL    HW137088   1.449   1.712   4.884  1.0131  2.7434 -0.9091
 8484SOL    HW237089   1.390   1.622   4.785 -0.1038 -0.2601  0.9432
 8485SOL     OW37090   0.783   0.662   2.559 -0.0380 -0.0880 -0.5531
 8485SOL    HW137091   0.812   0.725   2.493  1.2310 -0.5655 -0.4675
 8485SOL    HW237092   0.782   0.588   2.498 -1.6212  0.0792 -0.7291
 8486SOL     OW37093   1.596   3.656  13.638  0.5306  0.1633 -0.1163
 8486SOL    HW137094   1.625   3.731  13.690 -0.5380 -0.4703  1.3692
 8486SOL    HW237095   1.671   3.636  13.581  1.1342 -0.1923  0.8077
 8487SOL     OW37096   1.939   1.762   3.547 -0.1055  0.0707  0.7628
 8487SOL    HW137097   1.904   1.673   3.533  2.3047 -0.8287  0.3251
 8487SOL    HW237098   1.891   1.807   3.616 -1.9740  1.7131 -1.5831
 8488SOL     OW37099   0.937   2.929  11.232 -0.2078  0.1790 -0.3263
 8488SOL    HW137100   0.856   2.896  11.271 -0.2446 -1.7982 -2.0702
 8488SOL    HW237101   0.987   2.930  11.313  0.2817 -0.4186 -0.6194
 8489SOL     OW37102   0.942   0.110   6.585 -0.2662 -0.1531 -0.3127
 8489SOL    HW137103   0.944   0.018   6.612 -0.3492 -1.1169 -3.5377
 8489SOL    HW237104   0.851   0.121   6.558  0.2083  4.2594 -0.0799
 8490SOL     OW37105   4.324   0.341   4.134  0.1292 -0.3554 -0.4635
 8490SOL    HW137106   4.265   0.294   4.192  1.0204 -0.9743 -0.0590
 8490SOL    HW237107   4.407   0.294   4.143  0.7332  0.6002 -1.0528
 8491SOL     OW37108   1.339   3.901   6.605  0.0200 -0.3778 -0.5145
 8491SOL    HW137109   1.302   3.843   6.673  0.6084  1.3097  1.2568
 8491SOL    HW237110   1.349   3.983   6.654 -2.0238  0.1502 -1.0055
 8492SOL     OW37111   3.715   1.372   2.584  0.3678 -1.2940  0.0304
 8492SOL    HW137112   3.802   1.331   2.592  0.8363 -0.0470  1.2142
 8492SOL    HW237113   3.752   1.454   2.552  0.6556 -1.9865 -1.4412
 8493SOL     OW37114   4.338   1.826   4.215 -0.4074  0.0828  0.3181
 8493SOL    HW137115   4.257   1.833   4.164  0.2356 -2.0618 -0.9749
 8493SOL    HW237116   4.310   1.845   4.305 -1.8423 -3.2611  0.5500
 8494SOL     OW37117   0.300   1.882   8.267  0.0192  0.0183  0.2575
 8494SOL    HW137118   0.317   1.942   8.340  0.1323  0.6601 -0.2869
 8494SOL    HW237119   0.211   1.859   8.293  0.2500 -0.2716  0.7886
 8495SOL     OW37120   4.683   3.759   8.428  0.1449 -0.1800  0.2532
 8495SOL    HW137121   0.023   3.814   8.446  0.1515  0.6507 -2.3706
 8495SOL    HW237122   4.641   3.771   8.513  0.5044  0.3440  0.3640
 8496SOL     OW37123   4.659   0.205  14.105  0.9250 -0.0288  0.0429
 8496SOL    HW137124   4.578   0.219  14.056  0.0916  1.7754  1.9073
 8496SOL    HW237125   4.653   0.286  14.155 -0.0573 -0.5432  0.7534
 8497SOL     OW37126   1.140   3.591   3.554 -0.4307 -0.0684 -0.0547
 8497SOL    HW137127   1.066   3.559   3.501 -1.6932 -2.5730  3.2281
 8497SOL    HW237128   1.111   3.679   3.575 -1.5126  0.1166 -2.2646
 8498SOL     OW37129   3.829   3.364   3.126  0.6311 -0.4132 -0.6194
 8498SOL    HW137130   3.839   3.275   3.160  0.6771 -0.3459 -0.4576
 8498SOL    HW237131   3.751   3.397   3.169  1.7100  0.4860  0.6325
 8499SOL     OW37132   0.868   0.752   4.989 -0.0164 -0.1515  0.0264
 8499SOL    HW137133   0.954   0.792   4.978 -0.5695  1.1045  0.2895
 8499SOL    HW237134   0.806   0.797   4.932  1.1855 -0.3978 -1.4872
 8500SOL     OW37135   2.064   2.172   3.037 -0.8414 -0.7077 -0.6953
 8500SOL    HW137136   2.024   2.123   2.965 -1.1951 -0.3292 -0.7571
 8500SOL    HW237137   1.991   2.205   3.091 -0.5048  1.9408 -1.8920
 8501SOL     OW37138   1.153   2.463   4.088 -0.2530 -0.1034 -0.0282
 8501SOL    HW137139   1.234   2.469   4.139  0.1996 -1.9170 -0.5148
 8501SOL    HW237140   1.116   2.378   4.111 -0.4078 -0.1449 -0.4239
 8502SOL     OW37141   1.006   1.963   6.925  0.1441  0.5756  0.0738
 8502SOL    HW137142   1.071   1.979   6.857 -0.6561 -1.6947 -1.2033
 8502SOL    HW237143   1.050   1.924   7.001  1.1940  3.7474  1.0880
 8503SOL     OW37144   4.005   0.899   3.178 -0.1847 -0.0238  0.5843
 8503SOL    HW137145   3.960   0.824   3.138 -1.0726 -0.2382  2.0194
 8503SOL    HW237146   3.943   0.899   3.250 -1.0019  1.7510 -0.1325
 8504SOL     OW37147   4.170   3.710   4.784  0.2423  0.6019  0.0062
 8504SOL    HW137148   4.191   3.707   4.878  2.3567 -0.9790 -0.5158
 8504SOL    HW237149   4.239   3.762   4.744  3.3518 -3.7132 -0.3299
 8505SOL     OW37150   1.446   0.915   7.877 -0.0100 -0.7487 -0.2430
 8505SOL    HW137151   1.447   1.008   7.854 -0.4145 -0.8073 -0.5048
 8505SOL    HW237152   1.357   0.905   7.844  0.1028 -0.7850 -0.5373
 8506SOL     OW37153   4.722   1.746   3.105 -0.7635 -0.9275 -0.4206
 8506SOL    HW137154   4.705   1.652   3.110  2.4831 -1.5440 -1.3042
 8506SOL    HW237155   4.714   1.775   3.196  1.0930 -0.1319 -0.5209
 8507SOL     OW37156   0.604   2.127  10.371 -0.1249  0.4555 -0.0633
 8507SOL    HW137157   0.556   2.066  10.316  1.3134  1.0247 -1.9754
 8507SOL    HW237158   0.582   2.204  10.317  1.2510  0.2021 -0.9910
 8508SOL     OW37159   4.354   2.943   1.297  0.2485  0.2020 -0.3409
 8508SOL    HW137160   4.358   2.848   1.289 -0.0149  0.1043  0.7444
 8508SOL    HW237161   4.396   2.955   1.382 -0.8064  0.2628  0.1736
 8509SOL     OW37162   1.142   3.546   5.428 -0.3852 -0.1163 -0.5283
 8509SOL    HW137163   1.113   3.637   5.437  0.6693  0.3917 -2.3012
 8509SOL    HW237164   1.236   3.558   5.443 -0.3837  2.1942 -2.4641
 8510SOL     OW37165   2.117   3.466   2.468 -0.2284  0.1228 -0.4117
 8510SOL    HW137166   2.032   3.435   2.501  1.0231 -1.7763  1.0277
 8510SOL    HW237167   2.120   3.409   2.392  1.3100  2.6464 -2.2242
 8511SOL     OW37168   0.171   1.267   3.893  0.2249 -0.2405  0.7635
 8511SOL    HW137169   0.179   1.258   3.798 -1.1936 -1.0181  0.7176
 8511SOL    HW237170   0.107   1.337   3.892  0.3572 -0.1051  2.0196
 8512SOL     OW37171   2.843   3.140   2.439  0.1811  0.0549 -0.1863
 8512SOL    HW137172   2.841   3.045   2.441 -0.7110  0.0479 -1.1768
 8512SOL    HW237173   2.878   3.152   2.527 -0.5236 -2.4516  0.4338
 8513SOL     OW37174   1.484   2.985   5.636  0.4755  0.6383  0.7454
 8513SOL    HW137175   1.407   3.042   5.638 -0.2859 -0.4186  1.6103
 8513SOL    HW237176   1.484   2.944   5.722 -0.5391  2.0984  1.4425
 8514SOL     OW37177   2.765   3.732   6.242 -0.1971 -0.3462 -0.1912
 8514SOL    HW137178   2.759   3.762   6.151 -2.8188  0.0234  0.1050
 8514SOL    HW237179   2.849   3.687   6.244  0.2952  0.6053  0.8156
 8515SOL     OW37180   2.853   3.852   1.738  0.8787 -0.0045 -0.4600
 8515SOL    HW137181   2.809   3.864   1.654  0.1302 -0.2095 -0.0992
 8515SOL    HW237182   2.930   3.908   1.727  0.0223  1.1124 -0.7307
 8516SOL     OW37183   1.331   4.389  12.654  0.6675  0.4339  0.4928
 8516SOL    HW137184   1.366   4.432  12.732 -0.8895 -0.0667  1.4622
 8516SOL    HW237185   1.325   4.466  12.598 -0.7692 -1.4603 -1.9641
 8517SOL     OW37186   2.487   0.586  14.213 -0.1652 -0.0665 -0.0442
 8517SOL    HW137187   2.449   0.672  14.228  0.7015  0.5847 -1.7200
 8517SOL    HW237188   2.534   0.573  14.296  0.0266 -2.0170 -0.4502
 8518SOL     OW37189   0.739   1.388  12.553 -0.0277  0.1288  0.5025
 8518SOL    HW137190   0.707   1.304  12.585 -0.8211 -0.2370 -1.2922
 8518SOL    HW237191   0.818   1.356  12.509 -0.1955 -0.7595  0.8468
 8519SOL     OW37192   3.714   1.268   9.318  0.2595 -0.0870 -0.4174
 8519SOL    HW137193   3.728   1.361   9.300  0.0341 -0.1666 -1.0039
 8519SOL    HW237194   3.745   1.224   9.239  0.2443 -1.6980  0.4689
 8520SOL     OW37195   2.286   2.424  12.485  0.0948 -0.4177 -0.1172
 8520SOL    HW137196   2.283   2.513  12.451 -0.7472 -0.3277  0.2045
 8520SOL    HW237197   2.378   2.421  12.514 -0.0349 -1.7976  0.1519
 8521SOL     OW37198   3.274   4.461   5.913  0.2175 -0.0653  0.1053
 8521SOL    HW137199   3.284   4.385   5.857  0.8533 -0.9844  1.4739
 8521SOL    HW237200   3.361   4.502   5.910  0.3045 -0.4535 -2.6806
 8522SOL     OW37201   2.390   2.269   2.821 -0.8690  0.1316 -0.0373
 8522SOL    HW137202   2.455   2.237   2.757 -1.6893 -2.4711  0.4424
 8522SOL    HW237203   2.327   2.197   2.829 -1.4272  0.6174 -0.0849
 8523SOL     OW37204   1.010   0.462   7.721  0.3470 -0.0338 -0.9903
 8523SOL    HW137205   0.990   0.498   7.808  0.3386  0.9796 -1.4175
 8523SOL    HW237206   1.104   0.478   7.718  0.6587 -1.2504  1.7530
 8524SOL     OW37207   2.418   3.828   6.141  0.5474 -0.2496 -0.2057
 8524SOL    HW137208   2.326   3.852   6.127  0.6157  1.7027  2.8103
 8524SOL    HW237209   2.440   3.788   6.056  0.7917 -0.1079 -0.2082
 8525SOL     OW37210   1.213   0.697  13.859  0.7625  0.1519 -0.3164
 8525SOL    HW137211   1.136   0.670  13.909 -0.1955 -0.7687 -2.2839
 8525SOL    HW237212   1.215   0.790  13.884  1.6124  0.6586 -2.2674
 8526SOL     OW37213   0.210   3.502   9.145  0.1844 -0.3545 -0.2543
 8526SOL    HW137214   0.303   3.480   9.154  0.3047 -1.3577 -3.9367
 8526SOL    HW237215   0.162   3.422   9.166  0.9641 -1.1136 -1.3644
 8527SOL     OW37216   3.086   1.658   7.727  0.1061 -0.7308 -0.2469
 8527SOL    HW137217   3.074   1.686   7.818  1.3349 -0.7172 -0.0854
 8527SOL    HW237218   3.131   1.574   7.739  0.2584 -0.7622 -1.0620
 8528SOL     OW37219   2.599   4.369   7.044 -0.3503 -0.4802 -0.3097
 8528SOL    HW137220   2.640   4.283   7.029  0.1281 -0.0253 -1.6802
 8528SOL    HW237221   2.673   4.421   7.075 -0.8135  0.3916 -0.6703
 8529SOL     OW37222   2.063   3.531  11.216 -0.3211  0.1383 -0.3228
 8529SOL    HW137223   2.042   3.451  11.264  0.5130  0.1279  0.0249
 8529SOL    HW237224   2.022   3.504  11.134 -0.9074  0.6921 -0.2153
 8530SOL     OW37225   1.095   3.511   2.252  0.3817 -0.5073  0.0894
 8530SOL    HW137226   1.109   3.527   2.346 -1.7734  3.5578 -0.2738
 8530SOL    HW237227   1.145   3.430   2.244  0.7721 -0.0288 -2.1510
 8531SOL     OW37228   0.747   2.245   7.862 -0.0544 -0.1365  0.0417
 8531SOL    HW137229   0.839   2.253   7.839 -0.4677  1.7190 -0.9328
 8531SOL    HW237230   0.752   2.178   7.930  1.1051  0.7396  0.8187
 8532SOL     OW37231   0.128   3.712  12.330 -0.5224 -0.0133 -0.2792
 8532SOL    HW137232   0.064   3.684  12.395 -0.1563 -2.0282 -0.7945
 8532SOL    HW237233   0.088   3.797  12.311  2.0691  0.9820 -1.3863
 8533SOL     OW37234   0.686   2.072   8.486  0.3969 -0.1723  0.0443
 8533SOL    HW137235   0.659   2.057   8.396  0.5898 -2.1894  0.3117
 8533SOL    HW237236   0.762   2.130   8.481 -0.6428  0.9493 -2.7013
 8534SOL     OW37237   0.145   1.355   2.909  0.4993  0.7357 -0.5950
 8534SOL    HW137238   0.227   1.306   2.919 -0.3987 -0.4389  0.9645
 8534SOL    HW237239   0.176   1.439   2.944  0.7973  0.6598 -0.6739
 8535SOL     OW37240   4.463   0.791   8.628 -0.3669 -0.2104  0.1632
 8535SOL    HW137241   4.534   0.816   8.686 -0.0037 -1.8339  0.4197
 8535SOL    HW237242   4.460   0.862   8.563  0.6640 -0.8205 -0.5510
 8536SOL     OW37243   1.125   3.934   7.003 -0.0174  0.1867  0.0988
 8536SOL    HW137244   1.112   3.977   7.088 -2.4002 -1.2976  0.4936
 8536SOL    HW237245   1.115   3.847   7.041  3.1747 -0.6723 -1.0969
 8537SOL     OW37246   0.307   1.986   6.460 -0.7999 -0.1402 -0.4445
 8537SOL    HW137247   0.358   2.062   6.488 -2.2159  0.8555 -0.5558
 8537SOL    HW237248   0.314   2.004   6.366 -2.3236  0.6510 -0.4103
 8538SOL     OW37249   3.824   3.186   3.458  0.1517  0.2229 -0.0525
 8538SOL    HW137250   3.798   3.169   3.368 -0.9857  2.2312 -0.1037
 8538SOL    HW237251   3.741   3.224   3.486 -1.0709 -2.0097 -0.6470
 8539SOL     OW37252   1.134   3.808   6.005 -0.2665  0.2866  0.1762
 8539SOL    HW137253   1.222   3.779   6.028 -1.8315 -2.6387  2.2671
 8539SOL    HW237254   1.099   3.847   6.085  2.3213 -1.3412  2.0730
 8540SOL     OW37255   3.172   1.162   1.142  0.1126 -0.1255 -0.8908
 8540SOL    HW137256   3.250   1.162   1.198 -0.7026  0.3712  0.2418
 8540SOL    HW237257   3.198   1.093   1.080  0.3015 -0.1704 -0.7631
 8541SOL     OW37258   1.625   0.367   0.401 -0.2457 -0.1626 -0.2835
 8541SOL    HW137259   1.621   0.330   0.489  1.8569  3.8096  1.4863
 8541SOL    HW237260   1.537   0.346   0.370 -0.2234  1.0530 -1.1554
 8542SOL     OW37261   1.283   1.960  10.044 -0.1306 -0.1819  0.0610
 8542SOL    HW137262   1.334   2.038  10.021 -1.2810  1.2404  2.2451
 8542SOL    HW237263   1.240   1.991  10.124  0.9058 -1.4024  1.0738
 8543SOL     OW37264   1.060   4.108  10.022  0.0888 -0.0054  0.3030
 8543SOL    HW137265   1.016   4.041  10.074 -1.2140  1.4138  1.0186
 8543SOL    HW237266   1.068   4.072   9.933 -1.0603  1.7949 -0.5435
 8544SOL     OW37267   1.825   2.941   2.805 -0.4962 -0.1793 -0.8067
 8544SOL    HW137268   1.849   3.034   2.807  0.6471 -0.5089  1.0008
 8544SOL    HW237269   1.732   2.928   2.825 -0.1201 -1.1665  0.2814
 8545SOL     OW37270   1.778   4.711   7.805  0.4333 -0.0955  0.2838
 8545SOL    HW137271   1.873   4.703   7.815  0.5006  1.2186  0.7426
 8545SOL    HW237272   1.754   0.006   7.893  0.4334  0.0183  0.2427
 8546SOL     OW37273   3.817   2.392   8.583  0.1332  0.0756  0.2392
 8546SOL    HW137274   3.781   2.478   8.607  0.2946  0.3097 -0.3470
 8546SOL    HW237275   3.831   2.410   8.490  2.6055  0.5446  0.7051
 8547SOL     OW37276   2.531   1.644   4.222 -0.1607  0.2472  0.3892
 8547SOL    HW137277   2.529   1.736   4.197  1.2297 -0.0016 -0.6518
 8547SOL    HW237278   2.464   1.612   4.162 -0.2550  1.9580 -0.4125
 8548SOL     OW37279   3.187   4.501   5.042  0.3224  0.1283 -0.0393
 8548SOL    HW137280   3.270   4.506   4.995 -1.4285  1.9070 -2.9866
 8548SOL    HW237281   3.211   4.431   5.102 -0.6683  0.0586  0.2675
 8549SOL     OW37282   3.475   1.532  14.058 -0.6637 -0.3553 -0.3407
 8549SOL    HW137283   3.483   1.627  14.062 -1.1958 -0.3216 -0.0647
 8549SOL    HW237284   3.509   1.509  14.145 -0.6353 -0.2913 -0.3348
 8550SOL     OW37285   0.861   4.434   1.008  0.0867 -0.3783 -0.3546
 8550SOL    HW137286   0.905   4.430   1.093 -0.6930  1.1266  0.1176
 8550SOL    HW237287   0.792   4.499   1.021  0.9970  0.1481  1.8473
 8551SOL     OW37288   0.338   2.528   6.944  0.3781 -0.0309 -0.2934
 8551SOL    HW137289   0.348   2.446   6.896 -0.8809 -0.9151  0.9415
 8551SOL    HW237290   0.391   2.497   7.018 -0.3437 -0.8603 -0.1192
 8552SOL     OW37291   1.717   1.716   9.763  0.2908  0.2576 -0.2729
 8552SOL    HW137292   1.743   1.654   9.695 -2.5615  0.5971 -1.6692
 8552SOL    HW237293   1.706   1.798   9.715  0.3545  0.9407  0.8709
 8553SOL     OW37294   4.374   3.255   6.875 -0.3784  0.4050 -0.0187
 8553SOL    HW137295   4.465   3.252   6.846 -0.1435 -2.0016  0.9512
 8553SOL    HW237296   4.338   3.322   6.817  2.1387  2.6692  1.0459
 8554SOL     OW37297   3.112   3.630   4.331 -0.1123  0.2078  0.1104
 8554SOL    HW137298   3.043   3.675   4.380  0.8012  1.4231  0.2694
 8554SOL    HW237299   3.174   3.699   4.309  1.4569 -1.1116  0.3324
 8555SOL     OW37300   3.121   3.331  13.405 -1.1148  0.3527  0.2171
 8555SOL    HW137301   3.047   3.385  13.374  1.6036  1.0925 -4.9411
 8555SOL    HW237302   3.190   3.392  13.430  0.0681 -0.2039 -1.7212
 8556SOL     OW37303   2.118   2.489   6.560  0.5752  0.3965  0.3650
 8556SOL    HW137304   2.160   2.431   6.624  0.4479 -0.6348 -0.4855
 8556SOL    HW237305   2.151   2.574   6.588  1.3748  0.5672 -1.1093
 8557SOL     OW37306   3.412   3.712   6.773 -0.1995  0.1641  0.3398
 8557SOL    HW137307   3.320   3.721   6.799 -0.6388  1.1512 -1.5929
 8557SOL    HW237308   3.432   3.805   6.778 -0.0695  0.2638 -2.1190
 8558SOL     OW37309   3.683   3.970  14.072  0.2774  0.0862 -0.1107
 8558SOL    HW137310   3.693   3.907  14.000 -1.0932  0.5212 -0.6857
 8558SOL    HW237311   3.616   3.938  14.132 -0.2902  0.4242 -0.5608
 8559SOL     OW37312   2.155   3.476   4.013 -0.2251  0.4018 -0.0136
 8559SOL    HW137313   2.200   3.461   4.097  0.1580 -0.8365 -0.4292
 8559SOL    HW237314   2.204   3.415   3.958  1.0801  0.4200  1.1160
 8560SOL     OW37315   0.934   2.749   8.831  0.4765  0.1724  0.1713
 8560SOL    HW137316   0.921   2.691   8.905 -0.6854  0.1810 -0.0270
 8560SOL    HW237317   0.860   2.809   8.838  1.1251  1.1323 -0.9700
 8561SOL     OW37318   4.180   0.509   1.978  0.6426 -0.1051 -0.3950
 8561SOL    HW137319   4.084   0.505   1.981  0.5684  0.7565 -1.6422
 8561SOL    HW237320   4.201   0.423   2.014 -0.7774 -0.4240 -0.3272
 8562SOL     OW37321   4.026   3.556  15.914  0.2906  0.5027 -0.2860
 8562SOL    HW137322   3.948   3.515  15.951  0.2667  0.5720 -0.2600
 8562SOL    HW237323   3.997   3.549  15.823  1.0071  2.1016 -0.6520
 8563SOL     OW37324   1.780   1.358   3.225 -0.3859  0.4777  0.2837
 8563SOL    HW137325   1.850   1.306   3.265 -0.8617 -0.6358 -0.3667
 8563SOL    HW237326   1.783   1.314   3.140  0.5708  0.9823  0.0579
 8564SOL     OW37327   4.161   1.683  10.314 -0.1774  0.1091  0.2685
 8564SOL    HW137328   4.068   1.677  10.335  0.4017 -1.3723  2.3935
 8564SOL    HW237329   4.146   1.752  10.249  0.6149 -1.4017 -1.5280
 8565SOL     OW37330   1.793   0.251   5.739 -0.2702  0.3792  0.4222
 8565SOL    HW137331   1.842   0.171   5.758 -0.8327  0.7298  3.2319
 8565SOL    HW237332   1.710   0.231   5.782  0.0607 -1.8946  0.0366
 8566SOL     OW37333   0.075   4.409   1.939 -0.5579  0.0227 -0.4914
 8566SOL    HW137334   0.164   4.443   1.947 -0.6623  0.3536 -0.7549
 8566SOL    HW237335   0.053   4.434   1.849  1.1355 -0.9924 -1.1949
 8567SOL     OW37336   2.978   1.506  12.684  0.2058  0.6778  0.3687
 8567SOL    HW137337   2.941   1.549  12.761 -0.0534  0.3293  0.4399
 8567SOL    HW237338   3.042   1.457  12.736  0.4827  0.9240  0.2563
 8568SOL     OW37339   0.451   0.570   4.557 -0.3817 -0.7599  0.5149
 8568SOL    HW137340   0.477   0.478   4.556  0.6542 -0.4418 -1.7896
 8568SOL    HW237341   0.365   0.562   4.514 -0.2926  3.2527 -0.3941
 8569SOL     OW37342   0.601   3.830  10.973 -0.6657 -0.2216 -0.3081
 8569SOL    HW137343   0.658   3.753  10.963  0.2839  0.2226  1.6407
 8569SOL    HW237344   0.562   3.812  11.058  0.9374  1.5566  0.8043
 8570SOL     OW37345   4.159   1.041  10.356  0.5795 -0.1107 -0.0317
 8570SOL    HW137346   4.114   1.123  10.336 -0.0546 -0.1706  1.1157
 8570SOL    HW237347   4.252   1.055  10.339  0.5975 -1.6631 -1.2218
 8571SOL     OW37348   1.616   3.034   4.791 -0.1960  0.0255 -0.3360
 8571SOL    HW137349   1.681   3.073   4.850 -1.7494  2.4755 -0.2295
 8571SOL    HW237350   1.540   3.024   4.849  0.0182  0.8684  0.0848
 8572SOL     OW37351   4.290   4.008   2.480 -0.1015  0.7084 -0.4524
 8572SOL    HW137352   4.291   3.937   2.545  2.7250 -0.3004 -1.5893
 8572SOL    HW237353   4.241   4.082   2.516  0.7042  0.8278  0.4101
 8573SOL     OW37354   3.265   2.681   4.864  0.1995 -0.0450  0.5521
 8573SOL    HW137355   3.213   2.718   4.935 -0.2650 -0.4431  0.4143
 8573SOL    HW237356   3.213   2.615   4.819  0.9285  0.1121 -0.5361
 8574SOL     OW37357   1.919   2.579   0.065 -0.9292  0.2346 -0.9594
 8574SOL    HW137358   1.920   2.674   0.074 -0.4443  0.1750 -0.3930
 8574SOL    HW237359   1.833   2.575   0.023 -0.3106 -1.5800 -2.0657
 8575SOL     OW37360   2.694   4.163   5.589 -0.8358 -0.2435 -0.2926
 8575SOL    HW137361   2.703   4.257   5.608  1.6607 -1.0090  2.4191
 8575SOL    HW237362   2.622   4.147   5.649 -0.3622  2.2520  0.9773
 8576SOL     OW37363   1.615   2.979  17.102 -0.3666 -0.4581  0.4704
 8576SOL    HW137364   1.696   3.031  17.102 -0.0125 -0.9904 -1.0148
 8576SOL    HW237365   1.547   3.046  17.100 -0.9194 -1.0711 -1.1352
 8577SOL     OW37366   4.466   4.584  15.887 -0.0742 -0.4267  0.0710
 8577SOL    HW137367   4.462   4.493  15.918  3.2714 -0.9441 -0.9307
 8577SOL    HW237368   4.457   4.641  15.963  1.9576 -1.7204  1.2977
 8578SOL     OW37369   1.965   2.841   0.064 -0.6004  0.1059 -0.8240
 8578SOL    HW137370   2.041   2.865   0.118  1.5510 -4.5945 -1.7117
 8578SOL    HW237371   1.905   2.910   0.089 -0.5229 -0.6579  1.5533
 8579SOL     OW37372   1.950   2.699   3.479 -0.4341 -0.8577  0.6990
 8579SOL    HW137373   1.952   2.644   3.401 -0.1901 -0.2809  0.3034
 8579SOL    HW237374   2.007   2.771   3.454 -2.2225  1.0872  2.2268
 8580SOL     OW37375   3.502   3.719   6.323  0.4334 -0.3284 -0.1376
 8580SOL    HW137376   3.447   3.732   6.246 -1.3249  2.8075  1.6078
 8580SOL    HW237377   3.438   3.728   6.393 -0.3424 -0.6927 -0.8087
 8581SOL     OW37378   0.866   4.161   7.369  0.0416  0.3673 -0.3775
 8581SOL    HW137379   0.857   4.090   7.432  0.9341  2.8432  2.5189
 8581SOL    HW237380   0.777   4.154   7.333  0.1473 -0.4083 -0.4807
 8582SOL     OW37381   2.291   2.150   7.052  0.3812 -0.2115  0.4370
 8582SOL    HW137382   2.354   2.145   6.980  1.6330 -0.5792  1.5503
 8582SOL    HW237383   2.264   2.058   7.048 -3.1419  0.9056 -1.0071
 8583SOL     OW37384   4.670   0.961   3.086  0.1203 -0.7104 -0.0207
 8583SOL    HW137385   4.725   0.936   3.012 -0.5232 -1.3853 -0.2627
 8583SOL    HW237386   0.008   0.975   3.145  1.4096 -0.2422 -1.7790
 8584SOL     OW37387   3.612   1.301   9.033  0.0206 -0.4343 -0.1353
 8584SOL    HW137388   3.692   1.249   9.046  0.5260  0.9058  2.2613
 8584SOL    HW237389   3.639   1.366   8.969  0.7363  0.2102  0.8252
 8585SOL     OW37390   0.224   2.216   6.263  0.2815  0.0801 -0.2246
 8585SOL    HW137391   0.138   2.202   6.223  1.2232  1.7036 -2.8079
 8585SOL    HW237392   0.228   2.311   6.270  2.6917 -0.1623  1.5543
 8586SOL     OW37393   3.628   4.638   6.259 -0.1512  0.3778 -0.2206
 8586SOL    HW137394   3.555   4.616   6.317  0.5886  2.7852  1.6129
 8586SOL    HW237395   3.619   4.733   6.247  0.5867  0.4511 -0.2107
 8587SOL     OW37396   3.430   0.986   6.977 -0.0319 -0.3332  1.0073
 8587SOL    HW137397   3.459   0.901   7.011 -1.5469 -0.4152  2.1382
 8587SOL    HW237398   3.426   0.957   6.886 -1.2465 -0.1202  0.9873
 8588SOL     OW37399   3.148   2.614   4.367 -0.4187 -0.2314 -0.2938
 8588SOL    HW137400   3.221   2.651   4.317  0.1195 -2.1317 -0.9100
 8588SOL    HW237401   3.073   2.652   4.320 -0.8645  0.5357  1.0459
 8589SOL     OW37402   1.938   0.681   2.429 -0.3286 -0.7850 -0.2799
 8589SOL    HW137403   1.936   0.637   2.514 -0.2369 -0.0961  0.0815
 8589SOL    HW237404   2.030   0.699   2.412 -0.8511  2.2996  0.0806
 8590SOL     OW37405   2.799   2.866   1.479  0.5621 -0.2104  0.2121
 8590SOL    HW137406   2.750   2.912   1.547  0.2570  0.8195 -0.7029
 8590SOL    HW237407   2.768   2.904   1.397  1.7234  0.9693  0.3246
 8591SOL     OW37408   4.561   4.132   6.721  0.7015  0.3717 -0.6232
 8591SOL    HW137409   4.536   4.114   6.630 -2.1411  2.1378 -0.1996
 8591SOL    HW237410   4.480   4.113   6.769  0.0730 -0.4855 -2.0208
 8592SOL     OW37411   3.535   4.494   3.155 -0.0467  0.2353 -0.2006
 8592SOL    HW137412   3.528   4.590   3.162  0.6764  0.2175  0.7922
 8592SOL    HW237413   3.617   4.475   3.200  0.5209  1.7815 -0.5865
 8593SOL     OW37414   0.830   3.753   6.972 -0.1853 -0.4941 -0.2109
 8593SOL    HW137415   0.811   3.730   6.882 -0.9787 -1.7753  0.2850
 8593SOL    HW237416   0.831   3.848   6.967  1.8070 -0.6035 -2.1735
 8594SOL     OW37417   2.807   0.005   8.241 -0.2795  0.2635 -0.2394
 8594SOL    HW137418   2.879   0.058   8.275  1.1562 -2.4574  0.9132
 8594SOL    HW237419   2.732   0.043   8.288  0.1852 -2.4526  2.6844
 8595SOL     OW37420   0.150   3.526   3.715  0.0774  0.2448 -0.1547
 8595SOL    HW137421   0.057   3.507   3.727  0.1885  0.3020  0.8064
 8595SOL    HW237422   0.149   3.586   3.789  0.6840  0.4279 -0.2954
 8596SOL     OW37423   2.304   2.259   5.559  0.1471 -0.3059 -0.3533
 8596SOL    HW137424   2.328   2.202   5.632  0.4912 -0.6221 -0.7154
 8596SOL    HW237425   2.259   2.203   5.495 -1.8450  0.7768  0.1051
 8597SOL     OW37426   0.347   3.176  15.816 -0.4392  0.5361 -0.4249
 8597SOL    HW137427   0.413   3.210  15.876 -1.6184  0.4457  0.9182
 8597SOL    HW237428   0.374   3.220  15.735 -1.0486  2.5026  0.4490
 8598SOL     OW37429   3.604   3.127  16.117 -0.6295 -0.3927  0.1730
 8598SOL    HW137430   3.639   3.095  16.200 -0.3461  0.6297  0.4485
 8598SOL    HW237431   3.550   3.205  16.133 -0.9094 -0.6552  0.5068
 8599SOL     OW37432   0.800   0.049   3.401 -0.2996  1.0288 -0.3122
 8599SOL    HW137433   0.790   0.023   3.492 -1.3923 -1.2608 -1.1009
 8599SOL    HW237434   0.893   0.065   3.385  0.0883  0.0168  0.9886
 8600SOL     OW37435   4.051   0.112   2.929 -0.0268  0.6962 -0.8806
 8600SOL    HW137436   3.975   0.116   2.987  2.1930 -1.9938  2.1996
 8600SOL    HW237437   4.084   0.199   2.950 -2.1776  1.6282 -1.3293
 8601SOL     OW37438   0.091   2.163   0.652  0.2668  0.0830 -0.6438
 8601SOL    HW137439   0.067   2.166   0.560 -1.7995  0.7696 -0.0842
 8601SOL    HW237440   0.059   2.076   0.675 -0.7914  0.3422 -1.1112
 8602SOL     OW37441   0.237   4.121   8.577  0.7658 -0.2716  0.0460
 8602SOL    HW137442   0.159   4.172   8.597  0.6692  0.2226 -1.5845
 8602SOL    HW237443   0.287   4.129   8.658  0.1363  1.5476  0.2518
 8603SOL     OW37444   4.293   4.666   5.269  0.2102 -0.6938  0.3754
 8603SOL    HW137445   4.322   0.020   5.261 -0.3981 -0.6706 -1.5388
 8603SOL    HW237446   4.240   4.688   5.346 -2.1352  0.9624 -1.7072
 8604SOL     OW37447   4.357   0.367  17.664  0.0819 -0.5235  0.2113
 8604SOL    HW137448   4.367   0.277  17.696 -0.4722 -0.0828  1.6544
 8604SOL    HW237449   4.386   0.354  17.574 -1.9687  0.4718 -0.5986
 8605SOL     OW37450   1.546   2.101   3.039 -0.3517  0.0875 -0.0831
 8605SOL    HW137451   1.509   2.014   3.026 -0.8544  0.4201 -0.8665
 8605SOL    HW237452   1.560   2.129   2.948  1.1277 -1.0448 -0.2113
 8606SOL     OW37453   0.924   2.519  12.620  0.0241 -0.1340 -0.3353
 8606SOL    HW137454   0.988   2.525  12.691  0.2407  2.8005 -0.7999
 8606SOL    HW237455   0.968   2.475  12.547 -1.7162 -2.3604 -0.0474
 8607SOL     OW37456   2.399   3.723  12.500  0.0612  0.2444  0.1247
 8607SOL    HW137457   2.416   3.811  12.533 -0.4105  0.6000 -0.5843
 8607SOL    HW237458   2.481   3.709  12.452 -1.4216  2.8843 -3.1720
 8608SOL     OW37459   1.942   0.570   6.838  0.2416 -0.4194  0.2546
 8608SOL    HW137460   1.942   0.649   6.893  2.7073  0.6057 -1.1902
 8608SOL    HW237461   2.036   0.565   6.822 -0.1452  0.7197 -2.2614
 8609SOL     OW37462   3.650   3.863  11.075 -0.4697 -0.4945 -0.2898
 8609SOL    HW137463   3.685   3.781  11.040  1.2216  0.2054 -0.2113
 8609SOL    HW237464   3.711   3.928  11.041 -1.6192  0.5937 -0.2795
 8610SOL     OW37465   4.455   1.987   0.788 -0.0291 -0.3293  0.0796
 8610SOL    HW137466   4.435   2.022   0.701 -1.3489  2.0482  1.3264
 8610SOL    HW237467   4.422   2.062   0.839  0.1022  0.4721 -1.0273
 8611SOL     OW37468   0.056   0.665   0.080 -0.3786 -0.0426 -0.1428
 8611SOL    HW137469   0.035   0.758   0.085  0.2903  0.1593 -1.2192
 8611SOL    HW237470   0.036   0.636   0.169 -2.3754  1.4611 -0.0934
 8612SOL     OW37471   4.146   4.039   7.532 -0.6430 -0.7611 -0.5560
 8612SOL    HW137472   4.148   4.077   7.619 -0.7125 -0.5613 -0.6414
 8612SOL    HW237473   4.212   3.969   7.531  1.3162  1.0823 -0.4462
 8613SOL     OW37474   2.886   4.103   8.188 -0.5725  0.4161 -0.1289
 8613SOL    HW137475   2.828   4.159   8.137 -1.6070 -0.6199 -0.1205
 8613SOL    HW237476   2.845   4.099   8.275 -1.9368  1.3975 -0.7236
 8614SOL     OW37477   3.901   0.112   4.491  0.3134 -0.4459 -0.1738
 8614SOL    HW137478   3.868   0.028   4.460  3.1090 -1.1892 -1.0792
 8614SOL    HW237479   3.979   0.136   4.441  1.1147  0.5804  1.5771
 8615SOL     OW37480   4.234   1.144  15.327  0.1376  0.1996 -0.8906
 8615SOL    HW137481   4.204   1.146  15.236 -1.8508 -0.7119 -0.2563
 8615SOL    HW237482   4.323   1.109  15.321 -0.3901 -1.3729  0.3881
 8616SOL     OW37483   4.480   1.190   2.772  0.1214 -0.3982  0.3326
 8616SOL    HW137484   4.470   1.172   2.865 -0.0986  1.7266  0.7087
 8616SOL    HW237485   4.396   1.234   2.761  1.3673  1.7654 -0.4570
 8617SOL     OW37486   2.775   2.812   7.376  0.2649  0.2264  0.1191
 8617SOL    HW137487   2.714   2.861   7.431 -2.2183 -0.7657 -1.7570
 8617SOL    HW237488   2.856   2.861   7.388 -0.7168  1.9874 -0.3493
 8618SOL     OW37489   3.859   2.977   2.208  0.3005  0.0667 -0.0522
 8618SOL    HW137490   3.820   2.923   2.276  1.9293 -1.5026 -0.3868
 8618SOL    HW237491   3.792   2.967   2.140 -1.4855  0.9038  1.5756
 8619SOL     OW37492   3.519   4.570   4.300 -0.8686  0.2154 -0.0353
 8619SOL    HW137493   3.598   4.583   4.249 -1.0537 -3.0809 -1.2065
 8619SOL    HW237494   3.525   4.476   4.317  1.4953  0.4273  0.2621
 8620SOL     OW37495   2.685   1.590   3.811  0.0485 -0.0901  0.2036
 8620SOL    HW137496   2.749   1.575   3.880  0.5673 -0.3630 -0.3503
 8620SOL    HW237497   2.738   1.586   3.732  0.3265  0.4661  0.3606
 8621SOL     OW37498   0.409   1.871   7.396 -0.5235  0.4257 -0.0651
 8621SOL    HW137499   0.339   1.821   7.437  3.0580 -2.8803  2.0013
 8621SOL    HW237500   0.401   1.956   7.439  1.1548  1.1061 -1.0968
 8622SOL     OW37501   1.824   2.231   5.577 -0.1941 -0.0570  0.4204
 8622SOL    HW137502   1.799   2.316   5.542 -0.0230  0.1360  0.7684
 8622SOL    HW237503   1.903   2.257   5.625 -0.2894 -0.0301  0.5600
 8623SOL     OW37504   1.113   2.742   1.971  0.0967 -0.2055 -0.5713
 8623SOL    HW137505   1.038   2.796   1.945  0.9915  0.9988 -0.6885
 8623SOL    HW237506   1.074   2.656   1.984  0.2242 -0.2771 -0.6623
 8624SOL     OW37507   4.708   1.351   9.883  0.4445 -0.4122 -0.2685
 8624SOL    HW137508   4.677   1.430   9.839 -4.0589 -2.1230 -0.2016
 8624SOL    HW237509   4.645   1.347   9.955  2.5933  0.0501  1.6186
 8625SOL     OW37510   3.418   0.360   7.250 -0.6195  0.2589 -0.6294
 8625SOL    HW137511   3.339   0.405   7.220 -1.3006 -0.8140 -0.4222
 8625SOL    HW237512   3.477   0.381   7.178 -0.7575  0.7341 -0.6065
 8626SOL     OW37513   1.717   0.751   7.113 -0.0381  0.3621  0.3219
 8626SOL    HW137514   1.809   0.755   7.090 -0.2395  0.3110 -0.5025
 8626SOL    HW237515   1.694   0.842   7.094 -1.2699  0.0045  0.0458
 8627SOL     OW37516   2.966   2.369   1.355  0.1480  0.4845  0.1336
 8627SOL    HW137517   2.908   2.440   1.382 -1.7678 -0.6324 -1.0971
 8627SOL    HW237518   2.988   2.390   1.264 -0.5922  1.2120  0.1235
 8628SOL     OW37519   3.540   1.931   1.508 -0.0493 -0.0183  0.0787
 8628SOL    HW137520   3.506   1.936   1.419  0.2075 -0.7576 -0.0629
 8628SOL    HW237521   3.585   2.015   1.512  0.6399 -0.4453  1.4147
 8629SOL     OW37522   3.332   3.917  17.380  0.5726  0.4025 -0.5912
 8629SOL    HW137523   3.254   3.864  17.366  0.5901  1.0918 -3.1953
 8629SOL    HW237524   3.378   3.869  17.449  0.1088  2.6828  1.2801
 8630SOL     OW37525   0.469   1.465   6.331  0.1475  0.0954  0.3538
 8630SOL    HW137526   0.380   1.500   6.324  0.8945  1.7016 -1.1074
 8630SOL    HW237527   0.521   1.524   6.277  2.1715 -0.7200  1.4106
 8631SOL     OW37528   0.666   4.526   6.820 -0.1906 -0.0840 -0.2112
 8631SOL    HW137529   0.627   4.606   6.854  2.1054  0.5771  0.9350
 8631SOL    HW237530   0.719   4.558   6.747 -1.3969  0.2627 -0.9366
 8632SOL     OW37531   1.972   1.748   8.899 -0.1764  0.6906  0.3021
 8632SOL    HW137532   1.934   1.689   8.964  1.6372 -0.9183 -0.1022
 8632SOL    HW237533   2.057   1.769   8.937  0.5960 -2.6338  0.4563
 8633SOL     OW37534   3.118   0.532   4.812 -0.0045  0.0394 -0.4065
 8633SOL    HW137535   3.181   0.488   4.869  1.0791  2.2150  0.0732
 8633SOL    HW237536   3.143   0.504   4.723  1.7436  1.1588 -0.2715
 8634SOL     OW37537   4.078   4.433   7.980  0.3450 -0.9272  0.8271
 8634SOL    HW137538   4.151   4.372   7.989  0.8659 -0.2239  1.4092
 8634SOL    HW237539   4.130   4.510   8.006  1.0030 -1.2370  0.4286
 8635SOL     OW37540   0.298   0.217   3.175 -0.0624 -0.0556 -0.6231
 8635SOL    HW137541   0.274   0.272   3.100  2.1468  0.5869 -0.8618
 8635SOL    HW237542   0.310   0.129   3.141 -2.1465 -0.6743  0.2599
 8636SOL     OW37543   2.061   0.876   2.641  0.2617 -0.2086 -0.3698
 8636SOL    HW137544   2.061   0.965   2.605  1.6765 -0.5937 -1.3198
 8636SOL    HW237545   2.100   0.819   2.575  1.5438 -0.5949  0.7154
 8637SOL     OW37546   3.456   3.907  17.127 -0.3500 -0.0585 -0.0732
 8637SOL    HW137547   3.421   3.878  17.211  3.0070 -0.5177  1.1671
 8637SOL    HW237548   3.397   3.980  17.108 -3.4797 -3.6221 -4.2029
 8638SOL     OW37549   2.322   2.691   3.689  0.1327  0.0276  0.1784
 8638SOL    HW137550   2.256   2.746   3.731 -1.5321 -1.4395 -0.5041
 8638SOL    HW237551   2.395   2.706   3.749  1.0343 -0.1548 -0.8839
 8639SOL     OW37552   2.131   2.595   2.961 -0.2345 -0.4333  0.3189
 8639SOL    HW137553   2.180   2.647   2.897 -0.4487  0.4063  0.8483
 8639SOL    HW237554   2.041   2.624   2.947 -1.2145 -2.4134  2.5884
 8640SOL     OW37555   1.862   3.265   0.835  0.2034  1.4725 -0.6075
 8640SOL    HW137556   1.886   3.316   0.913 -0.7510 -0.4723  0.9647
 8640SOL    HW237557   1.767   3.260   0.830  0.0938  1.3128  1.6535
 8641SOL     OW37558   0.805   1.846   7.802 -0.3365  0.4258 -0.4092
 8641SOL    HW137559   0.759   1.906   7.861  0.0588  0.9779 -0.6623
 8641SOL    HW237560   0.736   1.842   7.736 -1.9499 -0.8009  1.3746
 8642SOL     OW37561   1.755   1.848   7.326 -0.0087 -0.0335 -0.0484
 8642SOL    HW137562   1.713   1.799   7.397 -0.1445 -2.0167 -1.4705
 8642SOL    HW237563   1.719   1.936   7.337 -2.4170 -1.0659  0.5125
 8643SOL     OW37564   1.459   2.844   2.305  0.5797  0.2061 -0.0797
 8643SOL    HW137565   1.435   2.753   2.289 -2.8180  0.9941  0.7118
 8643SOL    HW237566   1.399   2.883   2.242  0.1949  2.0400  1.4145
 8644SOL     OW37567   3.179   0.725  12.430  0.6187 -0.5201  0.0077
 8644SOL    HW137568   3.134   0.661  12.375 -0.9535 -0.8075  1.6662
 8644SOL    HW237569   3.134   0.803  12.399  0.7387 -1.2198 -1.9676
 8645SOL     OW37570   1.827   3.680   1.029 -0.2813 -0.4065 -0.4157
 8645SOL    HW137571   1.815   3.740   1.104 -0.8292 -0.5487 -0.3884
 8645SOL    HW237572   1.797   3.721   0.948 -0.4992 -2.2249 -1.2400
 8646SOL     OW37573   1.676   4.549   3.270  0.8366  0.5180  0.1263
 8646SOL    HW137574   1.704   4.477   3.213 -0.3865  0.7399 -0.7599
 8646SOL    HW237575   1.678   4.505   3.355  1.5838 -2.1639 -1.2907
 8647SOL     OW37576   0.201   2.817   3.161  0.4069  0.2480 -0.2994
 8647SOL    HW137577   0.142   2.846   3.230  0.0457 -1.2306  0.0007
 8647SOL    HW237578   0.160   2.849   3.080 -0.4736  1.5022  0.6459
 8648SOL     OW37579   4.424   1.185   9.560  0.5189  0.2557 -0.1783
 8648SOL    HW137580   4.495   1.164   9.620  0.2349 -1.0196 -0.2913
 8648SOL    HW237581   4.368   1.108   9.565 -0.0968  0.7553  0.7367
 8649SOL     OW37582   3.133   3.959   3.644  0.0004 -0.1982 -0.0796
 8649SOL    HW137583   3.225   3.937   3.628  0.8868  1.8954  2.0458
 8649SOL    HW237584   3.106   4.007   3.566  1.2858  0.2223 -0.2615
 8650SOL     OW37585   2.972   0.845   2.318 -0.1967 -0.3866 -0.0811
 8650SOL    HW137586   2.996   0.754   2.337  1.9217 -0.1494 -1.6194
 8650SOL    HW237587   2.996   0.875   2.406  1.1451  1.8417 -1.2024
 8651SOL     OW37588   0.261   3.303   3.813 -0.8008  0.2465 -0.8027
 8651SOL    HW137589   0.220   3.375   3.766 -0.3173 -1.6213 -4.0667
 8651SOL    HW237590   0.292   3.343   3.895 -1.4369 -0.9332  0.0025
 8652SOL     OW37591   0.709   2.789  17.539  0.6054  0.3812 -0.3344
 8652SOL    HW137592   0.689   2.741  17.459 -2.1684  3.0703 -1.2882
 8652SOL    HW237593   0.694   2.878  17.507  2.4261  1.3330  1.4885
 8653SOL     OW37594   0.343   2.735   9.611 -0.3226 -0.2807 -0.5453
 8653SOL    HW137595   0.315   2.645   9.595  0.9138 -0.5469 -1.1801
 8653SOL    HW237596   0.344   2.766   9.521 -0.9170 -0.5068 -0.6325
 8654SOL     OW37597   1.441   1.811  13.192 -0.2374  0.0066 -0.7215
 8654SOL    HW137598   1.459   1.810  13.098 -0.5515  0.0555 -0.7818
 8654SOL    HW237599   1.406   1.723  13.208 -0.4171  0.3097  0.5403
 8655SOL     OW37600   3.837   1.982  16.833  0.1720 -0.0432  0.6224
 8655SOL    HW137601   3.873   1.974  16.922 -0.2425 -1.6438  0.6404
 8655SOL    HW237602   3.826   1.890  16.809  3.3033 -0.2855  0.1313
 8656SOL     OW37603   3.721   3.823   2.900  0.0614 -0.4832  0.0876
 8656SOL    HW137604   3.789   3.879   2.864  0.0198  0.9427  2.2487
 8656SOL    HW237605   3.645   3.844   2.847  0.6350  1.1080 -0.0914
 8657SOL     OW37606   0.666   2.444   5.483  0.3869  0.2939 -0.1010
 8657SOL    HW137607   0.638   2.466   5.394 -3.0923  0.4946  1.0363
 8657SOL    HW237608   0.636   2.353   5.485  1.4866 -0.0350  1.2685
 8658SOL     OW37609   1.748   2.991   8.172 -0.4251  0.2193  0.2121
 8658SOL    HW137610   1.674   3.052   8.172  0.5382  1.3894  0.0788
 8658SOL    HW237611   1.800   3.039   8.108 -0.5256 -1.3553 -1.0655
 8659SOL     OW37612   1.444   3.261  11.839 -0.3984 -0.3004 -0.4924
 8659SOL    HW137613   1.479   3.347  11.863  0.6372 -0.9036  0.1624
 8659SOL    HW237614   1.353   3.280  11.817 -0.8275 -1.9252 -0.0822
 8660SOL     OW37615   4.554   0.791   7.195 -0.4933  0.2410  0.5227
 8660SOL    HW137616   4.565   0.723   7.261  0.5962  0.4972  0.6108
 8660SOL    HW237617   4.639   0.787   7.150 -0.0228  0.6591  1.3714
 8661SOL     OW37618   4.636   0.841   6.634  0.5741 -0.3449 -0.3545
 8661SOL    HW137619   4.670   0.754   6.653 -1.7261 -1.4600 -1.4168
 8661SOL    HW237620   4.687   0.882   6.704 -0.6850  1.4509 -0.4823
 8662SOL     OW37621   3.415   1.578  16.021 -0.0631  0.5464 -0.2495
 8662SOL    HW137622   3.366   1.498  16.041 -1.4532  0.7030 -2.9955
 8662SOL    HW237623   3.506   1.547  16.024 -0.1805  0.5717  3.2452
 8663SOL     OW37624   4.558   2.132   6.760 -0.2057 -0.4609 -0.2176
 8663SOL    HW137625   4.595   2.138   6.672 -0.6914  0.4902 -0.3594
 8663SOL    HW237626   4.625   2.183   6.805 -0.4144  1.0283 -1.5554
 8664SOL     OW37627   3.643   1.412   6.346 -0.7423  0.2821  0.3239
 8664SOL    HW137628   3.647   1.325   6.385 -2.2952  0.2799  0.4891
 8664SOL    HW237629   3.704   1.406   6.272  2.0461  1.2102  2.5921
 8665SOL     OW37630   4.376   2.372   6.159 -0.1708  0.3316 -0.0972
 8665SOL    HW137631   4.334   2.388   6.243  0.3202 -2.2025  0.6082
 8665SOL    HW237632   4.345   2.285   6.135  0.2099  0.7902 -2.2440
 8666SOL     OW37633   0.094   0.613   9.651 -0.1863 -0.5154  0.4976
 8666SOL    HW137634   0.106   0.540   9.591  1.8569  1.5612 -1.6521
 8666SOL    HW237635   0.144   0.680   9.603  0.9297 -0.1838  2.0950
 8667SOL     OW37636   3.654   0.184   6.666  0.0256  0.6078 -0.7514
 8667SOL    HW137637   3.626   0.166   6.576 -1.6608  0.1323 -0.1442
 8667SOL    HW237638   3.748   0.169   6.670 -0.2348 -0.1124  2.9337
 8668SOL     OW37639   3.412   2.808   7.251 -0.1108 -0.5133  0.4217
 8668SOL    HW137640   3.456   2.729   7.281 -0.6021 -2.5323 -4.2671
 8668SOL    HW237641   3.329   2.814   7.299 -1.1803 -0.7090 -1.4215
 8669SOL     OW37642   0.420   1.651   6.743  0.1698  0.4091 -0.2496
 8669SOL    HW137643   0.409   1.610   6.829 -0.2042 -1.0599 -0.9983
 8669SOL    HW237644   0.351   1.715   6.760 -1.3130 -1.2594 -0.0892
 8670SOL     OW37645   0.860   1.060   8.094  0.0635  0.3708  0.1361
 8670SOL    HW137646   0.875   1.094   8.182  0.2830 -2.4548  1.2202
 8670SOL    HW237647   0.822   0.977   8.124 -0.1316 -0.4545 -2.4209
 8671SOL     OW37648   4.499   4.406   8.039 -0.1657  0.2724 -0.2602
 8671SOL    HW137649   4.407   4.394   8.062 -0.3860  0.2272 -1.1668
 8671SOL    HW237650   4.495   4.401   7.944 -0.2355  0.8939 -0.2868
 8672SOL     OW37651   4.594   3.477  14.468 -0.0807 -0.1712 -0.0036
 8672SOL    HW137652   4.683   3.441  14.469 -0.3242 -0.7270  1.0451
 8672SOL    HW237653   4.560   3.477  14.557  1.0132 -3.2054  0.4054
 8673SOL     OW37654   0.452   4.135   6.307 -0.3701  0.8119  0.0509
 8673SOL    HW137655   0.419   4.142   6.396  0.7218  2.1311  0.3436
 8673SOL    HW237656   0.384   4.075   6.277  1.9903 -2.1408  0.5586
 8674SOL     OW37657   3.511   4.468   7.898 -0.3779 -0.2552 -0.2526
 8674SOL    HW137658   3.471   4.517   7.826 -1.5289 -0.1274  0.4801
 8674SOL    HW237659   3.443   4.456   7.963  0.4070  3.0158  1.2010
 8675SOL     OW37660   1.994   4.446   1.116  0.2418 -0.0636 -0.5110
 8675SOL    HW137661   2.001   4.448   1.021  0.2789  1.9229 -0.4791
 8675SOL    HW237662   1.957   4.534   1.129  1.3285  0.4640 -1.0635
 8676SOL     OW37663   0.411   2.510   6.617  0.4895 -0.1497 -0.4946
 8676SOL    HW137664   0.452   2.501   6.532  0.0193 -1.9789 -0.5321
 8676SOL    HW237665   0.323   2.474   6.601  0.4876  0.3388 -1.5265
 8677SOL     OW37666   2.199   0.675   2.450  0.4027  0.1567  0.1284
 8677SOL    HW137667   2.220   0.596   2.400  0.7996  1.0681 -1.1663
 8677SOL    HW237668   2.288   0.709   2.464 -0.0731  2.0940 -1.4631
 8678SOL     OW37669   1.698   1.629   4.295  0.2547  0.1793  0.0716
 8678SOL    HW137670   1.719   1.538   4.276  0.0415  0.1202  0.1147
 8678SOL    HW237671   1.718   1.627   4.389  1.6713 -1.3935 -0.2822
 8679SOL     OW37672   2.595   4.034  12.213 -0.6572 -0.0722  0.8338
 8679SOL    HW137673   2.691   4.030  12.217 -0.5292  0.6789 -1.2104
 8679SOL    HW237674   2.585   4.099  12.143 -1.0840 -0.8200  0.1978
 8680SOL     OW37675   0.134   2.288   9.870 -0.0220 -0.2411  0.1708
 8680SOL    HW137676   0.223   2.304   9.901  0.1826 -0.7283 -0.1773
 8680SOL    HW237677   0.099   2.376   9.880  0.1300 -0.0209 -1.2677
 8681SOL     OW37678   0.394   1.076  11.843  0.3233 -0.7092  0.0120
 8681SOL    HW137679   0.407   1.004  11.904  1.0886 -0.1054  0.5552
 8681SOL    HW237680   0.332   1.130  11.892  1.8115  0.1853  0.9042
 8682SOL     OW37681   1.562   4.174   3.041  0.4649  0.1230  0.1354
 8682SOL    HW137682   1.521   4.167   3.128  0.7384  2.7312  0.4632
 8682SOL    HW237683   1.624   4.245   3.057 -0.4718  0.9832  0.0070
 8683SOL     OW37684   1.277   2.913   2.082  0.0005 -0.1790 -0.0844
 8683SOL    HW137685   1.225   2.846   2.038 -0.3464 -1.3006  2.0426
 8683SOL    HW237686   1.347   2.936   2.020  1.6790 -2.8141  0.8029
 8684SOL     OW37687   4.368   3.681   3.187 -0.4210  0.1972  0.0481
 8684SOL    HW137688   4.332   3.593   3.200 -1.4438  0.4418 -1.1424
 8684SOL    HW237689   4.398   3.699   3.276 -0.6386 -0.8814  0.3392
 8685SOL     OW37690   2.541   1.085   4.480  0.2799 -0.1870 -0.7614
 8685SOL    HW137691   2.461   1.082   4.428 -0.0996  2.0112 -0.2837
 8685SOL    HW237692   2.516   1.110   4.569  3.4147  0.0291  0.0657
 8686SOL     OW37693   4.416   2.145   4.333  0.0103  0.6684 -0.5406
 8686SOL    HW137694   4.403   2.067   4.386  1.0127  0.2399 -0.9159
 8686SOL    HW237695   4.512   2.146   4.335  0.0105  0.4801 -0.4586
 8687SOL     OW37696   2.167   0.434   9.019  0.3836 -0.1083  0.1240
 8687SOL    HW137697   2.244   0.378   9.021  0.2073 -0.3129  0.9526
 8687SOL    HW237698   2.160   0.452   9.112  1.1740  0.3682  0.0945
 8688SOL     OW37699   3.380   3.738  15.648 -0.0494  0.1881  0.8271
 8688SOL    HW137700   3.389   3.799  15.574 -4.0047 -1.4503 -1.0031
 8688SOL    HW237701   3.312   3.682  15.612 -0.1858  0.5544  0.5097
 8689SOL     OW37702   2.055   3.736   8.880  0.2515 -0.3653 -0.2322
 8689SOL    HW137703   2.044   3.651   8.922  1.7017 -0.5961 -0.3174
 8689SOL    HW237704   2.078   3.720   8.788  4.0108  2.3768  0.2496
 8690SOL     OW37705   3.658   2.664   2.606 -0.3595  0.1191 -0.6290
 8690SOL    HW137706   3.734   2.656   2.663 -1.1301 -0.1298  0.3546
 8690SOL    HW237707   3.581   2.688   2.658  0.0145  0.7500 -0.3694
 8691SOL     OW37708   4.547   2.286   4.861 -0.4710  0.0272  0.1922
 8691SOL    HW137709   4.491   2.217   4.897 -0.0956 -0.6001 -0.4260
 8691SOL    HW237710   4.507   2.298   4.775 -0.8662 -2.1476  0.0806
 8692SOL     OW37711   0.993   4.636  11.571 -0.7347  0.1380  0.3106
 8692SOL    HW137712   1.052   4.602  11.504 -0.2516 -0.6602  1.1406
 8692SOL    HW237713   0.922   4.580  11.539 -1.7383  1.9776 -0.7029
 8693SOL     OW37714   1.227   4.121   9.051 -0.1101  0.0461  0.5987
 8693SOL    HW137715   1.279   4.058   9.002 -0.8232  0.4840 -0.7255
 8693SOL    HW237716   1.267   4.204   9.022 -0.5008  0.0866  0.1727
 8694SOL     OW37717   0.581   0.307   8.518  0.0391  0.0455 -0.0671
 8694SOL    HW137718   0.629   0.382   8.484  0.9884  0.1395  1.4990
 8694SOL    HW237719   0.616   0.292   8.606 -0.2875  1.6303  0.3298
 8695SOL     OW37720   2.953   1.247   7.800 -0.3216 -0.0051  0.0619
 8695SOL    HW137721   2.921   1.316   7.741 -3.7127 -1.9325 -0.3641
 8695SOL    HW237722   2.889   1.177   7.786 -1.4741  0.7306  1.6852
 8696SOL     OW37723   0.747   0.440   7.296  0.0828  0.0089 -0.3736
 8696SOL    HW137724   0.815   0.484   7.246  1.4388  3.0633  4.1251
 8696SOL    HW237725   0.805   0.384   7.348 -1.6490 -1.0963  0.3653
 8697SOL     OW37726   0.904   1.074   8.898 -0.2099 -0.6632  0.3106
 8697SOL    HW137727   0.969   1.042   8.835 -0.8831  1.5514 -1.4889
 8697SOL    HW237728   0.893   1.168   8.884 -0.3558 -0.6558  0.4758
 8698SOL     OW37729   3.410   4.702   7.489 -0.3356  0.0114 -0.9086
 8698SOL    HW137730   3.417   0.060   7.483  1.1465 -0.1018 -0.9399
 8698SOL    HW237731   3.416   4.692   7.584  1.0022 -0.1352 -1.0112
 8699SOL     OW37732   2.903   0.565   4.434 -0.0815  0.4555 -0.4779
 8699SOL    HW137733   2.881   0.489   4.490  1.4875 -0.3039 -0.9146
 8699SOL    HW237734   2.998   0.556   4.440 -0.0521  2.8691  2.7995
 8700SOL     OW37735   0.764   0.380  15.914  0.1781 -0.2156  0.5127
 8700SOL    HW137736   0.728   0.361  16.000  0.1795  1.2426  0.8289
 8700SOL    HW237737   0.768   0.475  15.925  0.4708 -0.3664  1.7191
 8701SOL     OW37738   0.636   3.096  16.583  0.4401  0.1169 -0.2094
 8701SOL    HW137739   0.624   3.007  16.616  3.3388  0.7606  2.5963
 8701SOL    HW237740   0.657   3.086  16.490 -0.2263 -0.9668 -0.2517
 8702SOL     OW37741   3.787   3.420   4.051  0.5994 -0.9151  0.1962
 8702SOL    HW137742   3.830   3.347   4.005 -1.2961 -2.3401  0.6734
 8702SOL    HW237743   3.792   3.396   4.144  0.1147  1.4631  0.8456
 8703SOL     OW37744   4.015   3.019   2.461 -0.1987  0.8395 -0.3518
 8703SOL    HW137745   4.044   2.929   2.448 -1.2788  0.9892 -3.7002
 8703SOL    HW237746   3.995   3.036   2.369  0.5381  0.1699 -0.6362
 8704SOL     OW37747   4.220   4.359   6.957  0.1418  0.2961 -0.3034
 8704SOL    HW137748   4.277   4.425   6.917 -0.2129  1.0662  0.4663
 8704SOL    HW237749   4.151   4.351   6.892 -0.9719  0.3671  0.8841
 8705SOL     OW37750   0.293   1.207   4.706 -0.4813  0.3740 -0.3543
 8705SOL    HW137751   0.252   1.219   4.620 -0.9219 -1.1683 -0.3446
 8705SOL    HW237752   0.231   1.147   4.747  0.7481 -1.7862 -1.6995
 8706SOL     OW37753   2.081   0.198   6.821 -0.1266  0.4865  0.0894
 8706SOL    HW137754   2.137   0.159   6.888 -1.3345  1.0566  1.4281
 8706SOL    HW237755   2.030   0.121   6.796 -0.4290  1.3304 -1.9328
 8707SOL     OW37756   1.703   4.365   3.483 -0.2953  0.2394  0.4840
 8707SOL    HW137757   1.781   4.311   3.495  0.4419  1.2018  0.0335
 8707SOL    HW237758   1.639   4.297   3.461 -1.7875  0.5453  3.8532
 8708SOL     OW37759   1.113   0.486   5.395 -0.2462  0.3408  0.3364
 8708SOL    HW137760   1.174   0.453   5.460 -0.6530  0.6905  0.9067
 8708SOL    HW237761   1.176   0.497   5.324 -1.9301 -1.2887 -1.4063
 8709SOL     OW37762   2.696   0.531   6.952  0.2614 -0.4003  0.2035
 8709SOL    HW137763   2.603   0.510   6.951  0.7627 -2.7202  0.7253
 8709SOL    HW237764   2.736   0.451   6.987  1.0585  0.0365  0.2989
 8710SOL     OW37765   1.889   2.514   7.522 -0.5341  0.4433 -0.3389
 8710SOL    HW137766   1.906   2.524   7.429  0.3674 -1.5833 -0.3963
 8710SOL    HW237767   1.963   2.570   7.547  1.2163 -1.5514 -1.0124
 8711SOL     OW37768   0.338   0.559  15.591 -0.2997  0.1450 -0.0462
 8711SOL    HW137769   0.362   0.591  15.678  2.1301 -1.5424 -0.0988
 8711SOL    HW237770   0.418   0.577  15.542  1.8601 -2.4331  2.4997
 8712SOL     OW37771   1.065   3.396   7.064  0.2528  0.6477 -0.2203
 8712SOL    HW137772   1.042   3.312   7.025 -4.6175  1.5614  0.6748
 8712SOL    HW237773   1.161   3.401   7.061  0.2540  1.3404  0.8566
 8713SOL     OW37774   3.670   1.984   6.194  0.5886 -0.3486  0.1596
 8713SOL    HW137775   3.581   1.962   6.169  0.8219  3.5901 -4.1557
 8713SOL    HW237776   3.669   1.969   6.289 -0.6850 -0.4966  0.1170
 8714SOL     OW37777   2.577   2.101  12.139  0.5579 -0.0236 -0.2896
 8714SOL    HW137778   2.497   2.094  12.087 -0.2286 -0.0891  0.9368
 8714SOL    HW237779   2.541   2.114  12.226 -1.1694 -1.0129 -0.8484
 8715SOL     OW37780   2.347   3.923   9.542  0.2943 -0.2238  0.8706
 8715SOL    HW137781   2.357   4.015   9.564 -0.2495 -0.2198  1.0871
 8715SOL    HW237782   2.295   3.884   9.613  0.6521 -0.1351  1.1808
 8716SOL     OW37783   0.393   0.335   4.876 -0.6354 -0.1844  0.6188
 8716SOL    HW137784   0.351   0.417   4.902 -1.3761 -0.6762  0.9796
 8716SOL    HW237785   0.416   0.348   4.784 -1.5498  1.2412  0.5936
 8717SOL     OW37786   4.706   2.672   8.977 -0.3437 -0.0736 -0.0452
 8717SOL    HW137787   4.646   2.636   8.912  0.7006  1.7883 -2.0708
 8717SOL    HW237788   4.705   2.616   9.054  0.6374 -0.6417 -0.4400
 8718SOL     OW37789   1.190   0.006  14.484 -0.0330 -0.3664  0.0712
 8718SOL    HW137790   1.276   0.043  14.469  0.4741 -0.6147  2.4056
 8718SOL    HW237791   1.181   0.007  14.579  0.5037 -0.3772  0.1190
 8719SOL     OW37792   4.664   0.561   7.562  0.1219 -0.0051  0.0689
 8719SOL    HW137793   4.646   0.530   7.473  1.6645 -3.0426  0.8168
 8719SOL    HW237794   4.710   0.485   7.596  0.4521 -0.0572 -0.4910
 8720SOL     OW37795   3.640   2.440   7.992  0.2679  0.0727 -0.6079
 8720SOL    HW137796   3.572   2.413   7.930  0.8677 -0.4222 -1.0459
 8720SOL    HW237797   3.689   2.509   7.947  0.3861 -0.5168 -1.3826
 8721SOL     OW37798   2.864   2.352   4.570  0.0235 -0.1748 -0.5178
 8721SOL    HW137799   2.822   2.414   4.510  0.9774  0.5773 -0.4039
 8721SOL    HW237800   2.834   2.385   4.655 -1.3699  0.0287 -1.0837
 8722SOL     OW37801   4.209   2.144  15.571  0.0511  0.0407  0.1549
 8722SOL    HW137802   4.168   2.173  15.652  2.2654  0.3399  1.1697
 8722SOL    HW237803   4.247   2.060  15.597  2.0200  0.6617 -0.7464
 8723SOL     OW37804   1.265   4.702   3.995  0.0509 -0.3935  0.4303
 8723SOL    HW137805   1.189   4.674   4.047 -0.2519 -1.5211 -0.6254
 8723SOL    HW237806   1.249   0.059   3.993 -1.3385 -0.6683 -1.4056
 8724SOL     OW37807   1.507   0.790   5.744 -0.4115 -0.0187 -0.0991
 8724SOL    HW137808   1.586   0.844   5.745 -0.6125  0.2852 -0.5665
 8724SOL    HW237809   1.476   0.776   5.654  1.7315  0.6480 -0.9426
 8725SOL     OW37810   3.885   0.844   2.539 -0.4849 -0.0096 -0.0568
 8725SOL    HW137811   3.797   0.854   2.574 -0.1639 -0.9696  1.0297
 8725SOL    HW237812   3.871   0.765   2.487 -1.4735  0.7013 -0.8827
 8726SOL     OW37813   1.637   2.516   2.980  0.0423 -0.1963 -0.4695
 8726SOL    HW137814   1.571   2.448   2.993 -0.1433  0.3219  1.3370
 8726SOL    HW237815   1.615   2.541   2.890 -0.2833  1.4741  0.0669
 8727SOL     OW37816   4.653   4.214   9.426  0.3901  0.1164  0.0796
 8727SOL    HW137817   4.650   4.169   9.511 -0.9424 -1.3576 -0.7394
 8727SOL    HW237818   4.704   4.156   9.369  0.5740  0.6303 -0.2709
 8728SOL     OW37819   3.653   1.306  13.421 -0.4885  0.5700  0.0295
 8728SOL    HW137820   3.570   1.274  13.457 -2.0763  1.6123 -2.6891
 8728SOL    HW237821   3.673   1.379  13.480 -1.9118 -0.6716  2.0710
 8729SOL     OW37822   1.812   3.648   3.245  0.7495  0.0390  0.2572
 8729SOL    HW137823   1.806   3.680   3.335  0.3754 -0.3711  0.3799
 8729SOL    HW237824   1.722   3.656   3.214 -0.0223 -2.9962  1.7710
 8730SOL     OW37825   1.993   4.174   0.337  0.4909  0.3542  0.4415
 8730SOL    HW137826   1.974   4.253   0.286 -0.8665  1.1934  2.2279
 8730SOL    HW237827   1.910   4.126   0.346 -1.2972  3.4674  0.5009
 8731SOL     OW37828   4.710   3.158   2.353  0.6756 -0.0209  0.1242
 8731SOL    HW137829   4.642   3.206   2.401  1.1947 -0.2239  1.0575
 8731SOL    HW237830   4.698   3.200   2.268 -2.6811 -1.5529 -0.1462
 8732SOL     OW37831   3.794   0.002   8.465 -0.2354  0.3456  0.6413
 8732SOL    HW137832   3.754   4.680   8.528  0.0383  1.0978  1.5273
 8732SOL    HW237833   3.840   0.064   8.522 -0.4099  0.6324  0.4726
 8733SOL     OW37834   3.661   2.140   4.719 -0.9203  0.0386 -0.4698
 8733SOL    HW137835   3.697   2.052   4.732  2.5377  1.9231  2.6475
 8733SOL    HW237836   3.639   2.164   4.809 -0.1170 -1.5005  0.1469
 8734SOL     OW37837   0.127   0.694   1.403 -0.0306  0.4124  0.0503
 8734SOL    HW137838   0.172   0.615   1.375 -2.5912 -0.6425 -1.0951
 8734SOL    HW237839   0.193   0.730   1.462  1.2959  0.1087 -1.2356
 8735SOL     OW37840   4.557   2.275   7.429 -0.7438  0.1101  0.5103
 8735SOL    HW137841   4.631   2.315   7.383 -0.9776 -0.2179 -0.1585
 8735SOL    HW237842   4.527   2.221   7.356 -0.8127  1.5267 -0.5058
 8736SOL     OW37843   0.722   0.988   6.965  0.5802 -0.0747  0.0682
 8736SOL    HW137844   0.706   1.082   6.972 -0.2439 -0.1110 -1.2709
 8736SOL    HW237845   0.817   0.987   6.977  0.4759  0.5153  0.9441
 8737SOL     OW37846   1.948   2.691   1.052 -0.0853  0.3243  0.1590
 8737SOL    HW137847   1.888   2.621   1.077  1.8369 -1.8317 -1.2188
 8737SOL    HW237848   2.018   2.687   1.117 -0.4429 -0.4129  0.4954
 8738SOL     OW37849   2.155   0.457   5.387  0.4828  0.2142 -0.0320
 8738SOL    HW137850   2.233   0.487   5.433  0.5744 -0.3525  0.1819
 8738SOL    HW237851   2.132   0.538   5.341 -0.6262 -0.2962 -0.3714
 8739SOL     OW37852   3.301   3.740   7.269 -0.1725  0.0016  0.1131
 8739SOL    HW137853   3.283   3.789   7.350 -1.6368 -2.3596  1.2424
 8739SOL    HW237854   3.208   3.727   7.250 -0.5559  1.3756  1.0855
 8740SOL     OW37855   1.126   3.741  13.089  0.0441 -0.4822  0.2806
 8740SOL    HW137856   1.080   3.742  13.174 -0.6882  0.8822 -0.1398
 8740SOL    HW237857   1.127   3.834  13.068  1.3413 -0.5026  0.2522
 8741SOL     OW37858   1.164   1.620   2.063  0.1241  0.0110 -0.4303
 8741SOL    HW137859   1.100   1.660   2.005  0.1558 -0.3491 -0.7181
 8741SOL    HW237860   1.197   1.556   1.999  1.6710 -0.4568  0.8331
 8742SOL     OW37861   1.564   1.274   4.689  0.4796 -0.3592 -0.3451
 8742SOL    HW137862   1.485   1.292   4.639 -0.2833 -0.1216  0.9528
 8742SOL    HW237863   1.602   1.211   4.628  0.8615 -0.2682 -0.1992
 8743SOL     OW37864   2.933   1.965   7.270 -0.1576  0.2497 -0.3735
 8743SOL    HW137865   2.858   1.908   7.252  0.3811 -0.7924  0.7118
 8743SOL    HW237866   2.905   1.999   7.355  1.9019  1.9538 -0.3772
 8744SOL     OW37867   2.408   2.958   4.260  0.3638 -0.3925  0.5379
 8744SOL    HW137868   2.326   2.987   4.220  0.1475 -0.7953  0.6952
 8744SOL    HW237869   2.438   2.887   4.203  1.2797 -0.5741  1.2505
 8745SOL     OW37870   1.393   0.779   5.024  0.2420  0.6091  0.4858
 8745SOL    HW137871   1.422   0.866   4.995 -0.3937  1.0147  1.0697
 8745SOL    HW237872   1.418   0.725   4.949  0.6263  1.0946  0.2671
 8746SOL     OW37873   3.214   2.184  16.652 -0.0564  0.3568  0.3559
 8746SOL    HW137874   3.251   2.162  16.566 -0.2875  1.4133 -0.0141
 8746SOL    HW237875   3.186   2.270  16.621 -1.6998 -0.6335 -0.8977
 8747SOL     OW37876   0.041   3.513  16.438 -0.7818 -0.3057  0.0762
 8747SOL    HW137877   0.049   3.550  16.526  0.1582 -0.1631 -0.0724
 8747SOL    HW237878   4.720   3.580  16.403 -1.7564 -2.5848 -2.6093
 8748SOL     OW37879   3.710   0.316  15.299  0.8576  0.5929 -0.0003
 8748SOL    HW137880   3.806   0.326  15.301  1.0751 -1.5026 -0.4316
 8748SOL    HW237881   3.689   0.313  15.392 -5.1359 -2.2107 -1.4550
 8749SOL     OW37882   2.273   1.733   2.854 -0.1003  0.1219  0.1982
 8749SOL    HW137883   2.321   1.650   2.848 -1.5925 -0.7079 -0.1479
 8749SOL    HW237884   2.342   1.788   2.890  0.0257 -0.2288  0.4886
 8750SOL     OW37885   4.014   1.889   0.398 -0.6684 -0.3013  0.4368
 8750SOL    HW137886   4.004   1.856   0.487 -1.2117  2.5901  1.4494
 8750SOL    HW237887   3.946   1.842   0.349 -0.7902 -0.2751  0.5812
 8751SOL     OW37888   0.793   3.193   7.353  0.0619 -0.2859  0.0224
 8751SOL    HW137889   0.724   3.170   7.415  0.0379  3.0454  1.2532
 8751SOL    HW237890   0.802   3.286   7.373  0.8565 -0.0684 -1.3347
 8752SOL     OW37891   1.717   4.553   8.578 -0.5595  0.4120 -0.0415
 8752SOL    HW137892   1.626   4.528   8.560 -0.0854 -1.4567  0.0655
 8752SOL    HW237893   1.741   4.483   8.639 -0.8993 -0.3466 -0.7732
 8753SOL     OW37894   4.225   3.566   6.242  0.3697  0.7561 -0.4789
 8753SOL    HW137895   4.254   3.489   6.290 -1.4338  0.0868 -0.4688
 8753SOL    HW237896   4.184   3.618   6.312  0.5817 -1.3040  1.1913
 8754SOL     OW37897   2.673   0.685   1.885  0.0835 -0.1228 -0.7951
 8754SOL    HW137898   2.614   0.750   1.848 -2.1647 -1.9587 -0.3776
 8754SOL    HW237899   2.619   0.607   1.884  0.8117 -0.6663  1.5191
 8755SOL     OW37900   0.816   1.293   9.747 -0.3393 -0.2363  0.0585
 8755SOL    HW137901   0.756   1.367   9.737  0.3061  0.3401  0.4313
 8755SOL    HW237902   0.883   1.322   9.684  2.6926 -1.4865  2.6905
 8756SOL     OW37903   1.613   3.843   2.149 -0.0027 -0.2586 -0.5871
 8756SOL    HW137904   1.552   3.771   2.167  1.4124 -0.9269  1.5456
 8756SOL    HW237905   1.621   3.835   2.053 -0.8078  0.9476 -0.7467
 8757SOL     OW37906   1.751   3.058  11.289  0.6781 -0.0289 -0.3715
 8757SOL    HW137907   1.676   3.091  11.339  1.5876  0.7205  0.5024
 8757SOL    HW237908   1.730   2.965  11.296 -1.8949  0.4702 -1.6063
 8758SOL     OW37909   4.531   3.237   3.209 -0.8532  0.5528 -0.1401
 8758SOL    HW137910   4.511   3.284   3.129  2.3643  3.4073  0.6800
 8758SOL    HW237911   4.454   3.186   3.234 -0.3289 -0.6756 -1.0383
 8759SOL     OW37912   4.724   2.504   9.167 -0.1869 -0.0907  0.5178
 8759SOL    HW137913   0.054   2.479   9.230  0.0392 -0.0221  0.3047
 8759SOL    HW237914   4.695   2.424   9.121 -0.2909  0.6191 -0.6488
 8760SOL     OW37915   1.391   1.860   3.010  0.4136  0.3144  0.1842
 8760SOL    HW137916   1.366   1.810   2.932  0.2844 -0.4733  0.7356
 8760SOL    HW237917   1.339   1.820   3.079 -1.3272  1.8486 -0.2485
 8761SOL     OW37918   0.601   4.425   2.290 -0.2587  0.0135  0.1043
 8761SOL    HW137919   0.575   4.410   2.381 -1.5078  1.5450  0.0223
 8761SOL    HW237920   0.527   4.479   2.261  0.5931  1.6585  0.9438
 8762SOL     OW37921   3.422   0.285  10.466 -0.2201  0.8497  0.0957
 8762SOL    HW137922   3.459   0.330  10.390  2.5172 -2.4082 -0.4731
 8762SOL    HW237923   3.424   0.357  10.529  2.1263 -0.7441  1.8707
 8763SOL     OW37924   3.468   0.371  14.720 -0.2553  0.4941 -0.0027
 8763SOL    HW137925   3.540   0.381  14.658 -0.0801  3.3850  0.6741
 8763SOL    HW237926   3.404   0.424  14.672 -0.9849  0.3880  0.8596
 8764SOL     OW37927   3.237   1.441   7.764 -0.2128 -0.4150  0.2289
 8764SOL    HW137928   3.227   1.348   7.744 -0.9598  0.0141 -1.3978
 8764SOL    HW237929   3.328   1.461   7.787 -0.8082  2.4440  0.0765
 8765SOL     OW37930   1.205   2.988   7.041  0.0871  0.5739 -0.1408
 8765SOL    HW137931   1.153   3.053   6.993 -2.3514 -0.8699  0.5266
 8765SOL    HW237932   1.145   2.961   7.110 -1.8759 -0.2491 -2.1689
 8766SOL     OW37933   4.014   1.988   6.715 -0.0821 -0.9877 -0.3684
 8766SOL    HW137934   4.055   1.995   6.628  0.7290  1.2148  0.1721
 8766SOL    HW237935   4.032   2.079   6.741  1.5975 -1.7696  1.1710
 8767SOL     OW37936   0.215   1.219  11.994 -0.2012 -0.0215 -0.0648
 8767SOL    HW137937   0.212   1.235  12.089  2.2949  0.8841 -0.1423
 8767SOL    HW237938   0.142   1.262  11.951  1.2452 -0.6736 -3.1616
 8768SOL     OW37939   3.538   3.739   5.436 -0.8921  0.3387 -0.5204
 8768SOL    HW137940   3.529   3.791   5.356  1.1792 -0.9451 -1.6029
 8768SOL    HW237941   3.480   3.791   5.491 -2.6143 -1.6580 -0.4619
 8769SOL     OW37942   0.680   4.253  17.261  0.1739 -0.1014 -0.0731
 8769SOL    HW137943   0.664   4.249  17.167  2.6256  1.0429 -0.5096
 8769SOL    HW237944   0.766   4.291  17.274 -0.6727  1.4511  0.9532
 8770SOL     OW37945   2.367   2.683   3.420 -0.1977 -0.0795 -0.0945
 8770SOL    HW137946   2.362   2.693   3.515 -1.5450 -0.9684 -0.0690
 8770SOL    HW237947   2.294   2.620   3.417  1.0964 -1.5906  0.4560
 8771SOL     OW37948   0.054   4.653   4.749 -0.2270  0.5966 -0.2591
 8771SOL    HW137949   0.083   4.562   4.753  2.4377  1.4115 -0.3987
 8771SOL    HW237950   0.124   4.701   4.793 -0.8038  1.5775 -0.4195
 8772SOL     OW37951   4.179   0.572  10.381 -0.3642 -0.3243 -0.1830
 8772SOL    HW137952   4.112   0.623  10.336  0.3102 -0.6138 -1.5237
 8772SOL    HW237953   4.192   0.496  10.324  0.7939  0.0576 -0.4282
 8773SOL     OW37954   1.217   0.783   1.255 -0.3394  0.1613 -0.4372
 8773SOL    HW137955   1.255   0.698   1.275 -0.8390 -0.1218 -0.7055
 8773SOL    HW237956   1.295   0.838   1.262 -2.1360  2.5824  0.5933
 8774SOL     OW37957   0.646   1.526   3.095  0.3238  0.3991 -0.3643
 8774SOL    HW137958   0.566   1.528   3.043 -0.0432  0.9037  0.2314
 8774SOL    HW237959   0.721   1.558   3.044  0.9327 -1.3395 -0.5700
 8775SOL     OW37960   0.892   1.000   4.545  0.7537 -0.4218  0.0748
 8775SOL    HW137961   0.949   1.075   4.558  3.0919 -1.8073 -2.2461
 8775SOL    HW237962   0.844   1.031   4.468  1.8315 -0.1007 -0.4677
 8776SOL     OW37963   1.610   1.385   7.500  0.5691 -0.6224 -0.2463
 8776SOL    HW137964   1.653   1.316   7.550 -2.6760 -1.5316  1.2873
 8776SOL    HW237965   1.672   1.458   7.498 -1.8621  1.5644  2.0756
 8777SOL     OW37966   1.555   2.991  10.532 -0.1385  0.1073 -0.6881
 8777SOL    HW137967   1.527   3.043  10.457 -0.0421  1.5583  0.2802
 8777SOL    HW237968   1.611   2.921  10.496  0.7339  0.9826 -1.0337
 8778SOL     OW37969   2.031   2.917  12.297 -0.1647 -0.2451  0.0278
 8778SOL    HW137970   2.086   2.942  12.371 -1.9335  1.6829  0.6984
 8778SOL    HW237971   2.075   2.837  12.268  0.2255 -0.1133  0.2577
 8779SOL     OW37972   3.513   0.130  17.414  0.1462  0.1594  0.5119
 8779SOL    HW137973   3.474   0.081  17.341  1.6087 -0.5749  0.2297
 8779SOL    HW237974   3.444   0.124  17.481 -0.3314 -1.8727 -0.1370
 8780SOL     OW37975   3.928   0.514   5.011  0.2735  0.0790  0.2194
 8780SOL    HW137976   3.936   0.486   4.919 -0.7580 -2.0288  0.7855
 8780SOL    HW237977   3.872   0.447   5.050  0.2472  1.7100  2.9157
 8781SOL     OW37978   3.552   0.197  16.774 -0.1569  0.0368  0.5452
 8781SOL    HW137979   3.637   0.196  16.818 -0.2909  3.7115  0.8650
 8781SOL    HW237980   3.537   0.289  16.793  1.2054  0.3356  0.1699
 8782SOL     OW37981   1.473   4.668   8.379  0.0702 -0.1468 -0.2119
 8782SOL    HW137982   1.456   4.694   8.289 -1.6368  0.2361  0.2248
 8782SOL    HW237983   1.550   4.725   8.387 -1.0058  1.0774  1.4152
 8783SOL     OW37984   0.477   2.350   6.109 -0.0134 -0.2544  0.5772
 8783SOL    HW137985   0.416   2.367   6.037 -0.2751 -0.4838  0.7411
 8783SOL    HW237986   0.533   2.280   6.075  1.9793  0.7579  1.7703
 8784SOL     OW37987   1.308   0.519   1.200  0.1997  0.6862  0.2722
 8784SOL    HW137988   1.334   0.427   1.194  1.5067  0.9936  1.1556
 8784SOL    HW237989   1.258   0.514   1.282  1.2188 -0.8759  0.8175
 8785SOL     OW37990   1.581   3.773   1.867 -0.2315 -0.4552 -0.0042
 8785SOL    HW137991   1.620   3.852   1.830  2.5867 -1.9962 -0.3340
 8785SOL    HW237992   1.507   3.762   1.809 -0.2138 -1.5678  0.1824
 8786SOL     OW37993   3.051   3.387   4.219  0.0919 -0.2411  0.1928
 8786SOL    HW137994   2.998   3.341   4.286  0.7604  2.1947  2.3808
 8786SOL    HW237995   3.085   3.461   4.269  1.4094 -0.1997 -0.7689
 8787SOL     OW37996   3.964   1.551   5.217 -0.7222 -0.6066 -0.1891
 8787SOL    HW137997   3.929   1.484   5.158 -2.0788 -1.9312  2.1168
 8787SOL    HW237998   3.883   1.592   5.249 -0.7497  1.4680 -2.8336
 8788SOL     OW37999   1.770   0.472   3.679  0.1749 -0.4216  0.7547
 8788SOL    HW138000   1.786   0.444   3.590  2.5439 -2.0504  1.7189
 8788SOL    HW238001   1.859   0.472   3.714 -0.3266  2.6836  2.0506
 8789SOL     OW38002   3.558   3.926  13.815  1.1316 -0.1668  0.2533
 8789SOL    HW138003   3.465   3.906  13.829  1.6563 -2.4241  0.3933
 8789SOL    HW238004   3.550   4.022  13.815 -1.7885 -0.3992  0.1702
 8790SOL     OW38005   0.904   0.778   3.521 -0.0236 -0.3703  0.6467
 8790SOL    HW138006   0.886   0.733   3.438 -1.9585  0.5657  0.5535
 8790SOL    HW238007   0.922   0.868   3.492  4.2157 -1.3664  0.1373
 8791SOL     OW38008   2.604   1.584   5.020  0.1226 -0.1329 -0.3265
 8791SOL    HW138009   2.699   1.570   5.027  0.1691  0.5968  0.6841
 8791SOL    HW238010   2.575   1.534   5.096  0.0288  0.8088  0.2628
 8792SOL     OW38011   4.281   0.227   5.662  0.7589  0.0493  0.0518
 8792SOL    HW138012   4.219   0.250   5.731  0.3044  2.7665 -1.2405
 8792SOL    HW238013   4.364   0.219   5.708  1.0490  0.5455 -0.3821
 8793SOL     OW38014   3.830   2.730   4.228 -0.4675  0.4081 -0.4468
 8793SOL    HW138015   3.800   2.791   4.160  3.0238  2.0855 -0.4905
 8793SOL    HW238016   3.889   2.677   4.173  0.2952  2.6582 -1.8119
 8794SOL     OW38017   2.143   2.136   2.040  0.8307  0.3879  0.0106
 8794SOL    HW138018   2.076   2.097   2.096  0.7117  1.7892  0.8396
 8794SOL    HW238019   2.214   2.158   2.100  0.7248 -1.5086  0.8316
 8795SOL     OW38020   4.574   2.796  12.009 -0.0121  0.3977 -0.3621
 8795SOL    HW138021   4.610   2.709  11.993 -0.6696  0.2308 -0.9385
 8795SOL    HW238022   4.482   2.783  12.033  0.6087  0.7765  2.1627
 8796SOL     OW38023   2.109   3.394   7.366  0.3936  0.2651 -0.2527
 8796SOL    HW138024   2.105   3.332   7.439 -1.3148  0.1080 -0.4909
 8796SOL    HW238025   2.026   3.383   7.321  0.0558  0.3013  0.3613
 8797SOL     OW38026   0.750   0.609   4.544 -0.2953 -0.6289  0.1760
 8797SOL    HW138027   0.674   0.588   4.490  0.5640  0.6342 -1.5293
 8797SOL    HW238028   0.812   0.555   4.495  0.1916  1.7439 -1.8232
 8798SOL     OW38029   4.198   1.535   5.957 -0.0559  0.1986  0.0610
 8798SOL    HW138030   4.138   1.499   5.891  0.3412 -2.7594  1.3441
 8798SOL    HW238031   4.142   1.591   6.011 -1.2177 -0.9248  0.0191
 8799SOL     OW38032   0.144   2.357  13.328  0.2343 -0.1820 -0.1495
 8799SOL    HW138033   0.097   2.285  13.371 -1.5101  0.4529 -0.9701
 8799SOL    HW238034   0.166   2.410  13.404 -0.5567  0.0030 -0.0480
 8800SOL     OW38035   3.338   1.629  15.178 -0.7880 -0.1474 -0.0288
 8800SOL    HW138036   3.296   1.573  15.243  0.8277 -2.3771 -0.8932
 8800SOL    HW238037   3.350   1.711  15.226 -1.1580 -0.9135  1.3772
 8801SOL     OW38038   1.500   0.746   6.007 -0.5514 -0.1680  0.2880
 8801SOL    HW138039   1.506   0.768   5.914  1.1419 -1.4303  0.1147
 8801SOL    HW238040   1.540   0.659   6.012 -0.5665 -0.1990 -0.0978
 8802SOL     OW38041   2.340   3.799   3.814 -0.1043 -0.3090  0.3118
 8802SOL    HW138042   2.293   3.881   3.827 -1.6974 -0.9749 -1.2882
 8802SOL    HW238043   2.339   3.795   3.719  0.3023 -3.7316  0.4253
 8803SOL     OW38044   1.458   0.492   5.669  0.5258  0.0325  0.5501
 8803SOL    HW138045   1.455   0.583   5.639  0.8182 -1.1804 -3.1356
 8803SOL    HW238046   1.531   0.446   5.629 -0.0891 -0.2456 -0.2418
 8804SOL     OW38047   0.569   4.276  15.235  0.5028  0.0850  0.3414
 8804SOL    HW138048   0.563   4.307  15.144  0.8280  1.3757  0.7613
 8804SOL    HW238049   0.623   4.198  15.227  1.4216  0.8150 -0.6009
 8805SOL     OW38050   2.658   4.210  16.018 -0.6360 -0.3645  0.4034
 8805SOL    HW138051   2.664   4.305  16.026 -0.2099 -0.2621 -1.1687
 8805SOL    HW238052   2.563   4.197  16.023 -0.8623  0.9518 -0.4794
 8806SOL     OW38053   4.656   4.040   4.800  0.0340 -0.3363 -0.1340
 8806SOL    HW138054   4.717   4.096   4.848  0.6207 -0.2287 -1.0005
 8806SOL    HW238055   4.632   4.098   4.727  0.7723  0.8287  0.5443
 8807SOL     OW38056   1.241   2.125   3.663 -0.4748  0.0207  0.5212
 8807SOL    HW138057   1.217   2.034   3.682 -0.6414  0.3072  1.6880
 8807SOL    HW238058   1.159   2.173   3.675 -0.4531  0.7413 -2.2221
 8808SOL     OW38059   1.653   0.752   8.290  0.4347  0.4492  0.4765
 8808SOL    HW138060   1.569   0.747   8.336 -0.6186  0.6702 -1.4265
 8808SOL    HW238061   1.675   0.662   8.269  0.2505  0.7950 -1.2405
 8809SOL     OW38062   1.018   2.274  16.547 -0.1701  0.0938  0.0456
 8809SOL    HW138063   1.010   2.184  16.515  0.4751 -0.7569  2.2580
 8809SOL    HW238064   0.927   2.301  16.560 -0.2905 -0.2796 -0.0071
 8810SOL     OW38065   0.513   4.453   9.666  0.0084  0.2238 -0.1797
 8810SOL    HW138066   0.427   4.496   9.672  0.3803  0.5777  2.2143
 8810SOL    HW238067   0.566   4.504   9.726  0.3977  2.8839 -2.7836
 8811SOL     OW38068   2.105   3.491   8.950  0.0230 -0.0553  0.9043
 8811SOL    HW138069   2.176   3.519   9.007  0.7681  0.5070 -0.3126
 8811SOL    HW238070   2.149   3.415   8.912  0.0227  2.1037 -3.3376
 8812SOL     OW38071   2.517   0.061   1.222 -0.5353  0.0316  0.6954
 8812SOL    HW138072   2.469   0.058   1.306 -2.1548 -0.8899 -0.2621
 8812SOL    HW238073   2.588   4.735   1.224 -1.7846 -1.4049 -0.7134
 8813SOL     OW38074   4.267   1.658   0.181  0.0186 -0.0606  0.6540
 8813SOL    HW138075   4.262   1.668   0.276 -1.5466  1.1130  0.4599
 8813SOL    HW238076   4.307   1.572   0.171 -1.2387 -0.5811  0.1324
 8814SOL     OW38077   2.267   3.380   6.175  0.4678 -0.2004  0.1724
 8814SOL    HW138078   2.236   3.437   6.104 -0.3337 -0.2270  0.4963
 8814SOL    HW238079   2.306   3.450   6.227 -0.2214 -1.1870  2.0031
 8815SOL     OW38080   2.313   4.203   6.141 -0.7208  0.1843 -0.0411
 8815SOL    HW138081   2.379   4.272   6.133  0.6463 -0.9260  1.6506
 8815SOL    HW238082   2.312   4.197   6.236  2.1699  1.7132  0.0935
 8816SOL     OW38083   1.678   1.605   2.623 -0.3812 -0.0032 -0.1217
 8816SOL    HW138084   1.653   1.629   2.533  0.1722  0.3359 -0.1835
 8816SOL    HW238085   1.771   1.585   2.616  0.0861  1.9392  0.6134
 8817SOL     OW38086   3.268   2.900   6.248  0.6601  0.6145 -0.0400
 8817SOL    HW138087   3.327   2.961   6.294  0.0803  0.7874  0.4696
 8817SOL    HW238088   3.319   2.824   6.220  1.8530  1.3928  0.0054
 8818SOL     OW38089   1.039   3.964   3.843 -0.4969 -0.2223  0.0744
 8818SOL    HW138090   0.972   3.986   3.908 -0.2841  2.0116 -0.4666
 8818SOL    HW238091   1.108   4.022   3.874  0.4096 -0.9091 -0.6572
 8819SOL     OW38092   1.293   4.041   8.637  0.0883  0.1592  0.5332
 8819SOL    HW138093   1.322   4.046   8.546  1.9078 -1.2620  1.0318
 8819SOL    HW238094   1.261   3.951   8.639  0.6391 -0.0465 -0.0725
 8820SOL     OW38095   1.467   3.504   1.013  0.3473 -0.6478 -0.5222
 8820SOL    HW138096   1.503   3.504   0.925  0.0018 -0.8554 -0.6677
 8820SOL    HW238097   1.372   3.500   0.999  0.1144 -2.4380  1.4433
 8821SOL     OW38098   1.228   3.613   7.871  0.0036 -0.4704 -0.6410
 8821SOL    HW138099   1.264   3.534   7.832  0.3102 -1.7490  2.2484
 8821SOL    HW238100   1.309   3.662   7.887 -0.0915  0.0855 -1.8721
 8822SOL     OW38101   1.711   2.767   8.321  0.0048  0.1243 -0.1434
 8822SOL    HW138102   1.616   2.772   8.331 -0.1175 -0.6892 -0.8879
 8822SOL    HW238103   1.729   2.848   8.274 -1.8648  0.6666  0.0905
 8823SOL     OW38104   4.440   4.254  16.172  0.4068 -0.0052  0.0178
 8823SOL    HW138105   4.495   4.283  16.099 -0.5335  2.7696  0.4406
 8823SOL    HW238106   4.359   4.299  16.149 -1.5756 -3.1697  0.7478
 8824SOL     OW38107   0.113   3.571   4.405 -0.4280  0.1347 -0.3829
 8824SOL    HW138108   0.119   3.622   4.486 -1.0376 -2.7670  1.4791
 8824SOL    HW238109   0.198   3.528   4.409 -0.6678 -0.2988  0.1065
 8825SOL     OW38110   3.566   0.891   3.724 -0.5407 -0.3042 -0.1966
 8825SOL    HW138111   3.501   0.960   3.710  1.3782  1.5244 -0.0328
 8825SOL    HW238112   3.638   0.939   3.764 -1.2299 -0.5553  1.3400
 8826SOL     OW38113   0.637   4.293  16.998 -0.3677 -0.3391 -0.9720
 8826SOL    HW138114   0.636   4.212  16.947 -1.0555 -0.4191 -0.8344
 8826SOL    HW238115   0.635   4.360  16.930  1.1558 -0.5981 -1.2660
 8827SOL     OW38116   3.038   3.842   5.756 -0.0617 -0.0593 -0.5518
 8827SOL    HW138117   3.008   3.758   5.723 -0.0445 -0.0605 -0.5639
 8827SOL    HW238118   3.022   3.905   5.686  1.2913  0.3858 -0.4454
 8828SOL     OW38119   2.888   2.858   2.467  0.5207  0.5050 -0.4045
 8828SOL    HW138120   2.804   2.836   2.506  1.3642 -0.6829  0.7451
 8828SOL    HW238121   2.873   2.819   2.381  0.7607 -1.5901  0.5021
 8829SOL     OW38122   3.036   1.947   8.340 -0.4715 -0.6372 -0.2953
 8829SOL    HW138123   3.064   1.855   8.341  1.7199  0.0118 -2.6732
 8829SOL    HW238124   3.012   1.953   8.433  1.9980  0.0232  0.2941
 8830SOL     OW38125   0.123   0.870  15.841 -0.4696 -0.4761 -0.1231
 8830SOL    HW138126   0.052   0.924  15.807 -0.3621  0.5037  1.1805
 8830SOL    HW238127   0.137   0.808  15.769  2.3672  0.1367 -0.1121
 8831SOL     OW38128   0.174   4.041   7.742  0.0943 -0.4715 -0.2250
 8831SOL    HW138129   0.252   3.994   7.711  0.7392  0.3631  0.1405
 8831SOL    HW238130   0.102   3.978   7.737 -1.8111  1.5450  1.6212
 8832SOL     OW38131   3.662   2.520   6.167  0.5913 -0.6410 -0.1995
 8832SOL    HW138132   3.742   2.489   6.209  0.0581 -1.8466 -0.0726
 8832SOL    HW238133   3.695   2.594   6.117 -0.8370  0.2546  0.1888
 8833SOL     OW38134   1.297   1.242   8.095 -0.2940  0.1778  0.3400
 8833SOL    HW138135   1.286   1.150   8.117  2.1331  0.0970  1.1510
 8833SOL    HW238136   1.219   1.254   8.041  1.8224  0.8373 -2.5785
 8834SOL     OW38137   1.667   4.124   6.009 -0.1952 -0.8602 -0.0323
 8834SOL    HW138138   1.704   4.170   5.933  0.2009 -0.7277  0.2421
 8834SOL    HW238139   1.578   4.118   5.974 -0.8007 -0.1778  1.3930
 8835SOL     OW38140   0.647   2.681   1.636 -0.0350 -0.3174 -0.3832
 8835SOL    HW138141   0.733   2.722   1.644  0.4488 -0.8130 -3.2339
 8835SOL    HW238142   0.606   2.728   1.709  1.0397  1.0405 -0.6404
 8836SOL     OW38143   2.068   3.788   8.375  0.1912 -0.3049  0.1822
 8836SOL    HW138144   2.022   3.727   8.317 -1.7971 -1.8171  3.3637
 8836SOL    HW238145   2.061   3.741   8.458 -2.7732  2.7931  1.7028
 8837SOL     OW38146   3.108   4.702   8.096  0.1660 -0.1883 -0.5950
 8837SOL    HW138147   3.107   0.043   8.151 -0.0784 -1.2520  0.9081
 8837SOL    HW238148   3.187   4.656   8.124  0.1331  0.0236 -0.1670
 8838SOL     OW38149   2.296   0.634  12.407  0.3044  0.2963  0.0741
 8838SOL    HW138150   2.254   0.548  12.413  1.9638 -0.6394 -1.6506
 8838SOL    HW238151   2.300   0.668  12.497  1.9949 -1.5356  0.6906
 8839SOL     OW38152   1.370   1.934   1.079  0.0953  0.3939 -0.8349
 8839SOL    HW138153   1.358   1.839   1.086 -1.4742  0.8349  2.2919
 8839SOL    HW238154   1.319   1.944   0.999  0.1939 -0.2696 -0.9829
 8840SOL     OW38155   2.968   0.812   6.441 -0.8170 -0.0974  0.3542
 8840SOL    HW138156   2.916   0.735   6.464  1.8193 -2.3649 -1.3301
 8840SOL    HW238157   2.927   0.870   6.506 -0.2816 -0.3832  0.9452
 8841SOL     OW38158   1.533   1.989   2.757 -0.2937 -0.5914 -0.5908
 8841SOL    HW138159   1.495   2.068   2.718 -1.3305 -0.7057  0.1836
 8841SOL    HW238160   1.456   1.942   2.788 -1.9073  3.4957  1.6759
 8842SOL     OW38161   0.155   4.511   2.378 -0.3178  0.8569  0.4440
 8842SOL    HW138162   0.081   4.564   2.408 -1.0810  1.6114 -2.7345
 8842SOL    HW238163   0.121   4.422   2.369  0.2409  0.5615  1.2826
 8843SOL     OW38164   2.388   0.294   7.367  0.1908  0.4177  0.8404
 8843SOL    HW138165   2.338   0.224   7.409  0.0415 -0.0872 -0.1722
 8843SOL    HW238166   2.448   0.241   7.314 -1.7675  0.6202 -1.5938
 8844SOL     OW38167   0.827   2.066   3.506 -0.3942 -0.2591  0.2842
 8844SOL    HW138168   0.896   2.075   3.572  0.6700  2.2099 -1.1677
 8844SOL    HW238169   0.772   2.140   3.532 -0.6995 -0.1675 -0.6348
 8845SOL     OW38170   3.890   2.057   5.610 -0.2176 -0.5245 -0.2137
 8845SOL    HW138171   3.878   2.151   5.599  0.5304 -0.2703  1.0371
 8845SOL    HW238172   3.966   2.045   5.554 -0.1330 -0.2318 -0.1644
 8846SOL     OW38173   3.025   3.031   7.879 -0.1082 -1.0520  0.3719
 8846SOL    HW138174   3.097   2.970   7.869  0.4763 -0.3499  0.3103
 8846SOL    HW238175   3.046   3.094   7.810 -3.3109 -0.0840  0.2398
 8847SOL     OW38176   0.576   0.342   9.039 -0.8694 -0.0308 -0.0661
 8847SOL    HW138177   0.543   0.381   9.120  0.7536 -0.4360  0.7881
 8847SOL    HW238178   0.660   0.314   9.074 -0.9998  1.6149  1.5532
 8848SOL     OW38179   0.891   4.200   8.506 -0.4280 -0.5307  0.7941
 8848SOL    HW138180   0.987   4.202   8.509 -0.4569 -1.0976  2.0679
 8848SOL    HW238181   0.889   4.197   8.411 -0.9151 -0.2661  0.7996
 8849SOL     OW38182   3.163   1.275   4.412  0.0312 -0.0692  0.3592
 8849SOL    HW138183   3.110   1.196   4.419 -0.6656  0.3394 -0.3872
 8849SOL    HW238184   3.224   1.240   4.346 -0.2597 -1.7359  0.9750
 8850SOL     OW38185   4.110   4.386   3.572  0.1429  0.1309  0.2998
 8850SOL    HW138186   4.040   4.321   3.573 -0.9109  1.2684 -0.3746
 8850SOL    HW238187   4.110   4.411   3.664  0.4853 -0.0839  0.3609
 8851SOL     OW38188   1.332   0.135   1.956 -0.2331  0.6954 -0.1927
 8851SOL    HW138189   1.316   0.044   1.980 -1.4951  1.2192  1.0028
 8851SOL    HW238190   1.396   0.123   1.886  0.6828 -2.1952  1.1537
 8852SOL     OW38191   0.409   4.368   1.589  0.3232  0.0040 -0.1586
 8852SOL    HW138192   0.387   4.459   1.607 -0.6021  0.4620 -3.5374
 8852SOL    HW238193   0.347   4.354   1.517 -0.2914 -0.2779  0.4206
 8853SOL     OW38194   1.103   2.442   6.949 -0.0140  0.2238 -0.1097
 8853SOL    HW138195   1.086   2.379   7.020 -0.9341 -0.7304 -1.1807
 8853SOL    HW238196   1.198   2.437   6.938 -0.1507 -1.8955 -0.4902
 8854SOL     OW38197   3.415   1.118   3.653 -0.4022  0.0063 -0.0330
 8854SOL    HW138198   3.465   1.168   3.589 -1.0650 -0.0424 -0.5908
 8854SOL    HW238199   3.398   1.182   3.722 -0.0033 -1.4927  1.4791
 8855SOL     OW38200   4.045   2.533   6.027  0.0874 -0.2364 -0.3234
 8855SOL    HW138201   4.099   2.542   5.949  2.1246 -0.7692  1.0394
 8855SOL    HW238202   4.039   2.626   6.047 -0.6200  0.0727 -1.9829
 8856SOL     OW38203   1.495   3.885  15.638 -0.5280  0.0874  0.0223
 8856SOL    HW138204   1.500   3.821  15.567 -1.7332  1.0090 -0.8847
 8856SOL    HW238205   1.481   3.962  15.584 -4.6406 -1.6536 -1.4382
 8857SOL     OW38206   2.905   1.788   3.963 -1.0249 -0.2385  0.2873
 8857SOL    HW138207   2.982   1.770   3.909 -0.4568  1.2978  0.5881
 8857SOL    HW238208   2.861   1.705   3.981 -1.7793 -0.1112 -0.9223
 8858SOL     OW38209   4.024   0.862   7.137 -0.1390  0.5272 -0.4540
 8858SOL    HW138210   4.085   0.870   7.211 -1.2752  0.5622  0.4908
 8858SOL    HW238211   3.945   0.860   7.191 -0.0873  1.1018 -0.3570
 8859SOL     OW38212   2.080   3.815   4.997  0.1431  0.1045  0.2714
 8859SOL    HW138213   1.991   3.786   4.974 -1.3564  2.6023  2.9516
 8859SOL    HW238214   2.073   3.810   5.092 -0.4481  2.7392  0.3641
 8860SOL     OW38215   1.073   4.677   9.664 -0.2378 -0.3617  0.6395
 8860SOL    HW138216   1.167   4.660   9.665 -0.4265 -1.2254  2.4740
 8860SOL    HW238217   1.056   4.667   9.758  0.1983 -0.4798  0.7032
 8861SOL     OW38218   2.233   3.144   3.204 -0.1365  0.2325  0.3921
 8861SOL    HW138219   2.149   3.151   3.159  0.2206 -0.2223 -0.3564
 8861SOL    HW238220   2.266   3.233   3.190  1.3668 -0.8528 -3.0417
 8862SOL     OW38221   1.267   2.340   7.951  0.0845 -0.4713  0.2735
 8862SOL    HW138222   1.251   2.432   7.973  3.2044 -0.1302  1.0310
 8862SOL    HW238223   1.330   2.321   8.020 -0.7107  1.1939  1.4634
 8863SOL     OW38224   0.530   4.083   4.893  0.2499  0.2876 -0.1928
 8863SOL    HW138225   0.520   4.170   4.931 -0.5678 -0.0072  0.2690
 8863SOL    HW238226   0.576   4.043   4.967 -1.4047 -2.5462 -0.6899
 8864SOL     OW38227   2.326   3.430   5.572 -0.5009 -0.5592  0.2040
 8864SOL    HW138228   2.410   3.388   5.590 -0.6615 -0.8578  0.2574
 8864SOL    HW238229   2.279   3.403   5.651  0.5457 -0.4854  0.8576
 8865SOL     OW38230   3.735   3.435   1.594  0.3157 -0.3551 -0.6410
 8865SOL    HW138231   3.687   3.510   1.627  1.6235  0.9686 -1.7479
 8865SOL    HW238232   3.794   3.417   1.668 -1.3924  0.6858  0.9812
 8866SOL     OW38233   3.883   3.858   5.633 -0.0399  0.1318 -0.1494
 8866SOL    HW138234   3.867   3.783   5.575  2.4422 -1.5292  1.2815
 8866SOL    HW238235   3.804   3.855   5.686  0.1314 -1.4159  0.0455
 8867SOL     OW38236   3.905   4.120   5.016  0.1972 -0.0360 -0.6577
 8867SOL    HW138237   3.987   4.136   4.969  0.9985  0.3483  0.9066
 8867SOL    HW238238   3.904   4.027   5.040  0.1303  0.0837 -0.2043
 8868SOL     OW38239   2.399   3.995   5.854 -0.1534 -0.0180 -0.2131
 8868SOL    HW138240   2.351   4.032   5.927  1.2990 -0.1861  0.8202
 8868SOL    HW238241   2.344   3.918   5.839 -1.4633  0.6277  1.3399
 8869SOL     OW38242   0.781   4.556   3.114 -0.2993 -0.0693 -0.0831
 8869SOL    HW138243   0.822   4.474   3.089  0.0533 -0.1645  0.7812
 8869SOL    HW238244   0.860   4.611   3.113  0.4466 -1.1817 -1.7142
 8870SOL     OW38245   2.976   2.172   5.656 -0.1340  0.2895 -0.6028
 8870SOL    HW138246   2.886   2.164   5.687 -0.4917  1.0508 -1.4516
 8870SOL    HW238247   2.965   2.239   5.589  1.1233  1.4226  0.3147
 8871SOL     OW38248   3.982   4.575   6.630  0.5343 -0.0326 -0.2828
 8871SOL    HW138249   3.951   4.560   6.540 -1.5291 -1.9711  0.7425
 8871SOL    HW238250   3.933   4.650   6.664  1.7038 -0.2021  1.7850
 8872SOL     OW38251   4.058   2.952  13.448  0.4609 -0.4991 -0.5556
 8872SOL    HW138252   4.025   2.998  13.370  0.4718 -2.0194 -1.4624
 8872SOL    HW238253   4.035   3.015  13.516 -1.5859 -0.7688 -0.9851
 8873SOL     OW38254   1.082   1.851   9.891  0.3393  0.3555 -0.5458
 8873SOL    HW138255   1.148   1.876   9.955  0.4304 -2.3341  0.4396
 8873SOL    HW238256   1.081   1.934   9.844  2.4431  0.4698 -0.3799
 8874SOL     OW38257   0.650   0.149   6.573  0.0008  0.2101 -0.3740
 8874SOL    HW138258   0.638   0.198   6.492 -0.9915  0.5356 -0.0388
 8874SOL    HW238259   0.605   0.067   6.550  1.0428 -0.2376 -0.8055
 8875SOL     OW38260   2.569   3.088  16.920 -0.2188  0.1433 -0.4556
 8875SOL    HW138261   2.550   3.106  17.012  0.7837 -2.8213  0.3311
 8875SOL    HW238262   2.586   3.174  16.883  1.7773 -0.1043 -0.1109
 8876SOL     OW38263   0.547   3.891  17.181 -0.5128  0.1468  0.8127
 8876SOL    HW138264   0.623   3.833  17.187 -1.4752 -1.1850  0.3264
 8876SOL    HW238265   0.546   3.918  17.272 -0.7510  2.2830  0.1804
 8877SOL     OW38266   4.449   1.432   2.044  0.0340 -0.3336 -0.1516
 8877SOL    HW138267   4.491   1.507   2.086  0.4741 -0.7830  0.1935
 8877SOL    HW238268   4.358   1.455   2.065 -0.4904 -2.4207 -0.1054
 8878SOL     OW38269   2.904   4.086   5.392 -0.1147  0.0353 -0.2895
 8878SOL    HW138270   2.831   4.074   5.453  0.4891 -0.1139  0.4058
 8878SOL    HW238271   2.858   4.136   5.324 -1.4747 -0.3320  0.3675
 8879SOL     OW38272   4.183   4.668  14.821  0.3299  0.2532 -0.1614
 8879SOL    HW138273   4.216   4.716  14.898  1.0761  1.2005 -1.0750
 8879SOL    HW238274   4.261   4.625  14.784 -0.8550  0.2161 -2.5992
 8880SOL     OW38275   2.666   0.505   3.611  0.1638  0.0543  0.5956
 8880SOL    HW138276   2.661   0.585   3.663  0.5926  0.7234 -0.4142
 8880SOL    HW238277   2.757   0.479   3.596 -0.5232 -0.9978 -1.7845
 8881SOL     OW38278   0.986   1.868  11.678  0.0666 -0.2323 -0.0618
 8881SOL    HW138279   1.028   1.855  11.763 -2.2054 -1.4080  0.8749
 8881SOL    HW238280   1.040   1.943  11.652  1.4375 -0.4683  2.0729
 8882SOL     OW38281   3.801   0.647  10.236  0.5122  0.2945  0.0384
 8882SOL    HW138282   3.872   0.584  10.246 -0.1518 -0.0491  2.6659
 8882SOL    HW238283   3.790   0.658  10.330 -0.9524 -1.2681  0.0549
 8883SOL     OW38284   1.519   1.173   0.388  0.0917  0.0595 -0.5477
 8883SOL    HW138285   1.550   1.249   0.438  1.7231 -0.6227 -0.5174
 8883SOL    HW238286   1.599   1.122   0.377  0.6228  0.4779  1.4252
 8884SOL     OW38287   1.447   2.241   2.724 -0.4465 -0.4928  0.0693
 8884SOL    HW138288   1.369   2.219   2.672 -1.8876 -1.6494  2.7136
 8884SOL    HW238289   1.401   2.275   2.801 -1.9565  0.7040 -1.3587
 8885SOL     OW38290   2.376   1.951   9.434 -0.3722  0.0935  0.2481
 8885SOL    HW138291   2.316   1.948   9.508 -2.2310  0.4242 -1.2383
 8885SOL    HW238292   2.334   2.026   9.391  0.5350  1.3545  1.5904
 8886SOL     OW38293   1.813   3.718  11.268  0.1240  0.0375  0.4295
 8886SOL    HW138294   1.898   3.733  11.308  1.4863 -2.7318 -1.4394
 8886SOL    HW238295   1.787   3.634  11.307 -2.2578  1.4012  1.8449
 8887SOL     OW38296   2.792   3.227   7.440 -0.7587  0.0726 -0.1924
 8887SOL    HW138297   2.761   3.179   7.363  1.1688 -0.2429 -0.7792
 8887SOL    HW238298   2.756   3.314   7.421 -0.4144  0.8559  2.6962
 8888SOL     OW38299   4.458   1.045  11.820 -0.3608  0.7499 -0.7033
 8888SOL    HW138300   4.532   1.003  11.777 -1.3702 -0.6560 -1.0425
 8888SOL    HW238301   4.493   1.071  11.905  1.0317 -0.4912 -0.9146
 8889SOL     OW38302   1.520   2.529   2.667 -0.3491 -0.2915  0.4795
 8889SOL    HW138303   1.468   2.452   2.689  0.1878 -1.9660 -3.9614
 8889SOL    HW238304   1.463   2.593   2.708 -0.9862  0.1405 -1.0815
 8890SOL     OW38305   2.806   2.603  15.893 -0.1385 -0.1056 -0.3362
 8890SOL    HW138306   2.774   2.693  15.895  0.4647  0.1001  0.0883
 8890SOL    HW238307   2.851   2.597  15.977  0.1984 -2.0950 -0.6331
 8891SOL     OW38308   4.534   4.265   7.384  0.0107  0.2455  0.3672
 8891SOL    HW138309   4.468   4.300   7.324 -0.5408 -1.5241 -0.0571
 8891SOL    HW238310   4.584   4.213   7.322 -1.1964 -1.6470  0.9766
 8892SOL     OW38311   2.900   1.151   7.148 -0.3251 -0.2748  0.3773
 8892SOL    HW138312   2.885   1.245   7.141  0.7070 -0.0837  0.8057
 8892SOL    HW238313   2.968   1.125   7.087  0.9198  1.2222  1.1128
 8893SOL     OW38314   1.914   1.551  14.452  0.2664  0.3412 -0.5078
 8893SOL    HW138315   1.839   1.552  14.392 -0.5693  0.3045  0.5346
 8893SOL    HW238316   1.997   1.557  14.403 -0.5252 -1.0579 -2.0352
 8894SOL     OW38317   3.102   2.759  12.645 -0.4500  0.2892 -0.4680
 8894SOL    HW138318   3.102   2.850  12.673  1.0285  0.0833  0.2295
 8894SOL    HW238319   3.031   2.759  12.581 -0.9032 -1.3816  0.0250
 8895SOL     OW38320   3.167   2.834   1.401  0.4517 -0.1850 -0.4913
 8895SOL    HW138321   3.125   2.828   1.316  0.1045 -0.0984 -0.3270
 8895SOL    HW238322   3.150   2.743   1.422  1.3084 -0.1388  0.4158
 8896SOL     OW38323   3.024   0.585   0.024  0.2795 -1.1887 -0.3937
 8896SOL    HW138324   2.955   0.601  17.708 -1.8859 -4.4046  1.1483
 8896SOL    HW238325   3.008   0.492   0.044  0.1064 -0.5965  2.2045
 8897SOL     OW38326   1.679   4.549   2.012 -0.3462  0.6850 -0.1099
 8897SOL    HW138327   1.706   4.471   1.964 -0.7810  0.1014  0.5937
 8897SOL    HW238328   1.730   4.623   1.980  1.2058 -0.5382 -0.4157
 8898SOL     OW38329   4.356   0.729  11.581 -0.2017 -0.1529  0.1796
 8898SOL    HW138330   4.344   0.737  11.675  1.3899  1.2474  0.2794
 8898SOL    HW238331   4.449   0.733  11.558  0.4487 -0.9696  2.6688
 8899SOL     OW38332   3.644   0.388   8.635  0.2528  0.5506  0.4203
 8899SOL    HW138333   3.549   0.399   8.640 -0.0909 -2.7879  1.3442
 8899SOL    HW238334   3.658   0.362   8.726 -0.5121  0.5184  0.5286
 8900SOL     OW38335   0.812   1.070   1.292  0.1251 -0.1022  0.3101
 8900SOL    HW138336   0.780   1.046   1.379 -1.0866 -0.2448 -0.1737
 8900SOL    HW238337   0.881   1.006   1.277 -0.9037 -0.9522 -0.7448
 8901SOL     OW38338   0.529   0.272  15.743 -0.0059  0.1004 -0.6471
 8901SOL    HW138339   0.600   0.314  15.791  0.1911 -1.0768  0.0983
 8901SOL    HW238340   0.554   0.308  15.658  0.7612 -0.0839 -0.4921
 8902SOL     OW38341   1.690   2.566   2.217  0.0081  0.3733 -0.6465
 8902SOL    HW138342   1.728   2.592   2.301  0.9585 -1.1292 -0.6221
 8902SOL    HW238343   1.599   2.591   2.232  0.3330  1.6687 -0.7756
 8903SOL     OW38344   2.561   3.565   3.187 -0.4218 -0.5672  0.0907
 8903SOL    HW138345   2.643   3.516   3.196 -1.3988 -2.2351 -0.0854
 8903SOL    HW238346   2.564   3.628   3.258  0.1121 -0.8770  0.3483
 8904SOL     OW38347   0.193   1.864   4.358 -0.3936 -0.5280  0.8619
 8904SOL    HW138348   0.174   1.910   4.439 -1.3300 -1.4105  1.1393
 8904SOL    HW238349   0.108   1.871   4.315 -0.0006  1.4470  0.3896
 8905SOL     OW38350   0.131   2.246   4.716 -0.3249  0.2800  0.4306
 8905SOL    HW138351   0.178   2.318   4.676  1.5114 -0.6272  0.9714
 8905SOL    HW238352   0.104   2.299   4.791 -2.1229 -0.8915  0.6298
 8906SOL     OW38353   3.333   1.858  14.474  0.3804 -0.1258 -0.3924
 8906SOL    HW138354   3.301   1.946  14.453  1.0570  0.5801  1.5580
 8906SOL    HW238355   3.272   1.818  14.536  0.8720 -1.1419 -0.5695
 8907SOL     OW38356   4.090   1.973   3.443  0.2528 -0.2320 -0.0380
 8907SOL    HW138357   4.067   1.995   3.353 -1.3723  0.8407  0.6340
 8907SOL    HW238358   4.184   1.959   3.434  0.0613 -0.4919 -1.5730
 8908SOL     OW38359   1.131   4.345   3.337 -0.4155  0.3594 -0.4155
 8908SOL    HW138360   1.195   4.402   3.380 -0.2189 -0.5326  0.4958
 8908SOL    HW238361   1.169   4.316   3.254  0.0032 -0.3486  0.0210
 8909SOL     OW38362   3.722   4.393   8.086 -0.3362 -0.3766  0.4338
 8909SOL    HW138363   3.755   4.395   7.997 -0.6242 -0.7105  0.3168
 8909SOL    HW238364   3.631   4.409   8.061  0.0554 -0.2471 -0.9115
 8910SOL     OW38365   4.223   3.907   7.833  0.4982 -0.0496 -0.0239
 8910SOL    HW138366   4.171   3.988   7.821 -3.1548 -2.7202 -2.4328
 8910SOL    HW238367   4.165   3.845   7.790  0.3036 -0.5438  0.9628
 8911SOL     OW38368   0.879   0.125   2.335  0.2799 -0.1604 -0.3508
 8911SOL    HW138369   0.789   0.140   2.304  0.7634 -0.4612 -1.8955
 8911SOL    HW238370   0.854   0.036   2.357  0.8356 -0.1032  0.5070
 8912SOL     OW38371   1.734   1.399  15.560  0.2129 -0.1961  0.7306
 8912SOL    HW138372   1.826   1.380  15.579  0.4363 -1.7683 -1.9216
 8912SOL    HW238373   1.736   1.447  15.477 -1.2954  4.3208  3.3159
 8913SOL     OW38374   4.268   1.363  15.001 -0.3939  0.3526  0.2661
 8913SOL    HW138375   4.198   1.351  14.937 -1.0179  0.1828  0.9775
 8913SOL    HW238376   4.233   1.435  15.054 -0.7731  0.8802 -0.6973
 8914SOL     OW38377   0.622   2.789   8.160  0.2953  0.1499  0.0305
 8914SOL    HW138378   0.585   2.877   8.157 -0.1044 -0.0077  0.2743
 8914SOL    HW238379   0.555   2.739   8.207  0.1199 -0.1406 -0.5339
 8915SOL     OW38380   0.325   2.726  14.002 -0.3048 -0.1093  0.1371
 8915SOL    HW138381   0.408   2.687  14.029  0.7703 -0.5637 -3.7035
 8915SOL    HW238382   0.366   2.808  13.976 -0.7137  0.5001  1.4370
 8916SOL     OW38383   4.004   4.640   2.386  1.1644 -1.0617  0.8330
 8916SOL    HW138384   4.065   4.583   2.339  0.1591 -0.7858 -0.8046
 8916SOL    HW238385   4.063   4.704   2.426 -0.3844 -0.0902  1.5912
 8917SOL     OW38386   3.858   4.472   3.958 -0.0843  1.0041  0.1173
 8917SOL    HW138387   3.808   4.391   3.965 -0.2213  1.1636  0.9854
 8917SOL    HW238388   3.868   4.496   4.050  0.6863 -0.1588  0.3391
 8918SOL     OW38389   1.941   3.183   2.876 -0.0953  0.0650  0.3942
 8918SOL    HW138390   1.868   3.237   2.844 -0.2927 -0.0375  0.6715
 8918SOL    HW238391   2.017   3.213   2.827 -1.0859 -0.6639 -1.6140
 8919SOL     OW38392   2.042   0.176   4.089 -0.2020 -0.4466  0.8870
 8919SOL    HW138393   1.974   0.170   4.022  0.5996  1.4861 -0.1099
 8919SOL    HW238394   2.103   0.237   4.047 -0.2421 -2.7800 -2.5714
 8920SOL     OW38395   3.397   0.715  16.044  0.0266  0.1914  0.8393
 8920SOL    HW138396   3.410   0.743  16.135 -0.3506  1.6430  0.4531
 8920SOL    HW238397   3.307   0.741  16.022  0.2306 -0.1814 -0.3881
 8921SOL     OW38398   1.868   3.239   5.389 -0.2997  1.0565 -0.0674
 8921SOL    HW138399   1.896   3.321   5.430  2.2651 -0.5132  1.3029
 8921SOL    HW238400   1.799   3.202   5.443 -0.6046  0.4624 -0.8603
 8922SOL     OW38401   4.287   2.017  15.825 -0.4407 -0.1897  0.2403
 8922SOL    HW138402   4.255   2.053  15.908  3.4073  4.8934 -0.4977
 8922SOL    HW238403   4.345   1.950  15.862  0.8555  0.5859 -0.3910
 8923SOL     OW38404   3.143   2.857   2.520 -0.4394 -0.3954 -0.3557
 8923SOL    HW138405   3.131   2.881   2.612  0.9522 -0.5970 -0.1200
 8923SOL    HW238406   3.055   2.862   2.485 -0.8025  1.3433  0.7840
 8924SOL     OW38407   4.705   2.127  15.448  0.2517 -0.5154 -0.0246
 8924SOL    HW138408   4.682   2.214  15.482  0.4546 -0.3715 -0.2560
 8924SOL    HW238409   4.679   2.140  15.357 -0.4967 -0.5071  0.1853
 8925SOL     OW38410   1.413   1.250   4.117 -0.1284 -0.3829 -0.7345
 8925SOL    HW138411   1.407   1.157   4.098 -2.9370 -0.5283  0.8883
 8925SOL    HW238412   1.325   1.262   4.152 -0.5779  0.2074 -2.0405
 8926SOL     OW38413   0.561   4.632   1.869 -0.1981 -0.0794 -0.2485
 8926SOL    HW138414   0.591   4.708   1.917  0.7733 -1.2504  1.0060
 8926SOL    HW238415   0.634   4.633   1.808  0.0349 -1.0074  0.0138
 8927SOL     OW38416   2.944   2.879   2.158 -0.6950 -0.4160 -0.3567
 8927SOL    HW138417   2.940   2.899   2.065 -0.5556  3.5224  0.4625
 8927SOL    HW238418   2.947   2.971   2.186 -1.1065 -0.4775 -0.1122
 8928SOL     OW38419   0.214   0.456   8.927  0.0046  0.3435  0.2316
 8928SOL    HW138420   0.275   0.530   8.928  0.4529 -0.0048 -0.3324
 8928SOL    HW238421   0.266   0.402   8.866  1.0162  0.2268  1.2022
 8929SOL     OW38422   2.600   1.858   6.190 -0.0432 -0.1863  0.4816
 8929SOL    HW138423   2.662   1.918   6.149 -0.5646 -1.0526 -1.5474
 8929SOL    HW238424   2.647   1.808   6.256 -0.1346 -0.4480  0.3451
 8930SOL     OW38425   3.425   3.500   6.627  0.1206 -0.5604  0.3418
 8930SOL    HW138426   3.380   3.564   6.572 -3.0757 -2.6662  0.5482
 8930SOL    HW238427   3.459   3.561   6.692 -0.8158  2.3261 -1.8903
 8931SOL     OW38428   0.599   1.944   5.084  0.1272 -0.6689  0.5132
 8931SOL    HW138429   0.579   2.023   5.134 -0.7676  0.3097 -1.3827
 8931SOL    HW238430   0.631   1.995   5.009  0.7975  1.0714  2.0037
 8932SOL     OW38431   2.722   4.264  11.497  0.0922  0.1997 -0.3178
 8932SOL    HW138432   2.666   4.338  11.521  0.3915 -0.2056  1.6189
 8932SOL    HW238433   2.708   4.202  11.569  3.7729  0.6720  0.8106
 8933SOL     OW38434   1.622   0.054   1.520  0.5946 -0.2958  0.1003
 8933SOL    HW138435   1.697   0.103   1.486 -0.7982 -0.3529 -3.0767
 8933SOL    HW238436   1.625   0.072   1.614  0.4139 -0.5832  0.1601
 8934SOL     OW38437   2.314   2.573   9.049  0.2269 -0.6127 -0.0254
 8934SOL    HW138438   2.219   2.581   9.041  0.2609  1.4329  1.7843
 8934SOL    HW238439   2.336   2.480   9.042 -0.1606 -0.7315  0.3316
 8935SOL     OW38440   1.936   1.609   7.519 -0.0484  0.3812  0.4031
 8935SOL    HW138441   2.006   1.577   7.576 -0.2250 -0.8519 -0.0780
 8935SOL    HW238442   1.982   1.617   7.435  0.2350 -1.1715  0.3960
 8936SOL     OW38443   2.307   1.234   6.988  0.2234  0.3657  0.1337
 8936SOL    HW138444   2.363   1.248   7.065 -0.4195  0.4392  0.5833
 8936SOL    HW238445   2.237   1.175   7.016 -0.6942  1.3137 -0.1680
 8937SOL     OW38446   0.148   1.813   7.044  0.2866 -0.5986 -0.1173
 8937SOL    HW138447   0.202   1.884   7.010  0.1092 -1.0479 -1.3413
 8937SOL    HW238448   0.187   1.742   6.994 -1.9312 -4.1546  3.1450
 8938SOL     OW38449   3.422   3.679   1.983 -0.3246  1.0371 -0.7893
 8938SOL    HW138450   3.406   3.719   2.068  0.4690 -0.6183  0.1560
 8938SOL    HW238451   3.336   3.640   1.970  0.6426 -2.1253  2.1609
 8939SOL     OW38452   1.911   3.331   5.121 -0.4208  0.3817  0.4415
 8939SOL    HW138453   1.935   3.307   5.211  0.9767 -1.0880 -0.3173
 8939SOL    HW238454   1.992   3.315   5.072 -0.1898  1.1241  0.5822
 8940SOL     OW38455   1.415   2.532   6.593  0.2611  0.8494 -0.7993
 8940SOL    HW138456   1.449   2.620   6.577  1.5876  0.4755  0.0418
 8940SOL    HW238457   1.450   2.480   6.520  3.1614  0.2590  1.0177
 8941SOL     OW38458   1.589   0.367   4.271  0.0407 -0.5565  0.2290
 8941SOL    HW138459   1.679   0.397   4.259  0.2592 -0.7871  1.2575
 8941SOL    HW238460   1.535   0.441   4.245 -0.2542 -1.2498 -1.1194
 8942SOL     OW38461   0.165   1.819   5.177  1.1591 -0.0897 -0.8023
 8942SOL    HW138462   0.230   1.803   5.109 -0.2028 -0.8405 -1.9253
 8942SOL    HW238463   0.162   1.913   5.156  1.3382  0.0647 -0.1421
 8943SOL     OW38464   0.977   1.642   4.358  0.4198  0.5527  0.2284
 8943SOL    HW138465   0.951   1.574   4.296  1.6148  0.0059  0.3186
 8943SOL    HW238466   0.912   1.633   4.427 -0.0160  0.2011 -0.2256
 8944SOL     OW38467   1.143   3.230   1.606 -0.4805 -0.6618 -0.2159
 8944SOL    HW138468   1.225   3.264   1.572 -0.5601  0.2036  0.4663
 8944SOL    HW238469   1.102   3.303   1.652  1.2329  0.5658 -0.6466
 8945SOL     OW38470   1.146   4.487   7.325 -0.0729  0.2918 -0.3182
 8945SOL    HW138471   1.224   4.522   7.282 -0.4010  0.4112 -0.8087
 8945SOL    HW238472   1.188   4.408   7.361 -1.8014  0.5477  2.2291
 8946SOL     OW38473   2.380   4.585  16.086 -0.1034  0.7288 -0.6871
 8946SOL    HW138474   2.337   4.627  16.012 -0.3318  1.6721 -0.0132
 8946SOL    HW238475   2.313   4.520  16.107 -1.1652  2.0201 -0.0893
 8947SOL     OW38476   4.462   1.710   7.946 -0.5555 -0.3615  0.3956
 8947SOL    HW138477   4.511   1.696   7.865  0.5933 -2.2314  1.4049
 8947SOL    HW238478   4.382   1.660   7.931 -0.3525 -0.4416 -0.3790
 8948SOL     OW38479   3.088   4.363   3.887 -0.4660  0.4870 -0.1696
 8948SOL    HW138480   3.000   4.326   3.891  0.0336 -0.7072 -0.2125
 8948SOL    HW238481   3.097   4.408   3.803 -2.0319 -0.4204 -0.8032
 8949SOL     OW38482   1.108   1.968  13.950 -0.7692 -0.2836  0.1658
 8949SOL    HW138483   1.180   1.961  14.013  0.7382  0.3133 -1.5042
 8949SOL    HW238484   1.080   1.877  13.944  0.6639 -0.6660 -0.6076
 8950SOL     OW38485   1.188   3.179  14.089  0.3557 -0.0342 -0.3416
 8950SOL    HW138486   1.148   3.244  14.032  1.3270  0.2185 -0.7448
 8950SOL    HW238487   1.126   3.111  14.064  1.5149 -1.1047 -0.3382
 8951SOL     OW38488   0.411   4.252  17.292  0.4784  0.2206 -0.7124
 8951SOL    HW138489   0.379   4.242  17.203  1.3942  0.2951 -1.0481
 8951SOL    HW238490   0.507   4.261  17.290  0.4803 -0.0130 -1.8551
 8952SOL     OW38491   4.647   0.032   3.468 -0.0894  0.6561  0.2416
 8952SOL    HW138492   4.702   4.736   3.397 -1.0548 -0.6854  0.1404
 8952SOL    HW238493   4.654   0.126   3.450  1.5963  0.4039 -0.4666
 8953SOL     OW38494   1.425   3.931   4.691  0.1662  0.2627 -0.0273
 8953SOL    HW138495   1.368   3.968   4.623 -0.1899  1.5537  0.9676
 8953SOL    HW238496   1.464   3.851   4.655  1.9701  1.3805 -0.5382
 8954SOL     OW38497   4.662   3.309   9.036 -0.3737 -0.3116  0.5621
 8954SOL    HW138498   4.706   3.285   9.118  0.4840 -0.7945 -0.0316
 8954SOL    HW238499   4.575   3.325   9.071 -0.4366 -0.2121  0.3604
 8955SOL     OW38500   0.495   2.036   6.240 -0.2538  0.2716  0.2558
 8955SOL    HW138501   0.486   2.101   6.310 -0.9207 -0.4334  0.8192
 8955SOL    HW238502   0.499   2.102   6.170  1.1892 -0.3554 -0.2474
 8956SOL     OW38503   3.363   2.388  11.674  0.4914  0.3543 -0.1061
 8956SOL    HW138504   3.418   2.367  11.599  0.3724 -0.0715 -0.0703
 8956SOL    HW238505   3.284   2.404  11.623 -0.1825  0.4962  0.9890
 8957SOL     OW38506   3.596   0.456  10.230  0.1478  0.3538 -0.0390
 8957SOL    HW138507   3.668   0.518  10.241 -0.4983  1.1792 -0.4990
 8957SOL    HW238508   3.629   0.369  10.207  0.2742  0.7657 -1.4690
 8958SOL     OW38509   3.057   1.658   9.996  0.0763 -0.0012 -0.1464
 8958SOL    HW138510   3.011   1.602   9.934  0.1454 -1.8105  1.4419
 8958SOL    HW238511   3.025   1.628  10.081  0.8793 -1.3926 -0.3321
 8959SOL     OW38512   1.641   2.662   4.913  0.3707  0.1494 -0.0048
 8959SOL    HW138513   1.719   2.627   4.957 -0.4107 -1.2292  0.2571
 8959SOL    HW238514   1.659   2.756   4.924  1.0154  0.3747 -2.9667
 8960SOL     OW38515   1.132   1.234   1.724 -0.0778 -0.0344 -0.1023
 8960SOL    HW138516   1.179   1.283   1.656 -3.0110  0.7186 -1.6145
 8960SOL    HW238517   1.109   1.166   1.660 -2.8261 -0.7488  1.6515
 8961SOL     OW38518   4.400   4.297   9.077 -0.2974  0.3257  0.5088
 8961SOL    HW138519   4.452   4.230   9.119 -1.8283  0.2776  2.3151
 8961SOL    HW238520   4.406   4.267   8.986 -0.0096  0.7883  0.3754
 8962SOL     OW38521   0.878   3.065   8.968  0.7063 -0.8958  0.1459
 8962SOL    HW138522   0.974   3.059   8.968  0.7843  0.2200  0.2960
 8962SOL    HW238523   0.867   3.154   9.004 -0.5073 -1.5306  1.3427
 8963SOL     OW38524   1.911   3.966  16.987 -0.1243  0.0982  0.2268
 8963SOL    HW138525   1.986   3.970  16.928 -0.0626 -0.7900  0.2520
 8963SOL    HW238526   1.856   4.032  16.945 -1.0202 -0.6575  0.2159
 8964SOL     OW38527   2.328   3.625  10.550 -0.0293 -0.3395  0.2096
 8964SOL    HW138528   2.392   3.690  10.578 -1.7200  1.3121  0.2507
 8964SOL    HW238529   2.293   3.597  10.634  2.1732  0.5493  1.4160
 8965SOL     OW38530   3.749   2.588  14.454  0.0038  0.2488  0.1804
 8965SOL    HW138531   3.796   2.557  14.531  2.6978 -2.0522 -2.4114
 8965SOL    HW238532   3.667   2.616  14.495  0.1822  0.9845  0.0289
 8966SOL     OW38533   1.210   1.348   1.954  0.7045  0.1445  0.0974
 8966SOL    HW138534   1.180   1.298   1.878 -0.6010  2.2077 -0.7335
 8966SOL    HW238535   1.230   1.270   2.006 -1.2977 -0.5430 -0.1939
 8967SOL     OW38536   1.359   2.728   0.584 -0.5491  0.5984 -0.4151
 8967SOL    HW138537   1.294   2.663   0.556  0.0102  0.3474 -1.1406
 8967SOL    HW238538   1.314   2.813   0.593 -2.0125 -0.2249  0.1122
 8968SOL     OW38539   0.342   2.870  10.252  0.1519 -0.3330 -0.2732
 8968SOL    HW138540   0.298   2.809  10.310  0.0713  0.8995  0.9548
 8968SOL    HW238541   0.285   2.869  10.175  0.6691  0.0238 -0.6602
 8969SOL     OW38542   4.283   1.992   3.841 -0.5976 -0.4996  0.2875
 8969SOL    HW138543   4.253   2.083   3.834  1.2952  0.2374  2.0283
 8969SOL    HW238544   4.212   1.937   3.808  0.0213 -1.1679  0.1019
 8970SOL     OW38545   0.731   4.012  16.975 -0.0504 -0.3581  0.5688
 8970SOL    HW138546   0.733   3.931  16.924  0.1497  0.6524 -1.0240
 8970SOL    HW238547   0.654   3.986  17.024  0.7088 -3.6294  0.0242
 8971SOL     OW38548   0.010   2.196  11.293  0.6950 -0.0494  0.3939
 8971SOL    HW138549   4.709   2.217  11.378 -0.1704  1.2943 -0.3349
 8971SOL    HW238550   0.033   2.285  11.267 -2.4093  0.2065 -1.4922
 8972SOL     OW38551   2.380   1.735   7.515 -0.6613 -0.3448  0.2777
 8972SOL    HW138552   2.358   1.739   7.608 -1.6258 -5.1924  0.2521
 8972SOL    HW238553   2.330   1.809   7.479 -0.9477 -0.5963  0.1536
 8973SOL     OW38554   4.603   1.620   7.731  0.3888 -0.3037 -1.0865
 8973SOL    HW138555   4.698   1.608   7.725  0.5523 -0.3025  1.6575
 8973SOL    HW238556   4.587   1.669   7.650 -2.4421  0.8038  0.1568
 8974SOL     OW38557   3.808   3.090  15.404 -0.1215  0.4323 -0.7393
 8974SOL    HW138558   3.837   3.040  15.328  1.8878 -0.1829  0.4191
 8974SOL    HW238559   3.801   3.022  15.471 -1.7470 -0.1971 -1.5420
 8975SOL     OW38560   1.636   0.656  10.292 -0.0754 -0.4532  0.4181
 8975SOL    HW138561   1.625   0.727  10.230 -0.5715 -0.4296  0.5366
 8975SOL    HW238562   1.546   0.629  10.305 -0.5262  0.0327 -1.7300
 8976SOL     OW38563   3.611   0.582   1.440  0.0051  0.2546  0.3999
 8976SOL    HW138564   3.649   0.534   1.367 -0.0704 -2.1826  1.9786
 8976SOL    HW238565   3.679   0.649   1.454  0.0131  0.5464 -1.0166
 8977SOL     OW38566   4.191   1.148   4.820 -0.1499 -0.6309 -0.2883
 8977SOL    HW138567   4.239   1.230   4.833 -1.0786 -0.0063 -0.8489
 8977SOL    HW238568   4.197   1.116   4.910 -0.1170 -0.1520 -0.1195
 8978SOL     OW38569   0.024   3.141   0.316  0.5831 -0.0266  0.0289
 8978SOL    HW138570   4.666   3.138   0.330  0.4615  1.0866 -0.5595
 8978SOL    HW238571   0.030   3.049   0.292 -1.2929  0.1737 -1.2377
 8979SOL     OW38572   3.370   2.443  13.793 -0.0836  0.3356  0.4538
 8979SOL    HW138573   3.424   2.520  13.813  1.0484 -0.4905  0.6026
 8979SOL    HW238574   3.385   2.447  13.699 -0.3630  1.1099  0.4477
 8980SOL     OW38575   1.082   2.042   4.491  0.2739 -0.4770 -0.5411
 8980SOL    HW138576   1.058   2.001   4.408 -0.2966  2.7386 -1.9758
 8980SOL    HW238577   1.127   1.966   4.528  0.9844 -0.0501 -0.5105
 8981SOL     OW38578   3.173   2.157  10.746 -0.1488  0.4070  0.0775
 8981SOL    HW138579   3.211   2.235  10.784  0.2237 -0.3386  1.2224
 8981SOL    HW238580   3.115   2.194  10.679  0.1130  0.1805 -0.2771
 8982SOL     OW38581   2.781   4.582   2.708 -0.1224  0.1304  0.3596
 8982SOL    HW138582   2.816   4.511   2.762 -1.6907  0.1137  1.3672
 8982SOL    HW238583   2.712   4.535   2.662 -0.5356  1.1267 -0.0471
 8983SOL     OW38584   3.584   0.154   2.670  0.3436  0.2850 -0.1901
 8983SOL    HW138585   3.670   0.170   2.630 -0.8223  3.5274 -1.3550
 8983SOL    HW238586   3.602   0.190   2.757  1.5161 -1.5682  0.3482
 8984SOL     OW38587   2.311   3.093  13.385  0.0084 -0.5410 -0.5559
 8984SOL    HW138588   2.283   3.184  13.377  1.7665  0.2020  1.7120
 8984SOL    HW238589   2.242   3.055  13.439 -0.7207  2.2975  0.5076
 8985SOL     OW38590   0.082   3.759  17.536  0.4661  0.6888  0.2885
 8985SOL    HW138591   0.037   3.771  17.452 -0.2290  0.5814  0.6488
 8985SOL    HW238592   0.119   3.848  17.538  1.2223  0.3956 -0.5600
 8986SOL     OW38593   4.273   2.443   8.879 -0.5161 -0.4069  0.6230
 8986SOL    HW138594   4.193   2.394   8.859  0.5936 -1.4181 -1.3405
 8986SOL    HW238595   4.331   2.367   8.879  1.0058  0.7584  0.4668
 8987SOL     OW38596   0.305   2.262   8.211 -0.3648 -0.4207 -0.3163
 8987SOL    HW138597   0.328   2.348   8.247  1.1097 -0.8648 -0.2118
 8987SOL    HW238598   0.312   2.203   8.286  0.7100  0.4904  0.2896
 8988SOL     OW38599   2.154   3.939   0.513  0.0519 -0.9380  0.3340
 8988SOL    HW138600   2.244   3.921   0.484 -0.1888 -2.8349  0.7469
 8988SOL    HW238601   2.104   3.963   0.435 -0.1016  0.0707  0.7461
 8989SOL     OW38602   1.737   1.294   6.983 -0.6768  0.2137 -0.7943
 8989SOL    HW138603   1.661   1.351   6.978 -0.9403 -0.1256 -0.6311
 8989SOL    HW238604   1.789   1.355   6.931  0.3758  0.8972  1.0488
 8990SOL     OW38605   4.064   4.228  13.062 -0.5362  0.1171  0.2779
 8990SOL    HW138606   4.115   4.196  13.136 -2.7039 -1.7183  0.9884
 8990SOL    HW238607   4.048   4.153  13.006  3.3107 -0.8350  0.4328
 8991SOL     OW38608   1.262   2.876   3.471  0.2613  0.1201  0.1818
 8991SOL    HW138609   1.246   2.898   3.379  2.4930  0.7159 -0.0642
 8991SOL    HW238610   1.256   2.780   3.467 -2.7123  0.3291 -0.4903
 8992SOL     OW38611   2.519   1.371  10.005  0.3197  0.1513  0.0360
 8992SOL    HW138612   2.520   1.289  10.053 -1.1236  0.9155  1.3586
 8992SOL    HW238613   2.603   1.415  10.017  0.1789  0.2594  0.6175
 8993SOL     OW38614   0.522   0.475   2.734 -0.7629  0.4347 -0.0602
 8993SOL    HW138615   0.482   0.405   2.786  1.1811 -0.4023  0.3016
 8993SOL    HW238616   0.592   0.488   2.798  0.0961 -2.1706 -0.4923
 8994SOL     OW38617   1.672   0.688   3.797  0.4752 -0.0740 -0.2338
 8994SOL    HW138618   1.738   0.757   3.793 -0.9161  1.2538  0.1329
 8994SOL    HW238619   1.724   0.614   3.765  1.1836 -0.3632  1.5686
 8995SOL     OW38620   1.536   3.123  11.471  0.2964 -0.0154  0.0599
 8995SOL    HW138621   1.559   3.050  11.527  0.6686 -0.3424 -0.5191
 8995SOL    HW238622   1.486   3.074  11.406  0.7838 -0.3073 -0.0960
 8996SOL     OW38623   4.066   2.108   9.483 -0.4243  0.3507  0.2101
 8996SOL    HW138624   4.040   2.037   9.425 -2.9331 -0.9604  2.9078
 8996SOL    HW238625   4.120   2.064   9.548  1.3350  0.1750 -1.4011
 8997SOL     OW38626   2.343   4.191   1.307 -0.1666  0.0773  0.3457
 8997SOL    HW138627   2.419   4.196   1.249  0.3554  0.5126  1.0537
 8997SOL    HW238628   2.299   4.108   1.287  1.2667 -0.9938  1.5871
 8998SOL     OW38629   1.929   1.551   7.030  0.3864  0.5426  0.5386
 8998SOL    HW138630   1.983   1.509   7.097  0.7155 -1.2451 -0.8469
 8998SOL    HW238631   1.949   1.500   6.952  1.9237 -0.9433  1.8972
 8999SOL     OW38632   1.637   3.580   2.563 -0.1631  0.4431  0.1362
 8999SOL    HW138633   1.572   3.542   2.621  0.9519 -3.0571 -0.8522
 8999SOL    HW238634   1.602   3.557   2.477  0.9053 -3.4034  0.7358
 9000SOL     OW38635   3.497   3.007  16.606  0.8412 -0.0217 -0.2227
 9000SOL    HW138636   3.414   3.000  16.653  0.7079  1.5926 -0.2007
 9000SOL    HW238637   3.538   2.926  16.636  3.0184  0.9791 -0.5088
 9001SOL     OW38638   2.677   4.314   9.321 -0.2083  0.1176  0.1053
 9001SOL    HW138639   2.761   4.317   9.366 -0.0830  2.2040 -0.2547
 9001SOL    HW238640   2.644   4.236   9.366 -0.4292 -0.2555 -0.6927
 9002SOL     OW38641   3.111   0.044   1.070 -0.2735 -0.1644  0.1185
 9002SOL    HW138642   3.103   4.707   1.011  0.5479  1.2919 -1.8510
 9002SOL    HW238643   3.088   0.008   1.155  0.5684 -2.1023 -0.4767
 9003SOL     OW38644   1.042   3.409   2.976 -0.2698 -0.0472 -0.3661
 9003SOL    HW138645   0.962   3.356   2.973 -1.2237  1.3735 -0.3759
 9003SOL    HW238646   1.010   3.500   2.973 -1.5004 -0.4122  1.7576
 9004SOL     OW38647   2.473   0.259  13.501 -0.0223 -0.1062  0.3058
 9004SOL    HW138648   2.487   0.176  13.455  0.5253  0.6052 -0.7827
 9004SOL    HW238649   2.382   0.263  13.529 -0.8751 -3.1358 -2.0192
 9005SOL     OW38650   3.424   3.091   2.968  0.0893 -0.5242 -0.4337
 9005SOL    HW138651   3.441   3.153   2.898  0.7862  0.2958  0.4578
 9005SOL    HW238652   3.511   3.074   3.005 -1.2062  2.1563  3.7892
 9006SOL     OW38653   2.246   1.229   0.777 -0.1766  0.1674 -0.5480
 9006SOL    HW138654   2.310   1.257   0.841 -1.1116  0.4736  0.2497
 9006SOL    HW238655   2.216   1.145   0.812  0.4548  0.4173  0.5727
 9007SOL     OW38656   1.052   4.385   5.215 -0.4504  0.5350  0.2644
 9007SOL    HW138657   1.132   4.369   5.166 -0.7364  0.1175 -0.0715
 9007SOL    HW238658   0.990   4.395   5.142 -0.2863 -2.0509 -0.2263
 9008SOL     OW38659   4.395   3.071   2.344  0.5331 -0.6373 -0.4836
 9008SOL    HW138660   4.425   3.161   2.338  1.2937 -0.7885  1.1388
 9008SOL    HW238661   4.479   3.026   2.353  1.6598  1.7341  0.6591
 9009SOL     OW38662   1.719   0.953   8.935  0.0575  0.0480  0.3398
 9009SOL    HW138663   1.630   0.963   8.901 -0.6771  0.8432  2.4808
 9009SOL    HW238664   1.695   0.917   9.020 -2.8410  1.6325  0.1867
 9010SOL     OW38665   3.646   2.188   1.515 -0.0592 -0.1789 -0.6609
 9010SOL    HW138666   3.678   2.215   1.428  0.6787  0.8369 -0.0659
 9010SOL    HW238667   3.725   2.153   1.556 -0.0320  0.7831  0.0988
 9011SOL     OW38668   2.889   1.259   1.545 -0.0463  0.5065 -0.0685
 9011SOL    HW138669   2.948   1.214   1.605  0.4836  0.2917 -0.7442
 9011SOL    HW238670   2.950   1.274   1.473  2.1975  0.5837  1.8537
 9012SOL     OW38671   0.274   2.847   4.290 -0.3097  0.3841  0.0111
 9012SOL    HW138672   0.190   2.885   4.264 -0.6057 -1.0526 -1.0991
 9012SOL    HW238673   0.310   2.838   4.202  1.1478 -2.4732  0.9181
 9013SOL     OW38674   0.238   3.225   1.073 -0.1838  0.3163  0.2580
 9013SOL    HW138675   0.316   3.281   1.079 -1.3712  1.9922 -0.0057
 9013SOL    HW238676   0.164   3.285   1.065 -0.3119  0.3250  1.5117
 9014SOL     OW38677   2.004   1.009  17.510 -0.3477  0.0493 -0.0937
 9014SOL    HW138678   1.946   1.079  17.541 -1.5351 -0.7351 -0.5325
 9014SOL    HW238679   2.087   1.052  17.489 -0.3049 -0.8428 -1.7146
 9015SOL     OW38680   1.745   2.187  13.099 -0.0558  0.1098 -0.5914
 9015SOL    HW138681   1.832   2.188  13.060  1.0423  1.1195  1.8898
 9015SOL    HW238682   1.698   2.248  13.041  0.8314  1.7963  0.4861
 9016SOL     OW38683   0.416   4.371   9.304  0.2005 -0.6828  0.2323
 9016SOL    HW138684   0.470   4.447   9.283  0.7042 -0.4108  2.4844
 9016SOL    HW238685   0.481   4.307   9.332  1.5021  0.8839  0.7475
 9017SOL     OW38686   4.282   3.663  11.573 -0.0513 -0.6131  0.3583
 9017SOL    HW138687   4.277   3.643  11.666  2.7870 -0.7939  0.4760
 9017SOL    HW238688   4.291   3.758  11.574  1.2704 -0.7390  0.1208
 9018SOL     OW38689   3.892   2.139   1.615 -0.0260  0.0842  0.2472
 9018SOL    HW138690   3.967   2.157   1.557  1.3561 -1.2804  1.6147
 9018SOL    HW238691   3.880   2.220   1.664 -0.8003  0.0192  0.1571
 9019SOL     OW38692   3.122   1.181  13.707  0.3674  0.0353  0.0151
 9019SOL    HW138693   3.205   1.134  13.713  0.3328  0.1748  1.5735
 9019SOL    HW238694   3.064   1.116  13.666  1.3855 -0.1615 -1.1225
 9020SOL     OW38695   3.231   4.193  15.642 -0.0991  0.1472  0.3737
 9020SOL    HW138696   3.160   4.183  15.705  0.8498 -0.7408  1.2981
 9020SOL    HW238697   3.189   4.194  15.556 -1.5215 -2.4852  1.0401
 9021SOL     OW38698   1.833   4.218   8.016  0.1123 -0.3384  0.2735
 9021SOL    HW138699   1.889   4.167   7.958 -1.4020 -1.2911 -0.3460
 9021SOL    HW238700   1.783   4.148   8.059  1.4667 -1.6332 -0.2516
 9022SOL     OW38701   1.957   0.631  16.882 -0.2163  0.0245 -0.0266
 9022SOL    HW138702   1.945   0.610  16.975 -0.9275  0.3852 -0.0360
 9022SOL    HW238703   1.893   0.701  16.873  1.7697  1.9579  0.8522
 9023SOL     OW38704   4.177   1.237  13.221  0.2767 -0.8253  0.1605
 9023SOL    HW138705   4.245   1.224  13.287  1.7990  1.2038 -1.0207
 9023SOL    HW238706   4.094   1.210  13.260 -0.0264 -1.5949 -1.0122
 9024SOL     OW38707   2.658   3.464   0.125 -0.4431  0.0029  0.1250
 9024SOL    HW138708   2.609   3.395   0.080  2.5617 -2.0694 -0.0099
 9024SOL    HW238709   2.738   3.427   0.164  1.3090  1.4768 -2.0644
 9025SOL     OW38710   2.884   3.493   4.010  0.5520  0.1444 -0.2082
 9025SOL    HW138711   2.906   3.475   3.919 -0.0538  0.7625 -0.4793
 9025SOL    HW238712   2.969   3.494   4.055  0.1983  2.3072  0.4439
 9026SOL     OW38713   3.559   4.489  13.472  0.1754  0.1882 -0.0483
 9026SOL    HW138714   3.470   4.454  13.475 -0.4020  1.9725  3.2569
 9026SOL    HW238715   3.564   4.511  13.379  1.2773  2.6076  0.6009
 9027SOL     OW38716   4.185   3.432   2.286  0.2430  0.0272  0.5308
 9027SOL    HW138717   4.129   3.501   2.321  0.6856  0.9210 -0.5595
 9027SOL    HW238718   4.120   3.361   2.285  1.1631 -0.7963 -0.7808
 9028SOL     OW38719   4.143   1.587   3.736 -0.0618 -0.3404 -0.0524
 9028SOL    HW138720   4.056   1.605   3.699  0.1916 -1.3551 -1.1526
 9028SOL    HW238721   4.191   1.556   3.659 -0.3886 -1.3434  0.1509
 9029SOL     OW38722   4.402   1.061   7.431 -0.0247 -0.7480 -0.2294
 9029SOL    HW138723   4.337   1.127   7.458  0.1124 -0.8808  0.4162
 9029SOL    HW238724   4.491   1.086   7.456  0.1899 -1.2150 -0.5231
 9030SOL     OW38725   0.370   1.401  14.985  0.1821  0.1410 -0.3185
 9030SOL    HW138726   0.320   1.339  15.039  0.3951 -1.2463 -1.7062
 9030SOL    HW238727   0.318   1.480  14.999 -0.8489 -1.0836  2.8036
 9031SOL     OW38728   1.903   0.106   4.859  0.3839 -0.2915 -0.1213
 9031SOL    HW138729   1.930   0.118   4.950 -1.3930  0.7478  0.2886
 9031SOL    HW238730   1.949   0.032   4.820  1.3367  0.1728  0.1158
 9032SOL     OW38731   3.583   1.763   9.456 -0.4877  0.4019  0.2731
 9032SOL    HW138732   3.543   1.764   9.543 -1.6153  0.0267 -0.2507
 9032SOL    HW238733   3.561   1.853   9.433 -0.1370  0.4811  0.2478
 9033SOL     OW38734   2.105   1.113   8.827  0.3432  0.3439 -0.3535
 9033SOL    HW138735   2.147   1.035   8.863  0.0536  0.3030 -0.1022
 9033SOL    HW238736   2.127   1.185   8.886  0.5100  0.4375 -0.5298
 9034SOL     OW38737   2.271   2.780   1.078  0.3490  0.4126 -0.8425
 9034SOL    HW138738   2.356   2.739   1.090  0.3603  0.4817 -0.6874
 9034SOL    HW238739   2.295   2.865   1.040  0.2030  1.7250  1.9865
 9035SOL     OW38740   2.441   4.360   0.379  0.0448  0.1958 -0.4149
 9035SOL    HW138741   2.371   4.306   0.342 -0.0593  1.3350 -1.8982
 9035SOL    HW238742   2.511   4.296   0.391 -0.5896 -0.8281 -2.1819
 9036SOL     OW38743   2.968   0.232   7.578  0.3613  0.4952  0.2485
 9036SOL    HW138744   2.988   0.279   7.659  1.0637 -1.3422  1.1479
 9036SOL    HW238745   2.959   0.143   7.613  2.2567  0.3219  0.3111
 9037SOL     OW38746   0.172   1.898   1.883 -0.1519  0.3631  0.4785
 9037SOL    HW138747   0.203   1.829   1.942 -0.5820  0.4758  0.8331
 9037SOL    HW238748   0.138   1.962   1.945  0.6004 -0.8571  2.1480
 9038SOL     OW38749   3.237   4.714  16.295  0.5076 -0.6481  0.2268
 9038SOL    HW138750   3.250   0.056  16.348 -1.8561 -0.3004  0.2967
 9038SOL    HW238751   3.148   4.691  16.323  1.7959 -1.1174  3.9299
 9039SOL     OW38752   0.688   1.920   9.167  0.0257  0.1858  0.4501
 9039SOL    HW138753   0.677   1.832   9.130 -0.5964  0.7277 -0.6348
 9039SOL    HW238754   0.731   1.894   9.249 -0.8996 -0.1789  0.8184
 9040SOL     OW38755   2.453   4.209   8.827  0.2939 -0.1253  0.4198
 9040SOL    HW138756   2.393   4.282   8.843 -0.1223 -1.0462  3.0269
 9040SOL    HW238757   2.471   4.220   8.734 -1.1664  0.2512  0.1743
 9041SOL     OW38758   0.374   0.952   0.444 -0.6268  0.5409  0.1522
 9041SOL    HW138759   0.397   1.042   0.467 -1.1567  0.5144  0.7651
 9041SOL    HW238760   0.364   0.961   0.349  0.3999  1.3274  0.1195
 9042SOL     OW38761   3.233   0.341   6.603 -0.2010  0.4302 -0.3446
 9042SOL    HW138762   3.173   0.267   6.603 -0.4885  0.6679 -2.1273
 9042SOL    HW238763   3.258   0.341   6.511 -1.0068  1.4162 -0.5688
 9043SOL     OW38764   4.617   0.922  10.843  0.4691  0.5049  0.2593
 9043SOL    HW138765   4.617   0.990  10.910 -0.6087  0.0514  0.7211
 9043SOL    HW238766   4.621   0.841  10.893 -0.4929 -0.7769 -1.7316
 9044SOL     OW38767   4.383   3.285   5.851  0.1862 -0.1057  0.6160
 9044SOL    HW138768   4.340   3.336   5.782  1.1852  0.1787  0.1993
 9044SOL    HW238769   4.404   3.203   5.807 -1.5985 -0.2983  0.1342
 9045SOL     OW38770   0.485   2.602   5.727  0.4449  0.2199 -0.2390
 9045SOL    HW138771   0.480   2.649   5.644 -3.0955 -0.7441 -0.5372
 9045SOL    HW238772   0.450   2.514   5.710  2.8486 -0.5154 -1.4505
 9046SOL     OW38773   2.292   0.556   1.431  0.2200 -0.6150  0.5023
 9046SOL    HW138774   2.363   0.561   1.367 -0.8345  5.6709 -0.1897
 9046SOL    HW238775   2.217   0.522   1.382 -0.2628  1.6073 -0.3023
 9047SOL     OW38776   0.497   4.187   5.913 -0.2498 -0.1200  0.4435
 9047SOL    HW138777   0.549   4.266   5.932  1.5097 -1.3305  0.6369
 9047SOL    HW238778   0.538   4.120   5.967  0.0074  0.0827  0.4975
 9048SOL     OW38779   0.694   1.487   4.863  0.2995 -0.0371 -0.0699
 9048SOL    HW138780   0.642   1.561   4.832  0.7966  0.3573  0.0459
 9048SOL    HW238781   0.697   1.516   4.954  1.4096 -1.9565  0.5106
 9049SOL     OW38782   1.656   2.641  11.026 -0.4892 -0.0766  0.3663
 9049SOL    HW138783   1.616   2.568  10.979  1.2466 -0.8701  0.1022
 9049SOL    HW238784   1.578   2.683  11.062 -0.2168  1.0311 -0.3389
 9050SOL     OW38785   3.724   2.861  11.527 -0.5577  0.3769 -0.2043
 9050SOL    HW138786   3.650   2.919  11.509 -2.2500 -1.8221 -0.3037
 9050SOL    HW238787   3.689   2.812  11.602  1.8225 -0.4474  0.3592
 9051SOL     OW38788   4.438   1.180   7.963 -0.3542 -0.8775 -0.0257
 9051SOL    HW138789   4.480   1.112   7.910 -1.2568 -0.8636 -0.7582
 9051SOL    HW238790   4.447   1.258   7.909  2.7811 -0.4114  1.1637
 9052SOL     OW38791   0.890   3.603  14.572  0.0962 -0.0212  0.4852
 9052SOL    HW138792   0.818   3.554  14.532  0.0448  1.2395 -0.9736
 9052SOL    HW238793   0.931   3.536  14.625  2.7619  0.0813 -1.4591
 9053SOL     OW38794   2.659   0.109  14.061  0.5915 -0.0255 -0.3679
 9053SOL    HW138795   2.594   0.172  14.029 -0.0896 -0.2148  0.6273
 9053SOL    HW238796   2.632   0.027  14.020 -0.0624 -0.3319  0.6808
 9054SOL     OW38797   4.632   0.899   8.810  0.0854  0.5862 -0.5119
 9054SOL    HW138798   4.652   0.848   8.888  0.1593 -0.1215 -0.9982
 9054SOL    HW238799   4.587   0.974   8.848 -1.3259 -0.2523 -0.4977
 9055SOL     OW38800   2.456   4.258   7.533  0.1182  0.5709  0.2315
 9055SOL    HW138801   2.483   4.223   7.449  0.8375 -0.5778  0.9452
 9055SOL    HW238802   2.538   4.259   7.582  0.1152 -2.3099  0.2805
 9056SOL     OW38803   0.960   4.473  10.799  0.9314 -0.3210 -0.1751
 9056SOL    HW138804   0.919   4.545  10.750 -0.6408 -2.0179 -1.3391
 9056SOL    HW238805   0.987   4.518  10.879  0.1424 -0.1006 -0.0252
 9057SOL     OW38806   2.872   3.227   8.241  0.1688 -0.2236  0.5883
 9057SOL    HW138807   2.950   3.258   8.195 -2.4663  1.1581 -3.0148
 9057SOL    HW238808   2.821   3.308   8.228  1.7736  0.6745 -0.1310
 9058SOL     OW38809   2.757   0.211   3.922 -0.0161 -0.3889 -0.5166
 9058SOL    HW138810   2.750   0.217   4.017 -0.0965 -0.6005 -0.5073
 9058SOL    HW238811   2.814   0.136   3.904 -1.5261 -1.8024  0.5643
 9059SOL     OW38812   1.231   1.029   3.241  0.0786  0.1357 -0.1778
 9059SOL    HW138813   1.289   1.032   3.165 -0.7929 -1.0096 -0.8751
 9059SOL    HW238814   1.147   1.021   3.198  1.1098  0.8143 -2.3108
 9060SOL     OW38815   2.585   4.237   5.085 -0.1643  0.2421 -0.6990
 9060SOL    HW138816   2.570   4.149   5.050 -3.1824  0.7595 -0.6526
 9060SOL    HW238817   2.639   4.224   5.163 -0.8539 -0.7783 -0.4011
 9061SOL     OW38818   1.282   3.628  13.349 -0.2969 -0.3980 -0.6722
 9061SOL    HW138819   1.339   3.566  13.303  0.3750  0.3899 -0.8883
 9061SOL    HW238820   1.196   3.604  13.315  0.4867 -2.7919 -0.9727
 9062SOL     OW38821   4.009   1.688   9.622  0.7106  0.3100  0.3585
 9062SOL    HW138822   4.103   1.689   9.641  0.6700  0.9824  0.5142
 9062SOL    HW238823   4.013   1.712   9.530 -0.1049  0.1871  0.2924
 9063SOL     OW38824   1.211   1.024   9.235 -0.4575 -0.1108 -0.1121
 9063SOL    HW138825   1.121   1.010   9.204 -0.7756 -0.6473  1.0473
 9063SOL    HW238826   1.202   1.115   9.265  1.4707  0.2616 -0.6840
 9064SOL     OW38827   1.755   3.726   5.101  0.0905 -0.0400  0.2044
 9064SOL    HW138828   1.670   3.736   5.058  0.5767 -0.3324 -0.8299
 9064SOL    HW238829   1.742   3.771   5.185  1.3865  0.1324  0.3213
 9065SOL     OW38830   0.807   0.071   4.400  0.0186  0.5849 -0.1075
 9065SOL    HW138831   0.891   0.041   4.436  0.5653  0.6716 -1.3286
 9065SOL    HW238832   0.825   0.075   4.307  1.3185  0.3328  0.1322
 9066SOL     OW38833   1.867   1.173   5.581  0.1824  0.3740 -0.0279
 9066SOL    HW138834   1.949   1.192   5.626  0.4704 -1.2027  0.1394
 9066SOL    HW238835   1.795   1.215   5.629  0.4865 -2.2644  2.7623
 9067SOL     OW38836   2.313   4.642   8.322  0.4716  0.3351 -0.3282
 9067SOL    HW138837   2.296   4.609   8.234  1.1633 -2.3480  0.5453
 9067SOL    HW238838   2.248   4.584   8.361  0.6578  0.0302 -0.4655
 9068SOL     OW38839   2.620   0.352  16.757  0.0376 -0.8775 -1.1741
 9068SOL    HW138840   2.552   0.286  16.773  0.1841 -0.3279  1.7369
 9068SOL    HW238841   2.598   0.390  16.672  0.6689 -0.4867 -1.1595
 9069SOL     OW38842   0.104   4.685   9.360 -0.2216 -0.1616  0.1146
 9069SOL    HW138843   0.067   4.625   9.296  0.1323 -0.9131  0.6040
 9069SOL    HW238844   0.033   4.677   9.424  0.9730 -1.8580  1.2414
 9070SOL     OW38845   3.600   1.775  14.070  1.0498  0.2063  0.2270
 9070SOL    HW138846   3.619   1.869  14.063  2.0100  0.0020  0.1366
 9070SOL    HW238847   3.685   1.746  14.036  1.5413  2.1435 -0.2116
 9071SOL     OW38848   2.453   0.781   2.782  0.1316  0.0404 -0.3595
 9071SOL    HW138849   2.446   0.766   2.687  0.2039  1.2400 -0.5595
 9071SOL    HW238850   2.376   0.742   2.823 -0.1076  1.1403  0.2483
 9072SOL     OW38851   3.415   1.182  13.569 -0.1931 -0.5604 -0.0936
 9072SOL    HW138852   3.464   1.220  13.643  3.0273 -0.3507 -2.3343
 9072SOL    HW238853   3.366   1.105  13.597 -1.1102 -0.5156 -1.6382
 9073SOL     OW38854   3.715   0.375   8.927  0.2432 -0.3078  0.5783
 9073SOL    HW138855   3.677   0.451   8.971 -0.0877  0.5973 -1.2836
 9073SOL    HW238856   3.782   0.347   8.991 -0.3918 -1.2355  0.8378
 9074SOL     OW38857   0.256   4.331   7.755  0.5250 -0.0409  0.5101
 9074SOL    HW138858   0.248   4.256   7.814  2.0348  0.0791  0.8584
 9074SOL    HW238859   0.300   4.289   7.681 -0.6665  0.5148 -0.5171
 9075SOL     OW38860   3.114   1.795   7.122  0.5769 -0.0507  0.5619
 9075SOL    HW138861   3.178   1.858   7.153  1.6575 -1.1776  0.6261
 9075SOL    HW238862   3.033   1.843   7.138 -0.3471 -1.1568 -0.7940
 9076SOL     OW38863   3.660   4.316   4.109 -0.1926  0.4546  0.4643
 9076SOL    HW138864   3.668   4.235   4.058 -1.0761  0.5001  0.2530
 9076SOL    HW238865   3.567   4.308   4.128 -0.0305 -1.0874  0.6274
 9077SOL     OW38866   2.674   3.135  10.186 -0.2830 -0.0842  0.2090
 9077SOL    HW138867   2.756   3.091  10.161 -1.2907 -1.5308 -0.5345
 9077SOL    HW238868   2.689   3.214  10.134 -0.4092  0.8443  1.5889
 9078SOL     OW38869   0.185   0.189   2.815  0.0220  0.1856  0.1089
 9078SOL    HW138870   0.171   0.173   2.722 -1.2212  0.2767  0.2742
 9078SOL    HW238871   0.278   0.209   2.809  0.4469 -1.2560  2.0508
 9079SOL     OW38872   3.967   0.814   2.836 -0.7978  0.2507 -0.1685
 9079SOL    HW138873   3.952   0.822   2.742 -0.0400  0.3602 -0.2801
 9079SOL    HW238874   3.919   0.733   2.850 -1.5461  0.5309 -1.0648
 9080SOL     OW38875   0.638   1.250   4.057 -0.1476  0.1794 -0.4130
 9080SOL    HW138876   0.639   1.324   4.117  0.8704 -0.5375  0.4641
 9080SOL    HW238877   0.543   1.241   4.053 -0.1534  0.0773 -0.0660
 9081SOL     OW38878   0.373   1.628   2.602  0.2844 -0.1391 -0.5916
 9081SOL    HW138879   0.354   1.536   2.620 -1.1759  0.3897  0.5774
 9081SOL    HW238880   0.453   1.605   2.555  0.4666  0.1365 -0.4217
 9082SOL     OW38881   2.435   0.228   5.411 -0.5284 -0.9558 -0.1789
 9082SOL    HW138882   2.487   0.281   5.350  2.1361 -3.1741  0.1578
 9082SOL    HW238883   2.492   0.240   5.487 -1.6211  1.5963  0.2375
 9083SOL     OW38884   2.371   1.764   6.130 -0.0736 -0.1344  0.2133
 9083SOL    HW138885   2.363   1.692   6.192 -1.6868 -0.1603 -0.0424
 9083SOL    HW238886   2.439   1.818   6.170 -1.0557  1.6900 -0.5660
 9084SOL     OW38887   4.539   3.304   7.143  0.4137  0.1692 -0.6284
 9084SOL    HW138888   4.569   3.299   7.052 -0.3674  1.0672 -0.9430
 9084SOL    HW238889   4.621   3.280   7.185  0.8336  1.9214 -0.4476
 9085SOL     OW38890   0.625   3.087   2.031  0.7100 -0.5880 -0.0827
 9085SOL    HW138891   0.641   3.055   2.119 -2.7785 -0.9547  0.4189
 9085SOL    HW238892   0.696   3.151   2.035 -0.2466  0.6122 -1.8328
 9086SOL     OW38893   2.778   0.368   1.652 -0.4814 -0.0645 -0.1767
 9086SOL    HW138894   2.793   0.405   1.738 -1.0482  2.2471 -1.0723
 9086SOL    HW238895   2.858   0.318   1.635  0.2321  1.5393 -1.5876
 9087SOL     OW38896   1.575   2.944   2.950  0.4164  0.1489  0.3403
 9087SOL    HW138897   1.548   2.857   2.978  0.9714 -0.3788 -0.7930
 9087SOL    HW238898   1.564   2.993   3.032 -0.2220  0.8809 -0.1747
 9088SOL     OW38899   4.468   1.943   9.527  0.5663 -0.1084 -0.5036
 9088SOL    HW138900   4.463   1.895   9.444 -0.2491 -0.3542 -0.3109
 9088SOL    HW238901   4.466   2.033   9.495 -1.4776  0.6261  1.7493
 9089SOL     OW38902   3.455   2.125   6.869 -0.2102 -0.5339 -0.2937
 9089SOL    HW138903   3.504   2.157   6.793  1.2397 -1.0818  0.4165
 9089SOL    HW238904   3.417   2.209   6.897  0.9979  0.1245 -0.6077
 9090SOL     OW38905   4.577   2.380   8.709 -0.2064  0.4007 -0.7662
 9090SOL    HW138906   4.574   2.290   8.676  0.5697 -0.0577  0.4035
 9090SOL    HW238907   4.580   2.360   8.803 -0.4423  0.2789 -0.7827
 9091SOL     OW38908   3.206   1.103   2.641  0.1995  0.2670 -0.6149
 9091SOL    HW138909   3.137   1.169   2.643  0.8702  0.8858  1.2709
 9091SOL    HW238910   3.161   1.019   2.655 -1.5084  1.1562 -0.6966
 9092SOL     OW38911   3.866   1.491   7.834 -0.1791 -0.2075  0.0456
 9092SOL    HW138912   3.823   1.418   7.877 -0.7121  0.6927  1.0555
 9092SOL    HW238913   3.856   1.553   7.907 -0.1814 -0.3208  0.1418
 9093SOL     OW38914   2.797   4.228   3.949 -0.0557 -0.6079  0.0964
 9093SOL    HW138915   2.836   4.216   3.862 -0.5101  1.3677 -0.3758
 9093SOL    HW238916   2.712   4.263   3.920  0.7784  0.0227 -1.5899
 9094SOL     OW38917   0.744   2.711   3.098 -0.7379 -0.2601 -0.1066
 9094SOL    HW138918   0.810   2.740   3.160 -0.3172  0.9247 -1.1281
 9094SOL    HW238919   0.760   2.760   3.018  1.0158 -1.1891 -0.3311
 9095SOL     OW38920   3.931   0.445   2.651 -0.1684 -0.1828  0.3856
 9095SOL    HW138921   4.018   0.450   2.690 -0.3908 -1.7016  1.0344
 9095SOL    HW238922   3.884   0.503   2.710  1.5350  0.4684  1.1132
 9096SOL     OW38923   0.399   2.797   4.044 -0.2040  0.0908 -0.2250
 9096SOL    HW138924   0.481   2.828   4.083 -1.0091 -1.5173  2.7619
 9096SOL    HW238925   0.371   2.871   3.991  1.6170 -0.6150 -2.1459
 9097SOL     OW38926   2.425   0.182  13.858  0.5100 -0.2829 -0.6104
 9097SOL    HW138927   2.435   0.091  13.887 -0.4071  0.0637  0.8226
 9097SOL    HW238928   2.389   0.172  13.770 -0.0435  2.7920 -0.7422
 9098SOL     OW38929   4.463   3.570   5.669 -0.1971  0.4665  0.4682
 9098SOL    HW138930   4.384   3.519   5.647 -0.5201  0.7312  1.0171
 9098SOL    HW238931   4.471   3.555   5.764 -0.4478  0.4931  0.4956
 9099SOL     OW38932   3.281   2.975  11.140  0.5670  1.0108  0.1869
 9099SOL    HW138933   3.293   2.949  11.231 -1.3484  2.3317  0.7846
 9099SOL    HW238934   3.338   2.918  11.087 -0.0978 -0.9274  1.5525
 9100SOL     OW38935   2.798   3.418   9.156 -0.0745 -0.3271 -0.4856
 9100SOL    HW138936   2.747   3.421   9.237 -0.2875  1.9184 -0.7057
 9100SOL    HW238937   2.866   3.485   9.167 -0.5868  0.0981  0.0837
 9101SOL     OW38938   1.277   3.422   2.463 -0.5871  0.0505 -0.5667
 9101SOL    HW138939   1.315   3.334   2.454 -1.9596 -0.6721  0.5372
 9101SOL    HW238940   1.354   3.477   2.451 -1.8277  1.7571 -0.5365
 9102SOL     OW38941   0.793   4.625  10.057  0.1982  0.2129  0.3007
 9102SOL    HW138942   0.799   4.589  10.145  1.1570  0.3352  0.2889
 9102SOL    HW238943   0.832   4.711  10.076 -1.1750  0.6630  1.0417
 9103SOL     OW38944   1.294   2.631   1.615  0.6035 -0.7417 -0.5410
 9103SOL    HW138945   1.277   2.538   1.605  0.4291 -0.4190 -3.1625
 9103SOL    HW238946   1.200   2.651   1.617  0.9707  0.8763  1.1186
 9104SOL     OW38947   4.622   0.730   6.348 -1.0064  0.0017 -0.1505
 9104SOL    HW138948   4.553   0.770   6.296  0.0848 -0.9941 -2.3484
 9104SOL    HW238949   4.637   0.801   6.411 -0.9296  0.0260 -0.1957
 9105SOL     OW38950   3.894   3.576   2.963 -0.1205  0.0451  0.3911
 9105SOL    HW138951   3.811   3.617   2.939 -0.8299 -1.2718  0.6337
 9105SOL    HW238952   3.864   3.509   3.025  0.3639 -1.0430 -0.5569
 9106SOL     OW38953   0.823   2.278   6.363  0.5496  0.2209  0.0670
 9106SOL    HW138954   0.823   2.374   6.372  2.4509  0.1746  0.5186
 9106SOL    HW238955   0.793   2.261   6.452 -0.7885  1.6300 -0.0911
 9107SOL     OW38956   4.649   0.610  17.564  0.2178 -0.2739  0.1805
 9107SOL    HW138957   4.715   0.555  17.606  0.5682 -0.2812 -0.3787
 9107SOL    HW238958   4.648   0.689  17.617  0.8735  0.3210 -0.7088
 9108SOL     OW38959   2.132   2.669   3.994 -0.0235  0.1993  0.2619
 9108SOL    HW138960   2.091   2.741   4.041 -2.4735  1.1186 -3.3431
 9108SOL    HW238961   2.141   2.689   3.901 -3.0635 -1.7685 -0.4557
 9109SOL     OW38962   4.529   2.581   9.517  0.2338  0.5269  0.2841
 9109SOL    HW138963   4.547   2.497   9.559 -0.3750  0.3113  0.1016
 9109SOL    HW238964   4.582   2.637   9.574  1.3511 -0.5154  0.2691
 9110SOL     OW38965   4.244   2.067   2.282 -0.5631  0.1327  0.3344
 9110SOL    HW138966   4.298   2.105   2.351 -0.9046  0.4452  0.4320
 9110SOL    HW238967   4.153   2.057   2.309 -0.8290  0.0870 -0.5798
 9111SOL     OW38968   2.024   3.357  15.493 -0.1799  0.2771  0.2424
 9111SOL    HW138969   2.065   3.277  15.526 -2.0511 -0.7878 -0.0696
 9111SOL    HW238970   1.958   3.369  15.560 -1.3268 -0.3516 -0.7850
 9112SOL     OW38971   4.284   4.558   4.574 -0.1608 -0.7045 -0.9042
 9112SOL    HW138972   4.343   4.616   4.526 -1.6820  0.8718 -0.8769
 9112SOL    HW238973   4.352   4.510   4.621 -1.7788 -0.5462  1.5791
 9113SOL     OW38974   2.879   3.869   6.008 -0.7226 -0.2434 -0.2316
 9113SOL    HW138975   2.950   3.855   5.946 -0.4357  0.2812 -0.0154
 9113SOL    HW238976   2.806   3.889   5.949 -1.9824 -1.2173  0.9801
 9114SOL     OW38977   0.068   3.462   1.010 -0.3964  0.4643 -0.2826
 9114SOL    HW138978   4.723   3.414   1.016 -0.8520  1.4262  1.2657
 9114SOL    HW238979   0.105   3.454   0.922 -1.6422 -0.9068 -0.6720
 9115SOL     OW38980   2.341   3.137   4.649  0.8244  0.3706  0.7931
 9115SOL    HW138981   2.302   3.071   4.592 -1.5759  0.1793  2.6702
 9115SOL    HW238982   2.425   3.095   4.667  1.1141  0.7783  0.4025
 9116SOL     OW38983   1.037   4.457   8.160  0.5002  0.2260 -0.6910
 9116SOL    HW138984   1.025   4.515   8.236  0.2922 -0.7722  0.0326
 9116SOL    HW238985   0.945   4.448   8.136  0.8397 -1.6916 -1.2551
 9117SOL     OW38986   1.791   2.499   0.305 -0.2674  0.2284  0.0484
 9117SOL    HW138987   1.788   2.577   0.360 -0.3623  0.2049  0.0764
 9117SOL    HW238988   1.832   2.522   0.222  1.9491  0.4667  1.1896
 9118SOL     OW38989   1.339   1.546   7.629 -0.2970  0.1862 -0.3418
 9118SOL    HW138990   1.407   1.563   7.564  0.9255 -1.2449  0.5606
 9118SOL    HW238991   1.329   1.634   7.666  1.5584  0.5951 -0.8103
 9119SOL     OW38992   1.200   4.621  11.951 -0.7220  0.0481  0.2582
 9119SOL    HW138993   1.214   4.696  11.893 -0.0765 -1.2407 -1.2517
 9119SOL    HW238994   1.210   4.546  11.892  0.4675  0.4752 -0.0771
 9120SOL     OW38995   4.637   0.220   3.188 -0.1965 -0.4874 -0.2211
 9120SOL    HW138996   4.673   0.276   3.119  1.8969 -1.7599 -0.1690
 9120SOL    HW238997   4.683   0.259   3.263 -0.5659 -2.0776  0.8185
 9121SOL     OW38998   1.586   4.447  13.718  0.0284 -0.0977 -0.3437
 9121SOL    HW138999   1.632   4.422  13.798 -0.9884 -0.1168  0.2260
 9121SOL    HW239000   1.660   4.457  13.657 -1.4679  0.4753 -2.0677
 9122SOL     OW39001   1.897   1.478   8.449 -0.0540  0.2172 -0.3079
 9122SOL    HW139002   1.825   1.526   8.491 -1.2097 -1.6906 -0.1139
 9122SOL    HW239003   1.860   1.389   8.447 -0.3790  0.3274  0.5328
 9123SOL     OW39004   2.947   4.548   6.097 -0.5151  0.4349  0.0286
 9123SOL    HW139005   3.039   4.548   6.122 -0.5580  1.3542  0.1877
 9123SOL    HW239006   2.933   4.642   6.089  0.4897  0.7648  2.1718
 9124SOL     OW39007   3.118   2.176   2.382  0.4111  0.1864 -0.2628
 9124SOL    HW139008   3.114   2.207   2.472 -1.7061  2.1748 -1.0374
 9124SOL    HW239009   3.169   2.246   2.341 -0.8238  0.5391 -1.1745
 9125SOL     OW39010   4.474   0.934  12.896 -0.4569 -0.4475  0.2726
 9125SOL    HW139011   4.499   0.892  12.979  0.5276  0.4252  0.4142
 9125SOL    HW239012   4.412   1.001  12.925  0.2427 -0.2939  1.4361
 9126SOL     OW39013   3.669   0.878   9.408 -0.5735 -0.4545 -0.4989
 9126SOL    HW139014   3.664   0.875   9.312 -0.4807 -0.1906 -0.5130
 9126SOL    HW239015   3.684   0.787   9.431  0.1618 -0.3955 -0.7342
 9127SOL     OW39016   0.075   4.440   5.022 -0.2500  0.6080  0.0374
 9127SOL    HW139017   0.158   4.408   4.986  0.4129 -0.1105  2.2240
 9127SOL    HW239018   0.092   4.435   5.116 -0.4804 -2.2827 -0.0590
 9128SOL     OW39019   2.647   4.007   6.535  0.4373  0.4879  0.2989
 9128SOL    HW139020   2.720   4.002   6.473  0.5743  1.3781  0.3811
 9128SOL    HW239021   2.686   3.951   6.602  1.9490  2.0143  0.7080
 9129SOL     OW39022   4.044   2.682  10.050  0.4003 -0.8130 -0.0099
 9129SOL    HW139023   4.024   2.629   9.973  2.1775 -4.4377  2.0038
 9129SOL    HW239024   3.957   2.699  10.086 -0.8704  0.0417 -3.5624
 9130SOL     OW39025   3.725   2.091   5.835  0.6631 -0.3043 -0.0033
 9130SOL    HW139026   3.759   2.082   5.746 -0.9618 -2.4053 -0.4213
 9130SOL    HW239027   3.796   2.112   5.896 -0.2347  0.1988  0.8746
 9131SOL     OW39028   0.623   0.413   2.158  0.1787  0.6189  0.3000
 9131SOL    HW139029   0.549   0.450   2.207  0.2778  2.8071 -1.1812
 9131SOL    HW239030   0.650   0.478   2.093  0.7346  0.8865  0.8058
 9132SOL     OW39031   0.535   1.126  10.103  0.7388  0.3815 -0.0443
 9132SOL    HW139032   0.453   1.080  10.123  0.2808 -0.2749 -3.4192
 9132SOL    HW239033   0.554   1.162  10.190  1.0209 -1.6216  0.7273
 9133SOL     OW39034   2.755   3.002  16.136  0.4384  0.3173 -0.0081
 9133SOL    HW139035   2.838   2.982  16.092  1.2473  1.2567  1.0809
 9133SOL    HW239036   2.765   3.097  16.138 -0.9455  0.4149  1.8484
 9134SOL     OW39037   1.665   1.205  16.488  0.1692 -0.0276 -0.1922
 9134SOL    HW139038   1.687   1.284  16.440  0.2888 -0.2580 -0.5153
 9134SOL    HW239039   1.627   1.247  16.565  1.5492  0.4272  0.2412
 9135SOL     OW39040   3.979   0.732   9.278 -1.1693 -0.5801  0.1663
 9135SOL    HW139041   3.953   0.707   9.367 -3.6690  0.4823 -0.2664
 9135SOL    HW239042   4.062   0.684   9.269 -0.5428  0.2324  1.6297
 9136SOL     OW39043   4.635   0.556   3.461 -0.1932 -0.3729  0.0319
 9136SOL    HW139044   4.697   0.591   3.526 -0.3439 -0.9632  0.4968
 9136SOL    HW239045   4.623   0.464   3.484 -0.4356  0.4131  3.0890
 9137SOL     OW39046   4.399   0.891   1.330 -1.2186 -0.0314  0.0608
 9137SOL    HW139047   4.451   0.929   1.259 -1.5065 -0.0926 -0.1830
 9137SOL    HW239048   4.460   0.821   1.353 -2.2403 -0.8519  0.2768
 9138SOL     OW39049   4.636   2.283   8.981  0.3136  0.1086 -0.2444
 9138SOL    HW139050   4.562   2.286   9.042  2.0003 -2.9692  1.9550
 9138SOL    HW239051   4.675   2.198   9.000 -1.8579 -0.7160  0.5566
 9139SOL     OW39052   1.112   4.380   6.755  0.0032  0.0489  0.2016
 9139SOL    HW139053   1.131   4.412   6.843  0.4429  1.0459 -0.2426
 9139SOL    HW239054   1.067   4.298   6.773  2.7839 -1.0727  1.9863
 9140SOL     OW39055   3.207   0.038   4.924 -0.2789  0.2948 -0.2419
 9140SOL    HW139056   3.280   4.715   4.936  0.8931  1.6976 -0.2936
 9140SOL    HW239057   3.202   0.078   5.010 -0.3194 -0.8829  0.3012
 9141SOL     OW39058   2.527   3.466   5.089  0.1265 -0.0453  0.0351
 9141SOL    HW139059   2.439   3.434   5.111  0.1631  0.1788  0.4952
 9141SOL    HW239060   2.520   3.552   5.129 -0.6630 -1.1425  2.2490
 9142SOL     OW39061   1.786   1.898   1.763  0.1586  0.1645 -0.1150
 9142SOL    HW139062   1.772   1.818   1.712  0.4235 -0.9492  1.5355
 9142SOL    HW239063   1.724   1.893   1.835  0.2272 -3.1917 -0.2682
 9143SOL     OW39064   0.855   1.749  16.329 -0.2848 -0.3367  0.5286
 9143SOL    HW139065   0.830   1.813  16.262 -0.9657  0.4749  1.5538
 9143SOL    HW239066   0.880   1.678  16.270 -1.1447 -0.5658  0.4388
 9144SOL     OW39067   4.702   2.475  14.995  0.2993 -0.0206 -0.1418
 9144SOL    HW139068   0.011   2.527  15.061 -1.9088 -0.6211  1.8707
 9144SOL    HW239069   4.642   2.432  15.056  0.4426 -0.1444 -0.0881
 9145SOL     OW39070   2.811   2.736  14.064 -0.9165 -0.6402  0.2881
 9145SOL    HW139071   2.763   2.661  14.029  0.1955 -1.1835 -0.0994
 9145SOL    HW239072   2.746   2.805  14.050 -1.1770 -0.8699  0.3862
 9146SOL     OW39073   3.662   0.343  13.313 -0.8059 -0.0387 -0.0617
 9146SOL    HW139074   3.702   0.260  13.339 -0.1968  0.1811 -0.3244
 9146SOL    HW239075   3.735   0.399  13.289  0.3375 -0.7189  1.8796
 9147SOL     OW39076   2.688   0.112  10.967  0.0074 -0.2028 -0.3436
 9147SOL    HW139077   2.635   0.044  11.010 -2.6122  2.0084 -0.0836
 9147SOL    HW239078   2.631   0.148  10.899  1.6998  4.2529  0.6359
 9148SOL     OW39079   3.093   0.956   8.571 -0.1356  0.4968  0.0722
 9148SOL    HW139080   3.044   0.927   8.649 -1.3520 -0.4040 -1.0267
 9148SOL    HW239081   3.147   0.884   8.540  0.1131  1.5317 -1.8693
 9149SOL     OW39082   3.839   3.771  13.896 -0.1602  0.2922  0.2596
 9149SOL    HW139083   3.903   3.737  13.959 -1.7053 -1.5851  0.7863
 9149SOL    HW239084   3.897   3.802  13.826 -0.3002 -1.8523 -0.7754
 9150SOL     OW39085   2.718   2.269   2.141  0.1325  0.2124  0.1384
 9150SOL    HW139086   2.763   2.239   2.219 -0.1582 -1.6162 -0.3994
 9150SOL    HW239087   2.782   2.243   2.075  0.0427  1.8165 -0.5779
 9151SOL     OW39088   1.677   2.981   1.312 -0.0498  0.4615  0.1841
 9151SOL    HW139089   1.694   3.035   1.235 -0.4652  0.2817 -0.0378
 9151SOL    HW239090   1.750   2.920   1.324 -1.8504 -2.2920 -2.6350
 9152SOL     OW39091   2.517   4.032  16.832  0.2125  0.6009  0.0184
 9152SOL    HW139092   2.574   4.045  16.908  2.0388 -2.7621 -0.7727
 9152SOL    HW239093   2.572   3.977  16.777  0.4948  0.5734  0.3271
 9153SOL     OW39094   1.655   1.446   4.870 -0.5652 -0.3343 -0.1291
 9153SOL    HW139095   1.733   1.396   4.892 -0.2033  0.6521  0.8355
 9153SOL    HW239096   1.616   1.379   4.814 -2.9615  0.6338  0.3720
 9154SOL     OW39097   2.631   0.771   2.998  0.2132  0.2869 -0.5246
 9154SOL    HW139098   2.573   0.791   2.924 -2.4212 -2.4398  0.8186
 9154SOL    HW239099   2.630   0.677   2.981  0.2074 -0.0539  1.3959
 9155SOL     OW39100   1.925   0.332  13.613  0.6141 -0.1396 -0.0376
 9155SOL    HW139101   1.870   0.330  13.692  0.0262 -0.1644 -0.4499
 9155SOL    HW239102   1.870   0.371  13.546 -0.5873 -0.9277  0.4793
 9156SOL     OW39103   3.416   1.209  16.343  0.0733 -0.0811 -0.3263
 9156SOL    HW139104   3.466   1.144  16.393 -0.1968  0.5558  0.7604
 9156SOL    HW239105   3.325   1.186  16.361  0.0050  0.8710  0.4971
 9157SOL     OW39106   3.434   3.922   3.179 -0.3083  0.4514  0.0495
 9157SOL    HW139107   3.440   3.923   3.275  0.8202  1.0440 -0.0316
 9157SOL    HW239108   3.497   3.852   3.157 -2.2841 -0.9328 -1.1857
 9158SOL     OW39109   2.817   4.082  13.622 -0.0261  1.1006  1.0610
 9158SOL    HW139110   2.816   4.011  13.558 -3.2800  1.4078  0.7439
 9158SOL    HW239111   2.743   4.047  13.673  0.5829 -0.0988  1.1248
 9159SOL     OW39112   1.546   2.230  11.125  0.6580 -0.1391  0.4828
 9159SOL    HW139113   1.458   2.267  11.117 -0.3103 -2.2029  1.4664
 9159SOL    HW239114   1.517   2.143  11.152 -1.6627  0.1236 -1.1128
 9160SOL     OW39115   3.680   0.218   4.695  0.7905  0.3489  0.0003
 9160SOL    HW139116   3.604   0.222   4.637  1.7245  1.0016 -1.1896
 9160SOL    HW239117   3.748   0.198   4.631  1.7556  2.5315  0.3142
 9161SOL     OW39118   2.568   3.023   4.726  0.0560  0.3157  0.2169
 9161SOL    HW139119   2.638   3.081   4.694  1.6286 -1.0228  1.2351
 9161SOL    HW239120   2.617   2.941   4.727  0.1572  0.3788  0.5646
 9162SOL     OW39121   4.158   0.763   6.899 -0.1611 -0.6240  0.3791
 9162SOL    HW139122   4.202   0.695   6.951  0.7507 -0.4153 -0.1192
 9162SOL    HW239123   4.112   0.797   6.976  1.1395  0.4256  0.6788
 9163SOL     OW39124   4.628   3.885  11.380 -0.0333 -0.3954 -0.3384
 9163SOL    HW139125   4.683   3.819  11.421 -1.1440 -0.0043  1.7627
 9163SOL    HW239126   4.674   3.968  11.363 -1.5706  0.3422 -0.8572
 9164SOL     OW39127   1.593   4.702   2.515  0.1391 -0.5679 -0.4344
 9164SOL    HW139128   1.590   4.642   2.440  1.9146 -0.9622 -0.1795
 9164SOL    HW239129   1.501   4.729   2.510  0.6208  1.0942 -0.3360
 9165SOL     OW39130   2.636   0.090  16.485 -0.3672  0.3648  0.3280
 9165SOL    HW139131   2.670   0.060  16.401  0.5887 -0.0962  0.8665
 9165SOL    HW239132   2.612   0.181  16.471 -3.0997 -0.1008  1.9785
 9166SOL     OW39133   4.088   3.399   7.044 -0.3314  0.4021  0.4079
 9166SOL    HW139134   4.155   3.406   7.112 -0.2906 -2.0920  0.6414
 9166SOL    HW239135   4.078   3.304   7.042 -1.5022  0.4927  1.5485
 9167SOL     OW39136   1.254   2.636  14.207  0.1548 -0.4072 -0.5756
 9167SOL    HW139137   1.274   2.730  14.204  0.1976 -0.4171 -0.6026
 9167SOL    HW239138   1.160   2.631  14.188  0.0378  0.1439 -0.1468
 9168SOL     OW39139   3.813   2.520  15.681 -0.3311  0.1707  0.1235
 9168SOL    HW139140   3.787   2.470  15.758 -3.4495 -0.7603 -1.5603
 9168SOL    HW239141   3.728   2.537  15.641 -0.6688  0.7983  1.1141
 9169SOL     OW39142   0.749   4.194   1.632  0.3828 -0.4073 -0.2395
 9169SOL    HW139143   0.784   4.240   1.709 -0.4491 -0.2938  0.0712
 9169SOL    HW239144   0.800   4.238   1.564 -3.0978  0.8758 -2.0054
 9170SOL     OW39145   3.437   2.130   7.408  0.2905  0.3381 -0.4133
 9170SOL    HW139146   3.459   2.049   7.361  1.2962  1.3895 -1.7480
 9170SOL    HW239147   3.345   2.109   7.424  1.2039 -4.0299 -0.7284
 9171SOL     OW39148   4.513   1.015   2.581 -0.3862 -0.2174  0.0326
 9171SOL    HW139149   4.505   1.090   2.640  1.6525 -0.0122  0.0506
 9171SOL    HW239150   4.482   0.947   2.640  1.6347  0.3070  1.6820
 9172SOL     OW39151   2.014   0.565   9.457 -0.4332 -0.0516 -0.3770
 9172SOL    HW139152   2.075   0.552   9.384  0.8800 -3.3589  1.3243
 9172SOL    HW239153   2.038   0.510   9.532 -0.8985  5.2702  3.7470
 9173SOL     OW39154   1.435   2.636  13.851  0.0553 -0.0224 -0.5865
 9173SOL    HW139155   1.425   2.554  13.898  0.1296  0.0848 -0.3840
 9173SOL    HW239156   1.496   2.675  13.913 -2.1946  0.0816  1.5429
 9174SOL     OW39157   2.477   0.282  17.452  0.1296 -0.7614  0.1003
 9174SOL    HW139158   2.439   0.370  17.458  1.4379 -0.2980  1.3940
 9174SOL    HW239159   2.530   0.300  17.375 -2.2009 -0.8128 -1.5248
 9175SOL     OW39160   0.854   3.672   3.580  0.1218 -0.2159  0.5172
 9175SOL    HW139161   0.839   3.585   3.543 -1.3338 -0.2534  1.1830
 9175SOL    HW239162   0.783   3.719   3.535 -0.7376 -1.5452  0.4825
 9176SOL     OW39163   0.482   3.093   1.706  0.0315 -0.0989 -0.1301
 9176SOL    HW139164   0.554   3.112   1.646  0.3698 -1.0255 -0.0273
 9176SOL    HW239165   0.463   3.180   1.741  0.3520 -0.8374  1.8937
 9177SOL     OW39166   3.453   2.749   0.597  0.6871 -0.2910 -0.6559
 9177SOL    HW139167   3.421   2.681   0.656  2.1266 -1.0655 -0.7749
 9177SOL    HW239168   3.461   2.819   0.662  1.4010 -1.1163  0.1468
 9178SOL     OW39169   1.036   1.163  13.262 -0.2621 -0.3746  0.3746
 9178SOL    HW139170   1.039   1.067  13.252  1.0214 -0.3269  0.2584
 9178SOL    HW239171   0.947   1.188  13.240  0.9570  3.5146 -0.0105
 9179SOL     OW39172   4.629   1.482   8.927  0.0296  0.2656 -0.1775
 9179SOL    HW139173   4.566   1.462   8.858 -0.0088 -0.5894  0.0990
 9179SOL    HW239174   4.597   1.423   8.996  1.1638 -1.2308 -0.9156
 9180SOL     OW39175   4.647   0.152   1.743  0.9961 -0.0419  0.4409
 9180SOL    HW139176   4.696   0.199   1.675  2.0659 -0.6716  0.7801
 9180SOL    HW239177   4.611   0.225   1.792  0.0809  0.5370 -1.0940
 9181SOL     OW39178   3.195   0.565   1.324  0.1846  0.2912  0.4953
 9181SOL    HW139179   3.201   0.658   1.348  0.1622 -0.0906  1.9915
 9181SOL    HW239180   3.288   0.561   1.302  0.4985  0.6003  1.7240
 9182SOL     OW39181   2.351   1.408   2.391 -0.0177  0.0259  0.2387
 9182SOL    HW139182   2.262   1.375   2.385 -0.0647  0.2404 -0.1940
 9182SOL    HW239183   2.382   1.412   2.301 -0.5811 -0.0951  0.0444
 9183SOL     OW39184   3.390   1.673   8.462 -0.3063 -0.2784  0.2888
 9183SOL    HW139185   3.384   1.609   8.391 -0.7528  0.1954 -0.1078
 9183SOL    HW239186   3.322   1.730   8.425 -0.4325  0.5530  1.8098
 9184SOL     OW39187   2.493   0.765   7.016 -0.3151  0.3628  0.6676
 9184SOL    HW139188   2.447   0.726   7.091  0.5156 -1.3950  0.2712
 9184SOL    HW239189   2.571   0.709   7.014 -1.9803 -1.8655 -1.8977
 9185SOL     OW39190   4.503   1.313   5.248  0.3239 -0.1688 -0.8274
 9185SOL    HW139191   4.472   1.254   5.316 -0.7931  0.6965 -0.5768
 9185SOL    HW239192   4.419   1.352   5.221 -0.2161 -0.1643  0.8829
 9186SOL     OW39193   4.731   4.510   2.903 -0.1096  0.1520  0.1254
 9186SOL    HW139194   0.088   4.505   2.888  0.4588  2.2554  3.0660
 9186SOL    HW239195   4.716   4.593   2.857 -4.1875 -2.2669 -2.9178
 9187SOL     OW39196   1.995   2.628   8.823 -0.0430  0.1977 -0.5880
 9187SOL    HW139197   1.921   2.642   8.764  0.5376  1.5381 -1.0131
 9187SOL    HW239198   2.004   2.533   8.817  0.5633  0.1762  0.5840
 9188SOL     OW39199   1.304   0.562   5.185  0.5010  1.0077  0.3627
 9188SOL    HW139200   1.332   0.522   5.102  2.1492 -0.8296  1.8159
 9188SOL    HW239201   1.306   0.657   5.167 -0.1567  0.9909  0.1995
 9189SOL     OW39202   1.223   3.313   3.930 -0.5684 -0.2668 -0.0886
 9189SOL    HW139203   1.179   3.346   4.008 -0.0390 -1.6521  0.8008
 9189SOL    HW239204   1.166   3.343   3.859 -2.1078 -1.9723  0.4298
 9190SOL     OW39205   1.421   4.479  10.338 -0.0083 -0.5546  0.0340
 9190SOL    HW139206   1.453   4.481  10.428  0.8319  0.9353 -0.3001
 9190SOL    HW239207   1.369   4.398  10.341 -1.4801  0.4237  0.9937
 9191SOL     OW39208   0.475   3.473   7.348  0.3339  0.6510 -0.0208
 9191SOL    HW139209   0.565   3.483   7.319 -0.6558 -0.6859 -3.5317
 9191SOL    HW239210   0.481   3.507   7.437  0.4591  1.6184 -0.4013
 9192SOL     OW39211   4.606   2.422   2.218  0.2698  0.7005  0.0930
 9192SOL    HW139212   4.530   2.427   2.161 -1.1356 -0.2301  1.8783
 9192SOL    HW239213   4.647   2.506   2.195  0.8942  0.6536  1.0249
 9193SOL     OW39214   3.107   0.421   8.599  0.1272  0.0405  0.0666
 9193SOL    HW139215   3.066   0.453   8.519  2.0259 -1.2870 -1.4176
 9193SOL    HW239216   3.077   0.486   8.664  0.1943  1.2868 -1.1534
 9194SOL     OW39217   2.068   1.622   5.108  0.3822  0.1710 -0.3699
 9194SOL    HW139218   2.084   1.564   5.034  1.2818  1.6180 -1.3167
 9194SOL    HW239219   1.972   1.617   5.112  0.3163  0.2133 -2.2671
 9195SOL     OW39220   4.327   2.459   5.832 -0.4610 -0.0574 -0.2003
 9195SOL    HW139221   4.374   2.541   5.817  1.5552 -1.1121  0.4882
 9195SOL    HW239222   4.373   2.422   5.907 -2.1247  0.7411  1.2303
 9196SOL     OW39223   3.316   2.736   3.441 -0.1451  0.5517  0.0493
 9196SOL    HW139224   3.242   2.753   3.500 -0.2488  0.2290  0.0162
 9196SOL    HW239225   3.303   2.642   3.426 -2.2095  0.4336  2.5243
 9197SOL     OW39226   2.188   2.507   7.855  0.3230 -0.0779 -0.3562
 9197SOL    HW139227   2.115   2.551   7.900  1.1718 -0.0479  0.9959
 9197SOL    HW239228   2.178   2.545   7.768  1.1571 -0.6437 -0.6970
 9198SOL     OW39229   0.630   4.122   4.640  0.1927 -0.0078  0.6065
 9198SOL    HW139230   0.721   4.131   4.669  0.7502  1.5406 -1.6537
 9198SOL    HW239231   0.579   4.095   4.716  0.0102 -0.7194  0.2321
 9199SOL     OW39232   2.778   0.628   9.328  0.3007 -0.0561  0.0314
 9199SOL    HW139233   2.856   0.608   9.381  0.6723  0.5996 -0.2673
 9199SOL    HW239234   2.775   0.550   9.274 -0.8154  0.2708 -0.3798
 9200SOL     OW39235   2.088   1.581   8.298 -0.0244  0.1531 -0.0281
 9200SOL    HW139236   2.022   1.534   8.349 -0.7176  3.2834  1.9709
 9200SOL    HW239237   2.164   1.523   8.307  0.4725  0.5334 -1.7778
 9201SOL     OW39238   4.589   3.749   2.444  0.3355  0.3702 -0.1363
 9201SOL    HW139239   4.531   3.678   2.416  0.8964 -0.4116  0.7133
 9201SOL    HW239240   4.577   3.755   2.539 -0.7279 -0.8677 -0.1900
 9202SOL     OW39241   1.380   2.882  13.107 -0.3276  0.8546  0.8409
 9202SOL    HW139242   1.441   2.825  13.154 -0.5664 -0.1529 -0.0960
 9202SOL    HW239243   1.395   2.963  13.156 -0.9350  1.4102  0.1025
 9203SOL     OW39244   3.055   4.223   2.635  0.5567 -0.0659  0.6999
 9203SOL    HW139245   3.056   4.308   2.590  1.1764 -0.9722 -0.9799
 9203SOL    HW239246   3.088   4.162   2.570 -1.0043 -1.5088  1.2648
 9204SOL     OW39247   1.394   3.355   1.599 -0.4711 -0.1611  0.5008
 9204SOL    HW139248   1.418   3.424   1.537  0.1278 -0.3194  0.5612
 9204SOL    HW239249   1.462   3.292   1.574 -1.8931 -1.9417  1.1286
 9205SOL     OW39250   0.995   1.299   7.985 -0.2770 -0.0448  0.1249
 9205SOL    HW139251   0.951   1.229   8.032 -0.3038 -0.1838 -0.1041
 9205SOL    HW239252   0.925   1.364   7.990 -0.8870 -0.4818 -2.6879
 9206SOL     OW39253   1.449   0.740   3.985  0.1496 -0.0105  0.2607
 9206SOL    HW139254   1.383   0.707   3.924  1.7131  0.6530 -1.7739
 9206SOL    HW239255   1.507   0.777   3.920  2.1272  0.9167  2.5603
 9207SOL     OW39256   2.205   0.220   8.124  0.4498 -0.2732 -0.2780
 9207SOL    HW139257   2.279   0.227   8.064  1.9053  1.7170  1.7245
 9207SOL    HW239258   2.249   0.224   8.209 -0.0038  0.0054 -0.0509
 9208SOL     OW39259   1.079   1.282   4.968  0.4264  0.1678 -0.0946
 9208SOL    HW139260   1.059   1.210   5.028  0.3122  1.2669  1.1730
 9208SOL    HW239261   0.999   1.282   4.914  0.4087 -2.5920 -0.0481
 9209SOL     OW39262   3.723   3.276   9.295 -0.3683 -0.6178 -0.1027
 9209SOL    HW139263   3.663   3.229   9.352  0.3871 -1.4075  0.0382
 9209SOL    HW239264   3.787   3.311   9.358  0.2564  1.3148 -1.7776
 9210SOL     OW39265   4.251   0.054   3.708 -0.2906  0.7495  0.2986
 9210SOL    HW139266   4.345   0.038   3.717 -0.4352  1.0353  2.3246
 9210SOL    HW239267   4.227   0.055   3.801  1.7088 -1.9174  0.8637
 9211SOL     OW39268   2.112   2.423   9.307 -0.3438 -0.0865 -0.0020
 9211SOL    HW139269   2.150   2.510   9.299 -0.7060 -0.0077 -0.8450
 9211SOL    HW239270   2.095   2.430   9.401  0.4002  0.2525  0.1099
 9212SOL     OW39271   1.704   3.384   2.817 -0.5393  0.1958 -0.6542
 9212SOL    HW139272   1.666   3.333   2.889  2.1648 -0.3222  0.3937
 9212SOL    HW239273   1.630   3.442   2.801 -0.3091  0.5893 -0.2824
 9213SOL     OW39274   3.798   2.140   8.339 -0.1458  0.2596  0.0240
 9213SOL    HW139275   3.817   2.070   8.277  1.1877  0.2703  0.4268
 9213SOL    HW239276   3.722   2.184   8.300  0.9323  2.1774  0.1150
 9214SOL     OW39277   2.092   1.199   3.658 -0.1477 -0.3189  0.5374
 9214SOL    HW139278   2.088   1.264   3.728 -1.1455 -1.4955  1.5718
 9214SOL    HW239279   2.188   1.199   3.652 -0.0705 -0.1788  1.9007
 9215SOL     OW39280   1.710   4.388  15.487  0.3787 -0.8205  0.4094
 9215SOL    HW139281   1.771   4.452  15.448  0.0730 -0.4698  0.5079
 9215SOL    HW239282   1.630   4.395  15.435  0.2056 -1.4101  0.5948
 9216SOL     OW39283   0.313   0.551   5.077  0.5870  0.1146 -0.2750
 9216SOL    HW139284   0.386   0.606   5.107 -0.4146  0.3089  1.8430
 9216SOL    HW239285   0.276   0.505   5.153  0.1242  2.8008  1.1112
 9217SOL     OW39286   0.849   3.058   1.365  0.2115 -0.6924  0.6141
 9217SOL    HW139287   0.919   3.029   1.424  0.0642 -0.7316  0.7697
 9217SOL    HW239288   0.888   3.057   1.278 -0.4245  1.6330  0.3089
 9218SOL     OW39289   2.597   2.641  16.498 -0.0705  0.0388 -0.1733
 9218SOL    HW139290   2.644   2.559  16.482  2.2189  1.4052 -0.4652
 9218SOL    HW239291   2.617   2.641  16.591 -1.1634 -1.2705  0.0724
 9219SOL     OW39292   1.728   0.369   1.667  0.0657  0.0279  0.2273
 9219SOL    HW139293   1.782   0.431   1.716 -1.6597  1.3268  0.4801
 9219SOL    HW239294   1.736   0.289   1.719 -1.6617 -1.5520 -1.9526
 9220SOL     OW39295   2.377   3.663   7.506 -0.1125  0.0209  0.5569
 9220SOL    HW139296   2.322   3.665   7.584  0.4486  1.0270  0.9292
 9220SOL    HW239297   2.317   3.661   7.432 -0.8916 -0.6165  1.2065
 9221SOL     OW39298   1.027   4.350   8.946 -0.5953 -0.1221 -0.4814
 9221SOL    HW139299   1.032   4.267   8.899 -0.6922 -0.3933 -0.0162
 9221SOL    HW239300   0.934   4.371   8.942 -0.4356  0.6839 -0.0396
 9222SOL     OW39301   2.185   3.761  12.815 -0.1684  0.5210 -0.0767
 9222SOL    HW139302   2.101   3.782  12.857 -0.5422 -3.4539  1.2168
 9222SOL    HW239303   2.251   3.829  12.828 -0.7325  0.6965  1.8826
 9223SOL     OW39304   2.003   3.282   7.089  0.0135  0.0156 -0.0580
 9223SOL    HW139305   1.936   3.229   7.131 -0.4042 -0.1359 -0.9076
 9223SOL    HW239306   2.082   3.271   7.143  0.2633  0.0804 -0.4109
 9224SOL     OW39307   4.728   2.053   2.704  0.0101 -0.0757 -0.1459
 9224SOL    HW139308   4.668   2.028   2.774 -0.9158 -0.5240 -1.1043
 9224SOL    HW239309   4.713   1.980   2.644 -1.7535  0.7985 -0.7652
 9225SOL     OW39310   0.483   2.763   6.659 -0.6678  0.7111 -0.0659
 9225SOL    HW139311   0.571   2.792   6.684 -0.8684  1.1726  0.1172
 9225SOL    HW239312   0.503   2.674   6.630 -1.7247 -1.0032  4.4829
 9226SOL     OW39313   2.437   0.918  15.139 -0.8264 -0.0462  0.0105
 9226SOL    HW139314   2.359   0.885  15.094  0.9500 -2.2181 -1.4391
 9226SOL    HW239315   2.419   1.009  15.117 -2.1600  0.3777  2.8019
 9227SOL     OW39316   3.918   1.111   5.587 -0.0720  0.7822 -0.2137
 9227SOL    HW139317   3.880   1.106   5.500  1.8314  0.2306 -1.0173
 9227SOL    HW239318   3.948   1.203   5.587  0.6573  0.5529  1.1401
 9228SOL     OW39319   3.374   1.220  10.489  0.4908 -0.1250 -0.2191
 9228SOL    HW139320   3.365   1.127  10.468  1.6465 -0.0704 -0.9681
 9228SOL    HW239321   3.326   1.227  10.572  0.1174 -0.0846 -0.4403
 9229SOL     OW39322   1.549   3.873   2.553  0.2029 -0.3834  0.7594
 9229SOL    HW139323   1.619   3.901   2.493  0.8169  0.1153  1.7088
 9229SOL    HW239324   1.491   3.948   2.537  1.7765  0.5959 -0.3783
 9230SOL     OW39325   1.922   1.717   0.960  0.0924 -0.3109  0.2324
 9230SOL    HW139326   1.924   1.639   1.016  0.0971 -0.2646  0.2969
 9230SOL    HW239327   1.858   1.766   1.011  0.5867  1.2234 -0.6025
 9231SOL     OW39328   2.060   4.203   1.758 -0.0539  0.0588 -0.9117
 9231SOL    HW139329   2.119   4.278   1.750 -0.1350  0.1591 -0.5642
 9231SOL    HW239330   2.096   4.132   1.705  0.3083  0.5388 -1.3168
 9232SOL     OW39331   1.356   2.811   6.863  0.4266  0.0648  0.3056
 9232SOL    HW139332   1.303   2.864   6.922 -1.0302  1.4607 -2.2968
 9232SOL    HW239333   1.291   2.744   6.842  0.8386 -0.6292  1.2585
 9233SOL     OW39334   4.002   3.643   8.011 -0.1407 -0.0345 -0.3390
 9233SOL    HW139335   4.049   3.583   8.070 -0.1114  1.2292  0.9067
 9233SOL    HW239336   4.056   3.722   8.011 -0.3940  0.1605 -2.4340
 9234SOL     OW39337   2.318   1.824   1.855  0.2829  0.4913 -0.0211
 9234SOL    HW139338   2.241   1.865   1.816 -0.5840  0.4446  1.6333
 9234SOL    HW239339   2.383   1.850   1.789  1.4219 -1.2186  0.4161
 9235SOL     OW39340   4.714   0.467   9.854 -0.0009  0.5064 -0.3962
 9235SOL    HW139341   0.031   0.523   9.799  0.8301  0.6664  0.5859
 9235SOL    HW239342   0.042   0.398   9.867  0.0708  1.1257  2.4466
 9236SOL     OW39343   2.766   2.667   8.376 -0.0698  0.0232  0.3742
 9236SOL    HW139344   2.671   2.670   8.367  0.1073  1.1905 -1.0968
 9236SOL    HW239345   2.771   2.612   8.454  0.4639  2.2107  1.8542
 9237SOL     OW39346   0.576   1.121   1.835  0.8353 -0.0281  0.0128
 9237SOL    HW139347   0.655   1.167   1.863  0.9529  0.4012 -1.0147
 9237SOL    HW239348   0.511   1.150   1.900 -2.6987 -0.3936 -3.3776
 9238SOL     OW39349   3.555   1.318   2.358 -0.1934 -0.4235  0.1746
 9238SOL    HW139350   3.465   1.308   2.388 -0.5997  1.1787 -0.5221
 9238SOL    HW239351   3.598   1.356   2.434 -1.8443  2.4669 -0.3627
 9239SOL     OW39352   3.560   3.914  10.349  0.0904 -0.2397 -0.4248
 9239SOL    HW139353   3.575   3.991  10.403 -0.0343 -0.8209  0.4467
 9239SOL    HW239354   3.470   3.887  10.370  0.0643 -0.2728 -0.5793
 9240SOL     OW39355   0.153   3.865   8.985  0.2258  0.6326 -0.1422
 9240SOL    HW139356   0.130   3.956   8.963 -0.0822  0.7163  0.5400
 9240SOL    HW239357   0.109   3.826   8.909  0.1209 -1.3355  0.9296
 9241SOL     OW39358   1.819   3.386   8.927  0.3689  0.4211  0.8106
 9241SOL    HW139359   1.908   3.414   8.906  1.0675 -0.2251  2.9415
 9241SOL    HW239360   1.832   3.293   8.914  0.7425  0.3134  1.9831
 9242SOL     OW39361   1.433   2.688   5.327 -0.1960  0.1036 -0.4816
 9242SOL    HW139362   1.514   2.693   5.378 -2.1272  2.4054  2.3700
 9242SOL    HW239363   1.445   2.594   5.311 -1.7752 -0.3076  0.7349
 9243SOL     OW39364   1.753   1.517   5.845  0.0434 -0.2281 -0.1860
 9243SOL    HW139365   1.724   1.427   5.863 -1.7315  0.8120  2.1633
 9243SOL    HW239366   1.729   1.556   5.929  2.8334  0.5472  0.2590
 9244SOL     OW39367   3.013   4.344  12.382  0.0686 -0.8600 -0.2966
 9244SOL    HW139368   3.003   4.294  12.463  0.6939 -1.5637 -0.6429
 9244SOL    HW239369   3.105   4.338  12.356 -0.0571  2.0269 -1.3063
 9245SOL     OW39370   0.016   1.262   3.224 -0.0335  0.0870  0.4951
 9245SOL    HW139371   0.010   1.356   3.237  1.5782  0.5223 -1.9367
 9245SOL    HW239372   4.692   1.238   3.293 -0.7453 -0.9592 -0.4822
 9246SOL     OW39373   3.803   0.467  17.304 -0.7334  0.3198 -0.4391
 9246SOL    HW139374   3.890   0.482  17.342 -0.7799  0.0738 -0.2337
 9246SOL    HW239375   3.752   0.535  17.348 -0.2760  1.5441 -1.8069
 9247SOL     OW39376   3.856   1.510   7.318 -0.9780  0.3437 -0.0220
 9247SOL    HW139377   3.922   1.527   7.384 -2.0707  0.9554  0.9039
 9247SOL    HW239378   3.883   1.584   7.265  0.0297 -0.3193 -0.4342
 9248SOL     OW39379   1.413   4.320   8.961 -0.6174  0.1657  0.3170
 9248SOL    HW139380   1.397   4.410   8.931  0.8526  0.0632 -0.7563
 9248SOL    HW239381   1.500   4.330   8.999  0.2505  1.3327 -1.9874
 9249SOL     OW39382   0.978   3.625  12.805 -0.3083 -0.3868 -0.1023
 9249SOL    HW139383   1.068   3.651  12.787 -0.2196  0.7079  1.8873
 9249SOL    HW239384   0.985   3.616  12.900  1.8633 -1.6830 -0.3898
 9250SOL     OW39385   1.787   3.138   4.302  0.0417  0.1337 -0.0551
 9250SOL    HW139386   1.698   3.114   4.274  0.8858 -0.2030 -2.4538
 9250SOL    HW239387   1.819   3.058   4.344  0.8204 -0.3934 -1.6721
 9251SOL     OW39388   3.486   1.995   4.517  0.1006 -0.0134 -0.7550
 9251SOL    HW139389   3.533   2.047   4.583  0.3415  0.8213 -1.5813
 9251SOL    HW239390   3.501   2.042   4.435 -3.6332  0.4018 -1.1835
 9252SOL     OW39391   2.993   0.430  13.035 -0.1614 -0.2337 -0.3607
 9252SOL    HW139392   3.049   0.355  13.056 -0.0354  0.3574  1.3462
 9252SOL    HW239393   2.940   0.390  12.966 -2.3425  1.7658  0.1867
 9253SOL     OW39394   0.094   2.746  11.063 -0.2349 -0.9249 -0.5376
 9253SOL    HW139395   0.169   2.694  11.089  0.5565 -0.1992 -1.3595
 9253SOL    HW239396   0.030   2.685  11.025  0.2115 -0.8112 -1.4837
 9254SOL     OW39397   1.385   4.734  14.006 -0.2785  0.3297 -0.4949
 9254SOL    HW139398   1.328   0.008  14.083 -1.2939  1.4757 -1.4129
 9254SOL    HW239399   1.344   4.665  13.954  0.2169 -1.6914  1.7849
 9255SOL     OW39400   2.197   1.997   3.827  0.6230  0.4368 -0.3752
 9255SOL    HW139401   2.125   2.058   3.842 -1.0790 -1.9859  1.2344
 9255SOL    HW239402   2.247   2.040   3.758  1.1629  1.1242  0.4406
 9256SOL     OW39403   3.282   3.340   5.174  0.3135  0.0727 -0.6054
 9256SOL    HW139404   3.316   3.276   5.111 -0.8686 -1.4411  0.3077
 9256SOL    HW239405   3.350   3.328   5.240 -0.4267  0.9290  0.3126
 9257SOL     OW39406   1.907   4.205  13.576  0.2956 -0.4845 -0.7335
 9257SOL    HW139407   1.818   4.177  13.594  0.0355  0.0288 -1.2348
 9257SOL    HW239408   1.921   4.171  13.487 -1.8075 -3.5371  0.1026
 9258SOL     OW39409   2.583   2.878   7.149  0.5245  0.6244  0.0689
 9258SOL    HW139410   2.608   2.816   7.081 -0.9412  0.8415 -0.6734
 9258SOL    HW239411   2.629   2.958   7.126 -1.1829  1.1146 -1.6293
 9259SOL     OW39412   1.611   1.601   7.143  0.0111  0.1049 -0.0624
 9259SOL    HW139413   1.689   1.579   7.193  0.2625  0.0045 -0.4956
 9259SOL    HW239414   1.548   1.602   7.215  1.6522 -0.8245  1.3739
 9260SOL     OW39415   4.380   2.324  16.847 -0.2841  0.1038  0.1196
 9260SOL    HW139416   4.422   2.250  16.803 -0.4994  0.9358 -1.5151
 9260SOL    HW239417   4.313   2.273  16.893  0.4536 -0.9479  0.0346
 9261SOL     OW39418   2.476   1.479   1.489  0.4427 -0.1768  0.3480
 9261SOL    HW139419   2.514   1.565   1.477  3.3111 -1.5722 -0.5387
 9261SOL    HW239420   2.452   1.480   1.582 -1.4097  1.5078 -0.1627
 9262SOL     OW39421   1.362   1.532  10.231 -0.0259 -0.1111  0.0705
 9262SOL    HW139422   1.428   1.557  10.296  1.6343 -1.3004 -1.1457
 9262SOL    HW239423   1.408   1.464  10.182  1.6084  1.8944 -1.2045
 9263SOL     OW39424   2.139   4.295   0.518  0.4990 -0.2709  0.1340
 9263SOL    HW139425   2.083   4.247   0.457  0.9254  0.0262 -0.4862
 9263SOL    HW239426   2.163   4.369   0.463 -0.0910 -0.1259  0.0699
 9264SOL     OW39427   0.273   4.309   4.459  0.3586 -0.3778  0.1617
 9264SOL    HW139428   0.188   4.300   4.416 -0.2855  0.1145  1.3283
 9264SOL    HW239429   0.307   4.219   4.462 -0.6166 -0.7923 -0.8931
 9265SOL     OW39430   1.009   3.310   1.393 -0.6062 -1.1496 -0.0003
 9265SOL    HW139431   1.101   3.308   1.365 -0.1065 -1.1539  1.6388
 9265SOL    HW239432   1.023   3.258   1.472 -0.0864 -0.7301  0.1858
 9266SOL     OW39433   4.466   3.199   5.225 -0.1665  0.0849  0.1525
 9266SOL    HW139434   4.461   3.136   5.153 -1.0321 -0.4933  0.7098
 9266SOL    HW239435   4.372   3.207   5.241 -0.2954  0.3433 -0.7017
 9267SOL     OW39436   4.504   3.265   6.088  0.1424 -0.5772 -0.3617
 9267SOL    HW139437   4.514   3.356   6.117  2.4268 -0.8432 -0.3581
 9267SOL    HW239438   4.475   3.276   5.997  0.0045 -3.0859 -0.6186
 9268SOL     OW39439   2.915   4.297   6.181 -0.6433 -0.4279  0.5593
 9268SOL    HW139440   2.950   4.249   6.106  0.2350  0.0454  0.6651
 9268SOL    HW239441   2.946   4.382   6.148  4.0905 -2.0378  0.9604
 9269SOL     OW39442   1.619   1.968   1.995  0.8350  0.2725  0.3242
 9269SOL    HW139443   1.574   2.043   2.032 -1.0088 -0.6641 -0.0292
 9269SOL    HW239444   1.547   1.917   1.957  0.1682  1.6017 -0.1948
 9270SOL     OW39445   0.433   0.746   9.194  0.1793 -0.5454  0.1206
 9270SOL    HW139446   0.438   0.655   9.224  0.1231 -0.7571 -0.5148
 9270SOL    HW239447   0.424   0.722   9.102 -0.5102 -0.3550  0.1417
 9271SOL     OW39448   4.324   4.524   6.777 -0.4714 -0.0692 -0.0911
 9271SOL    HW139449   4.295   4.602   6.730 -0.5750 -1.5326 -2.5106
 9271SOL    HW239450   4.298   4.459   6.711  1.3131  0.9237 -1.7507
 9272SOL     OW39451   3.598   3.704   3.854  0.2985 -0.2915 -0.2142
 9272SOL    HW139452   3.522   3.762   3.861  0.5053 -0.1760  1.0137
 9272SOL    HW239453   3.653   3.741   3.785 -2.0845  2.7450 -0.4926
 9273SOL     OW39454   4.553   1.704  17.703  0.2223 -0.2559 -0.7717
 9273SOL    HW139455   4.462   1.681  17.681  0.6536  0.2600 -3.1098
 9273SOL    HW239456   4.566   1.792  17.669  0.7442 -0.1374 -0.2600
 9274SOL     OW39457   3.421   1.375   3.784 -0.5880  0.2191 -0.0806
 9274SOL    HW139458   3.504   1.381   3.737  0.1218 -2.3587  0.8413
 9274SOL    HW239459   3.443   1.411   3.870 -1.8229  2.6830 -0.7934
 9275SOL     OW39460   0.293   4.071  11.612 -0.1576 -0.3651 -0.2463
 9275SOL    HW139461   0.318   4.142  11.672 -0.8564 -0.5041  0.2151
 9275SOL    HW239462   0.201   4.057  11.635 -0.2102 -1.4196 -1.1042
 9276SOL     OW39463   2.332   0.869   4.599  0.0618  0.0586 -0.2002
 9276SOL    HW139464   2.399   0.816   4.556  2.6048  1.9770  1.3754
 9276SOL    HW239465   2.375   0.898   4.680  0.7231 -1.0009 -0.1685
 9277SOL     OW39466   4.478   3.688   8.774 -0.2502  0.0825  0.4739
 9277SOL    HW139467   4.477   3.631   8.697  2.0370 -1.9669  1.9621
 9277SOL    HW239468   4.440   3.634   8.843  2.9161 -0.9981  1.3749
 9278SOL     OW39469   2.787   0.788   8.481 -0.8093  0.3354  0.3920
 9278SOL    HW139470   2.696   0.764   8.463 -0.9069  1.3117 -0.4762
 9278SOL    HW239471   2.792   0.774   8.576  0.7031  2.3142  0.6047
 9279SOL     OW39472   3.877   3.413   9.798 -0.5468 -0.4069  0.1802
 9279SOL    HW139473   3.887   3.413   9.703 -0.8748 -0.0078  0.1477
 9279SOL    HW239474   3.882   3.504   9.827  1.3000 -0.7507  0.9778
 9280SOL     OW39475   3.990   2.217   2.690 -0.2790  0.3665  0.2836
 9280SOL    HW139476   3.978   2.304   2.729 -0.8722  1.0667 -1.4543
 9280SOL    HW239477   4.076   2.222   2.650 -1.2817  2.0891 -1.6243
 9281SOL     OW39478   1.355   2.236   3.221 -0.0588  0.2978  0.5805
 9281SOL    HW139479   1.442   2.198   3.206 -0.0947  0.9710 -1.4022
 9281SOL    HW239480   1.306   2.165   3.261  1.9059 -1.7448 -0.6148
 9282SOL     OW39481   2.497   1.599  11.023 -0.3108 -0.1833 -0.0999
 9282SOL    HW139482   2.549   1.610  11.103  0.0951 -0.0467 -0.3796
 9282SOL    HW239483   2.556   1.618  10.950  1.0624 -0.4427  0.9437
 9283SOL     OW39484   1.934   2.610   4.413 -0.0615 -0.2300 -0.2254
 9283SOL    HW139485   1.993   2.685   4.423  0.0953 -0.4500  0.4936
 9283SOL    HW239486   1.950   2.571   4.499 -0.5845 -1.4039 -0.6687
 9284SOL     OW39487   2.226   3.114   8.579  0.4050  0.1731 -0.0451
 9284SOL    HW139488   2.241   3.087   8.488  1.1602  1.7487 -0.3791
 9284SOL    HW239489   2.271   3.045   8.628 -1.1531 -0.5833  0.2903
 9285SOL     OW39490   2.547   3.660   7.084  0.0078 -0.4319  0.4697
 9285SOL    HW139491   2.534   3.566   7.077 -0.5587 -0.2258 -1.0695
 9285SOL    HW239492   2.466   3.706   7.061 -1.8304 -3.2311  1.4150
 9286SOL     OW39493   4.023   0.549   7.263  0.8802  0.1671  0.2284
 9286SOL    HW139494   4.015   0.512   7.351 -0.0445 -1.1257 -0.4092
 9286SOL    HW239495   4.076   0.627   7.282  2.3571 -1.0340  1.0495
 9287SOL     OW39496   0.443   0.542   8.650 -0.0978 -0.5164  0.3442
 9287SOL    HW139497   0.516   0.508   8.599  0.8127  1.1393  0.5170
 9287SOL    HW239498   0.403   0.459   8.674  0.2367 -0.2229  1.9544
 9288SOL     OW39499   1.699   1.385   5.442 -0.0067  0.5159  0.3036
 9288SOL    HW139500   1.666   1.317   5.502 -0.5787  1.2275  0.8025
 9288SOL    HW239501   1.636   1.380   5.370 -1.2561  1.3931  1.3212
 9289SOL     OW39502   0.438   1.187   6.203  0.2565 -0.2717 -0.5948
 9289SOL    HW139503   0.391   1.207   6.121  1.2346  0.8030 -0.8970
 9289SOL    HW239504   0.425   1.274   6.241 -1.1921  0.0737 -1.8785
 9290SOL     OW39505   3.855   2.285  15.193 -0.3320  0.3471 -0.6416
 9290SOL    HW139506   3.905   2.262  15.271 -1.4323  0.7325  0.1880
 9290SOL    HW239507   3.816   2.364  15.233 -1.6231 -0.2417 -0.7237
 9291SOL     OW39508   1.638   0.945  16.608  0.3088  0.1216  0.6894
 9291SOL    HW139509   1.545   0.955  16.587 -0.4128 -1.7639  2.9575
 9291SOL    HW239510   1.668   1.021  16.558  1.9193 -1.6075 -0.9942
 9292SOL     OW39511   2.996   4.206   1.784 -0.3052  0.3691  0.5719
 9292SOL    HW139512   3.000   4.193   1.879  0.2514  2.4748  0.8485
 9292SOL    HW239513   2.920   4.264   1.783  0.1756  1.0285  2.6184
 9293SOL     OW39514   1.170   0.814   8.258  0.1292  0.3429 -0.3982
 9293SOL    HW139515   1.168   0.770   8.343  0.0669  1.5028  0.2096
 9293SOL    HW239516   1.081   0.790   8.231  0.4630 -1.6318  0.2333
 9294SOL     OW39517   1.347   2.888  14.452  0.2858  0.1327 -0.3233
 9294SOL    HW139518   1.333   2.902  14.358 -0.0897  0.3501 -0.2346
 9294SOL    HW239519   1.430   2.933  14.467  0.3852 -0.2291  0.1876
 9295SOL     OW39520   3.984   2.101   2.411  0.2614  0.6437  0.0614
 9295SOL    HW139521   3.964   2.138   2.497  0.1804 -0.9570  0.7175
 9295SOL    HW239522   3.905   2.062   2.374  2.2638 -1.0127 -2.5052
 9296SOL     OW39523   1.549   0.972   2.230 -0.2359 -0.1636  0.0012
 9296SOL    HW139524   1.569   0.897   2.173  0.9674  0.1115  0.0699
 9296SOL    HW239525   1.519   0.926   2.308  2.8618  0.5841  1.6046
 9297SOL     OW39526   4.257   4.363   6.551 -0.6116 -0.3038  0.0441
 9297SOL    HW139527   4.249   4.436   6.490 -0.4602 -0.7258 -0.4847
 9297SOL    HW239528   4.277   4.290   6.492 -1.1643 -1.7268  1.6037
 9298SOL     OW39529   2.280   0.544  13.228  0.2950  0.3284 -0.1866
 9298SOL    HW139530   2.212   0.482  13.254 -0.0047  0.0782 -1.5528
 9298SOL    HW239531   2.230   0.603  13.171  1.1965  0.4956 -0.8110
 9299SOL     OW39532   3.992   2.752   7.673 -0.5595  0.0883  0.4056
 9299SOL    HW139533   3.992   2.698   7.594 -3.8919 -0.3253  0.6549
 9299SOL    HW239534   3.987   2.837   7.628  2.8921 -1.0342 -2.0760
 9300SOL     OW39535   3.687   2.195   6.622 -0.0176  0.1288 -0.2709
 9300SOL    HW139536   3.632   2.193   6.544  1.1760 -1.1070 -1.0916
 9300SOL    HW239537   3.774   2.179   6.587 -0.4865 -0.4333 -1.1884
 9301SOL     OW39538   1.692   0.206   7.620 -0.3132  0.2486 -0.1762
 9301SOL    HW139539   1.783   0.236   7.620  0.7975 -3.1233  1.1660
 9301SOL    HW239540   1.692   0.132   7.681 -0.7214  1.4684  1.3204
 9302SOL     OW39541   0.250   4.381  15.076 -0.1429  0.4566 -0.1375
 9302SOL    HW139542   0.343   4.374  15.057 -0.0415  2.0601 -0.2388
 9302SOL    HW239543   0.222   4.464  15.037 -0.3985  0.8498  0.8721
 9303SOL     OW39544   2.206   3.789  15.213  0.6956  0.0545  0.1478
 9303SOL    HW139545   2.190   3.833  15.130  4.0303  2.5969  0.8495
 9303SOL    HW239546   2.114   3.770  15.232  1.0899 -2.6533 -0.7096
 9304SOL     OW39547   1.164   0.528   1.424 -0.0684  0.6970 -0.3060
 9304SOL    HW139548   1.135   0.474   1.497  0.9401  0.0394 -0.3970
 9304SOL    HW239549   1.150   0.617   1.457  0.3589  0.1757  1.2766
 9305SOL     OW39550   3.790   3.721   8.591 -0.0507 -0.3146  0.1885
 9305SOL    HW139551   3.810   3.775   8.667  1.1328 -1.5307  0.7460
 9305SOL    HW239552   3.696   3.729   8.575  0.0818  2.1140  0.5970
 9306SOL     OW39553   0.720   3.548   1.627  0.5014 -0.1012 -0.1521
 9306SOL    HW139554   0.714   3.487   1.554 -2.3893  0.2890 -0.2460
 9306SOL    HW239555   0.626   3.553   1.644 -0.0495 -2.8940 -2.3082
 9307SOL     OW39556   0.474   2.030  13.692 -0.4836  0.3125  0.2189
 9307SOL    HW139557   0.530   2.030  13.770  1.1221 -0.9810 -0.9138
 9307SOL    HW239558   0.449   2.122  13.687 -3.4640 -0.4767  0.5962
 9308SOL     OW39559   2.034   4.569   5.502 -0.2775 -0.5899  0.3250
 9308SOL    HW139560   2.013   4.552   5.594 -1.3187 -1.2083 -0.0291
 9308SOL    HW239561   2.125   4.598   5.512 -0.4434  0.3945 -1.0302
 9309SOL     OW39562   0.768   3.225   4.631  0.4598 -0.5806  0.1888
 9309SOL    HW139563   0.858   3.242   4.659  0.5495 -0.1568 -0.3439
 9309SOL    HW239564   0.727   3.217   4.717  0.4485  0.3227  0.2724
 9310SOL     OW39565   2.604   4.233   6.677 -0.5688 -0.2170  0.1528
 9310SOL    HW139566   2.624   4.153   6.629  1.7243  1.7298 -2.1891
 9310SOL    HW239567   2.562   4.287   6.610  1.1129 -0.2402 -0.9508
 9311SOL     OW39568   1.103   4.482   2.224  0.4719  0.0180  0.5702
 9311SOL    HW139569   1.171   4.461   2.160 -2.1693 -0.1142 -2.2157
 9311SOL    HW239570   1.026   4.442   2.183 -1.3289  2.8451  1.1487
 9312SOL     OW39571   1.418   2.907   8.650 -0.2256  0.2064 -0.6140
 9312SOL    HW139572   1.432   2.872   8.739  0.8815  1.2380 -0.3788
 9312SOL    HW239573   1.331   2.946   8.658 -0.6427 -0.7515 -0.4597
 9313SOL     OW39574   2.396   2.788   7.786  0.4287 -0.1643 -0.3864
 9313SOL    HW139575   2.474   2.844   7.788  1.6320 -1.9565  2.7441
 9313SOL    HW239576   2.436   2.701   7.777 -0.6564 -0.6169 -0.8385
 9314SOL     OW39577   4.592   1.904   2.919  0.2113  0.6248  0.1874
 9314SOL    HW139578   4.629   1.853   2.991 -0.5316 -0.9456 -0.5180
 9314SOL    HW239579   4.515   1.850   2.902  0.3596  0.2824  0.5987
 9315SOL     OW39580   3.886   0.060   9.153  0.3312 -0.8466  0.0271
 9315SOL    HW139581   3.848   0.045   9.240 -0.9556  0.5499 -0.2989
 9315SOL    HW239582   3.837   4.728   9.108  1.4042 -2.7198  1.7793
 9316SOL     OW39583   3.934   2.538   3.062  0.3704  0.5729  0.7200
 9316SOL    HW139584   3.910   2.571   3.148  1.5383  1.7429  0.5994
 9316SOL    HW239585   4.007   2.594   3.036 -0.1553  1.4042  1.0541
 9317SOL     OW39586   3.012   0.305  12.339  0.0268  0.1313  0.1052
 9317SOL    HW139587   3.102   0.299  12.307  0.0758 -1.0020  0.4587
 9317SOL    HW239588   3.010   0.247  12.415  2.8597  0.6537  0.5530
 9318SOL     OW39589   4.177   1.681  14.037 -0.3982 -0.3933 -0.4467
 9318SOL    HW139590   4.248   1.738  14.068 -0.5629 -1.2395  1.5223
 9318SOL    HW239591   4.155   1.724  13.955  2.1729 -1.6825 -1.7867
 9319SOL     OW39592   2.294   0.818  17.182  0.2222 -0.2877  0.3364
 9319SOL    HW139593   2.255   0.839  17.098  2.3322 -1.9767 -1.0729
 9319SOL    HW239594   2.220   0.836  17.240 -0.6754  1.2087 -1.2967
 9320SOL     OW39595   3.346   2.196   8.671  0.1911 -0.1563 -0.2602
 9320SOL    HW139596   3.351   2.101   8.665  0.1910 -0.3471  2.6807
 9320SOL    HW239597   3.267   2.213   8.619 -0.3637 -1.4140  0.1881
 9321SOL     OW39598   2.888   3.006  10.091  0.5134 -0.6197 -0.0615
 9321SOL    HW139599   2.943   3.079  10.061 -2.4126  0.1160 -3.5013
 9321SOL    HW239600   2.948   2.932  10.074 -0.0470 -1.5821  2.0794
 9322SOL     OW39601   0.860   1.416   5.237 -0.1470 -0.6546 -0.2456
 9322SOL    HW139602   0.916   1.348   5.201  1.2428  0.3981 -0.0979
 9322SOL    HW239603   0.903   1.436   5.320 -2.4938 -0.9371  1.0370
 9323SOL     OW39604   3.782   2.440  10.320  0.3081 -0.4261 -0.0607
 9323SOL    HW139605   3.708   2.389  10.356  0.2102 -0.0049  0.3381
 9323SOL    HW239606   3.852   2.380  10.345 -0.9747 -2.6230 -1.7135
 9324SOL     OW39607   1.164   1.380   3.017  0.0459  0.0939 -0.0709
 9324SOL    HW139608   1.218   1.322   3.071 -1.4202  0.8609  2.2301
 9324SOL    HW239609   1.095   1.408   3.077 -2.6596 -2.7647 -1.8908
 9325SOL     OW39610   1.944   3.732  14.690 -0.1975  0.5378 -0.8441
 9325SOL    HW139611   2.037   3.751  14.703 -0.4511  2.4578 -1.8141
 9325SOL    HW239612   1.915   3.755  14.778 -0.2998  1.0192 -1.0019
 9326SOL     OW39613   3.526   3.690   2.266  0.1424  0.6434 -0.0320
 9326SOL    HW139614   3.613   3.663   2.298  0.3928 -0.0030 -1.2676
 9326SOL    HW239615   3.504   3.611   2.217 -1.6067  1.6400 -0.8245
 9327SOL     OW39616   3.458   2.500  15.326 -0.1055  0.1144  0.3967
 9327SOL    HW139617   3.384   2.454  15.288 -0.8235  0.4060  1.4453
 9327SOL    HW239618   3.455   2.460  15.412  1.4182 -1.4358 -0.2708
 9328SOL     OW39619   2.195   1.682   9.378 -0.0197 -0.1913  0.0227
 9328SOL    HW139620   2.179   1.620   9.449  2.6535 -2.1568 -1.0490
 9328SOL    HW239621   2.176   1.761   9.428 -2.0178 -0.1894 -0.7379
 9329SOL     OW39622   1.411   1.169   7.799  0.2054 -0.0734  0.1934
 9329SOL    HW139623   1.459   1.180   7.717  1.0802  0.3943  0.7667
 9329SOL    HW239624   1.345   1.237   7.784  1.7674  1.2511 -0.7672
 9330SOL     OW39625   1.633   2.612   1.459  0.6184  0.4769 -0.1119
 9330SOL    HW139626   1.553   2.569   1.429 -0.1373 -0.5371  3.3430
 9330SOL    HW239627   1.658   2.558   1.534 -1.0690 -0.1346  0.0012
 9331SOL     OW39628   3.933   4.121   0.798 -0.2776 -0.4621  0.5242
 9331SOL    HW139629   4.011   4.123   0.853 -0.0154  3.2686  0.0012
 9331SOL    HW239630   3.889   4.045   0.836 -0.4057 -0.5661  0.1668
 9332SOL     OW39631   4.176   4.126   0.957  0.6625  0.0505  0.0364
 9332SOL    HW139632   4.224   4.109   1.038  0.7740  0.2130  0.0055
 9332SOL    HW239633   4.254   4.155   0.910 -0.1617  0.3613 -1.1295
 9333SOL     OW39634   3.536   1.533  11.274 -0.0728 -0.0036  0.0766
 9333SOL    HW139635   3.573   1.578  11.197  1.3464  0.8112  1.2308
 9333SOL    HW239636   3.463   1.591  11.293  1.4022  2.0946 -0.6279
 9334SOL     OW39637   1.525   3.794   4.949 -0.2260 -0.3906  0.4295
 9334SOL    HW139638   1.495   3.867   5.004  0.2099  0.9230 -1.0894
 9334SOL    HW239639   1.452   3.782   4.889 -0.3467  2.9734 -0.1091
 9335SOL     OW39640   0.871   4.620   9.480  0.0873 -0.4049 -0.1346
 9335SOL    HW139641   0.931   4.638   9.552 -1.0906 -0.0699  0.7633
 9335SOL    HW239642   0.895   4.527   9.484  0.9814 -0.1515  0.3451
 9336SOL     OW39643   0.305   2.127  10.618  0.1989  0.2997  0.5814
 9336SOL    HW139644   0.292   2.060  10.550 -0.2289  2.0168 -1.0361
 9336SOL    HW239645   0.217   2.164  10.628 -0.5926  0.0156 -5.1405
 9337SOL     OW39646   0.439   3.518   4.689 -0.3046 -0.0628 -0.0995
 9337SOL    HW139647   0.435   3.428   4.721 -1.0282 -0.6825 -1.9061
 9337SOL    HW239648   0.515   3.549   4.738 -0.4756 -2.2894  1.5748
 9338SOL     OW39649   3.400   0.538   5.767 -0.3384 -0.3215  0.0567
 9338SOL    HW139650   3.396   0.464   5.706  2.2109  0.8022 -1.4612
 9338SOL    HW239651   3.493   0.561   5.775 -0.9521  1.4216  2.1009
 9339SOL     OW39652   2.153   2.389   2.766  0.1187 -0.1603 -0.1144
 9339SOL    HW139653   2.246   2.387   2.787 -0.1560  1.4252  1.1975
 9339SOL    HW239654   2.113   2.442   2.835  1.1353 -0.3696  0.6358
 9340SOL     OW39655   4.535   0.423   6.377  0.2980  0.1435  0.0077
 9340SOL    HW139656   4.525   0.411   6.283 -0.6543 -1.1659  0.2703
 9340SOL    HW239657   4.585   0.504   6.389 -1.2959  1.2372 -0.7349
 9341SOL     OW39658   1.579   0.617   0.731  0.6441 -0.2546  0.2500
 9341SOL    HW139659   1.633   0.649   0.804 -1.4806 -0.0323  1.7290
 9341SOL    HW239660   1.495   0.605   0.775  0.4205 -0.0243 -0.1184
 9342SOL     OW39661   4.612   1.446   3.691  0.3334  0.1011  0.1913
 9342SOL    HW139662   4.615   1.416   3.782 -1.0208 -1.5643 -0.3013
 9342SOL    HW239663   4.578   1.533   3.711 -2.3034 -0.3407 -2.2912
 9343SOL     OW39664   3.754   1.452   8.854  0.3734 -0.0583 -0.4289
 9343SOL    HW139665   3.731   1.521   8.793 -1.5636  0.4283  0.8524
 9343SOL    HW239666   3.838   1.487   8.883 -0.0592 -0.4407  1.3038
 9344SOL     OW39667   2.689   2.503  12.274  0.0037  0.2616  0.2413
 9344SOL    HW139668   2.674   2.496  12.180  0.4233  0.0187  0.1901
 9344SOL    HW239669   2.716   2.593  12.288 -1.0063  0.2541  2.1642
 9345SOL     OW39670   2.951   1.034   7.433  0.4261  0.4731 -0.1699
 9345SOL    HW139671   2.959   1.044   7.338  0.6650 -0.7993 -0.2822
 9345SOL    HW239672   2.856   1.045   7.433  0.1611 -1.8179 -1.2682
 9346SOL     OW39673   2.598   3.118   3.945  0.1630  1.0001  0.0644
 9346SOL    HW139674   2.561   3.044   3.897  1.1896  0.7469 -0.3475
 9346SOL    HW239675   2.685   3.126   3.904  1.0572 -2.0572  1.3436
 9347SOL     OW39676   2.630   4.539   6.802  0.4141  0.0595  0.1556
 9347SOL    HW139677   2.663   4.468   6.748  1.3807 -2.0349  3.5135
 9347SOL    HW239678   2.594   4.491   6.876  2.7279  0.0557  1.2868
 9348SOL     OW39679   3.189   1.342   3.938 -0.1331 -0.4399  0.1829
 9348SOL    HW139680   3.251   1.385   3.878 -0.6666  0.5922  0.3739
 9348SOL    HW239681   3.175   1.262   3.887 -3.2497 -0.0049  0.4117
 9349SOL     OW39682   2.464   3.445   8.518  0.3617 -0.1523 -0.0024
 9349SOL    HW139683   2.464   3.427   8.612  0.6348  0.9996  0.2222
 9349SOL    HW239684   2.475   3.355   8.486 -2.7080  0.3134 -2.3161
 9350SOL     OW39685   1.835   1.213   1.131  0.0698 -0.0690  0.5337
 9350SOL    HW139686   1.773   1.155   1.087  0.8075 -1.2960  1.1093
 9350SOL    HW239687   1.911   1.160   1.108 -0.4302  0.1538 -1.6664
 9351SOL     OW39688   1.204   0.205   0.127 -0.3188  0.2768 -0.3399
 9351SOL    HW139689   1.154   0.261   0.068 -1.4595  0.3781  0.7199
 9351SOL    HW239690   1.296   0.223   0.110 -0.4252  0.6113 -0.5631
 9352SOL     OW39691   0.047   0.883  15.405  0.5072 -0.4450 -0.4946
 9352SOL    HW139692   4.711   0.825  15.425  1.2619 -1.7549 -1.4731
 9352SOL    HW239693   0.115   0.816  15.394  1.0757  0.3646 -1.9254
 9353SOL     OW39694   2.934   0.616   8.688 -0.6155 -0.0793 -0.0242
 9353SOL    HW139695   2.942   0.692   8.746 -1.5059 -0.5456  0.7122
 9353SOL    HW239696   2.850   0.576   8.712 -1.1208  0.5039 -0.8001
 9354SOL     OW39697   1.820   0.034   4.473 -0.1364 -0.0692  0.3442
 9354SOL    HW139698   1.866   0.118   4.475  0.5885 -0.4773  0.8902
 9354SOL    HW239699   1.854   0.002   4.389  2.3216 -1.8403  2.0156
 9355SOL     OW39700   2.045   3.523   3.146 -0.9339 -0.1114  0.2069
 9355SOL    HW139701   2.073   3.486   3.230  2.3451  0.2937 -0.7301
 9355SOL    HW239702   1.964   3.564   3.176 -0.0776  1.8282 -0.1460
 9356SOL     OW39703   4.397   2.095  16.716 -0.1477 -0.3625 -0.4200
 9356SOL    HW139704   4.329   2.029  16.702 -1.5531  0.7363  1.2733
 9356SOL    HW239705   4.480   2.046  16.713  0.3610  0.5064 -0.7248
 9357SOL     OW39706   3.223   1.456  14.045 -1.4605 -0.3173 -0.3006
 9357SOL    HW139707   3.318   1.472  14.050 -1.2431 -1.0626 -2.0465
 9357SOL    HW239708   3.194   1.538  14.086  1.0655  0.2863  0.3281
 9358SOL     OW39709   4.097   2.986   4.350 -0.0946  0.2984 -0.3149
 9358SOL    HW139710   4.011   3.000   4.390 -0.6328  0.0586 -1.3788
 9358SOL    HW239711   4.153   3.011   4.423  1.4453 -1.8715 -0.7359
 9359SOL     OW39712   4.213   1.039   8.029  0.3915 -0.2404 -0.2157
 9359SOL    HW139713   4.290   1.095   8.040  1.3861 -1.3023 -1.7481
 9359SOL    HW239714   4.139   1.099   8.021  0.5776 -0.0708 -0.6877
 9360SOL     OW39715   1.495   0.001   5.193  0.3861 -0.1640 -0.6220
 9360SOL    HW139716   1.565   4.718   5.255  0.0992  0.4505 -0.0827
 9360SOL    HW239717   1.537   0.006   5.107  0.2223 -0.4354 -0.7168
 9361SOL     OW39718   1.255   1.787   7.854  0.0250  1.0488  0.1404
 9361SOL    HW139719   1.324   1.764   7.916  0.6749  1.3040 -0.4858
 9361SOL    HW239720   1.250   1.878   7.884 -0.1328  0.6284  1.3982
 9362SOL     OW39721   1.446   1.504   3.126  0.2004  0.0558  0.0348
 9362SOL    HW139722   1.455   1.523   3.033  0.4548  0.1842  0.0867
 9362SOL    HW239723   1.429   1.410   3.123  0.8367 -0.0692  0.4335
 9363SOL     OW39724   3.214   0.429   3.794  0.2541 -0.4774  0.3285
 9363SOL    HW139725   3.121   0.430   3.816  0.4539 -1.7119  1.2470
 9363SOL    HW239726   3.226   0.337   3.769 -0.0420  0.4749 -3.2930
 9364SOL     OW39727   3.975   4.504   7.053  0.3426  0.2415 -0.5242
 9364SOL    HW139728   4.068   4.481   7.050 -0.1306 -1.9043  1.1669
 9364SOL    HW239729   3.945   4.502   7.144  3.8068  1.3184  0.6538
 9365SOL     OW39730   0.613   4.344  16.716 -0.0795  0.1988  0.8319
 9365SOL    HW139731   0.560   4.268  16.738  1.3506 -0.8940  0.5662
 9365SOL    HW239732   0.617   4.328  16.621  0.9157  4.1842  0.1865
 9366SOL     OW39733   2.101   3.117   5.241 -0.1563 -0.1680  0.1797
 9366SOL    HW139734   2.143   3.198   5.268  1.8602 -1.4090  0.6932
 9366SOL    HW239735   2.126   3.055   5.310  0.4470  0.9807  0.9845
 9367SOL     OW39736   3.743   3.257   2.163  0.5547  0.2844  0.3338
 9367SOL    HW139737   3.742   3.341   2.118  4.2277 -2.2037 -4.3935
 9367SOL    HW239738   3.703   3.200   2.097 -1.4803  1.8550  0.2182
 9368SOL     OW39739   2.122   3.357  13.873  0.0009 -0.3916  0.5492
 9368SOL    HW139740   2.168   3.287  13.825 -0.4574 -0.0332 -0.4208
 9368SOL    HW239741   2.052   3.382  13.812  0.3759  0.5688  0.5034
 9369SOL     OW39742   0.741   2.553  12.308  0.5624  0.0665  0.0774
 9369SOL    HW139743   0.726   2.481  12.369  1.2016 -0.3569 -0.2784
 9369SOL    HW239744   0.777   2.624  12.363  1.4872  0.1633 -0.6628
 9370SOL     OW39745   2.205   3.058   8.274 -0.3762 -0.3427 -0.0425
 9370SOL    HW139746   2.172   3.094   8.192  1.6180  2.3459  0.3145
 9370SOL    HW239747   2.224   2.967   8.250  0.4535 -0.4423  0.9759
 9371SOL     OW39748   0.456   0.555   1.915 -0.0524  0.4490  0.3980
 9371SOL    HW139749   0.517   0.617   1.955 -2.1365  3.1125 -0.5519
 9371SOL    HW239750   0.386   0.560   1.979  0.1630  0.4825  0.6317
 9372SOL     OW39751   2.465   2.361   3.314  0.2487 -0.0515 -0.0794
 9372SOL    HW139752   2.396   2.321   3.262  0.1216  0.1569 -0.0705
 9372SOL    HW239753   2.455   2.314   3.397  1.5300  0.5742  0.4295
 9373SOL     OW39754   2.998   2.442   9.705  0.5392 -0.9659 -0.1210
 9373SOL    HW139755   3.047   2.403   9.633 -1.6028 -1.7568 -1.1510
 9373SOL    HW239756   2.987   2.533   9.676  0.1509 -1.4767 -1.5802
 9374SOL     OW39757   1.015   4.591  11.039 -0.2541 -0.0580 -0.1844
 9374SOL    HW139758   1.037   4.508  11.080  0.4810 -0.4553 -1.3670
 9374SOL    HW239759   1.018   4.657  11.108 -1.3475 -1.1585  0.9234
 9375SOL     OW39760   2.991   3.011   7.238 -0.3399  0.1241  0.7205
 9375SOL    HW139761   3.052   2.949   7.277  0.6081  0.7741  0.2997
 9375SOL    HW239762   3.052   3.082   7.215  1.5511 -1.1197  1.9048
 9376SOL     OW39763   2.385   4.718   3.405 -0.5542 -0.0412 -0.8563
 9376SOL    HW139764   2.349   4.720   3.317 -0.1778  1.7723 -0.9757
 9376SOL    HW239765   2.449   4.650   3.386 -1.7308 -2.2525  3.1997
 9377SOL     OW39766   0.371   0.523  10.169 -0.0958  0.2791 -0.2458
 9377SOL    HW139767   0.391   0.450  10.228 -1.0871  0.0427 -0.1941
 9377SOL    HW239768   0.337   0.473  10.095 -0.4611  0.2836 -0.0810
 9378SOL     OW39769   0.197   0.599   2.935 -0.1658 -0.3415 -0.4198
 9378SOL    HW139770   0.238   0.520   2.970 -0.9979 -1.6953 -2.4852
 9378SOL    HW239771   0.232   0.664   2.996  0.0385  0.8033 -1.7502
 9379SOL     OW39772   2.366   4.364   0.652  0.4691 -0.2327  0.0617
 9379SOL    HW139773   2.428   4.362   0.579  0.4929 -2.2014  0.1597
 9379SOL    HW239774   2.285   4.338   0.608  1.6302  0.2965 -2.4418
 9380SOL     OW39775   3.466   3.021   7.887  0.0680 -0.0148 -0.2298
 9380SOL    HW139776   3.559   3.001   7.889 -0.0375 -0.5069 -0.2468
 9380SOL    HW239777   3.458   3.072   7.806 -0.6905  2.8866  1.6635
 9381SOL     OW39778   1.627   1.564   7.808  0.2069 -0.1455  0.3737
 9381SOL    HW139779   1.535   1.590   7.807  0.4213  0.5573 -0.6806
 9381SOL    HW239780   1.625   1.508   7.886 -0.0568 -1.0059 -0.2429
 9382SOL     OW39781   3.982   1.788  14.236 -0.0397 -0.7194  0.2107
 9382SOL    HW139782   3.952   1.766  14.148 -0.7712  0.4378  0.1570
 9382SOL    HW239783   3.932   1.724  14.286 -0.6508  0.4287  1.0613
 9383SOL     OW39784   2.747   3.014   7.580 -0.2317  0.2168  0.0193
 9383SOL    HW139785   2.660   3.033   7.613 -0.5781  0.0693 -0.8138
 9383SOL    HW239786   2.776   3.101   7.554  3.5970 -0.5928  1.5675
 9384SOL     OW39787   0.990   0.898   1.887  0.2988  0.2872 -0.1737
 9384SOL    HW139788   0.969   0.960   1.818  1.4813  0.6449 -0.2123
 9384SOL    HW239789   0.913   0.843   1.901  0.3214  1.0915  3.2414
 9385SOL     OW39790   3.726   2.067   6.903  0.0013 -0.3515  0.0776
 9385SOL    HW139791   3.739   2.111   6.819  2.2023  1.2124  1.2216
 9385SOL    HW239792   3.644   2.022   6.882  0.3955 -1.2585  0.5047
 9386SOL     OW39793   0.490   0.966   6.806  0.5197  0.2654  0.0941
 9386SOL    HW139794   0.566   0.982   6.861 -1.3521  1.3871  2.3637
 9386SOL    HW239795   0.515   0.892   6.750  4.3684  1.4599  0.2983
 9387SOL     OW39796   4.554   1.467   2.968  0.6549 -0.2666  0.1993
 9387SOL    HW139797   4.606   1.389   2.988  2.1957  0.8066  0.3740
 9387SOL    HW239798   4.486   1.455   3.034  2.4450 -1.5547  1.8442
 9388SOL     OW39799   2.423   2.501  17.685 -0.3494 -0.4622  0.0917
 9388SOL    HW139800   2.390   2.589  17.669  2.7441  0.4022 -1.4522
 9388SOL    HW239801   2.345   2.469  17.731 -0.7539 -0.9425 -0.9284
 9389SOL     OW39802   3.341   3.491   4.933  0.0409 -0.4866 -0.0914
 9389SOL    HW139803   3.336   3.447   5.018  1.5617 -0.0653  0.2240
 9389SOL    HW239804   3.249   3.506   4.913  0.2855  0.8039 -0.1964
 9390SOL     OW39805   1.506   3.575   7.587  0.5386 -0.2227 -0.8323
 9390SOL    HW139806   1.511   3.668   7.607  2.2109 -0.4604 -0.1538
 9390SOL    HW239807   1.593   3.549   7.616 -0.2592 -1.4690  0.4867
 9391SOL     OW39808   2.369   3.238   2.596 -0.0459 -0.0098  0.1343
 9391SOL    HW139809   2.369   3.178   2.670  0.5128 -0.0446  0.1057
 9391SOL    HW239810   2.315   3.185   2.537  0.6347 -0.9586  0.3783
 9392SOL     OW39811   4.185   4.445  15.035  0.5970  0.0747  0.4503
 9392SOL    HW139812   4.151   4.360  15.062 -1.8881  0.2328 -2.1226
 9392SOL    HW239813   4.242   4.461  15.110  2.2708  3.8363 -1.5900
 9393SOL     OW39814   2.601   0.824   3.471 -0.4131 -0.2777  0.5361
 9393SOL    HW139815   2.536   0.894   3.465  1.0922  1.1244  0.6704
 9393SOL    HW239816   2.672   0.885   3.488 -1.2264  0.9790 -0.6042
 9394SOL     OW39817   0.163   4.630   9.046  0.1857  0.3844  0.4909
 9394SOL    HW139818   0.075   4.654   9.018  0.0018 -1.4547 -0.5238
 9394SOL    HW239819   0.213   4.708   9.022 -3.0977  1.6051 -2.3830
 9395SOL     OW39820   2.687   1.819   5.203  0.2782 -0.4551  0.0792
 9395SOL    HW139821   2.605   1.770   5.195  0.2911 -0.1706 -1.8144
 9395SOL    HW239822   2.749   1.747   5.209  1.0584  0.4510  2.8788
 9396SOL     OW39823   2.213   0.820  14.958 -0.3972  0.2832  0.0480
 9396SOL    HW139824   2.290   0.782  14.915 -2.6299 -2.9026 -1.1761
 9396SOL    HW239825   2.138   0.777  14.916 -0.4005 -2.0029  2.4593
 9397SOL     OW39826   4.297   2.165   6.831  0.0812  0.5790  0.3134
 9397SOL    HW139827   4.359   2.092   6.835  0.4656  1.0479  2.8878
 9397SOL    HW239828   4.358   2.230   6.867  0.8124 -0.9075  1.7549
 9398SOL     OW39829   0.240   2.881   9.963  0.6371 -0.4851 -0.3357
 9398SOL    HW139830   0.194   2.799   9.980 -1.2986 -0.2683 -4.5343
 9398SOL    HW239831   0.173   2.944   9.990  1.3177 -0.9105  2.3482
 9399SOL     OW39832   1.632   3.916   4.200 -0.5386  0.0295  0.3792
 9399SOL    HW139833   1.589   3.836   4.231 -0.8904 -0.5465 -1.5612
 9399SOL    HW239834   1.657   3.893   4.110 -3.0754 -0.0724 -0.2878
 9400SOL     OW39835   0.169   4.248  17.432  0.5196 -0.1593 -0.9272
 9400SOL    HW139836   0.255   4.252  17.388  0.4642  1.3679 -0.8805
 9400SOL    HW239837   0.105   4.271  17.365  0.7949  0.8817 -0.8344
 9401SOL     OW39838   1.174   2.431   3.110  0.0741 -0.1600 -0.1054
 9401SOL    HW139839   1.214   2.377   3.178 -0.6190 -1.6976 -0.8987
 9401SOL    HW239840   1.114   2.369   3.067  1.8158 -1.6527 -0.4026
 9402SOL     OW39841   4.364   1.198  14.787 -0.0637 -0.2056  0.2298
 9402SOL    HW139842   4.389   1.273  14.842 -1.6119 -0.0762  0.7479
 9402SOL    HW239843   4.403   1.213  14.700 -1.0456  0.9270 -0.0144
 9403SOL     OW39844   1.243   4.356   5.042  0.3309 -0.3072 -0.0387
 9403SOL    HW139845   1.338   4.341   5.038  0.0601 -1.6129 -1.6300
 9403SOL    HW239846   1.227   4.383   4.952  1.0507 -1.1416 -0.4208
 9404SOL     OW39847   0.503   0.239  17.422  0.1829  0.2876  0.1736
 9404SOL    HW139848   0.515   0.246  17.517 -0.5097  2.5176  0.0839
 9404SOL    HW239849   0.410   0.260  17.423  0.4380  1.6975 -4.0831
 9405SOL     OW39850   3.511   1.551   6.922  0.1655 -0.8610 -0.7362
 9405SOL    HW139851   3.593   1.514   6.955  1.0584  0.8216 -1.1004
 9405SOL    HW239852   3.456   1.531   6.999 -0.3317 -1.2202 -1.1808
 9406SOL     OW39853   4.274   0.644   6.156  0.1290 -0.1233 -0.3845
 9406SOL    HW139854   4.288   0.733   6.189  0.8032 -0.2082 -0.4431
 9406SOL    HW239855   4.187   0.617   6.186  0.4234 -0.7302 -0.0872
 9407SOL     OW39856   1.850   0.534  12.958  0.4884 -0.2309  0.6070
 9407SOL    HW139857   1.849   0.572  12.870 -1.9782 -0.9137  0.3434
 9407SOL    HW239858   1.764   0.492  12.955  0.3457 -0.0438  2.5695
 9408SOL     OW39859   1.673   1.559  14.310 -0.5166 -0.4036  0.1158
 9408SOL    HW139860   1.578   1.553  14.320 -0.5188  2.0366  1.6545
 9408SOL    HW239861   1.696   1.501  14.238 -1.2678  1.1533 -1.3854
 9409SOL     OW39862   0.371   3.336   1.741  0.0100 -0.3636  0.3011
 9409SOL    HW139863   0.288   3.384   1.736 -0.4628 -1.0059  1.7681
 9409SOL    HW239864   0.430   3.380   1.680  0.1566 -1.8813 -0.6214
 9410SOL     OW39865   2.489   2.957  14.576  0.5605  0.5792  0.6868
 9410SOL    HW139866   2.501   2.865  14.556 -0.7024  0.0048  2.6227
 9410SOL    HW239867   2.566   2.998  14.535  0.1329  0.8745  0.1701
 9411SOL     OW39868   1.189   3.143   2.841  0.0667  0.1378  0.1619
 9411SOL    HW139869   1.149   3.228   2.821 -0.4845 -0.5446 -1.6362
 9411SOL    HW239870   1.113   3.089   2.864  0.2917  0.0886  0.7661
 9412SOL     OW39871   0.532   3.874  11.985  0.4778 -0.1110 -0.1274
 9412SOL    HW139872   0.590   3.938  12.027 -0.3223  1.1728 -0.9683
 9412SOL    HW239873   0.522   3.813  12.058 -2.6301 -0.6829 -1.0055
 9413SOL     OW39874   0.853   1.495   3.671 -0.2560  0.2683 -0.0550
 9413SOL    HW139875   0.833   1.588   3.661 -0.2354  0.3165  0.3625
 9413SOL    HW239876   0.898   1.483   3.754  0.1560 -0.7239 -0.4242
 9414SOL     OW39877   4.686   1.789   6.782 -0.1464  0.0323 -0.5533
 9414SOL    HW139878   0.044   1.795   6.770  0.0020  1.0037  1.0694
 9414SOL    HW239879   4.674   1.852   6.854  0.7569  0.5568 -0.8547
 9415SOL     OW39880   3.977   3.525   4.573 -0.4722 -0.7412 -1.0732
 9415SOL    HW139881   4.034   3.568   4.637 -1.8502 -0.8681  0.2207
 9415SOL    HW239882   3.918   3.470   4.623  0.4918  0.0665  0.9733
 9416SOL     OW39883   2.766   2.256   7.709 -0.1176 -0.2248  0.1499
 9416SOL    HW139884   2.854   2.271   7.745  0.5857 -2.0306 -0.8179
 9416SOL    HW239885   2.759   2.168   7.747 -0.1519 -0.8455 -1.2701
 9417SOL     OW39886   0.350   1.707   3.246  0.5225  0.0161 -0.2341
 9417SOL    HW139887   0.351   1.776   3.179 -0.8245 -0.7417 -1.0331
 9417SOL    HW239888   0.304   1.634   3.205  1.5933 -0.3122 -0.8670
 9418SOL     OW39889   4.696   2.663  14.759 -0.1020  0.3779 -0.2096
 9418SOL    HW139890   4.608   2.684  14.728 -0.8690 -2.3280  0.1791
 9418SOL    HW239891   4.671   2.592  14.817 -1.8637  1.2774  0.1387
 9419SOL     OW39892   0.187   0.714  10.116  0.0340  0.0374  0.4957
 9419SOL    HW139893   0.130   0.671  10.179 -0.8403  0.5253  0.0377
 9419SOL    HW239894   0.247   0.640  10.109  0.9966  0.9225 -0.7225
 9420SOL     OW39895   0.736   2.506  15.035  0.4944 -0.3708  0.2706
 9420SOL    HW139896   0.691   2.508  15.120  2.2554 -2.1570  1.2442
 9420SOL    HW239897   0.830   2.524  15.044  0.1813  1.3200  0.0701
 9421SOL     OW39898   3.708   2.246  15.594 -0.5015  0.4502 -0.0082
 9421SOL    HW139899   3.725   2.170  15.649  2.9781  1.6310  0.5296
 9421SOL    HW239900   3.792   2.264  15.552 -0.6362  0.5999 -0.2176
 9422SOL     OW39901   0.678   3.854   3.454  0.2981  0.0279 -0.4063
 9422SOL    HW139902   0.716   3.910   3.522 -2.6256  0.3373  0.9781
 9422SOL    HW239903   0.600   3.905   3.433 -1.0604 -2.2302 -0.9041
 9423SOL     OW39904   4.425   4.061  14.466  0.2356  0.2945 -0.2938
 9423SOL    HW139905   4.417   3.975  14.509  0.6784  1.7490  2.6909
 9423SOL    HW239906   4.434   4.031  14.376  0.4627  1.3733 -0.6281
 9424SOL     OW39907   3.837   4.229   4.328  0.1882 -0.4302 -0.0475
 9424SOL    HW139908   3.760   4.191   4.371 -0.6008  0.2965 -0.8236
 9424SOL    HW239909   3.793   4.294   4.274  1.1562  0.9232  0.7808
 9425SOL     OW39910   1.265   0.281   4.897  0.1742  0.3766  0.9024
 9425SOL    HW139911   1.346   0.299   4.849  0.1796  1.3503  1.2751
 9425SOL    HW239912   1.300   0.270   4.985  0.0671  3.1854  1.2846
 9426SOL     OW39913   0.836   3.294  12.078  0.5083  0.4430 -0.2885
 9426SOL    HW139914   0.763   3.235  12.096 -0.3702  1.7824  0.5372
 9426SOL    HW239915   0.892   3.284  12.155  0.1741  0.3688 -0.0542
 9427SOL     OW39916   3.291   3.567   3.449 -0.0128  0.2044 -0.3520
 9427SOL    HW139917   3.369   3.562   3.503  0.1500 -0.8770 -0.6873
 9427SOL    HW239918   3.335   3.564   3.364 -0.6717  0.8865 -0.7251
 9428SOL     OW39919   4.700   1.449   8.021  0.4963 -0.5596 -0.5787
 9428SOL    HW139920   4.655   1.448   8.105  1.0128  0.8795 -0.2880
 9428SOL    HW239921   4.621   1.450   7.967 -1.1082  0.7478  1.7762
 9429SOL     OW39922   3.780   1.235   7.885 -0.0503 -0.8915 -0.2143
 9429SOL    HW139923   3.802   1.151   7.846 -1.9217 -0.6766 -1.6953
 9429SOL    HW239924   3.741   1.276   7.808 -0.5797 -1.2862 -0.1525
 9430SOL     OW39925   3.149   0.860  10.006 -0.0517 -0.8223 -0.0985
 9430SOL    HW139926   3.184   0.920  10.072 -0.2520  1.1829 -1.8217
 9430SOL    HW239927   3.072   0.827  10.051 -1.2018 -0.4476 -1.8053
 9431SOL     OW39928   3.264   0.695   3.756  0.2048 -0.5598  0.1299
 9431SOL    HW139929   3.183   0.738   3.730 -0.5361 -4.2367 -3.6072
 9431SOL    HW239930   3.245   0.601   3.751 -1.4813 -0.0976 -1.9422
 9432SOL     OW39931   2.643   4.227   0.518 -0.3940 -0.6877 -0.2156
 9432SOL    HW139932   2.606   4.145   0.550  1.5637 -0.5370  2.4775
 9432SOL    HW239933   2.731   4.195   0.499 -0.4305 -2.0687  1.9398
 9433SOL     OW39934   4.468   1.411   7.846 -0.3740  0.0167  0.3501
 9433SOL    HW139935   4.386   1.459   7.834 -0.9013 -0.5599  1.5973
 9433SOL    HW239936   4.516   1.470   7.789  2.4667 -2.2129  0.4442
 9434SOL     OW39937   0.987   1.946   4.975 -0.1121 -0.1733  0.3237
 9434SOL    HW139938   0.988   1.991   5.059  0.1994  0.4601 -0.0184
 9434SOL    HW239939   1.053   2.005   4.938  0.6272 -1.2338 -0.0545
 9435SOL     OW39940   3.628   0.549   7.492 -0.4258 -0.4219 -0.1820
 9435SOL    HW139941   3.630   0.453   7.486  2.6275 -0.2661 -1.7154
 9435SOL    HW239942   3.660   0.573   7.405 -1.1612 -0.4818 -0.4703
 9436SOL     OW39943   2.955   2.437   3.354  0.3121 -0.5442 -0.1301
 9436SOL    HW139944   2.943   2.375   3.426 -3.5299  0.6784  0.3127
 9436SOL    HW239945   2.865   2.468   3.342  0.4106 -0.4901 -0.7043
 9437SOL     OW39946   3.612   0.765   1.201  0.2761 -0.1931 -0.2694
 9437SOL    HW139947   3.637   0.853   1.171  0.4615 -0.2152 -0.1789
 9437SOL    HW239948   3.693   0.727   1.235  0.0203 -0.6929 -0.2255
 9438SOL     OW39949   2.274   2.605   4.701  0.1727  0.2210 -0.4890
 9438SOL    HW139950   2.253   2.607   4.795  0.1895 -0.8605 -0.4653
 9438SOL    HW239951   2.259   2.696   4.676  0.6202  0.1096 -1.1615
 9439SOL     OW39952   2.304   1.566   4.072  0.0066  0.1227  0.2051
 9439SOL    HW139953   2.308   1.591   3.980  0.5193  1.3548  0.5561
 9439SOL    HW239954   2.237   1.631   4.097 -0.0814 -0.2955  1.0470
 9440SOL     OW39955   2.620   0.063   4.534 -0.0102  0.3383 -0.4409
 9440SOL    HW139956   2.583   0.090   4.618  1.5144  1.2079 -0.0663
 9440SOL    HW239957   2.630   0.150   4.495  1.2814  0.0752 -0.6802
 9441SOL     OW39958   4.212   1.317  10.509  0.1202 -0.3887  0.1701
 9441SOL    HW139959   4.273   1.246  10.532  0.7032 -0.2141 -0.8181
 9441SOL    HW239960   4.227   1.381  10.578 -0.1789 -0.8330  0.6449
 9442SOL     OW39961   2.233   1.449   5.956 -0.5023 -0.0516  0.4335
 9442SOL    HW139962   2.217   1.533   5.913  1.8876 -0.1934 -0.7313
 9442SOL    HW239963   2.183   1.457   6.037  0.4555 -1.6292  1.1655
 9443SOL     OW39964   3.598   0.372   8.215 -0.0475 -0.3943 -0.3826
 9443SOL    HW139965   3.602   0.305   8.283  0.1842  0.2178  0.2134
 9443SOL    HW239966   3.648   0.335   8.142  2.6926  1.4479  0.5410
 9444SOL     OW39967   4.212   2.411   4.605  0.5278  0.1305  0.1483
 9444SOL    HW139968   4.200   2.447   4.693  2.7295 -2.2120  1.3875
 9444SOL    HW239969   4.122   2.424   4.572 -0.6494 -0.9623  2.9399
 9445SOL     OW39970   0.604   4.456   4.093 -0.2282 -0.5207 -0.8030
 9445SOL    HW139971   0.508   4.460   4.090 -0.1983  2.1147  0.9568
 9445SOL    HW239972   0.614   4.480   4.186  0.3577  0.1800 -1.0494
 9446SOL     OW39973   1.362   0.582   2.181  0.7246 -0.8573  0.2095
 9446SOL    HW139974   1.391   0.492   2.172  0.1971 -0.9716 -0.3553
 9446SOL    HW239975   1.379   0.592   2.275  2.2412 -1.0792 -0.0367
 9447SOL     OW39976   1.829   2.390   2.075 -1.1940  0.1818  0.1913
 9447SOL    HW139977   1.782   2.455   2.128  1.4033  0.6980  1.8570
 9447SOL    HW239978   1.804   2.310   2.122  0.2720 -0.6014 -0.3542
 9448SOL     OW39979   1.681   2.729   5.985 -0.1735  0.1937  0.3715
 9448SOL    HW139980   1.776   2.735   5.971 -0.6204 -0.1221 -2.8816
 9448SOL    HW239981   1.673   2.634   5.986  0.4625  0.1553  1.6998
 9449SOL     OW39982   3.424   1.001  11.299  0.3018  0.5694 -0.0790
 9449SOL    HW139983   3.489   1.018  11.367  0.0194 -1.4529  0.6861
 9449SOL    HW239984   3.440   1.076  11.240  2.0235  0.6061  0.4220
 9450SOL     OW39985   3.491   1.262  11.150  0.0470 -0.0988  0.3807
 9450SOL    HW139986   3.508   1.338  11.205 -0.8978 -1.4719  2.5616
 9450SOL    HW239987   3.438   1.298  11.080  1.6879  0.8821 -0.3745
 9451SOL     OW39988   4.415   1.822   6.768 -0.2212  0.0178  0.0838
 9451SOL    HW139989   4.411   1.867   6.683  0.2699  0.8781  0.5175
 9451SOL    HW239990   4.507   1.835   6.789 -0.1671  0.2795 -0.3230
 9452SOL     OW39991   4.566   1.753   0.532 -0.1029  0.1427 -0.0055
 9452SOL    HW139992   4.554   1.674   0.479  1.9713  0.8987 -1.6127
 9452SOL    HW239993   4.552   1.812   0.458  0.5507 -0.5738 -0.7075
 9453SOL     OW39994   0.819   3.640   3.946 -0.3405 -0.0542 -0.0961
 9453SOL    HW139995   0.785   3.552   3.957 -0.3321  0.1382  1.4662
 9453SOL    HW239996   0.913   3.646   3.964  0.1626  0.2676 -2.8927
 9454SOL     OW39997   0.769   3.656  12.634 -0.3125  0.9318  0.2625
 9454SOL    HW139998   0.834   3.645  12.564 -0.3634 -0.1595  0.3775
 9454SOL    HW239999   0.821   3.660  12.714  3.4768  0.6118 -2.1678
 9455SOL     OW40000   3.282   0.601   7.172  0.2497 -0.0980 -0.0115
 9455SOL    HW140001   3.201   0.607   7.122  0.2389 -1.2737 -0.1252
 9455SOL    HW240002   3.334   0.652   7.109 -0.8321  1.8779  0.6731
 9456SOL     OW40003   4.394   3.852   7.551 -0.0845  0.3301  0.2865
 9456SOL    HW140004   4.478   3.878   7.512 -0.5338 -1.5582 -1.9176
 9456SOL    HW240005   4.413   3.886   7.639 -0.0523  0.5489  0.1944
 9457SOL     OW40006   3.003   1.076  13.350 -0.4947 -0.4549 -0.0057
 9457SOL    HW140007   3.083   1.034  13.381  0.1018  0.2005 -0.6761
 9457SOL    HW240008   2.959   1.002  13.309 -2.6547  1.2797 -0.8341
 9458SOL     OW40009   2.827   4.360   3.509 -0.3705 -0.4287  0.0756
 9458SOL    HW140010   2.776   4.438   3.527 -0.0826 -0.4971  1.2026
 9458SOL    HW240011   2.813   4.362   3.415  0.2756 -1.7253 -0.0544
 9459SOL     OW40012   1.933   3.472  10.972 -0.5412 -0.3229  0.3294
 9459SOL    HW140013   1.952   3.466  10.879 -2.5559  0.8184 -0.1434
 9459SOL    HW240014   1.900   3.384  10.992 -0.6786  0.3704  3.2239
 9460SOL     OW40015   4.441   1.523  17.053 -0.1460 -0.1244 -0.2410
 9460SOL    HW140016   4.529   1.525  17.015 -0.4881  0.3008 -1.0052
 9460SOL    HW240017   4.416   1.434  17.028 -1.2982  0.6450 -1.8391
 9461SOL     OW40018   2.291   2.546   0.548  0.5455 -0.5776  0.6837
 9461SOL    HW140019   2.226   2.476   0.558 -0.3158 -0.0418 -1.2274
 9461SOL    HW240020   2.366   2.496   0.518  0.1918 -0.1259 -0.9246
 9462SOL     OW40021   2.450   0.151   7.739 -0.2675 -0.4692 -0.6016
 9462SOL    HW140022   2.442   0.172   7.832 -0.8053 -0.1472 -0.7227
 9462SOL    HW240023   2.529   0.096   7.734  0.0085 -0.1070 -0.2473
 9463SOL     OW40024   2.334   2.397  11.563 -0.1144  0.4933  0.6696
 9463SOL    HW140025   2.325   2.491  11.551 -0.9506  0.2154 -0.8865
 9463SOL    HW240026   2.257   2.385  11.619 -0.4605  0.9562  0.2820
 9464SOL     OW40027   3.127   1.353   9.252  0.2803 -0.2301 -0.1182
 9464SOL    HW140028   3.211   1.361   9.207 -0.4438 -1.4164 -1.6980
 9464SOL    HW240029   3.154   1.393   9.334 -1.1349  2.5553 -1.0167
 9465SOL     OW40030   3.328   0.600   6.325  0.1188  0.0881  0.2314
 9465SOL    HW140031   3.234   0.598   6.346  0.0406  1.2509 -0.0168
 9465SOL    HW240032   3.330   0.561   6.237 -1.2524 -0.0367  0.2501
 9466SOL     OW40033   2.508   0.280   3.640 -0.1630 -0.3796  0.8194
 9466SOL    HW140034   2.503   0.268   3.545  4.1476  1.9755  0.3134
 9466SOL    HW240035   2.577   0.346   3.637  0.0106 -0.7157 -2.5201
 9467SOL     OW40036   2.575   2.477   5.342  0.0512  0.0481 -0.0111
 9467SOL    HW140037   2.492   2.431   5.331 -0.6208  1.3056 -0.1435
 9467SOL    HW240038   2.614   2.397   5.376 -3.9669 -2.8294 -2.1016
 9468SOL     OW40039   0.198   3.654   2.197 -0.2905 -0.0962 -0.1237
 9468SOL    HW140040   0.161   3.717   2.136 -1.3798 -0.2271  0.4197
 9468SOL    HW240041   0.191   3.697   2.282  1.8625 -0.8811  0.4650
 9469SOL     OW40042   0.028   0.999  12.223 -0.5381 -0.2564 -0.4455
 9469SOL    HW140043   0.106   1.038  12.262 -1.8562  1.6098  0.3341
 9469SOL    HW240044   0.037   0.910  12.256  2.8724  0.0510 -0.6227
 9470SOL     OW40045   3.248   0.831   6.506  0.2986  0.0654  0.4751
 9470SOL    HW140046   3.277   0.774   6.435  0.1005  1.6428 -0.8620
 9470SOL    HW240047   3.154   0.823   6.497  0.2044  1.3580  0.2622
 9471SOL     OW40048   0.115   0.705  13.013 -0.2120  0.0823  0.0086
 9471SOL    HW140049   0.209   0.703  12.993  0.0623 -1.1110  1.4265
 9471SOL    HW240050   0.073   0.621  12.995 -1.8471  1.2446 -1.4924
 9472SOL     OW40051   1.232   1.760  11.726 -0.2213 -0.3575 -0.0102
 9472SOL    HW140052   1.179   1.700  11.673  0.8708 -1.5122  0.2161
 9472SOL    HW240053   1.318   1.727  11.700 -0.1427 -1.5351  1.7660
 9473SOL     OW40054   2.833   1.619   7.411  0.0358  0.1560 -0.2643
 9473SOL    HW140055   2.917   1.659   7.433  0.9653 -1.2538 -1.2551
 9473SOL    HW240056   2.826   1.656   7.323  4.9777 -0.2657 -0.8477
 9474SOL     OW40057   2.122   0.469  12.895 -0.1118  0.4719  0.3770
 9474SOL    HW140058   2.108   0.531  12.823  0.8334  0.5396  0.2544
 9474SOL    HW240059   2.041   0.478  12.944 -1.5836  2.0613 -2.3662
 9475SOL     OW40060   2.987   0.855   8.809 -0.1692 -0.4475 -0.1750
 9475SOL    HW140061   3.024   0.934   8.848  0.9015 -1.9523  1.9011
 9475SOL    HW240062   2.955   0.814   8.890  1.0240  1.4867  1.2754
 9476SOL     OW40063   0.841   3.835   8.733 -0.3279  0.2535 -0.3840
 9476SOL    HW140064   0.852   3.816   8.826 -1.4321  0.8269 -0.1261
 9476SOL    HW240065   0.752   3.803   8.718 -0.2712  0.7233 -1.7980
 9477SOL     OW40066   4.383   1.805   6.454 -0.2252 -0.3739 -0.3034
 9477SOL    HW140067   4.338   1.725   6.481  0.0852 -0.6453 -0.6008
 9477SOL    HW240068   4.373   1.795   6.360 -1.6140 -1.7486 -0.0158
 9478SOL     OW40069   1.363   1.311   4.478  0.1957  0.4043  0.3516
 9478SOL    HW140070   1.333   1.399   4.500  1.0200  0.9115 -0.5435
 9478SOL    HW240071   1.302   1.298   4.405 -1.3692 -0.8734  1.8950
 9479SOL     OW40072   1.861   0.856   3.718 -0.0226  0.6066 -0.1599
 9479SOL    HW140073   1.890   0.947   3.723  3.0234 -0.2742 -1.7411
 9479SOL    HW240074   1.926   0.822   3.657  0.3882  0.8789  0.1307
 9480SOL     OW40075   2.829   3.220   4.383  0.3866  0.0427  0.0655
 9480SOL    HW140076   2.769   3.287   4.351  3.0600  1.7894 -1.2742
 9480SOL    HW240077   2.774   3.143   4.379  0.2541  0.0685  1.3330
 9481SOL     OW40078   1.010   2.984  12.772  0.5400 -0.3140 -0.1385
 9481SOL    HW140079   1.051   3.063  12.735  1.3187 -1.4122 -1.5869
 9481SOL    HW240080   1.084   2.925  12.758  0.5732 -0.7783  2.0118
 9482SOL     OW40081   3.917   0.200  15.977 -0.2760 -0.1407  0.4186
 9482SOL    HW140082   3.876   0.130  16.028 -0.6318 -0.4812 -0.3309
 9482SOL    HW240083   3.872   0.280  16.004 -0.1390  0.1580 -0.2335
 9483SOL     OW40084   3.822   3.010   2.640  0.2846  0.0462  0.4473
 9483SOL    HW140085   3.858   2.933   2.684 -0.9580 -0.9995 -0.3637
 9483SOL    HW240086   3.890   3.039   2.580  0.2854 -0.2452  0.3094
 9484SOL     OW40087   1.272   1.007   8.436  0.2620 -0.0389  0.1019
 9484SOL    HW140088   1.365   0.996   8.459  0.4011 -0.3627 -0.6365
 9484SOL    HW240089   1.265   0.954   8.357  1.6355 -0.5392  0.3187
 9485SOL     OW40090   2.524   1.049   3.208 -0.1476  0.1505  0.3790
 9485SOL    HW140091   2.506   1.067   3.300 -0.4642  1.2625  0.1000
 9485SOL    HW240092   2.449   0.994   3.185  0.5170 -0.7501  0.3625
 9486SOL     OW40093   3.038   1.703   7.995  1.2699  0.0727 -0.3969
 9486SOL    HW140094   3.120   1.683   8.040  1.1935  0.9813  0.1385
 9486SOL    HW240095   2.994   1.618   7.998 -1.0363  1.4174  3.4574
 9487SOL     OW40096   1.035   0.732  14.761  0.6866 -0.4677  0.8581
 9487SOL    HW140097   0.990   0.659  14.803  0.7102 -1.9247 -1.7163
 9487SOL    HW240098   0.973   0.768  14.699  0.0906 -0.1168  1.6522
 9488SOL     OW40099   2.453   4.361  10.213 -0.0344 -0.2571  0.0298
 9488SOL    HW140100   2.460   4.452  10.241 -0.3774 -0.5202  0.9495
 9488SOL    HW240101   2.417   4.324  10.293 -0.7180  1.7000  0.6083
 9489SOL     OW40102   2.178   1.574   9.621  0.2578  0.2872  0.5043
 9489SOL    HW140103   2.123   1.597   9.696  0.8707  1.2358  0.6581
 9489SOL    HW240104   2.254   1.538   9.668  1.5122  1.6910 -0.4632
 9490SOL     OW40105   4.001   4.467   5.845 -0.6300 -0.3077  0.0948
 9490SOL    HW140106   4.022   4.560   5.833  0.7819 -0.3984  1.8794
 9490SOL    HW240107   4.031   4.439   5.758 -3.4931  1.3612 -1.4232
 9491SOL     OW40108   0.776   3.657   9.212  0.0833 -0.0847 -0.4232
 9491SOL    HW140109   0.745   3.731   9.265 -1.6101 -0.4809 -0.8574
 9491SOL    HW240110   0.703   3.627   9.159 -0.3614 -0.8857  0.6359
 9492SOL     OW40111   0.931   0.173  12.829 -0.0482 -0.1070  0.0135
 9492SOL    HW140112   0.903   0.138  12.745 -2.5051 -0.3427  0.9266
 9492SOL    HW240113   0.907   0.265  12.818 -1.7980 -0.6891 -1.0934
 9493SOL     OW40114   0.579   1.107   9.528  0.4617 -0.6380 -0.4619
 9493SOL    HW140115   0.593   1.202   9.527  0.1245 -0.5559  2.5432
 9493SOL    HW240116   0.669   1.078   9.518  1.6007  2.2425  1.5258
 9494SOL     OW40117   2.931   0.790   1.933 -0.0521  0.3403 -0.6023
 9494SOL    HW140118   2.937   0.886   1.940  1.2570  0.1791  0.5564
 9494SOL    HW240119   2.838   0.771   1.931 -0.2183  1.1830 -1.0658
 9495SOL     OW40120   3.511   0.219   6.070  0.0698 -0.4011 -0.8297
 9495SOL    HW140121   3.554   0.270   6.140 -0.5110 -1.4331  0.2875
 9495SOL    HW240122   3.565   0.238   5.993  1.6868  2.2910  0.9308
 9496SOL     OW40123   1.318   1.986  14.135  0.2294 -0.1704  0.5461
 9496SOL    HW140124   1.345   2.016  14.222 -0.5889  0.2610  0.6554
 9496SOL    HW240125   1.399   1.944  14.106 -0.5763 -2.0630  1.0859
 9497SOL     OW40126   1.659   1.198   2.748 -0.0723  0.3388  0.2939
 9497SOL    HW140127   1.579   1.244   2.723 -0.2534 -0.9325 -1.4332
 9497SOL    HW240128   1.709   1.196   2.666  0.0280 -2.6179  0.4262
 9498SOL     OW40129   2.323   4.246  12.399 -0.4287 -0.3356 -0.4831
 9498SOL    HW140130   2.267   4.298  12.456  1.9543  0.7989  0.8294
 9498SOL    HW240131   2.398   4.303  12.380 -0.2032 -0.0551  1.2615
 9499SOL     OW40132   3.087   1.471   2.316  0.2686 -0.1928  0.3177
 9499SOL    HW140133   3.144   1.548   2.317 -0.3542  0.2389  2.4742
 9499SOL    HW240134   3.057   1.477   2.225  1.4835 -1.9266 -0.1984
 9500SOL     OW40135   2.893   1.065   6.110  0.0122 -0.4406 -0.0544
 9500SOL    HW140136   2.980   1.073   6.151  0.2620 -0.4619 -0.5843
 9500SOL    HW240137   2.839   1.092   6.184  0.1418 -1.0741  0.2683
 9501SOL     OW40138   0.025   4.092   5.071 -0.0244  0.2839  0.4846
 9501SOL    HW140139   0.085   4.160   5.100 -1.1973  0.7853  1.7274
 9501SOL    HW240140   4.729   4.048   5.149  1.5364  0.8598  1.4788
 9502SOL     OW40141   0.047   2.910   1.394 -0.1506  0.0864 -0.2318
 9502SOL    HW140142   0.103   2.956   1.457  0.7108 -0.4031 -0.6528
 9502SOL    HW240143   0.103   2.849   1.346 -0.4187 -0.8771  0.6782
 9503SOL     OW40144   4.184   2.344   5.648 -0.2033 -0.0006  0.0961
 9503SOL    HW140145   4.228   2.260   5.653 -0.9312 -0.2812  1.4653
 9503SOL    HW240146   4.222   2.392   5.721 -0.7539  2.2560 -1.0894
 9504SOL     OW40147   4.683   1.351  14.487  0.1362 -0.2214 -0.0263
 9504SOL    HW140148   4.725   1.356  14.401 -0.6212 -1.4758 -0.4735
 9504SOL    HW240149   4.623   1.279  14.464 -0.3872  0.3271 -0.3716
 9505SOL     OW40150   2.845   3.299  16.975 -0.3000 -0.1718  0.0358
 9505SOL    HW140151   2.754   3.288  17.002  0.5584 -0.6021  2.7762
 9505SOL    HW240152   2.838   3.380  16.924 -2.9628 -0.7655 -0.5264
 9506SOL     OW40153   3.640   4.440   9.113 -0.4855 -0.0381  0.2173
 9506SOL    HW140154   3.659   4.398   9.197  2.7118 -2.4113 -1.6907
 9506SOL    HW240155   3.726   4.441   9.071  0.2984 -1.8630  1.8209
 9507SOL     OW40156   2.178   3.046   4.154  0.3051  0.1749 -0.0496
 9507SOL    HW140157   2.100   2.996   4.132  2.0169 -1.9459 -1.4206
 9507SOL    HW240158   2.160   3.125   4.103 -0.2752  0.5969  0.8230
 9508SOL     OW40159   4.537   1.021   0.288 -0.3126  0.1913 -0.1579
 9508SOL    HW140160   4.608   1.020   0.224 -0.4041 -1.2485 -0.2323
 9508SOL    HW240161   4.489   0.944   0.259  0.4681 -0.5123  0.4309
 9509SOL     OW40162   1.883   4.361   2.263  0.2262 -0.6680 -0.2560
 9509SOL    HW140163   1.977   4.377   2.278  0.1956  0.6227 -1.4110
 9509SOL    HW240164   1.884   4.334   2.171 -0.4487  1.2097 -0.8105
 9510SOL     OW40165   1.636   0.842   9.405  0.3129 -0.2372  0.3224
 9510SOL    HW140166   1.704   0.835   9.472 -0.2778  1.4980  1.1069
 9510SOL    HW240167   1.579   0.911   9.438  2.4241  2.1452 -0.9494
 9511SOL     OW40168   1.614   0.330   6.159 -0.1941  0.3192 -0.0540
 9511SOL    HW140169   1.575   0.386   6.091 -0.5697  0.3891  0.2213
 9511SOL    HW240170   1.603   0.242   6.123 -0.8213  0.2562  0.2943
 9512SOL     OW40171   1.087   1.964   6.036  0.0765 -0.0506  0.3042
 9512SOL    HW140172   1.088   2.023   5.961  2.5515 -0.5201 -0.0422
 9512SOL    HW240173   1.051   2.025   6.101  0.4502 -1.6465  2.0271
 9513SOL     OW40174   4.574   2.553   5.645  0.2089  0.4798 -0.2370
 9513SOL    HW140175   4.544   2.606   5.719  0.3699  2.3815 -1.5193
 9513SOL    HW240176   4.662   2.590   5.640  0.2877  0.6041  1.9703
 9514SOL     OW40177   2.146   4.275   2.513  0.2373  0.2861 -0.1618
 9514SOL    HW140178   2.111   4.360   2.485  0.4184  1.3362  2.7982
 9514SOL    HW240179   2.198   4.257   2.435 -1.0357  0.3427 -1.0225
 9515SOL     OW40180   4.093   2.470  16.113 -0.0533  0.0066 -0.3056
 9515SOL    HW140181   4.123   2.382  16.135 -2.7257 -0.6747  0.6314
 9515SOL    HW240182   4.129   2.518  16.188  2.6840 -0.6128 -1.2181
 9516SOL     OW40183   3.217   1.980   3.958 -0.4764 -0.5898  0.4380
 9516SOL    HW140184   3.269   2.056   3.933  0.4598 -0.7629  1.8548
 9516SOL    HW240185   3.268   1.940   4.028  1.1709 -0.2812 -0.6007
 9517SOL     OW40186   3.613   1.780   1.705  0.9244  0.0303 -0.0152
 9517SOL    HW140187   3.545   1.726   1.745  0.0229  0.1963 -1.3263
 9517SOL    HW240188   3.566   1.824   1.633 -2.3091 -0.8654  1.5543
 9518SOL     OW40189   3.312   0.872   3.496  0.2814 -0.1021 -0.2318
 9518SOL    HW140190   3.336   0.895   3.586  0.9773 -0.7374 -0.2575
 9518SOL    HW240191   3.350   0.945   3.446 -1.9356  1.0832 -0.1730
 9519SOL     OW40192   1.831   1.695   9.338  0.4061 -0.8725 -0.4291
 9519SOL    HW140193   1.753   1.746   9.316  0.9307 -0.1965 -0.7269
 9519SOL    HW240194   1.888   1.749   9.393  0.8844 -0.1472 -1.6347
 9520SOL     OW40195   0.301   3.321  12.524 -0.0843 -0.8058  0.2100
 9520SOL    HW140196   0.232   3.254  12.523 -0.7715 -0.0750 -1.1790
 9520SOL    HW240197   0.260   3.373  12.456  1.2055  1.6988  1.3388
 9521SOL     OW40198   0.063   1.184  11.635  0.1059 -0.0467 -0.2075
 9521SOL    HW140199   0.149   1.143  11.626  0.5277  1.0818 -1.2482
 9521SOL    HW240200   0.069   1.270  11.592  0.9791 -1.0882 -2.1617
 9522SOL     OW40201   1.495   2.130   8.629 -0.1447 -0.0187  0.4223
 9522SOL    HW140202   1.541   2.210   8.606 -1.7350  0.9691  0.6280
 9522SOL    HW240203   1.408   2.133   8.588  0.1809 -1.1900 -0.3403
 9523SOL     OW40204   2.753   2.073   8.799 -0.8517 -0.1026  0.2888
 9523SOL    HW140205   2.756   2.144   8.862  2.4066  0.3740 -0.4142
 9523SOL    HW240206   2.716   2.008   8.858 -0.7752 -0.0575  0.3856
 9524SOL     OW40207   1.280   0.626   8.106  0.0772  0.2853 -0.1150
 9524SOL    HW140208   1.279   0.551   8.166  4.0350  0.1773 -0.1866
 9524SOL    HW240209   1.240   0.688   8.167 -0.1475 -0.4098  0.4557
 9525SOL     OW40210   0.205   2.972   9.340  0.0172  0.0759  0.0429
 9525SOL    HW140211   0.174   2.885   9.367 -1.3905  0.6163  0.1542
 9525SOL    HW240212   0.162   2.980   9.255 -1.5256 -0.7742  0.7313
 9526SOL     OW40213   0.357   4.622   1.656 -0.3224  0.2723  0.1672
 9526SOL    HW140214   0.442   4.656   1.685 -0.3604  0.0624  0.5173
 9526SOL    HW240215   0.306   4.695   1.621  1.5805  0.5015 -2.1191
 9527SOL     OW40216   2.709   4.717  13.707  0.0566 -0.2440  0.1763
 9527SOL    HW140217   2.689   0.059  13.756  0.1324  0.1907 -0.4928
 9527SOL    HW240218   2.686   0.006  13.618 -2.3593  0.7753  1.1236
 9528SOL     OW40219   2.894   3.066   0.835  0.1751 -0.4026  0.2778
 9528SOL    HW140220   2.928   3.079   0.746 -2.5443  1.4721 -0.4762
 9528SOL    HW240221   2.870   3.157   0.852  0.5675 -0.1226 -0.6674
 9529SOL     OW40222   0.618   3.973   6.058 -1.2191 -0.6478 -0.2948
 9529SOL    HW140223   0.639   4.037   6.126 -0.4273 -1.2296  0.0050
 9529SOL    HW240224   0.708   3.945   6.040 -1.0073  1.3548 -2.3860
 9530SOL     OW40225   2.667   1.048   9.407  0.3373 -0.4301  0.1312
 9530SOL    HW140226   2.634   1.010   9.326  0.8555 -0.5806 -0.0108
 9530SOL    HW240227   2.685   0.968   9.457  0.1255  0.3939  1.5401
 9531SOL     OW40228   3.726   3.278   7.002  0.2331 -0.4914  0.1913
 9531SOL    HW140229   3.683   3.364   6.996  0.7381 -0.1668  1.2164
 9531SOL    HW240230   3.672   3.219   6.950 -0.1389  0.9436 -1.0696
 9532SOL     OW40231   1.169   1.462   9.684  0.8188 -0.0162 -0.3460
 9532SOL    HW140232   1.114   1.536   9.658 -3.1270 -2.1552  1.8979
 9532SOL    HW240233   1.144   1.461   9.776  0.3662  1.3518 -0.4522
 9533SOL     OW40234   3.758   0.020   5.795 -0.1716 -0.1095 -0.1140
 9533SOL    HW140235   3.742   4.700   5.720 -0.1970 -1.2986  0.7930
 9533SOL    HW240236   3.852   0.006   5.805 -0.1796  1.5849  2.1288
 9534SOL     OW40237   0.417   3.737  15.901  0.2140 -0.3193  0.0801
 9534SOL    HW140238   0.352   3.687  15.851  2.7157 -0.4748 -2.9805
 9534SOL    HW240239   0.390   3.706  15.988  1.2586  0.9678  0.8639
 9535SOL     OW40240   0.617   1.356   9.402 -0.4247 -1.1577  0.2630
 9535SOL    HW140241   0.614   1.299   9.325 -0.5642 -1.5399  0.5545
 9535SOL    HW240242   0.709   1.364   9.427  0.0796 -0.2384 -1.8465
 9536SOL     OW40243   0.823   1.271   1.907  0.0741 -0.1947  0.0188
 9536SOL    HW140244   0.893   1.305   1.853 -0.9742  0.2649 -1.0477
 9536SOL    HW240245   0.845   1.298   1.996  2.8653  0.2399 -0.8162
 9537SOL     OW40246   1.762   3.936   2.906 -0.2811 -0.4374 -0.1477
 9537SOL    HW140247   1.770   4.007   2.971 -1.5720 -0.2763 -0.1753
 9537SOL    HW240248   1.804   3.981   2.832 -1.8769  0.9435 -0.2159
 9538SOL     OW40249   2.144   2.310  14.988 -0.0200 -0.0063 -0.5243
 9538SOL    HW140250   2.170   2.382  15.045  0.9473 -0.9409  0.2334
 9538SOL    HW240251   2.199   2.241  15.026  0.2823  0.5094 -0.0236
 9539SOL     OW40252   1.124   1.800  16.966 -0.4006 -0.4930 -0.2311
 9539SOL    HW140253   1.068   1.725  16.948 -2.9749  0.8826  1.8561
 9539SOL    HW240254   1.150   1.770  17.054  1.5350  0.1963 -0.5685
 9540SOL     OW40255   0.973   4.289   2.053 -0.4146  0.0488  0.2114
 9540SOL    HW140256   0.892   4.332   2.025 -0.6156 -0.9196 -0.6736
 9540SOL    HW240257   0.937   4.202   2.068 -1.3608  0.9328  2.9630
 9541SOL     OW40258   1.393   4.371   2.273  0.1363  0.3279  0.4139
 9541SOL    HW140259   1.482   4.386   2.242  1.0822 -1.4376  2.3276
 9541SOL    HW240260   1.368   4.452   2.317  1.0461  0.6015  0.4087
 9542SOL     OW40261   0.881   4.646   5.343  0.6203  0.2244  0.3640
 9542SOL    HW140262   0.896   4.627   5.250  1.0258 -1.2451  0.7326
 9542SOL    HW240263   0.972   4.661   5.369  0.4477  2.7441 -0.4437
 9543SOL     OW40264   3.082   3.209   7.692 -0.1594  0.2227 -0.5246
 9543SOL    HW140265   3.160   3.240   7.646 -0.1903 -0.0542 -0.7593
 9543SOL    HW240266   3.013   3.276   7.684  0.5782  1.2945  1.8920
 9544SOL     OW40267   2.137   2.027   4.185  0.0812 -0.4558  0.7523
 9544SOL    HW140268   2.042   2.037   4.180  0.0143 -2.5478 -2.2168
 9544SOL    HW240269   2.155   2.088   4.257 -0.5562 -0.2002  0.6967
 9545SOL     OW40270   4.501   4.208   3.793  0.5381 -0.6017  0.3787
 9545SOL    HW140271   4.418   4.190   3.749  2.8112 -2.5400 -3.0948
 9545SOL    HW240272   4.541   4.262   3.726  1.0624 -2.1418 -0.5520
 9546SOL     OW40273   2.395   1.297   7.562  0.1922 -0.1693 -0.1157
 9546SOL    HW140274   2.417   1.330   7.649 -4.1098  0.9206  0.5621
 9546SOL    HW240275   2.355   1.211   7.575  0.7473 -0.4131  0.0155
 9547SOL     OW40276   0.783   0.014  15.209 -0.0180  0.0029 -0.4311
 9547SOL    HW140277   0.869   4.736  15.249  0.3420  3.0023 -0.0672
 9547SOL    HW240278   0.735   0.026  15.290  0.6352  0.0494 -0.0502
 9548SOL     OW40279   3.372   4.198   4.551  0.3878 -0.2387  0.4128
 9548SOL    HW140280   3.312   4.137   4.508  1.4361 -0.4752 -0.6897
 9548SOL    HW240281   3.307   4.253   4.596  0.2054  0.7638 -1.1066
 9549SOL     OW40282   3.393   4.332   8.209 -0.3437  0.9075 -0.3060
 9549SOL    HW140283   3.474   4.298   8.247 -0.1227 -0.8844 -2.3719
 9549SOL    HW240284   3.319   4.283   8.245  0.5449 -0.2140 -0.0025
 9550SOL     OW40285   1.140   3.051   6.203  0.4743  0.4448  0.3480
 9550SOL    HW140286   1.142   3.145   6.185 -1.6652  0.0021 -2.2204
 9550SOL    HW240287   1.231   3.029   6.183  0.1162  0.0031 -0.8057
 9551SOL     OW40288   3.094   3.928   4.562  0.1102 -0.5704  0.1222
 9551SOL    HW140289   3.135   3.842   4.562  0.3691 -0.4691  2.5368
 9551SOL    HW240290   3.000   3.909   4.563 -0.0713  0.3031 -0.5228
 9552SOL     OW40291   1.854   4.679   1.031 -0.2492  0.0040  0.2585
 9552SOL    HW140292   1.862   0.030   1.069 -1.1108  0.4926 -0.6785
 9552SOL    HW240293   1.902   4.705   0.952 -0.8712 -1.6418 -0.6425
 9553SOL     OW40294   3.841   3.459   7.445  0.1841 -0.1407  0.3377
 9553SOL    HW140295   3.771   3.462   7.380  0.8907  0.3197 -0.3979
 9553SOL    HW240296   3.918   3.489   7.397 -0.5850 -0.0892 -0.8458
 9554SOL     OW40297   1.934   4.534   1.683 -0.0425 -0.8715 -0.0217
 9554SOL    HW140298   1.851   4.508   1.723  0.5548 -2.9164 -0.0740
 9554SOL    HW240299   1.951   4.462   1.622  0.5158 -1.0601  0.3669
 9555SOL     OW40300   0.488   4.187  13.753  1.0669  0.3488 -0.7077
 9555SOL    HW140301   0.483   4.166  13.659 -1.9368 -1.2214 -0.2017
 9555SOL    HW240302   0.452   4.110  13.797  1.6783  0.2796 -0.3267
 9556SOL     OW40303   3.698   0.204  10.306 -0.0208 -0.2224  0.4566
 9556SOL    HW140304   3.690   0.161  10.391  1.1340  0.6093  0.9862
 9556SOL    HW240305   3.608   0.195  10.273 -0.2445  1.1420  0.7377
 9557SOL     OW40306   3.641   3.882   7.321  0.2473 -0.1716  0.0192
 9557SOL    HW140307   3.620   3.831   7.399 -1.7025 -1.1336 -1.1381
 9557SOL    HW240308   3.692   3.818   7.271  1.5578  0.8315  0.0423
 9558SOL     OW40309   2.496   1.786   9.786  0.3703 -0.0509  0.3511
 9558SOL    HW140310   2.551   1.709   9.777 -0.3015 -0.4100 -0.5963
 9558SOL    HW240311   2.559   1.835   9.840  1.5094 -0.3016 -0.7562
 9559SOL     OW40312   2.392   2.199   9.880 -0.3605 -0.5620 -0.2322
 9559SOL    HW140313   2.338   2.214   9.958  1.2596 -0.2475  0.8276
 9559SOL    HW240314   2.383   2.287   9.844  1.2321  1.0946  3.4997
 9560SOL     OW40315   3.425   3.539   1.418 -0.2285 -0.0525 -0.0398
 9560SOL    HW140316   3.438   3.444   1.416 -0.4384 -0.0926  0.4961
 9560SOL    HW240317   3.504   3.548   1.364 -0.5099 -0.1271 -0.4592
 9561SOL     OW40318   1.411   1.666   5.076 -0.1302  0.2452 -0.5356
 9561SOL    HW140319   1.321   1.650   5.049 -0.4424  0.3466  0.4232
 9561SOL    HW240320   1.442   1.578   5.097  0.4542  0.6306  0.2283
 9562SOL     OW40321   0.642   3.747   4.783 -0.6503  0.5064 -0.7259
 9562SOL    HW140322   0.719   3.779   4.832  1.7560 -2.6427 -2.4994
 9562SOL    HW240323   0.610   3.681   4.845  0.6783  2.0894  1.6772
 9563SOL     OW40324   4.191   2.577  16.341 -0.3600 -0.3374 -0.0884
 9563SOL    HW140325   4.172   2.515  16.412 -3.8199  1.9393  1.0220
 9563SOL    HW240326   4.146   2.654  16.377  0.4131 -0.5796  1.3933
 9564SOL     OW40327   2.807   2.537   5.223 -0.1962  0.9596 -0.3920
 9564SOL    HW140328   2.719   2.510   5.247  0.1276 -0.4086 -0.7640
 9564SOL    HW240329   2.845   2.460   5.182  2.4897  2.5193 -0.8730
 9565SOL     OW40330   0.637   2.591   8.902  0.2818 -0.3987 -0.1646
 9565SOL    HW140331   0.653   2.507   8.945 -0.1170 -0.5899 -0.3860
 9565SOL    HW240332   0.695   2.644   8.957  1.4938 -2.3037  0.3599
 9566SOL     OW40333   0.082   1.051  11.245  0.1523  0.0837 -0.2653
 9566SOL    HW140334   0.137   0.981  11.210  0.6581  1.0931 -1.4886
 9566SOL    HW240335   0.012   1.060  11.180 -1.5357  0.7084  1.6468
 9567SOL     OW40336   3.416   0.421   1.478  0.1471 -0.4727  0.4823
 9567SOL    HW140337   3.481   0.489   1.465 -1.5061  1.2511  1.1239
 9567SOL    HW240338   3.421   0.389   1.568  0.1419 -2.8878 -0.3985
 9568SOL     OW40339   0.343   3.398  14.793  0.2137 -0.0213 -0.0070
 9568SOL    HW140340   0.274   3.332  14.802 -1.1270  1.4508  0.4936
 9568SOL    HW240341   0.399   3.366  14.723 -1.4668 -0.9016 -0.9347
 9569SOL     OW40342   4.164   4.058   5.268  0.1037 -0.7706 -0.5248
 9569SOL    HW140343   4.201   4.033   5.183 -0.7254  1.8469 -1.6589
 9569SOL    HW240344   4.222   4.132   5.284 -0.8231 -0.3404  0.8414
   4.73714   4.73714  17.74688
