Membrane in water
40344
    1TMC1    C1    1   2.884   3.336  11.818 -0.4296  0.3092 -0.6588
    1TMC1    C2    2   2.809   3.433  11.769  0.1318 -0.0115 -0.3368
    1TMC1    C3    3   2.871   3.556  11.759 -0.3982  0.0713 -0.4545
    1TMC1    C4    4   3.017   3.358  11.849 -0.4927  0.3672 -0.7888
    1TMC1    C5    5   3.074   3.483  11.837 -0.0737  0.7800 -0.4622
    1TMC1    C6    6   3.005   3.585  11.796  0.3415 -0.2949  0.2987
    1TMC1     C    7   2.830   3.205  11.792 -0.5077 -0.3830 -0.7631
    1TMC1     O    8   2.707   3.194  11.780 -0.0514  0.0025 -1.0444
    1TMC1     H    9   2.705   3.408  11.751 -0.1305  0.6440  0.2463
    1TMC1    H1   10   3.079   3.288  11.905 -0.9976  0.5522  0.0030
    1TMC1    H2   11   3.048   3.684  11.808 -2.8578  0.7620  2.9175
    1TMC1    C7   12   3.200   3.505  11.903  0.5506  0.1271  0.6027
    1TMC1    C8   13   2.796   3.666  11.717 -0.4721 -0.1568  0.3423
    1TMC1    O1   14   3.251   3.443  11.993 -0.3861 -0.0431 -0.4821
    1TMC1    O2   15   2.840   3.782  11.715  0.2366  0.4250 -0.5567
    1TMC1    O3   16   3.267   3.602  11.834 -0.3630  0.0927  0.3059
    1TMC1    H3   17   3.217   3.631  11.754 -0.7692  4.1128  1.9748
    1TMC1    O5   18   2.686   3.638  11.641 -0.0680  0.0854 -0.0974
    1TMC1    H5   19   2.671   3.541  11.638 -1.4890  0.2891  0.1659
    2MPD2     C   20   2.885   2.693  11.782  0.3987  0.3784  0.2514
    2MPD2    C1   21   2.780   2.770  11.820 -0.3365  0.1622  0.7082
    2MPD2    C2   22   2.787   2.910  11.817  0.1856 -0.1538 -1.0343
    2MPD2    C3   23   2.910   2.970  11.784 -1.1309  0.2219 -0.5049
    2MPD2    C4   24   3.021   2.892  11.754 -0.0776 -0.0333 -0.4352
    2MPD2    C5   25   3.005   2.756  11.751 -0.5380  0.2080 -0.0020
    2MPD2     H   26   2.705   2.970  11.853  0.9892 -0.2417  0.9555
    2MPD2    H1   27   3.115   2.941  11.732 -2.0013  1.7585 -4.5823
    2MPD2    H2   28   2.893   2.584  11.784  0.2915  0.4023  1.7309
    2MPD2    H3   29   3.092   2.696  11.727 -1.0997  0.1975 -1.9388
    2MPD2     N   30   2.928   3.111  11.772 -0.2466  0.1261 -0.3665
    2MPD2    H5   31   3.023   3.145  11.761 -1.4106  2.9532 -1.6925
    2MPD2    N1   32   2.665   2.715  11.875  0.3015  0.0968 -0.2031
    2MPD2    H7   33   2.601   2.781  11.918 -1.8176 -1.6925 -0.6050
    3TMC1    C1   34   1.765   3.837  10.439  0.1435 -0.1307 -0.3534
    3TMC1    C2   35   1.841   3.740  10.377 -0.0477  0.5004 -0.2326
    3TMC1    C3   36   1.906   3.647  10.457  0.2356  0.2227 -0.6705
    3TMC1    C4   37   1.770   3.848  10.576 -0.0058 -0.0504  0.5450
    3TMC1    C5   38   1.835   3.752  10.651 -0.4715  0.3757  0.5003
    3TMC1    C6   39   1.900   3.649  10.592  0.2115 -0.6488  0.2945
    3TMC1     C   40   1.705   3.944  10.359  0.3244 -0.4563  0.5391
    3TMC1     O   41   1.759   3.942  10.247  0.2336 -0.8124  0.1430
    3TMC1     H   42   1.872   3.744  10.274 -0.2977  1.2147 -0.2852
    3TMC1    H1   43   1.719   3.926  10.632  2.5003  0.8581  1.5764
    3TMC1    H2   44   1.939   3.566  10.651  0.2532 -2.0248 -1.6919
    3TMC1    C7   45   1.831   3.766  10.792  0.4537  0.1526  0.0612
    3TMC1    C8   46   1.914   3.519  10.390 -0.3859  0.7095  1.0175
    3TMC1    O1   47   1.802   3.868  10.849  0.5023 -0.1164 -0.2031
    3TMC1    O2   48   1.838   3.498  10.294 -0.2419  0.0003  0.4169
    3TMC1    O3   49   1.758   3.651  10.817  0.1763 -0.0678  0.2598
    3TMC1    H3   50   1.743   3.593  10.739 -1.8319 -0.4579  0.9276
    3TMC1    O5   51   2.033   3.461  10.423  0.2899  0.7339  0.1011
    3TMC1    H5   52   2.091   3.509  10.486 -1.1529  1.9921  0.4735
    4MPD2     C   53   1.488   4.411  10.294 -0.0661 -0.0459 -0.3540
    4MPD2    C1   54   1.477   4.369  10.427 -0.0452 -0.0040 -0.7498
    4MPD2    C2   55   1.524   4.243  10.467  0.2452 -0.6955  0.4796
    4MPD2    C3   56   1.588   4.161  10.377  0.4069 -0.0182 -0.3271
    4MPD2    C4   57   1.618   4.209  10.252  0.5571  0.3292 -0.7012
    4MPD2    C5   58   1.563   4.330  10.212 -0.0549  0.0793 -0.0569
    4MPD2     H   59   1.521   4.213  10.571  1.3486 -1.8256  0.1840
    4MPD2    H1   60   1.675   4.161  10.174  0.5031  0.0356 -0.5580
    4MPD2    H2   61   1.445   4.504  10.258  0.4890  0.1349 -0.5559
    4MPD2    H3   62   1.579   4.357  10.109  0.9600 -1.2335 -0.2375
    4MPD2     N   63   1.627   4.033  10.424 -0.2919 -0.6507  0.5733
    4MPD2    H5   64   1.590   4.000  10.513 -1.3297  1.7554  1.0389
    4MPD2    N1   65   1.408   4.447  10.522  0.6489  0.3520 -0.0179
    4MPD2    H7   66   1.361   4.403  10.601  0.2594 -0.8965 -0.9371
    5TCq1    O1   67   2.999   1.069  11.432  0.5530 -0.0089  0.2592
    5TCq1    C1   68   2.942   1.019  11.547 -0.4002 -0.8096  0.1845
    5TCq1    O2   69   3.001   0.995  11.652 -0.4196 -0.1020  0.4240
    5TCq1    C2   70   2.808   0.994  11.512  0.2428 -0.1296 -0.4447
    5TCq1    C3   71   2.701   1.053  11.573  1.0015  0.3701 -0.0779
    5TCq1    C4   72   2.584   1.069  11.513 -0.1130 -0.3198 -0.5191
    5TCq1    C5   73   2.567   1.015  11.386  0.5539 -0.3879  0.3346
    5TCq1    C6   74   2.670   0.943  11.331  0.1759  0.4376 -0.4966
    5TCq1    C7   75   2.795   0.943  11.383  0.6284  0.1202  0.0324
    5TCq1    C8   76   2.656   0.877  11.191 -0.4792 -0.3645  0.4478
    5TCq1    O4   77   2.747   0.800  11.160  0.4061  0.2296 -0.0572
    5TCq1    C9   78   2.485   1.158  11.567  0.4285 -0.1158 -0.0441
    5TCq1    O5   79   2.502   1.205  11.678 -0.2312  0.4780  0.2337
    5TCq1    O6   80   2.371   1.166  11.512 -0.3002 -0.0365 -0.6686
    5TCq1    H1   81   2.925   1.069  11.368  0.4503 -0.5458  0.3735
    5TCq1    H2   82   2.701   1.107  11.667 -0.1535  1.0652 -0.4763
    5TCq1    H3   83   2.469   1.028  11.341  0.6597 -2.2240 -0.4301
    5TCq1    H4   84   2.872   0.889  11.329  1.0742  1.3098 -0.5259
    6MPD2     C   85   2.521   1.050  10.897 -0.1457  0.8064  0.1074
    6MPD2    C1   86   2.554   0.936  10.975  0.6933 -0.5913  0.4473
    6MPD2    C2   87   2.556   0.811  10.910 -0.1645  0.0632  0.0607
    6MPD2    C3   88   2.548   0.800  10.773 -0.6476  0.2757 -0.4057
    6MPD2    C4   89   2.529   0.911  10.705 -0.8247  0.0509  0.6046
    6MPD2    C5   90   2.520   1.034  10.769  1.1621 -0.0403  0.1571
    6MPD2     H   91   2.578   0.724  10.970 -0.5500  0.0861  0.2351
    6MPD2    H1   92   2.535   0.908  10.597 -0.1736  0.1806  0.6351
    6MPD2    H2   93   2.522   1.155  10.926 -0.9954  1.1996 -1.2924
    6MPD2    H3   94   2.513   1.121  10.705  2.8433 -1.5984 -2.1715
    6MPD2     N   95   2.566   0.675  10.713  0.1403 -0.0963 -0.5490
    6MPD2    H5   96   2.587   0.598  10.776 -0.2974  0.8517  0.7475
    6MPD2    N1   97   2.579   0.958  11.110  0.1451 -0.1790  0.0482
    6MPD2    H7   98   2.582   1.052  11.148 -0.3958  0.2348 -0.9399
    7TCq1    O1   99   0.546   0.130  13.613  0.0330  0.1995  0.4959
    7TCq1    C1  100   0.608   0.098  13.498  0.2726 -0.0997  0.1346
    7TCq1    O2  101   0.709   0.034  13.480 -0.4326 -0.1921 -0.1863
    7TCq1    C2  102   0.515   0.131  13.386 -0.4891  0.4345 -0.2948
    7TCq1    C3  103   0.570   0.163  13.262 -0.2012 -0.5511  0.6151
    7TCq1    C4  104   0.500   0.127  13.152  0.2615  0.0419 -0.4035
    7TCq1    C5  105   0.378   0.062  13.158 -0.4579 -0.1345  0.1613
    7TCq1    C6  106   0.327   0.050  13.287  0.4194 -0.0977 -0.0063
    7TCq1    C7  107   0.395   0.073  13.398 -0.3975 -0.3200  0.5364
    7TCq1    C8  108   0.216   4.690  13.294  1.2557  0.2690 -0.4418
    7TCq1    O4  109   0.207   4.632  13.406 -0.1663  0.4180 -0.3614
    7TCq1    C9  110   0.557   0.144  13.027 -0.0176  0.0902 -0.3946
    7TCq1    O5  111   0.670   0.199  13.020  0.0590 -0.4072 -0.2340
    7TCq1    O6  112   0.505   0.086  12.925 -0.1001 -0.2902  0.2085
    7TCq1    H1  113   0.463   0.181  13.598  0.9621  1.6178  0.1956
    7TCq1    H2  114   0.675   0.190  13.253 -1.1753  3.1372  0.5921
    7TCq1    H3  115   0.331   0.031  13.065  0.6840 -0.5500 -0.2747
    7TCq1    H4  116   0.364   0.044  13.498 -1.0174 -1.7915 -0.0831
    8MPD2     C  117   4.616   4.370  13.095  0.4032  0.9719 -0.5865
    8MPD2    C1  118   4.676   4.369  13.220  0.1757  0.0041  0.0995
    8MPD2    C2  119   0.028   4.473  13.243  0.5454 -0.5000 -0.1542
    8MPD2    C3  120   0.057   4.573  13.152 -0.5349 -0.1161  0.4315
    8MPD2    C4  121   4.727   4.568  13.034  0.0546  0.6295  0.1140
    8MPD2    C5  122   4.643   4.464  13.002 -0.1204  0.3842  0.2048
    8MPD2     H  123   0.068   4.473  13.344  0.0822 -0.4406  0.0297
    8MPD2    H1  124   0.002   4.646  12.960  1.5843 -0.2920 -0.6210
    8MPD2    H2  125   4.549   4.289  13.069  1.3348  0.3817 -1.1512
    8MPD2    H3  126   4.592   4.457  12.907  1.0150 -1.6169 -0.2738
    8MPD2     N  127   0.145   4.678  13.177  0.5636  0.2826  0.2510
    8MPD2    H5  128   0.160   0.008  13.102 -2.0857  1.5990  0.9305
    8MPD2    N1  129   4.644   4.270  13.311  0.3178  0.3970 -0.1669
    8MPD2    H7  130   4.580   4.201  13.273  1.7631 -1.1761  0.2594
    9TMC1    C1  131   2.390   4.165  10.872  0.7639  0.2502 -0.0796
    9TMC1    C2  132   2.321   4.051  10.841  0.3201 -0.1227  1.1948
    9TMC1    C3  133   2.233   4.053  10.733  0.0635  0.1675 -0.6513
    9TMC1    C4  134   2.383   4.274  10.794 -0.2288  0.3564  0.7271
    9TMC1    C5  135   2.302   4.272  10.684  0.0224 -0.4959  0.3025
    9TMC1    C6  136   2.230   4.162  10.646 -0.2328  1.1731 -0.0557
    9TMC1     C  137   2.448   4.187  11.004 -0.1526 -0.6500 -0.2171
    9TMC1     O  138   2.500   4.298  11.017 -0.3835  0.2415  0.3186
    9TMC1     H  139   2.330   3.957  10.893 -0.1983 -0.3467  0.8902
    9TMC1    H1  140   2.455   4.355  10.803  1.3050 -0.7971 -1.0142
    9TMC1    H2  141   2.161   4.171  10.563 -0.7931 -0.2291  0.2564
    9TMC1    C7  142   2.287   4.391  10.601  0.5346 -0.9954  0.3969
    9TMC1    C8  143   2.211   3.913  10.687 -0.3593 -0.2521 -0.1533
    9TMC1    O1  144   2.259   4.410  10.482 -0.4997  0.2541 -0.0371
    9TMC1    O2  145   2.287   3.819  10.698 -0.1164  0.2960 -0.1513
    9TMC1    O3  146   2.250   4.490  10.688 -0.2980 -0.5396 -0.8567
    9TMC1    H3  147   2.238   4.460  10.780 -2.5499  2.7043 -0.0918
    9TMC1    O5  148   2.102   3.909  10.618 -0.4950  0.1408  0.6099
    9TMC1    H5  149   2.057   3.996  10.622 -0.0117  0.4560 -0.8345
   10MPD2     C  150   2.520   4.213  11.291  0.6811 -0.2177 -0.3327
   10MPD2    C1  151   2.443   4.105  11.238  0.3486  0.5420 -0.4327
   10MPD2    C2  152   2.411   4.007  11.326 -0.0226 -0.2084  0.0604
   10MPD2    C3  153   2.436   4.023  11.462 -0.1547  0.3283 -0.4689
   10MPD2    C4  154   2.504   4.130  11.508  1.0592  0.6860  0.2456
   10MPD2    C5  155   2.554   4.219  11.423 -0.2496 -0.7404  0.6363
   10MPD2     H  156   2.356   3.924  11.284  1.9212 -1.9374  0.9564
   10MPD2    H1  157   2.516   4.143  11.615 -0.4401  1.3105  0.3306
   10MPD2    H2  158   2.546   4.301  11.234  0.6425  0.0608  0.0829
   10MPD2    H3  159   2.612   4.306  11.455 -0.0923 -0.5168 -0.2527
   10MPD2     N  160   2.399   3.927  11.561  0.4263 -0.2080  0.0127
   10MPD2    H5  161   2.429   3.953  11.654 -2.1443  1.9878  0.2140
   10MPD2    N1  162   2.416   4.099  11.099  0.0393 -0.3063 -0.2235
   10MPD2    H7  163   2.369   4.017  11.064 -3.8320  2.1870 -0.9194
   11TCq1    O1  164   3.236   3.018  13.169  0.1583  0.7128 -0.4744
   11TCq1    C1  165   3.144   3.037  13.265  0.4885 -0.3570  0.5393
   11TCq1    O2  166   3.041   2.974  13.273  0.0155  0.3348  0.0311
   11TCq1    C2  167   3.199   3.091  13.379  0.3815  0.0015 -0.0502
   11TCq1    C3  168   3.330   3.110  13.391 -0.2120  0.6835 -0.1554
   11TCq1    C4  169   3.384   3.159  13.507  0.1184  0.2270  0.7459
   11TCq1    C5  170   3.299   3.183  13.611  0.0411  0.3357 -0.0340
   11TCq1    C6  171   3.170   3.146  13.603 -1.3036 -0.0573  0.3873
   11TCq1    C7  172   3.119   3.094  13.487 -0.4898 -0.1092 -0.4316
   11TCq1    C8  173   3.105   3.117  13.728 -0.3067 -0.0563  0.4126
   11TCq1    O4  174   3.158   3.168  13.827  0.1202  0.2344  0.2949
   11TCq1    C9  175   3.514   3.214  13.509 -0.0888  0.7382  0.3650
   11TCq1    O5  176   3.559   3.238  13.622 -0.1606  0.3693 -0.0202
   11TCq1    O6  177   3.550   3.260  13.396  0.3251 -0.1411  0.7479
   11TCq1    H1  178   3.288   3.101  13.170  1.4073 -0.0806  1.6659
   11TCq1    H2  179   3.397   3.109  13.305 -1.0106  2.2235 -0.8110
   11TCq1    H3  180   3.345   3.233  13.695  1.0979 -0.6234 -0.0418
   11TCq1    H4  181   3.013   3.072  13.482 -0.0464 -2.2820 -0.2663
   12MPD2     C  182   2.974   2.992  13.958 -0.1800  1.2527 -0.3000
   12MPD2    C1  183   2.954   2.948  13.825 -0.0152 -0.3741 -0.4507
   12MPD2    C2  184   2.873   2.841  13.803 -0.3526  0.0996 -0.1783
   12MPD2    C3  185   2.819   2.777  13.910  0.1439 -0.9307 -0.0828
   12MPD2    C4  186   2.848   2.818  14.036  0.6677  0.5703  1.0484
   12MPD2    C5  187   2.916   2.931  14.064  0.4565  0.2260 -0.3222
   12MPD2     H  188   2.854   2.813  13.701  0.7450  2.1164 -0.9397
   12MPD2    H1  189   2.825   2.752  14.119 -1.2838 -0.3496 -0.2174
   12MPD2    H2  190   3.033   3.080  13.979  0.1264  1.6215 -2.7093
   12MPD2    H3  191   2.937   2.961  14.166  2.1477 -0.2263 -0.5410
   12MPD2     N  192   2.749   2.651  13.890  0.6868 -0.9353  0.3921
   12MPD2    H5  193   2.733   2.602  13.978 -2.1138  1.0901  1.0277
   12MPD2    N1  194   3.014   3.015  13.727  0.3186 -0.0158  0.0260
   12MPD2    H7  195   2.989   2.986  13.634 -0.3468 -1.2294  0.5852
   13TCq1    O1  196   3.058   3.224  11.463 -0.3893 -0.7635 -0.3498
   13TCq1    C1  197   2.942   3.274  11.425 -0.2311 -0.2887  0.1334
   13TCq1    O2  198   2.834   3.234  11.456  0.3502 -0.0736 -0.1056
   13TCq1    C2  199   2.961   3.415  11.400  0.1790 -0.3977 -1.1370
   13TCq1    C3  200   3.062   3.494  11.464  0.2053  0.8152  0.2823
   13TCq1    C4  201   3.044   3.634  11.459  0.0537 -0.8285  0.4139
   13TCq1    C5  202   2.929   3.684  11.399  0.0812 -0.0270 -0.3858
   13TCq1    C6  203   2.831   3.604  11.349 -0.9221  0.0526  0.0669
   13TCq1    C7  204   2.844   3.469  11.351 -0.5313  0.4705 -0.2244
   13TCq1    C8  205   2.706   3.661  11.294  1.6258  0.1661  0.0218
   13TCq1    O4  206   2.663   3.770  11.337  0.3040  0.5847 -0.8334
   13TCq1    C9  207   3.140   3.725  11.515  0.4870 -0.7048  0.3089
   13TCq1    O5  208   3.224   3.676  11.595 -0.3260  0.3591  0.2220
   13TCq1    O6  209   3.122   3.844  11.490 -0.2585  0.0090  0.5693
   13TCq1    H1  210   3.138   3.273  11.435 -0.9953  1.7330  2.2850
   13TCq1    H2  211   3.145   3.450  11.519  2.9197  2.4123 -2.5202
   13TCq1    H3  212   2.929   3.792  11.390  2.0066  0.0025  0.1858
   13TCq1    H4  213   2.769   3.402  11.311 -0.4340  0.4878 -0.4379
   14MPD2     C  214   2.535   3.564  10.993 -0.0954  0.2421 -0.2852
   14MPD2    C1  215   2.548   3.616  11.118 -0.5219 -0.2408 -0.2865
   14MPD2    C2  216   2.439   3.679  11.174 -0.1921 -1.1801  0.2573
   14MPD2    C3  217   2.326   3.693  11.100  0.3634  0.1488  0.0075
   14MPD2    C4  218   2.320   3.649  10.970 -0.0357 -0.5406 -0.4662
   14MPD2    C5  219   2.420   3.578  10.918 -0.0198 -0.3787 -0.4644
   14MPD2     H  220   2.446   3.721  11.274  0.6341 -0.5383 -0.0681
   14MPD2    H1  221   2.229   3.666  10.913 -0.1743 -2.2716 -0.7596
   14MPD2    H2  222   2.615   3.504  10.950 -0.3873 -1.3225  1.3908
   14MPD2    H3  223   2.417   3.542  10.815  2.0780  0.4431 -0.8248
   14MPD2     N  224   2.208   3.745  11.162 -0.1441  0.3664  0.1235
   14MPD2    H5  225   2.208   3.751  11.264 -0.4008 -0.5373  0.1794
   14MPD2    N1  226   2.671   3.594  11.180 -0.0246  0.7379 -0.1246
   14MPD2    H7  227   2.742   3.530  11.145  0.0602  0.9216 -0.2908
   15TCq1    O1  228   0.725   2.150   1.667  0.2154 -0.5083 -0.4847
   15TCq1    C1  229   0.660   2.142   1.549  0.1713 -0.6210 -0.0247
   15TCq1    O2  230   0.713   2.119   1.441  0.1074  0.0101  0.2494
   15TCq1    C2  231   0.519   2.167   1.568 -0.2685  0.9303  0.0109
   15TCq1    C3  232   0.470   2.239   1.673 -0.0919 -0.1450 -0.3307
   15TCq1    C4  233   0.328   2.261   1.672  0.2361  0.1453 -0.0186
   15TCq1    C5  234   0.252   2.219   1.566  0.1585 -0.0489  0.6617
   15TCq1    C6  235   0.307   2.153   1.461 -0.3153  0.5789 -0.5363
   15TCq1    C7  236   0.444   2.123   1.460  0.4391 -0.6693 -0.5240
   15TCq1    C8  237   0.227   2.100   1.354 -0.0646  0.5117 -0.6482
   15TCq1    O4  238   0.285   2.030   1.270  0.0031 -0.3209  0.3600
   15TCq1    C9  239   0.261   2.332   1.784  0.2066 -0.2931 -0.2461
   15TCq1    O5  240   0.137   2.323   1.791 -0.2306  0.3481 -0.3038
   15TCq1    O6  241   0.328   2.346   1.885 -0.2856  0.3887  0.1242
   15TCq1    H1  242   0.676   2.146   1.752  0.3796  3.5415 -0.2083
   15TCq1    H2  243   0.529   2.261   1.761 -0.3916  0.2410 -0.2259
   15TCq1    H3  244   0.145   2.224   1.582 -0.2456 -0.4741 -1.9856
   15TCq1    H4  245   0.494   2.070   1.379  2.0089  0.2867 -0.1975
   16MPD2     C  246   4.637   2.170   1.216  0.5352  0.0641 -0.2565
   16MPD2    C1  247   0.006   2.093   1.243 -0.1145  0.5359  0.2468
   16MPD2    C2  248   0.013   1.967   1.185  0.1849  0.2348 -0.1094
   16MPD2    C3  249   4.656   1.934   1.086 -0.2195 -0.3710 -0.6287
   16MPD2    C4  250   4.545   2.016   1.056 -0.1110 -0.8870  0.0700
   16MPD2    C5  251   4.537   2.129   1.123 -0.5911 -0.3346  0.6014
   16MPD2     H  252   0.093   1.899   1.214 -0.2376 -0.4171 -0.4610
   16MPD2    H1  253   4.460   1.982   0.998 -1.2795 -0.4748  1.5240
   16MPD2    H2  254   4.628   2.268   1.260  0.0988  0.6750 -1.7059
   16MPD2    H3  255   4.448   2.187   1.101  0.4823  1.0699 -0.0366
   16MPD2     N  256   4.675   1.803   1.036  0.5971  0.6542 -0.0800
   16MPD2    H5  257   0.022   1.756   1.069 -1.4012 -1.7721  1.5783
   16MPD2    N1  258   0.098   2.144   1.341 -0.5592 -0.6981  0.0347
   16MPD2    H7  259   0.073   2.230   1.389  0.0338 -1.7446  2.2325
   17TMC1    C1  260   2.123   3.284  10.952 -0.2582 -0.1128  0.6941
   17TMC1    C2  261   1.992   3.265  10.971 -0.3315 -0.4786  0.3727
   17TMC1    C3  262   1.933   3.285  11.091  0.3069 -0.1073  0.5979
   17TMC1    C4  263   2.198   3.329  11.053 -0.0015 -0.4526 -0.3914
   17TMC1    C5  264   2.147   3.341  11.172 -0.0817 -0.2616  0.9347
   17TMC1    C6  265   2.017   3.307  11.202 -0.0745 -0.2663 -0.7478
   17TMC1     C  266   2.184   3.256  10.816 -0.0900  0.2047  1.2817
   17TMC1     O  267   2.105   3.229  10.726  0.4344  0.2685  0.9280
   17TMC1     H  268   1.928   3.244  10.886 -0.2146 -2.9046  0.8894
   17TMC1    H1  269   2.290   3.384  11.033  0.5460 -1.3244 -0.2855
   17TMC1    H2  270   1.993   3.299  11.308 -0.4276 -2.7456 -1.0083
   17TMC1    C7  271   2.216   3.423  11.273 -0.0131  0.1333 -0.1307
   17TMC1    C8  272   1.809   3.218  11.106  0.1816  0.0434 -0.2090
   17TMC1    O1  273   2.161   3.491  11.358  0.6312  0.5016 -0.5248
   17TMC1    O2  274   1.761   3.118  11.049 -0.1793  0.3648  0.3200
   17TMC1    O3  275   2.350   3.401  11.264 -0.1831  0.0042 -0.3864
   17TMC1    H3  276   2.383   3.349  11.187  1.3480 -0.8986  0.8548
   17TMC1    O5  277   1.750   3.284  11.209 -0.7282  0.1927 -0.1419
   17TMC1    H5  278   1.784   3.372  11.235  0.2046 -0.7643  1.9084
   18MPD2     C  279   2.339   3.188  10.586 -0.1665 -0.0693 -0.4229
   18MPD2    C1  280   2.396   3.235  10.698  0.0387  0.3551 -0.1419
   18MPD2    C2  281   2.530   3.239  10.725 -0.3356 -0.1058  0.4118
   18MPD2    C3  282   2.619   3.206  10.624 -0.2850  0.0388 -0.8687
   18MPD2    C4  283   2.571   3.150  10.510 -0.4730 -0.2186 -0.3318
   18MPD2    C5  284   2.432   3.149  10.493  0.2773 -0.2388  0.0128
   18MPD2     H  285   2.565   3.281  10.818  0.6025 -1.0007  0.4589
   18MPD2    H1  286   2.633   3.112  10.430 -1.3928 -0.4890 -0.9105
   18MPD2    H2  287   2.236   3.162  10.565 -1.1395  2.2328  1.5607
   18MPD2    H3  288   2.390   3.094  10.410  0.1687 -0.0232 -0.0766
   18MPD2     N  289   2.759   3.208  10.638 -0.7654  0.4590 -0.2144
   18MPD2    H5  290   2.806   3.159  10.563  1.1204 -0.5898  1.6556
   18MPD2    N1  291   2.313   3.272  10.810  0.0035  0.3004  0.7188
   18MPD2    H7  292   2.362   3.304  10.893  0.7229  2.3608 -0.4766
   19TMC2    C1  293   3.984   3.313  13.904  0.2222  0.3268  0.3501
   19TMC2    C2  294   3.922   3.393  13.814 -0.1504 -0.2947 -0.4070
   19TMC2    C3  295   3.789   3.372  13.790 -0.0063  0.3400  0.1733
   19TMC2    C4  296   3.936   3.187  13.947 -0.3750 -0.3138 -0.9936
   19TMC2    C5  297   3.801   3.168  13.917  0.6727 -0.1354 -0.2538
   19TMC2    C6  298   3.726   3.266  13.856  0.0191 -0.3160 -0.8529
   19TMC2     C  299   4.119   3.350  13.935  0.1389 -0.7778  0.4400
   19TMC2     O  300   4.153   3.462  13.904 -0.6031 -0.2615  0.3009
   19TMC2     H  301   3.969   3.486  13.783 -1.0562  0.6170  1.0219
   19TMC2    H1  302   3.992   3.098  13.972 -0.2686  0.3954  1.3278
   19TMC2    H2  303   3.618   3.261  13.864 -0.1895  1.4763 -2.4748
   19TMC2    C7  304   3.743   3.036  13.923 -0.0331  0.0276 -0.6967
   19TMC2    C8  305   3.714   3.488  13.778  0.3197  0.8390  0.6178
   19TMC2    O1  306   3.804   2.957  13.991 -0.5454  0.2883 -0.1112
   19TMC2    O2  307   3.744   3.591  13.838 -0.3642  0.1475 -0.3550
   19TMC2    O5  308   3.595   3.465  13.722 -0.2915 -0.1639  0.0902
   19TMC2    H5  309   3.587   3.373  13.688  3.3425 -0.2468 -0.5184
   20MPD2     C  310   4.399   3.362  14.026  0.2762  0.0034 -0.3316
   20MPD2    C1  311   4.307   3.259  14.065 -0.1971  0.4561  0.0047
   20MPD2    C2  312   4.352   3.168  14.154  0.1170 -0.4699 -0.6954
   20MPD2    C3  313   4.482   3.158  14.199  0.3812  0.0111  0.5507
   20MPD2    C4  314   4.571   3.244  14.145 -0.2666 -0.3056 -0.6582
   20MPD2    C5  315   4.532   3.344  14.064  0.7395  0.5475  0.4087
   20MPD2     H  316   4.276   3.098  14.188 -0.6935 -0.7979 -3.2149
   20MPD2    H1  317   4.675   3.242  14.177  0.0533  1.3957 -1.5996
   20MPD2    H2  318   4.382   3.438  13.951  0.9091  1.8219  1.3750
   20MPD2    H3  319   4.609   3.400  14.013  2.2016 -1.9188 -0.0620
   20MPD2     N  320   4.532   3.072  14.294 -0.0245 -0.5316 -0.0949
   20MPD2    H5  321   4.621   3.099  14.334 -0.3739 -1.8235  1.5494
   20MPD2    N1  322   4.177   3.257  14.010  0.1599 -0.2464  0.0953
   20MPD2    H7  323   4.120   3.184  14.053 -0.5336  0.3478  0.1803
   21TMC2    C1  324   1.391   3.472  14.525  0.3065  0.3673  0.1264
   21TMC2    C2  325   1.434   3.370  14.599 -0.7813 -0.1995  0.6852
   21TMC2    C3  326   1.351   3.333  14.699  0.3632  0.7532  1.1041
   21TMC2    C4  327   1.282   3.545  14.549 -0.4947 -0.0010 -0.0705
   21TMC2    C5  328   1.195   3.491  14.643  0.4489 -0.1291 -0.0780
   21TMC2    C6  329   1.226   3.381  14.720  0.9542  0.1995  0.4210
   21TMC2     C  330   1.485   3.515  14.418 -0.5045  0.1947 -0.3197
   21TMC2     O  331   1.604   3.503  14.439  0.2863 -0.8582 -0.0859
   21TMC2     H  332   1.522   3.312  14.573  0.6426  1.4326  1.8536
   21TMC2    H1  333   1.265   3.639  14.497 -1.5240 -0.0247  0.2303
   21TMC2    H2  334   1.154   3.346  14.793 -0.3510  2.0189 -0.0112
   21TMC2    C7  335   1.055   3.505  14.617 -0.1782 -0.9480 -0.1792
   21TMC2    C8  336   1.397   3.233  14.788  0.0669  0.3423 -0.0984
   21TMC2    O1  337   0.990   3.407  14.652 -0.4634 -0.3404 -0.5035
   21TMC2    O2  338   1.322   3.181  14.872  0.2462 -0.3727  0.7873
   21TMC2    O5  339   1.526   3.209  14.784  0.3315 -0.2412  0.0132
   21TMC2    H5  340   1.586   3.269  14.735 -1.1456  0.4367 -0.9669
   22MPD2     C  341   1.577   3.766  13.972  0.1243 -1.0788  0.3994
   22MPD2    C1  342   1.658   3.678  14.042 -0.1285 -0.5266 -0.5062
   22MPD2    C2  343   1.605   3.620  14.157  0.1737  0.2865 -0.2533
   22MPD2    C3  344   1.475   3.644  14.202 -0.3265  0.0863  0.3411
   22MPD2    C4  345   1.400   3.742  14.133 -0.4542 -0.5759 -0.3943
   22MPD2    C5  346   1.455   3.793  14.023  0.0967  0.2683  0.2453
   22MPD2     H  347   1.670   3.557  14.217  0.5057  0.5534 -0.3292
   22MPD2    H1  348   1.296   3.758  14.159 -0.0127  1.1245  0.3535
   22MPD2    H2  349   1.608   3.818  13.881  0.9693  2.2431  2.5938
   22MPD2    H3  350   1.402   3.878  13.980  1.9528  2.1308  1.6190
   22MPD2     N  351   1.417   3.596  14.326  0.7141 -0.2491 -0.0517
   22MPD2    H5  352   1.319   3.619  14.331  0.9159  0.6421 -0.0457
   22MPD2    N1  353   1.793   3.646  14.003 -0.1448 -0.3040  0.3793
   22MPD2    H7  354   1.848   3.586  14.064  0.6566 -0.1805 -0.2289
   23TMC2    C1  355   2.593   4.666  14.408 -0.8201  0.6999  0.9201
   23TMC2    C2  356   2.604   0.011  14.304  0.4989 -0.2792  0.2584
   23TMC2    C3  357   2.488   0.072  14.257 -0.7411 -0.0044 -0.0808
   23TMC2    C4  358   2.482   4.648  14.482 -0.7505 -0.4943 -1.5203
   23TMC2    C5  359   2.368   4.707  14.436  0.4726 -0.7215  1.3167
   23TMC2    C6  360   2.366   0.058  14.327  0.3732  0.5269  0.1143
   23TMC2     C  361   2.716   4.604  14.459 -0.3178 -0.5133  0.4727
   23TMC2     O  362   2.723   4.564  14.575  0.0068 -0.4196 -0.1574
   23TMC2     H  363   2.693   0.030  14.245  0.0513  1.7034  0.2358
   23TMC2    H1  364   2.472   4.580  14.566  1.3162  3.4071  1.8873
   23TMC2    H2  365   2.279   0.116  14.299  0.1524  0.3268  0.3971
   23TMC2    C7  366   2.250   4.673  14.509 -0.3184 -0.1410 -0.1250
   23TMC2    C8  367   2.497   0.191  14.179 -0.2407  0.4845  0.5894
   23TMC2    O1  368   2.259   4.676  14.629  0.3226 -0.1196 -0.1321
   23TMC2    O2  369   2.396   0.231  14.116 -0.0317 -0.5385  0.0592
   23TMC2    O5  370   2.619   0.238  14.173 -0.3414 -0.4774  0.3697
   23TMC2    H5  371   2.664   0.227  14.259 -1.1983 -1.0722  0.7351
   24MPD2     C  372   3.156   4.348  14.372 -0.1567  1.0041  0.7542
   24MPD2    C1  373   3.090   4.369  14.488  0.5745 -0.4352  0.0399
   24MPD2    C2  374   2.973   4.442  14.483 -0.4448  0.0467 -0.0355
   24MPD2    C3  375   2.930   4.502  14.366  0.3142 -0.0180 -0.1069
   24MPD2    C4  376   3.009   4.485  14.250 -0.3937  0.2078 -0.5133
   24MPD2    C5  377   3.122   4.411  14.257 -0.2443  0.1046  0.1627
   24MPD2     H  378   2.919   4.451  14.577 -1.3479  1.4111 -0.6843
   24MPD2    H1  379   2.979   4.537  14.159  1.5895 -1.0885 -1.8958
   24MPD2    H2  380   3.256   4.305  14.379 -0.8204 -0.3734  1.7418
   24MPD2    H3  381   3.187   4.416  14.170 -0.4585 -0.5476 -0.0291
   24MPD2     N  382   2.805   4.570  14.355  0.4370  0.4909  0.1871
   24MPD2    H5  383   2.782   4.606  14.263  1.0672 -2.4651 -1.1125
   24MPD2    N1  384   3.143   4.333  14.611 -0.1889  0.3118 -0.1999
   24MPD2    H7  385   3.095   4.370  14.692  1.5398  2.6087 -0.2468
   25TMC2    C1  386   1.561   2.917  11.815 -0.0499 -0.1134 -0.6325
   25TMC2    C2  387   1.553   3.026  11.902 -0.1250 -0.5040 -0.6088
   25TMC2    C3  388   1.445   3.110  11.889  0.1471  0.5083  1.0425
   25TMC2    C4  389   1.476   2.904  11.706 -0.2600 -0.4350  1.2825
   25TMC2    C5  390   1.369   2.988  11.697  0.3986 -0.2920 -0.3732
   25TMC2    C6  391   1.351   3.093  11.790  0.5130 -0.3481 -0.6252
   25TMC2     C  392   1.607   2.784  11.873  0.6113 -0.9273 -0.3934
   25TMC2     O  393   1.704   2.768  11.945  0.2476  0.0441  0.2763
   25TMC2     H  394   1.616   3.018  11.990  0.7673 -0.2846 -1.2208
   25TMC2    H1  395   1.490   2.828  11.630 -2.2527 -0.4068  0.8948
   25TMC2    H2  396   1.261   3.154  11.791 -0.1028 -1.2571 -0.5690
   25TMC2    C7  397   1.255   2.898  11.702 -0.5120 -0.3680  0.4518
   25TMC2    C8  398   1.435   3.218  11.979 -0.8469  1.0363 -0.5017
   25TMC2    O1  399   1.282   2.781  11.711 -0.1795  0.2830  0.7621
   25TMC2    O2  400   1.336   3.233  12.047 -0.3599  0.4155  0.4493
   25TMC2    O5  401   1.515   3.316  11.927  1.0275  0.2841 -0.0324
   25TMC2    H5  402   1.573   3.284  11.855  1.2661 -2.3916  1.3483
   26MPD2     C  403   1.514   2.278  11.884 -0.7431  0.1182 -0.3948
   26MPD2    C1  404   1.449   2.338  11.781  0.3336  0.0435  0.0335
   26MPD2    C2  405   1.442   2.475  11.770  0.4072  0.0548  1.1641
   26MPD2    C3  406   1.514   2.552  11.863  0.0856  0.8689  0.5077
   26MPD2    C4  407   1.576   2.495  11.967  0.9068  0.6020 -0.2598
   26MPD2    C5  408   1.583   2.357  11.971 -0.5051 -0.2758 -0.3055
   26MPD2     H  409   1.384   2.524  11.692  1.4549 -3.4249 -1.7776
   26MPD2    H1  410   1.630   2.555  12.039  2.1142  0.8153 -1.3377
   26MPD2    H2  411   1.517   2.170  11.893  1.2340  0.3601  1.7955
   26MPD2    H3  412   1.641   2.307  12.049 -1.7860 -0.8872  0.2501
   26MPD2     N  413   1.520   2.689  11.833 -0.3771  0.4283 -0.3188
   26MPD2    H5  414   1.438   2.729  11.789 -0.1318  0.5935 -0.6202
   26MPD2    N1  415   1.401   2.252  11.677  0.2696  0.1257  0.6347
   26MPD2    H7  416   1.415   2.154  11.697 -0.6816 -0.3088 -0.9133
   27TMC2    C1  417   0.910   4.482  11.933  0.1479  0.7395  0.1051
   27TMC2    C2  418   0.837   4.583  11.871 -0.2256  0.3110 -0.0986
   27TMC2    C3  419   0.913   4.686  11.822  0.4990 -0.2838 -0.5219
   27TMC2    C4  420   1.045   4.487  11.964 -0.7758  0.0312 -0.0640
   27TMC2    C5  421   1.105   4.607  11.931  0.2819  0.5592  0.2624
   27TMC2    C6  422   1.049   4.701  11.848  0.4124 -0.1231 -0.4036
   27TMC2     C  423   0.842   4.376  12.004  0.3879  0.0768 -0.5873
   27TMC2     O  424   0.904   4.271  12.022 -0.2328  0.1014 -0.2203
   27TMC2     H  425   0.730   4.583  11.857 -0.3837  0.5715  1.1005
   27TMC2    H1  426   1.094   4.411  12.025  0.1208  0.6194 -0.0455
   27TMC2    H2  427   1.093   0.060  11.823  1.1878 -1.2799 -3.4797
   27TMC2    C7  428   1.162   4.668  12.047  0.7127  0.1104 -0.2515
   27TMC2    C8  429   0.841   0.024  11.719  0.3918 -0.0229 -0.2463
   27TMC2    O1  430   1.217   0.034  12.022 -0.1881 -0.0030 -0.4900
   27TMC2    O2  431   0.721   0.036  11.721  0.0793  0.0396  0.2514
   27TMC2    O5  432   0.925   0.084  11.635  0.3264  0.2999  0.4490
   27TMC2    H5  433   1.014   0.042  11.636  0.2650  0.0617 -2.8183
   28MPD2     C  434   0.488   4.204  12.320 -0.2038  0.3594  0.0128
   28MPD2    C1  435   0.475   4.346  12.321  0.0759 -0.0403  0.4614
   28MPD2    C2  436   0.561   4.422  12.240 -0.5723  0.2712  0.6996
   28MPD2    C3  437   0.647   4.354  12.150 -0.0710  0.3320 -0.3702
   28MPD2    C4  438   0.643   4.216  12.148 -0.3227 -0.2674  0.0519
   28MPD2    C5  439   0.581   4.140  12.241  0.4736 -0.2748  0.5004
   28MPD2     H  440   0.558   4.530  12.245 -1.8930  0.4235 -3.2167
   28MPD2    H1  441   0.704   4.161  12.077 -0.1094  0.7267 -0.5489
   28MPD2    H2  442   0.432   4.148  12.394 -1.6082  3.1327  1.0716
   28MPD2    H3  443   0.587   4.031  12.238 -1.2765 -0.4194  2.4192
   28MPD2     N  444   0.738   4.429  12.069  0.0229  0.3064  0.4837
   28MPD2    H5  445   0.733   4.530  12.067  2.0058  0.3568 -2.6637
   28MPD2    N1  446   0.364   4.401  12.396  0.1575 -0.0191 -0.1818
   28MPD2    H7  447   0.305   4.329  12.436 -0.2818 -0.5899 -1.8516
   29TMC2    C1  448   0.202   2.293  14.533 -0.6011 -0.1982  0.0213
   29TMC2    C2  449   0.301   2.286  14.633  0.1320  0.5406  0.0728
   29TMC2    C3  450   0.338   2.404  14.691  0.1772  0.3053  0.2352
   29TMC2    C4  451   0.155   2.416  14.495  0.1118  0.1416  0.1438
   29TMC2    C5  452   0.195   2.531  14.553 -0.2160  0.7104 -0.2821
   29TMC2    C6  453   0.276   2.523  14.662  0.6005  0.2412 -0.7625
   29TMC2     C  454   0.183   2.175  14.449 -0.2186  0.2471  0.2527
   29TMC2     O  455   0.257   2.081  14.463 -0.3882 -0.1659 -0.0229
   29TMC2     H  456   0.331   2.185  14.658  0.6384  0.1833 -1.9538
   29TMC2    H1  457   0.098   2.438  14.406  1.5057  1.6827 -0.3779
   29TMC2    H2  458   0.302   2.610  14.720  2.6401 -1.5475  0.9983
   29TMC2    C7  459   0.187   2.654  14.481  0.4276 -0.6934  0.3377
   29TMC2    C8  460   0.403   2.391  14.820 -0.7339 -0.0941  0.3211
   29TMC2    O1  461   0.117   2.658  14.380 -0.4787  0.4952 -0.4278
   29TMC2    O2  462   0.490   2.468  14.857  0.9864  1.0317  0.0361
   29TMC2    O5  463   0.295   2.368  14.897  0.1357 -0.0175  0.2342
   29TMC2    H5  464   0.218   2.322  14.857  1.7559 -1.6217 -1.0626
   30MPD2     C  465   4.589   1.872  14.173 -0.1645 -0.3506 -1.0280
   30MPD2    C1  466   4.728   1.860  14.209  0.4109  0.1451 -0.3161
   30MPD2    C2  467   0.060   1.963  14.274  0.3641 -0.1218 -0.5452
   30MPD2    C3  468   4.732   2.078  14.308 -0.9860 -0.1655  0.0775
   30MPD2    C4  469   4.594   2.089  14.274 -0.7045  0.4482 -0.6623
   30MPD2    C5  470   4.527   1.987  14.220 -0.0709 -0.0574 -0.0137
   30MPD2     H  471   0.162   1.954  14.310 -0.4754 -1.9104  1.4081
   30MPD2    H1  472   4.537   2.175  14.308  0.0447  0.6519  0.0774
   30MPD2    H2  473   4.527   1.796  14.129  0.4515 -0.8485 -1.0344
   30MPD2    H3  474   4.423   1.991  14.188  0.1011  0.3066 -0.5257
   30MPD2     N  475   0.062   2.182  14.387 -0.3840  0.1657  0.3517
   30MPD2    H5  476   0.013   2.270  14.400 -0.2124  0.2325  0.5347
   30MPD2    N1  477   0.065   1.736  14.183  0.8008  1.0725  0.1944
   30MPD2    H7  478   0.165   1.741  14.197  1.0724 -0.3803 -1.2627
   31TMC2    C1  479   2.392   0.671  14.994  0.0305 -0.3955  0.3437
   31TMC2    C2  480   2.269   0.739  15.016 -1.0406 -0.3335  0.1355
   31TMC2    C3  481   2.219   0.746  15.142 -0.4281  0.3524  0.1439
   31TMC2    C4  482   2.463   0.620  15.098 -0.1878  0.1235  0.2493
   31TMC2    C5  483   2.403   0.620  15.218  0.0174  1.1153  0.2230
   31TMC2    C6  484   2.282   0.683  15.244  0.2022  0.3813 -0.0647
   31TMC2     C  485   2.469   0.730  14.885  0.5681  0.2772  0.0848
   31TMC2     O  486   2.420   0.822  14.825 -0.7358  0.2168  0.8878
   31TMC2     H  487   2.232   0.804  14.937 -2.0296  0.1276  0.9765
   31TMC2    H1  488   2.560   0.573  15.089 -0.2663  0.3591 -1.8509
   31TMC2    H2  489   2.228   0.668  15.337 -1.1609 -0.3575 -0.9724
   31TMC2    C7  490   2.483   0.583  15.333  0.0939  0.4611 -0.5267
   31TMC2    C8  491   2.083   0.779  15.163  0.2958 -0.2599 -0.6895
   31TMC2    O1  492   2.566   0.494  15.319  0.1065 -0.4411 -0.2742
   31TMC2    O2  493   2.043   0.824  15.269 -0.0885 -0.5953  0.5419
   31TMC2    O5  494   2.016   0.761  15.049  0.0040 -0.1472 -0.1192
   31TMC2    H5  495   2.052   0.689  14.993 -0.7475 -0.6667  0.0689
   32MPD2     C  496   2.877   0.792  14.584  0.0610 -0.5491  0.2211
   32MPD2    C1  497   2.750   0.853  14.574  0.7276  0.0361 -0.0939
   32MPD2    C2  498   2.656   0.813  14.671  0.0811 -0.2551 -0.2381
   32MPD2    C3  499   2.686   0.727  14.778 -0.3873  0.3827 -0.0209
   32MPD2    C4  500   2.819   0.680  14.786 -0.0704 -0.8919 -1.0049
   32MPD2    C5  501   2.912   0.713  14.690 -0.1523 -0.1398  0.5647
   32MPD2     H  502   2.551   0.826  14.648 -0.1547  1.4414  1.7888
   32MPD2    H1  503   2.845   0.619  14.872  0.4503 -0.0969 -0.5930
   32MPD2    H2  504   2.943   0.816  14.502  0.4406  0.5897  0.8584
   32MPD2    H3  505   3.009   0.666  14.698  1.3216  2.6065 -1.2372
   32MPD2     N  506   2.595   0.684  14.876  0.3460 -0.0519 -0.0107
   32MPD2    H5  507   2.628   0.621  14.949  1.8584  0.9829  0.2048
   32MPD2    N1  508   2.725   0.936  14.464  0.2938  0.5594  0.2771
   32MPD2    H7  509   2.797   0.948  14.393  0.7601  1.4242  0.8950
   33TMC2    C1  510   2.590   3.794  10.167  0.2022  0.5170 -0.1644
   33TMC2    C2  511   2.483   3.710  10.155  0.1648  0.4004  0.0698
   33TMC2    C3  512   2.381   3.740  10.076 -0.0540  0.1415  0.9558
   33TMC2    C4  513   2.587   3.913  10.093 -0.2686  1.1490  0.0647
   33TMC2    C5  514   2.486   3.944  10.011 -0.1751  0.5519 -0.6631
   33TMC2    C6  515   2.383   3.854  10.003  0.1733  0.1796 -0.3050
   33TMC2     C  516   2.697   3.765  10.260 -0.2515 -0.0286  0.1135
   33TMC2     O  517   2.674   3.667  10.331  0.9318 -0.3171  0.6114
   33TMC2     H  518   2.476   3.618  10.213 -0.7830  1.2719  1.3397
   33TMC2    H1  519   2.657   3.993  10.115  0.8064  1.0755 -3.0281
   33TMC2    H2  520   2.317   3.859   9.917 -0.6828  1.0746  0.4109
   33TMC2    C7  521   2.472   4.079   9.957  0.0834  0.2040 -0.2573
   33TMC2    C8  522   2.266   3.645  10.070  0.1543  0.3305  0.6163
   33TMC2    O1  523   2.570   4.152   9.976  0.7253 -0.5587  0.0101
   33TMC2    O2  524   2.285   3.520  10.063 -0.1532  0.2328 -0.5109
   33TMC2    O5  525   2.163   3.705  10.124  0.7639 -0.4471 -1.2097
   33TMC2    H5  526   2.166   3.803  10.128 -0.0144 -0.4291 -1.0608
   34MPD2     C  527   3.198   3.715  10.349  0.4195  0.1433  1.0090
   34MPD2    C1  528   3.087   3.669  10.416  0.3397  0.4340 -0.5504
   34MPD2    C2  529   2.957   3.701  10.377 -0.1579  0.0588  0.3059
   34MPD2    C3  530   2.940   3.785  10.273  0.5235 -0.2822 -0.3813
   34MPD2    C4  531   3.052   3.841  10.210 -0.1841  0.3069 -0.5177
   34MPD2    C5  532   3.181   3.797  10.245  0.0026  0.4244 -0.3983
   34MPD2     H  533   2.876   3.661  10.438 -0.4647 -1.7832 -1.3077
   34MPD2    H1  534   3.048   3.909  10.127  0.2821  1.8151  0.6981
   34MPD2    H2  535   3.294   3.667  10.367  1.7865  1.7977 -1.7467
   34MPD2    H3  536   3.263   3.840  10.188 -1.3393  2.2142 -0.9770
   34MPD2     N  537   2.816   3.826  10.219 -0.0038  0.8784 -0.3369
   34MPD2    H5  538   2.822   3.884  10.136 -1.7787 -1.0727 -1.8239
   34MPD2    N1  539   3.091   3.572  10.517  0.7756 -0.2538  0.2909
   34MPD2    H7  540   3.001   3.532  10.540  0.7178  0.1524  0.7847
   35TMC2    C1  541   4.010   0.162  11.352  0.3288 -0.0268  0.3096
   35TMC2    C2  542   3.950   0.157  11.225 -0.8391  0.1475 -0.5453
   35TMC2    C3  543   3.839   0.076  11.206 -0.1406 -0.8765  0.5460
   35TMC2    C4  544   3.964   0.091  11.459  0.4195  0.2418 -0.1565
   35TMC2    C5  545   3.855   0.009  11.435 -0.1136 -0.8889  0.3004
   35TMC2    C6  546   3.797   4.735  11.313 -1.0089 -0.5424  0.5385
   35TMC2     C  547   4.125   0.248  11.369  0.1074  0.0717  0.5491
   35TMC2     O  548   4.158   0.307  11.266  0.4515  0.4685  0.0854
   35TMC2     H  549   3.983   0.222  11.145  0.9558  2.0637  1.7638
   35TMC2    H1  550   4.014   0.092  11.556  0.3742  4.7258 -0.1771
   35TMC2    H2  551   3.710   4.671  11.300 -1.2062 -0.3314  0.8265
   35TMC2    C7  552   3.852   4.626  11.519  0.2637 -0.2712 -0.1672
   35TMC2    C8  553   3.786   0.056  11.071  0.5749 -0.6717  0.4535
   35TMC2    O1  554   3.825   4.519  11.466  0.9438 -0.0777  0.7187
   35TMC2    O2  555   3.716   4.697  11.042  0.0025 -1.0233 -0.2086
   35TMC2    O5  556   3.821   0.161  10.991 -0.2780 -0.2650 -0.2727
   35TMC2    H5  557   3.848   0.239  11.045 -1.8853  1.0079 -1.2945
   36MPD2     C  558   4.545   0.416  11.615  0.1439 -0.2607  0.2284
   36MPD2    C1  559   4.505   0.292  11.665 -0.0231  0.0485 -0.7537
   36MPD2    C2  560   4.390   0.233  11.626  0.2927 -0.2105 -0.2129
   36MPD2    C3  561   4.315   0.280  11.523  0.4058 -0.5216  0.3492
   36MPD2    C4  562   4.365   0.394  11.463  0.2297  0.3283 -0.6217
   36MPD2    C5  563   4.472   0.462  11.510 -0.7122  0.2266 -0.3222
   36MPD2     H  564   4.369   0.133  11.662 -3.1719  1.1169  1.4164
   36MPD2    H1  565   4.308   0.444  11.386  0.1299  0.5653 -0.3943
   36MPD2    H2  566   4.624   0.472  11.664 -0.4748 -1.0560  2.1343
   36MPD2    H3  567   4.493   0.561  11.472 -0.1150  0.3975  0.4478
   36MPD2     N  568   4.190   0.223  11.487 -0.1887 -0.2397  0.2998
   36MPD2    H5  569   4.159   0.149  11.551  0.3544 -1.0246 -0.3502
   36MPD2    N1  570   4.589   0.234  11.767 -0.0182  0.0134  0.0511
   36MPD2    H7  571   4.653   0.293  11.819  0.8792  0.0527 -1.1058
   37TMC2    C1  572   1.450   4.340  11.751  0.0250 -0.0546 -0.1029
   37TMC2    C2  573   1.422   4.221  11.702  0.3355 -0.3134 -0.5286
   37TMC2    C3  574   1.464   4.183  11.575  0.3182  0.1486  0.5259
   37TMC2    C4  575   1.535   4.424  11.684 -0.3906  0.7862 -0.8655
   37TMC2    C5  576   1.594   4.378  11.567  0.6223 -0.4505  0.9243
   37TMC2    C6  577   1.552   4.261  11.505  0.5320 -0.0552  0.1193
   37TMC2     C  578   1.425   4.367  11.894  0.0490  0.2863  0.3280
   37TMC2     O  579   1.314   4.350  11.941  0.1229 -0.8271 -0.0674
   37TMC2     H  580   1.371   4.151  11.768  0.5749  1.5994  1.6615
   37TMC2    H1  581   1.573   4.519  11.719 -2.4739  0.9413  0.9840
   37TMC2    H2  582   1.593   4.212  11.418 -1.0131 -0.9999 -0.0724
   37TMC2    C7  583   1.722   4.441  11.535 -0.3123 -0.6589 -0.4510
   37TMC2    C8  584   1.457   4.047  11.545 -0.2620  0.0948 -0.4794
   37TMC2    O1  585   1.760   4.524  11.617  0.6324  0.6032 -0.5327
   37TMC2    O2  586   1.546   3.978  11.494  0.4943  0.3088  0.7888
   37TMC2    O5  587   1.334   4.006  11.569 -0.1141 -0.3523 -0.1908
   37TMC2    H5  588   1.289   4.081  11.614  2.1955  0.5497  0.6216
   38MPD2     C  589   1.576   4.687  12.285  0.0832 -0.5927  0.3134
   38MPD2    C1  590   1.675   4.682  12.189  0.2686  0.1050  0.2527
   38MPD2    C2  591   1.652   4.602  12.081 -0.2154  0.2161 -0.4932
   38MPD2    C3  592   1.535   4.531  12.057 -0.4821 -0.5182  0.3985
   38MPD2    C4  593   1.438   4.536  12.160  0.0966 -0.4430  0.5654
   38MPD2    C5  594   1.460   4.621  12.271 -0.2183 -0.3715 -0.1832
   38MPD2     H  595   1.728   4.598  12.004 -0.6860  1.5884 -1.0292
   38MPD2    H1  596   1.339   4.491  12.157 -1.2269  2.5100 -0.1934
   38MPD2    H2  597   1.591   0.001  12.380  0.1878  0.0432 -0.0395
   38MPD2    H3  598   1.395   4.617  12.357  0.7393 -2.1138  0.4633
   38MPD2     N  599   1.529   4.446  11.940  0.0552 -0.2792  0.2823
   38MPD2    H5  600   1.616   4.450  11.889  0.6463  0.0272  1.3221
   38MPD2    N1  601   1.796   0.010  12.198  0.2765  0.0614  0.7089
   38MPD2    H7  602   1.868   4.725  12.130  0.3228  0.0028  0.7764
   39TMC2    C1  603   4.465   1.866   1.398 -0.6301 -0.2275  0.1618
   39TMC2    C2  604   4.353   1.916   1.454  0.2637  0.0730  0.7894
   39TMC2    C3  605   4.357   1.935   1.588  0.1922  0.4355 -0.0971
   39TMC2    C4  606   4.581   1.839   1.462  0.1027 -0.0994  0.5186
   39TMC2    C5  607   4.586   1.877   1.594 -0.3717  0.1078  0.2708
   39TMC2    C6  608   4.478   1.925   1.656 -0.2019  0.1286  0.5148
   39TMC2     C  609   4.427   1.771   1.295 -0.1865  0.5182 -0.3741
   39TMC2     O  610   4.308   1.784   1.267  0.2729  0.4977  0.3479
   39TMC2     H  611   4.280   1.961   1.388  0.3520 -0.5019  0.3128
   39TMC2    H1  612   4.669   1.800   1.411 -1.3441 -1.5195 -0.8982
   39TMC2    H2  613   4.476   1.968   1.756  2.5255 -0.7651  0.9508
   39TMC2    C7  614   4.704   1.866   1.676  0.1341 -0.1696 -0.1758
   39TMC2    C8  615   4.244   2.003   1.651 -0.2748  1.1156 -0.3504
   39TMC2    O1  616   4.695   1.896   1.795 -0.2215  0.4095  0.3790
   39TMC2    O2  617   4.259   2.073   1.753  0.1345 -0.2248 -0.3132
   39TMC2    O5  618   4.128   1.930   1.634  0.3527  0.2081  0.0492
   39TMC2    H5  619   4.125   1.873   1.555 -2.0346 -0.9017  0.9521
   40MPD2     C  620   4.530   1.430   1.236 -0.9876 -0.1157 -0.1760
   40MPD2    C1  621   4.459   1.540   1.209 -0.4344 -0.4702  0.3425
   40MPD2    C2  622   4.351   1.530   1.124  0.3036 -0.2349  0.2883
   40MPD2    C3  623   4.327   1.409   1.059 -0.0098  0.1817  0.2173
   40MPD2    C4  624   4.397   1.300   1.088 -1.0973  0.7823  0.3902
   40MPD2    C5  625   4.506   1.312   1.175  0.0778 -0.2153 -0.0790
   40MPD2     H  626   4.300   1.622   1.097 -0.8173 -0.5558  1.3294
   40MPD2    H1  627   4.383   1.201   1.046  2.3771  0.8163 -0.8101
   40MPD2    H2  628   4.602   1.444   1.315  0.7999 -1.3120 -1.5971
   40MPD2    H3  629   4.563   1.222   1.196 -0.2371 -0.0426  1.5487
   40MPD2     N  630   4.227   1.394   0.960  0.8231  0.1181  0.5928
   40MPD2    H5  631   4.207   1.301   0.925  2.9170  0.1451 -0.6535
   40MPD2    N1  632   4.506   1.659   1.273  0.6092 -0.4970  0.0520
   40MPD2    H7  633   4.598   1.649   1.316  0.1011  1.0053  1.4929
   41TMC2    C1  634   3.559   4.448  13.849 -0.3085  0.3791 -0.0019
   41TMC2    C2  635   3.439   4.503  13.800 -0.5892 -0.3818  0.3989
   41TMC2    C3  636   3.441   4.538  13.670  0.2264  0.2926  0.2207
   41TMC2    C4  637   3.665   4.407  13.771  0.0024 -0.4616 -0.7300
   41TMC2    C5  638   3.658   4.454  13.642  0.5453  0.2605  0.0729
   41TMC2    C6  639   3.543   4.521  13.590 -0.5087  0.8314  0.6361
   41TMC2     C  640   3.555   4.415  13.994 -0.5164  0.4081  0.4332
   41TMC2     O  641   3.618   4.313  14.028  0.1780 -0.3016 -0.8586
   41TMC2     H  642   3.353   4.529  13.860 -0.6014 -0.1524  0.2844
   41TMC2    H1  643   3.749   4.356  13.817  0.0647 -0.3914 -0.7666
   41TMC2    H2  644   3.536   4.565  13.491  1.2984  0.9700  0.5668
   41TMC2    C7  645   3.785   4.469  13.570 -0.1535  0.8609  0.5980
   41TMC2    C8  646   3.343   4.637  13.626 -0.1894 -0.2688 -1.4362
   41TMC2    O1  647   3.885   4.472  13.636  0.1585  0.3432  0.8589
   41TMC2    O2  648   3.229   4.626  13.669  0.3019  0.2844 -0.2601
   41TMC2    O5  649   3.414   0.016  13.645  0.4084  0.3304 -0.5229
   41TMC2    H5  650   3.509   4.736  13.666  0.4161 -1.7062 -2.0793
   42MPD2     C  651   3.555   4.426  14.292  0.5130 -0.5670  0.0609
   42MPD2    C1  652   3.486   4.514  14.215  0.3040  0.2358 -0.5788
   42MPD2    C2  653   3.424   4.619  14.268  0.1523  0.4410  0.1982
   42MPD2    C3  654   3.396   4.616  14.405  0.1255 -0.2582 -0.3973
   42MPD2    C4  655   3.459   4.528  14.490  0.2789 -0.7115  0.5511
   42MPD2    C5  656   3.550   4.437  14.430  0.3259  0.0426  0.7470
   42MPD2     H  657   3.377   4.688  14.199  0.9502 -0.1947 -0.9794
   42MPD2    H1  658   3.442   4.522  14.597 -2.2103  0.2393  0.2160
   42MPD2    H2  659   3.626   4.355  14.252 -0.5551 -1.2880 -0.5558
   42MPD2    H3  660   3.616   4.376  14.491 -0.1011 -0.7022  0.4540
   42MPD2     N  661   3.316   4.718  14.455 -0.2640  0.7275  0.2059
   42MPD2    H5  662   3.272   0.035  14.381 -0.9156  1.2334  0.9651
   42MPD2    N1  663   3.482   4.510  14.067 -0.1831 -0.2569  0.1486
   42MPD2    H7  664   3.441   4.579  14.004 -1.2529  0.1327  1.2576
   43TMC2    C1  665   4.541   2.912   0.608  0.2849 -1.0186  0.3984
   43TMC2    C2  666   4.411   2.952   0.586 -0.1412 -0.4715  0.1191
   43TMC2    C3  667   4.363   3.030   0.687  0.7186  0.2132  0.9064
   43TMC2    C4  668   4.606   2.938   0.725 -0.4225  0.6934 -0.9152
   43TMC2    C5  669   4.554   3.016   0.824  0.1523  0.6293 -0.0164
   43TMC2    C6  670   4.424   3.052   0.809 -0.0591  0.4007 -1.0076
   43TMC2     C  671   4.618   2.844   0.504 -0.7843  0.5411 -0.4114
   43TMC2     O  672   4.720   2.786   0.538 -0.3939  0.4412 -0.2200
   43TMC2     H  673   4.345   2.927   0.504 -0.2197 -2.6140  0.8357
   43TMC2    H1  674   4.706   2.896   0.733 -0.8971 -0.4808 -1.0397
   43TMC2    H2  675   4.373   3.117   0.880  0.1968 -0.0012 -0.4501
   43TMC2    C7  676   4.612   3.012   0.956  0.3553 -0.2958 -0.3717
   43TMC2    C8  677   4.228   3.072   0.683  0.1853 -0.1318  0.1619
   43TMC2    O1  678   4.702   2.930   0.960  0.3142 -0.2565  0.6043
   43TMC2    O2  679   4.172   3.121   0.780  0.6405  0.0773  0.2991
   43TMC2    O5  680   4.233   3.138   0.562 -0.1973 -0.0927  0.2539
   43TMC2    H5  681   4.289   3.095   0.493 -1.5139 -1.5594  0.1090
   44MPD2     C  682   0.003   2.784   0.018 -0.7359  0.9084 -0.0808
   44MPD2    C1  683   0.084   2.789   0.128 -0.1252  0.0241 -0.3130
   44MPD2    C2  684   0.023   2.811   0.247 -0.9872  0.0770  0.3171
   44MPD2    C3  685   4.621   2.811   0.261 -0.3920 -1.0768 -0.5904
   44MPD2    C4  686   4.546   2.811   0.147 -0.4567 -0.0773 -0.4397
   44MPD2    C5  687   4.603   2.789   0.028  0.4583 -0.5020 -0.0850
   44MPD2     H  688   0.083   2.832   0.335  0.8086  1.8970 -1.3313
   44MPD2    H1  689   4.441   2.839   0.157  0.0806  1.0773  2.0407
   44MPD2    H2  690   0.043   2.763  17.666  2.7588  2.4716  1.0268
   44MPD2    H3  691   4.554   2.809  17.679 -0.3260 -1.5424  0.0977
   44MPD2     N  692   4.555   2.844   0.382  0.0981  0.4672  0.2063
   44MPD2    H5  693   4.457   2.871   0.383  0.3574  1.3842  0.5947
   44MPD2    N1  694   0.222   2.766   0.136  0.1813  0.1342  0.2159
   44MPD2    H7  695   0.256   2.743   0.229  1.4929 -1.7953 -0.7353
   45TMC2    C1  696   0.614   0.922   9.720 -0.1344 -0.8555  0.2130
   45TMC2    C2  697   0.489   0.954   9.665  0.4042 -0.2961  0.3454
   45TMC2    C3  698   0.453   1.092   9.660  0.7365 -0.0442  0.1916
   45TMC2    C4  699   0.697   1.023   9.756  0.4003 -0.0033 -0.2642
   45TMC2    C5  700   0.664   1.155   9.734  0.1557  0.9493  0.3730
   45TMC2    C6  701   0.539   1.194   9.698 -0.9369 -0.1031  0.5625
   45TMC2     C  702   0.663   0.797   9.748  0.4835  0.2505 -0.5092
   45TMC2     O  703   0.747   0.779   9.836 -0.0858 -0.2040  0.9386
   45TMC2     H  704   0.410   0.881   9.657 -0.7959  1.0799 -0.3205
   45TMC2    H1  705   0.798   0.992   9.778  0.2760 -0.2215  0.0026
   45TMC2    H2  706   0.514   1.298   9.677  0.8782  0.4072  0.9366
   45TMC2    C7  707   0.762   1.247   9.781 -0.7162  0.1934  0.0751
   45TMC2    C8  708   0.322   1.139   9.619 -0.2532  0.0793 -0.1768
   45TMC2    O1  709   0.866   1.200   9.823 -1.3892  0.5261  0.1222
   45TMC2    O2  710   0.261   1.209   9.703  0.1623 -0.6109  0.0424
   45TMC2    O5  711   0.270   1.055   9.527  0.2041 -0.1310  0.2733
   45TMC2    H5  712   0.344   0.998   9.497 -0.8900 -0.3911 -1.9532
   46MPD2     C  713   0.748   0.505   9.729 -0.8355 -0.7491 -0.0738
   46MPD2    C1  714   0.654   0.567   9.647 -0.4978  0.2197 -0.1424
   46MPD2    C2  715   0.606   0.492   9.541 -0.5718  0.5413 -0.1323
   46MPD2    C3  716   0.637   0.362   9.518 -0.5601 -0.0014  0.5086
   46MPD2    C4  717   0.718   0.296   9.601  0.1214 -0.1143  0.2936
   46MPD2    C5  718   0.770   0.371   9.709  0.5420 -0.2127  0.0715
   46MPD2     H  719   0.531   0.546   9.485  0.8939  1.1429 -1.5067
   46MPD2    H1  720   0.751   0.193   9.593 -0.3087 -0.1987 -0.4028
   46MPD2    H2  721   0.780   0.560   9.817  0.2391  0.9859 -1.5559
   46MPD2    H3  722   0.833   0.317   9.778  2.4913 -0.1581 -1.6525
   46MPD2     N  723   0.584   0.292   9.408 -0.6798  0.4639 -0.0181
   46MPD2    H5  724   0.548   0.358   9.340 -1.6190  0.6583  0.6628
   46MPD2    N1  725   0.613   0.705   9.658  0.0232 -0.0492  0.2830
   46MPD2    H7  726   0.547   0.725   9.583 -0.4069 -0.0407  0.6639
   47TMC2    C1  727   2.607   1.240   9.801  0.4786  0.6739 -0.4771
   47TMC2    C2  728   2.633   1.234   9.931  0.0049  0.3571 -0.5897
   47TMC2    C3  729   2.549   1.282  10.027 -0.3042 -0.0328  0.8512
   47TMC2    C4  730   2.476   1.268   9.770  0.0120 -0.1270  0.2631
   47TMC2    C5  731   2.381   1.325   9.864 -0.0318  0.2337 -0.2225
   47TMC2    C6  732   2.425   1.336   9.993 -0.2685 -0.8589  0.7190
   47TMC2     C  733   2.676   1.164   9.705  0.3210  0.9290 -0.0922
   47TMC2     O  734   2.595   1.127   9.621 -0.1957 -0.5396 -0.0906
   47TMC2     H  735   2.726   1.186   9.960  0.2063  0.3634 -1.2288
   47TMC2    H1  736   2.457   1.292   9.666  1.5899 -1.0882 -0.2372
   47TMC2    H2  737   2.351   1.366  10.067  0.2730 -1.2370  1.4154
   47TMC2    C7  738   2.260   1.393   9.827  0.9399  0.3300  0.1945
   47TMC2    C8  739   2.618   1.325  10.147 -0.0807 -0.4303  1.0986
   47TMC2    O1  740   2.215   1.469   9.910  0.4330  0.0933 -0.1190
   47TMC2    O2  741   2.719   1.273  10.190  0.5651  0.0841 -0.6647
   47TMC2    O5  742   2.571   1.441  10.187 -0.2720 -0.2579 -0.3075
   47TMC2    H5  743   2.516   1.490  10.123 -1.0619  1.7833  1.9229
   48MPD2     C  744   2.839   1.038   9.500  0.2326 -0.4660 -0.4100
   48MPD2    C1  745   2.882   1.053   9.630  0.2154  0.8504 -0.3191
   48MPD2    C2  746   3.018   1.014   9.662  0.2207 -0.6095 -0.3662
   48MPD2    C3  747   3.096   0.962   9.560  0.2506  0.0360  0.2755
   48MPD2    C4  748   3.046   0.942   9.430  0.2037 -0.0421  0.0445
   48MPD2    C5  749   2.918   0.977   9.403 -0.4844  0.7349 -0.2452
   48MPD2     H  750   3.047   1.019   9.767  0.4445 -3.6618 -0.2780
   48MPD2    H1  751   3.097   0.901   9.343 -0.1375  0.3663 -0.3542
   48MPD2    H2  752   2.743   1.075   9.467  0.9852  0.2960 -1.7778
   48MPD2    H3  753   2.882   0.962   9.302 -0.8414  1.7104 -0.2575
   48MPD2     N  754   3.218   0.898   9.593  0.0528 -0.4130 -0.3778
   48MPD2    H5  755   3.247   0.906   9.690  0.4631 -0.7763 -0.4671
   48MPD2    N1  756   2.804   1.124   9.729  0.3131  0.0557 -0.0364
   48MPD2    H7  757   2.844   1.143   9.820  1.5086 -0.9324 -0.3580
   49TMC2    C1  758   1.149   2.248  10.322 -0.2613 -0.4110  0.1115
   49TMC2    C2  759   1.140   2.224  10.191  0.0730 -0.4912  0.0202
   49TMC2    C3  760   1.072   2.113  10.153 -0.0282  0.2099 -0.2580
   49TMC2    C4  761   1.105   2.161  10.417  0.1761  0.3610 -0.0917
   49TMC2    C5  762   1.039   2.052  10.369  0.3836  0.3850 -0.4016
   49TMC2    C6  763   1.015   2.029  10.239  0.5402  0.1216  0.6262
   49TMC2     C  764   1.255   2.342  10.362 -0.5701 -0.2251  0.2947
   49TMC2     O  765   1.342   2.368  10.279 -0.7768  0.0895  0.2919
   49TMC2     H  766   1.156   2.296  10.111 -0.1598 -0.7156 -0.2289
   49TMC2    H1  767   1.126   2.180  10.522 -0.7314  0.8422 -0.0001
   49TMC2    H2  768   0.964   1.938  10.211  1.0938  0.0071 -0.0073
   49TMC2    C7  769   1.008   1.932  10.452 -0.7486 -0.0058  0.7552
   49TMC2    C8  770   1.006   2.121  10.019 -0.5152 -0.5869  0.3075
   49TMC2    O1  771   0.974   1.829  10.395  0.1798 -0.3006 -0.4483
   49TMC2    O2  772   0.977   2.229   9.974  0.3234 -0.2879 -0.0908
   49TMC2    O5  773   0.955   1.998   9.989  0.0457 -0.2237 -0.4482
   49TMC2    H5  774   1.004   1.926  10.035 -0.1407 -0.1374 -0.1127
   50MPD2     C  775   1.383   2.599  10.472 -0.6401  0.8072  0.2598
   50MPD2    C1  776   1.277   2.529  10.530  0.5877 -0.1879 -0.2989
   50MPD2    C2  777   1.220   2.584  10.643 -0.5101  0.2182 -0.7181
   50MPD2    C3  778   1.271   2.706  10.702 -0.2729 -0.8428  0.6136
   50MPD2    C4  779   1.383   2.765  10.647  0.1308  0.3899 -0.7901
   50MPD2    C5  780   1.440   2.708  10.537 -0.4316 -0.1849  0.5980
   50MPD2     H  781   1.125   2.541  10.675 -1.1921  1.4651 -1.0595
   50MPD2    H1  782   1.408   2.862  10.690  0.3238  0.6111 -1.3936
   50MPD2    H2  783   1.430   2.562  10.382 -0.9218  1.3042 -0.0932
   50MPD2    H3  784   1.525   2.757  10.492 -0.4505 -1.5917 -0.9907
   50MPD2     N  785   1.200   2.778  10.800 -0.4591 -0.0962  0.5806
   50MPD2    H5  786   1.228   2.873  10.820 -2.3736  0.4910  0.4697
   50MPD2    N1  787   1.227   2.408  10.481  0.7904  0.6099 -0.7629
   50MPD2    H7  788   1.145   2.376  10.532  1.1585  0.1486 -0.4626
   51TMC2    C1  789   2.124   1.332   0.034  1.3469  0.0508 -0.2134
   51TMC2    C2  790   2.110   1.284  17.655 -0.5065 -0.3783 -0.2805
   51TMC2    C3  791   2.101   1.383  17.555  0.2245  1.1065  0.2150
   51TMC2    C4  792   2.137   1.470   0.063  0.5758 -0.4058  0.5261
   51TMC2    C5  793   2.138   1.555  17.700  0.0436 -0.6161 -0.7928
   51TMC2    C6  794   2.125   1.515  17.570 -0.3418 -0.0184  0.0954
   51TMC2     C  795   2.175   1.241   0.139 -0.4666  0.0525 -0.4729
   51TMC2     O  796   2.216   1.137   0.096  0.8841 -0.6483 -0.4416
   51TMC2     H  797   2.132   1.180  17.635  1.0386  0.0668 -0.8610
   51TMC2    H1  798   2.136   1.510   0.164  0.9493 -2.5409  1.3646
   51TMC2    H2  799   2.158   1.577  17.488 -0.6563  0.8104  0.6019
   51TMC2    C7  800   2.141   1.695  17.721  0.0542 -0.8353  0.6539
   51TMC2    C8  801   2.103   1.330  17.420  0.2954 -0.5305 -0.5685
   51TMC2    O1  802   2.155   1.732   0.086  0.3924  0.1684  0.3969
   51TMC2    O2  803   2.151   1.217  17.402  0.6439 -0.0538 -0.5475
   51TMC2    O5  804   2.023   1.403  17.337  0.5889 -0.4540 -0.1946
   51TMC2    H5  805   2.000   1.494  17.366  0.1330 -0.3723 -0.8272
   52MPD2     C  806   2.366   1.151   0.605 -0.2080  0.5260 -1.0720
   52MPD2    C1  807   2.402   1.098   0.481  0.5375 -0.5347 -0.7769
   52MPD2    C2  808   2.340   1.140   0.362 -0.0116  0.3709 -0.4617
   52MPD2    C3  809   2.252   1.247   0.371  0.0401  0.4521 -0.2077
   52MPD2    C4  810   2.225   1.308   0.485  0.4934  0.0509  0.8807
   52MPD2    C5  811   2.282   1.258   0.606  0.4817 -0.1302 -0.5045
   52MPD2     H  812   2.368   1.090   0.271 -0.7670 -0.5018 -0.2182
   52MPD2    H1  813   2.165   1.398   0.494  0.6763  0.3958 -1.4476
   52MPD2    H2  814   2.393   1.103   0.698 -1.9104  0.1855 -0.7604
   52MPD2    H3  815   2.260   1.297   0.704  1.7900 -2.0688  0.5736
   52MPD2     N  816   2.189   1.305   0.261  0.1404  0.0137 -0.1982
   52MPD2    H5  817   2.127   1.384   0.278  1.9775  1.9988 -2.6071
   52MPD2    N1  818   2.483   0.982   0.462  0.1936  0.1608  0.4104
   52MPD2    H7  819   2.472   0.932   0.375  1.5578 -3.2170  2.1664
   53TMC2    C1  820   2.308   0.178  11.395 -0.3999  0.5330  0.6754
   53TMC2    C2  821   2.446   0.192  11.368 -0.1570  0.6083 -0.5092
   53TMC2    C3  822   2.518   0.261  11.463 -0.0276 -0.1712 -0.3010
   53TMC2    C4  823   2.250   0.232  11.507  0.9367 -0.2527  0.2740
   53TMC2    C5  824   2.328   0.314  11.589 -0.7557  0.1048  0.0129
   53TMC2    C6  825   2.461   0.323  11.570 -0.1446  0.0384  0.3506
   53TMC2     C  826   2.228   0.086  11.313 -0.2939 -0.4945 -0.2825
   53TMC2     O  827   2.259   0.077  11.193 -0.8023  0.1044 -0.2294
   53TMC2     H  828   2.499   0.137  11.291  1.3007 -0.2330  1.0780
   53TMC2    H1  829   2.147   0.211  11.533  0.4344 -0.0996 -1.6079
   53TMC2    H2  830   2.512   0.395  11.633  3.2030 -0.4451 -1.8232
   53TMC2    C7  831   2.262   0.385  11.702  0.4441  0.5291  0.5343
   53TMC2    C8  832   2.655   0.271  11.446 -0.2755  0.5714 -0.0275
   53TMC2    O1  833   2.147   0.405  11.677 -0.3198  0.4840  0.1688
   53TMC2    O2  834   2.707   0.271  11.336 -0.4043  0.4086 -0.4614
   53TMC2    O5  835   2.718   0.264  11.567  0.5483  0.0714  0.5066
   53TMC2    H5  836   2.653   0.254  11.639  0.0358  3.6564  0.5674
   54MPD2     C  837   1.998   4.695  11.174  0.1693 -0.1557  0.0164
   54MPD2    C1  838   2.019   4.695  11.313  0.0077  0.1253 -0.1688
   54MPD2    C2  839   1.926   4.617  11.391  0.9669  0.4709 -0.0807
   54MPD2    C3  840   1.827   4.538  11.335 -0.1844  0.0448  0.6872
   54MPD2    C4  841   1.815   4.538  11.204  0.1604 -0.8599  0.2840
   54MPD2    C5  842   1.893   4.619  11.127  0.4490  0.3948 -0.4167
   54MPD2     H  843   1.941   4.625  11.498  0.1234 -2.2730  0.2494
   54MPD2    H1  844   1.734   4.481  11.160 -0.4547  0.7222 -0.6508
   54MPD2    H2  845   2.046   0.025  11.103  1.0666 -1.8114 -0.9209
   54MPD2    H3  846   1.887   4.610  11.019 -0.7318  1.2279 -0.4161
   54MPD2     N  847   1.738   4.449  11.400  0.0745  0.1557  0.1052
   54MPD2    H5  848   1.671   4.402  11.340 -0.3701  2.1384 -0.9315
   54MPD2    N1  849   2.118   0.035  11.376 -0.3048  0.5511  0.9625
   54MPD2    H7  850   2.108   0.052  11.476 -0.5450 -1.9085  1.3402
   55TMC2    C1  851   3.321   3.741  17.457 -0.8466 -0.0202  0.5082
   55TMC2    C2  852   3.323   3.791  17.327 -0.2754  0.8468 -0.0643
   55TMC2    C3  853   3.343   3.712  17.219  0.8408  0.5263 -0.0595
   55TMC2    C4  854   3.363   3.616  17.476 -0.5757  0.4316  0.2885
   55TMC2    C5  855   3.400   3.544  17.367  0.1244 -0.0763 -0.3521
   55TMC2    C6  856   3.393   3.586  17.235 -0.4662 -0.1077 -0.4589
   55TMC2     C  857   3.220   3.802  17.555  0.1563  0.0526  0.1846
   55TMC2     O  858   3.172   3.715  17.626  0.6395  0.1148  0.9699
   55TMC2     H  859   3.303   3.896  17.306  2.5246  1.2833 -0.4685
   55TMC2    H1  860   3.373   3.583  17.578 -2.1718  1.0911  0.6638
   55TMC2    H2  861   3.410   3.514  17.155 -1.6135 -0.6018 -0.2587
   55TMC2    C7  862   3.436   3.406  17.391  0.2969  0.7115 -0.4136
   55TMC2    C8  863   3.326   3.781  17.091 -0.1870  0.9109  0.4729
   55TMC2    O1  864   3.480   3.342  17.299  0.2420  0.1598  0.5737
   55TMC2    O2  865   3.308   3.899  17.085  0.5284  0.3503  0.2694
   55TMC2    O5  866   3.323   3.697  16.985  0.0723 -0.8800 -0.0275
   55TMC2    H5  867   3.309   3.602  17.005  2.8870 -1.7540 -2.1222
   56MPD2     C  868   3.095   4.153  17.573 -0.2406 -0.6531  0.2224
   56MPD2    C1  869   3.106   4.021  17.606 -0.1737  0.1636 -0.8713
   56MPD2    C2  870   3.016   3.971  17.695 -0.5519  0.0958 -0.0460
   56MPD2    C3  871   2.929   4.050   0.025 -0.1867  0.4521 -0.2456
   56MPD2    C4  872   2.929   4.181  17.744  0.1448  1.1293  0.4859
   56MPD2    C5  873   3.014   4.237  17.651 -0.6184  0.0399  0.8111
   56MPD2     H  874   3.009   3.864  17.713 -0.4274  0.5575  2.7376
   56MPD2    H1  875   2.883   4.252   0.066  0.8081  2.1637 -0.1420
   56MPD2    H2  876   3.152   4.200  17.494  0.3252 -0.3555  0.8115
   56MPD2    H3  877   3.017   4.344  17.637  2.6265 -0.1001  0.4744
   56MPD2     N  878   2.852   3.996   0.132  0.0504 -0.4254 -0.1878
   56MPD2    H5  879   2.870   3.899   0.156  3.4477 -0.2750 -2.0570
   56MPD2    N1  880   3.201   3.939  17.538 -0.6719 -0.1059  0.6711
   56MPD2    H7  881   3.268   3.987  17.478  0.0361 -1.4111  0.4062
   57TMC2    C1  882   2.418   3.325  13.444 -0.7537  0.3350  0.0849
   57TMC2    C2  883   2.368   3.241  13.538  0.8759  0.3859 -0.5375
   57TMC2    C3  884   2.352   3.115  13.498 -0.3954  0.6961  0.0618
   57TMC2    C4  885   2.449   3.283  13.314  0.8580  0.1940  0.2210
   57TMC2    C5  886   2.451   3.150  13.294 -0.1409 -0.8577  0.6131
   57TMC2    C6  887   2.393   3.063  13.379 -0.7229  0.1104  0.1281
   57TMC2     C  888   2.375   3.457  13.452  0.0551  0.0472 -0.0747
   57TMC2     O  889   2.325   3.503  13.352 -0.0323  0.1976  0.1588
   57TMC2     H  890   2.361   3.272  13.642  1.0404  0.4397 -0.5422
   57TMC2    H1  891   2.496   3.361  13.255 -0.8537  2.1744  1.4853
   57TMC2    H2  892   2.382   2.958  13.356  0.2453 -0.6407  3.2031
   57TMC2    C7  893   2.467   3.114  13.158  0.0082 -0.0262 -0.0973
   57TMC2    C8  894   2.269   3.024  13.581 -0.0956  0.8041 -1.2062
   57TMC2    O1  895   2.487   3.203  13.071  0.5746 -0.3814 -0.2783
   57TMC2    O2  896   2.291   2.904  13.587  0.1195 -0.4354 -0.0591
   57TMC2    O5  897   2.204   3.095  13.668 -0.5151 -0.0632  0.8072
   57TMC2    H5  898   2.193   3.189  13.643  0.0110 -0.8340 -2.3547
   58MPD2     C  899   2.314   3.899  13.718  0.6415 -0.8909 -0.9226
   58MPD2    C1  900   2.264   3.856  13.596 -0.0625  0.8566  0.4267
   58MPD2    C2  901   2.295   3.735  13.543 -0.2282  0.0158 -0.5682
   58MPD2    C3  902   2.374   3.645  13.615  0.1892 -0.1292  0.1299
   58MPD2    C4  903   2.418   3.683  13.743 -0.0733  0.7797  0.6282
   58MPD2    C5  904   2.394   3.812  13.789  0.3280 -0.0102  0.0918
   58MPD2     H  905   2.254   3.703  13.448 -0.2087 -2.4906  0.2800
   58MPD2    H1  906   2.486   3.616  13.793  0.9002  0.7192 -0.7841
   58MPD2    H2  907   2.292   3.997  13.760 -0.3536 -0.8537 -1.5260
   58MPD2    H3  908   2.444   3.848  13.878  0.6346  2.2888 -1.0100
   58MPD2     N  909   2.410   3.514  13.574 -0.5217 -0.4099  0.4786
   58MPD2    H5  910   2.466   3.459  13.638 -0.3617 -2.3020 -1.2637
   58MPD2    N1  911   2.177   3.936  13.519  0.5922  1.1027 -0.5096
   58MPD2    H7  912   2.113   3.897  13.451 -0.0125 -1.7254  1.6623
   59TMC2    C1  913   4.704   3.894  12.656 -0.3258 -0.2619 -0.2746
   59TMC2    C2  914   4.635   3.795  12.598  0.0630 -0.4155  0.4790
   59TMC2    C3  915   4.646   3.794  12.467  0.6272  0.6592 -0.0755
   59TMC2    C4  916   0.054   3.983  12.593  0.2411  0.5435 -0.8598
   59TMC2    C5  917   0.072   3.960  12.458 -0.6121 -0.5159 -0.1377
   59TMC2    C6  918   4.724   3.872  12.393 -0.2926 -0.0290  0.8769
   59TMC2     C  919   4.697   3.891  12.797  0.3304  0.3882 -0.5214
   59TMC2     O  920   4.626   3.804  12.852  0.2027  0.4734 -0.0763
   59TMC2     H  921   4.555   3.741  12.648 -1.3227  0.8523 -0.3348
   59TMC2    H1  922   0.112   4.057  12.646 -0.8257 -0.3631  1.5784
   59TMC2    H2  923   4.712   3.865  12.285  1.3519  1.0340  0.6251
   59TMC2    C7  924   0.134   4.061  12.376  0.0512 -0.7122 -0.1557
   59TMC2    C8  925   4.531   3.736  12.394 -0.5368  0.2309 -0.4702
   59TMC2    O1  926   0.167   4.165  12.430 -0.6254 -0.4086  0.1006
   59TMC2    O2  927   4.516   3.759  12.275 -0.0078 -0.2215  0.8114
   59TMC2    O5  928   4.516   3.609  12.448 -0.8287  0.0436  0.3271
   59TMC2    H5  929   4.567   3.583  12.527  0.9992 -1.3515 -1.3188
   60MPD2     C  930   0.009   3.905  13.097  0.2557 -0.0042 -0.0120
   60MPD2    C1  931   0.071   3.991  13.007 -0.3257  0.1357  0.5407
   60MPD2    C2  932   0.159   4.085  13.048 -0.4074 -0.8585  0.3812
   60MPD2    C3  933   0.197   4.085  13.184 -0.0455 -0.4928  0.3122
   60MPD2    C4  934   0.137   4.004  13.276  0.4223 -0.5010 -0.2325
   60MPD2    C5  935   0.041   3.919  13.232  0.3829 -0.1764 -0.9028
   60MPD2     H  936   0.205   4.155  12.979  1.0001 -1.1012  1.0752
   60MPD2    H1  937   0.161   4.010  13.382 -0.6815  2.4256 -0.1513
   60MPD2    H2  938   4.672   3.829  13.075  0.0914 -0.0464  0.6848
   60MPD2    H3  939   4.728   3.852  13.300  1.4474 -0.7582 -0.6942
   60MPD2     N  940   0.274   4.189  13.234  0.5584  0.2359  0.5509
   60MPD2    H5  941   0.289   4.197  13.334 -0.3319  0.3823  0.6703
   60MPD2    N1  942   0.048   3.981  12.865  0.2346 -0.5610  0.2410
   60MPD2    H7  943   0.091   4.050  12.805 -0.1367 -1.0108 -0.5489
   61TMC2    C1  944   4.099   0.541  15.843 -0.4538 -0.4576  0.8292
   61TMC2    C2  945   4.165   0.482  15.949 -0.4782  0.1797  0.9797
   61TMC2    C3  946   4.198   0.559  16.063 -0.1162 -0.4609  0.0382
   61TMC2    C4  947   4.049   0.669  15.844 -0.3439  0.3280  0.1816
   61TMC2    C5  948   4.080   0.740  15.959 -0.1701 -0.7552  0.1407
   61TMC2    C6  949   4.161   0.693  16.070 -0.0040  0.1106  0.5585
   61TMC2     C  950   4.102   0.480  15.711 -0.4085 -0.5855  0.2001
   61TMC2     O  951   4.069   0.553  15.621  0.7228  0.0773  0.1220
   61TMC2     H  952   4.171   0.374  15.949  2.5086  0.3659 -1.6417
   61TMC2    H1  953   3.992   0.728  15.773 -0.5490  0.6663  0.6202
   61TMC2    H2  954   4.179   0.752  16.159  2.0297 -0.9393  0.8290
   61TMC2    C7  955   4.044   0.878  15.962  0.0139 -0.0109 -0.4947
   61TMC2    C8  956   4.255   0.506  16.183 -0.2954  0.6465 -0.0774
   61TMC2    O1  957   4.128   0.956  16.011 -0.6322 -0.0720 -0.2944
   61TMC2    O2  958   4.207   0.539  16.290  0.4365  0.1723 -0.0319
   61TMC2    O5  959   4.300   0.382  16.142 -0.5138  0.2571 -0.2668
   61TMC2    H5  960   4.350   0.381  16.058 -0.9636 -1.0720 -0.5176
   62MPD2     C  961   4.294   0.196  15.596 -0.0310 -0.1075 -0.0452
   62MPD2    C1  962   4.223   0.309  15.586  0.2097  0.1380  0.1784
   62MPD2    C2  963   4.218   0.373  15.465  0.0076  0.1996 -0.0356
   62MPD2    C3  964   4.290   0.329  15.350  0.2425 -1.1960  0.5118
   62MPD2    C4  965   4.373   0.219  15.377  0.0535  0.0885 -0.6768
   62MPD2    C5  966   4.369   0.156  15.495 -0.0988  0.5235  0.7465
   62MPD2     H  967   4.149   0.455  15.449  1.1739  1.3341  0.7647
   62MPD2    H1  968   4.433   0.175  15.299 -0.3607 -3.2969  0.9401
   62MPD2    H2  969   4.313   0.145  15.690 -0.9764 -1.2190 -0.4659
   62MPD2    H3  970   4.441   0.075  15.505  0.2926  1.0194  1.9201
   62MPD2     N  971   4.271   0.369  15.212  0.6195 -0.3142 -0.3538
   62MPD2    H5  972   4.333   0.324  15.145  2.7969  0.4507  1.1338
   62MPD2    N1  973   4.173   0.360  15.704 -0.0874  0.8488 -0.3012
   62MPD2    H7  974   4.196   0.311  15.790  0.5139 -1.7176 -1.9023
   63TMC2    C1  975   3.269   0.761  10.352  0.4022  0.0531  0.0876
   63TMC2    C2  976   3.348   0.692  10.432  0.0671  0.1289  0.5050
   63TMC2    C3  977   3.478   0.720  10.441 -0.2364  0.5241  0.2559
   63TMC2    C4  978   3.318   0.871  10.285 -0.2360 -0.8929  0.2972
   63TMC2    C5  979   3.451   0.894  10.288 -0.3164  0.5667 -0.4082
   63TMC2    C6  980   3.535   0.819  10.370 -0.5010 -0.4713 -0.0080
   63TMC2     C  981   3.138   0.713  10.307  0.6168  0.0348  0.0766
   63TMC2     O  982   3.080   0.779  10.223  0.9619  0.1213  0.2177
   63TMC2     H  983   3.300   0.615  10.490 -1.3263  0.5536 -0.1010
   63TMC2    H1  984   3.255   0.935  10.225  2.4007  0.9396 -0.4938
   63TMC2    H2  985   3.641   0.830  10.354 -0.4779  1.3200  1.4550
   63TMC2    C7  986   3.506   1.002  10.209 -0.1045  1.0597  0.2498
   63TMC2    C8  987   3.572   0.608  10.479  0.3405 -0.5567  0.5504
   63TMC2    O1  988   3.429   1.062  10.139  0.3465 -0.1543  0.1178
   63TMC2    O2  989   3.664   0.562  10.410 -0.2877 -0.5383 -0.4316
   63TMC2    O5  990   3.502   0.560  10.582 -0.2389 -0.1600 -0.2351
   63TMC2    H5  991   3.448   0.632  10.621  0.4580 -0.6550  1.6447
   64MPD2     C  992   2.860   0.301  10.209  0.2262  0.2870 -0.0861
   64MPD2    C1  993   2.949   0.266  10.303  0.1506  0.2719 -0.0726
   64MPD2    C2  994   3.031   0.364  10.345 -0.3664  0.0390  0.2883
   64MPD2    C3  995   3.022   0.500  10.302 -0.2798 -0.0650  0.1910
   64MPD2    C4  996   2.923   0.534  10.214 -0.2980  0.2960  0.1427
   64MPD2    C5  997   2.850   0.430  10.166  0.2146 -0.0959 -0.6773
   64MPD2     H  998   3.101   0.331  10.421 -1.2421 -2.6893 -0.0759
   64MPD2    H1  999   2.914   0.630  10.165  1.0206  0.2830 -0.1188
   64MPD2    H2 1000   2.796   0.225  10.164  1.3034 -0.4411 -0.3909
   64MPD2    H3 1001   2.763   0.447  10.104 -0.3151  0.9900  0.3689
   64MPD2     N 1002   3.115   0.582  10.353  0.4555 -0.1917 -0.2428
   64MPD2    H5 1003   3.168   0.542  10.430 -2.5007 -2.0299  0.8252
   64MPD2    N1 1004   2.973   0.136  10.350 -0.0853 -0.0806 -0.2771
   64MPD2    H7 1005   3.050   0.121  10.413  0.3297  3.0638 -0.0150
   65TMC2    C1 1006   4.601   0.348  15.785  0.0700 -0.4058 -0.3312
   65TMC2    C2 1007   4.699   0.296  15.700 -0.0043 -0.8118 -0.3416
   65TMC2    C3 1008   4.707   0.349  15.574  0.2379 -0.1409  0.3492
   65TMC2    C4 1009   4.549   0.470  15.754 -0.1237 -0.6149 -0.3000
   65TMC2    C5 1010   4.569   0.520  15.628  0.0537  0.1581  0.7070
   65TMC2    C6 1011   4.640   0.459  15.530 -0.5793 -0.1152  0.1175
   65TMC2     C 1012   4.527   0.267  15.874 -0.1954 -0.0950  0.1967
   65TMC2     O 1013   4.449   0.325  15.945 -0.3668  0.1161 -0.1007
   65TMC2     H 1014   0.011   0.202  15.722 -0.5958 -1.6298 -2.4867
   65TMC2    H1 1015   4.474   0.521  15.814  0.1057 -0.7771  0.1188
   65TMC2    H2 1016   4.632   0.493  15.427 -1.4421 -0.3913  0.0944
   65TMC2    C7 1017   4.506   0.645  15.601  0.4171 -0.2111  0.1627
   65TMC2    C8 1018   0.028   0.258  15.476 -1.0476  0.7018  0.3658
   65TMC2    O1 1019   4.499   0.664  15.478  0.3604  0.5227  0.4324
   65TMC2    O2 1020   0.010   0.270  15.352 -0.2951  0.4086 -0.3398
   65TMC2    O5 1021   0.142   0.203  15.524  0.0438  0.4908 -0.5418
   65TMC2    H5 1022   0.162   0.219  15.618  0.8798 -2.3431 -0.2387
   66MPD2     C 1023   4.356   0.035  15.982  0.5430 -0.3983  0.2273
   66MPD2    C1 1024   4.443   0.028  15.876  0.3504 -0.2313  0.4127
   66MPD2    C2 1025   4.431   4.655  15.793 -0.1994  0.1617  0.4756
   66MPD2    C3 1026   4.346   4.550  15.817 -0.4084  0.6089  0.8185
   66MPD2    C4 1027   4.274   4.549  15.940  0.8700 -0.5812  0.4634
   66MPD2    C5 1028   4.282   4.659  16.022  0.1597 -0.5362 -0.6012
   66MPD2     H 1029   4.504   4.645  15.713 -2.2123  1.0504 -1.4909
   66MPD2    H1 1030   4.202   4.470  15.960  0.9309 -0.6120  0.5614
   66MPD2    H2 1031   4.350   0.127  16.040 -2.8140 -1.6910  1.9483
   66MPD2    H3 1032   4.216   4.664  16.108  1.8435 -0.6334  0.6855
   66MPD2     N 1033   4.333   4.438  15.734  0.0166  0.4341 -0.6687
   66MPD2    H5 1034   4.282   4.358  15.771  2.4206  0.2007  2.2347
   66MPD2    N1 1035   4.532   0.135  15.832  0.0667  0.1334  0.3805
   66MPD2    H7 1036   4.588   0.110  15.751  0.1499 -0.7294  0.7045
   67TMC2    C1 1037   0.052   4.473  14.239  0.1199 -0.2422  0.3565
   67TMC2    C2 1038   4.673   4.539  14.285 -0.4626 -0.0316  0.9376
   67TMC2    C3 1039   4.689   4.640  14.383  0.2151  0.3087 -0.1403
   67TMC2    C4 1040   0.169   4.509  14.295  0.0697 -0.0604  0.2930
   67TMC2    C5 1041   0.176   4.615  14.382 -0.0274 -0.2841  0.4620
   67TMC2    C6 1042   0.073   4.683  14.430 -0.3543 -0.3433  0.8625
   67TMC2     C 1043   0.048   4.344  14.173 -0.0693  1.1299 -0.6987
   67TMC2     O 1044   0.152   4.300  14.116  0.0163  0.1810  0.1830
   67TMC2     H 1045   4.570   4.519  14.259  0.0189  0.9659 -1.6997
   67TMC2    H1 1046   0.268   4.475  14.268 -0.1849 -0.4434 -0.1718
   67TMC2    H2 1047   0.089   0.029  14.499  0.6296  1.3014 -1.3390
   67TMC2    C7 1048   0.306   4.627  14.453  0.7795  0.1805 -0.0429
   67TMC2    C8 1049   4.564   4.694  14.439  0.3291  0.5684 -0.7201
   67TMC2    O1 1050   0.406   4.599  14.388  0.6932  0.0285  0.6848
   67TMC2    O2 1051   4.463   4.655  14.387  0.0582  0.1211  0.2317
   67TMC2    O5 1052   4.583   4.675  14.570 -0.1948  0.0877 -0.4994
   67TMC2    H5 1053   4.678   4.672  14.594 -1.1033  0.1110  3.1215
   68MPD2     C 1054   4.723   4.057  14.106 -0.0512 -0.2600  0.2411
   68MPD2    C1 1055   4.639   4.148  14.168 -0.1264  0.4836 -0.1495
   68MPD2    C2 1056   4.517   4.102  14.193  0.2239  0.0487 -0.2468
   68MPD2    C3 1057   4.477   3.969  14.162 -0.0607 -0.3836  0.3133
   68MPD2    C4 1058   4.561   3.879  14.104 -0.0653  0.0426 -0.1422
   68MPD2    C5 1059   4.680   3.929  14.063 -0.3129  1.5597 -0.4853
   68MPD2     H 1060   4.445   4.173  14.233  0.4391  0.7266 -1.0451
   68MPD2    H1 1061   4.527   3.779  14.082  2.3309 -1.5042  3.1504
   68MPD2    H2 1062   0.090   4.077  14.081 -0.0955  0.9841  1.0453
   68MPD2    H3 1063   0.006   3.854  14.016 -1.1782  1.0545 -0.8189
   68MPD2     N 1064   4.346   3.922  14.168 -0.2171 -0.2672 -0.8214
   68MPD2    H5 1065   4.315   3.834  14.128 -1.2747 -0.8927  1.4034
   68MPD2    N1 1066   4.670   4.279  14.200 -0.1179 -0.2088  0.3150
   68MPD2    H7 1067   4.596   4.317  14.257  1.1116  3.5388 -0.6236
   69TMC2    C1 1068   2.194   0.813  12.149 -0.4849 -0.0935 -0.2249
   69TMC2    C2 1069   2.069   0.837  12.090 -0.1810  0.6128  0.1347
   69TMC2    C3 1070   2.065   0.863  11.955 -0.8101  0.3749  0.2290
   69TMC2    C4 1071   2.312   0.793  12.073  0.3499  0.6151 -0.0838
   69TMC2    C5 1072   2.294   0.810  11.940 -0.1584 -0.7427  0.4514
   69TMC2    C6 1073   2.176   0.850  11.879 -0.1975 -0.1611  0.4637
   69TMC2     C 1074   2.206   0.791  12.293 -0.1591  0.0848 -0.0310
   69TMC2     O 1075   2.304   0.723  12.334 -0.2026 -0.0057  0.3216
   69TMC2     H 1076   1.973   0.835  12.139  0.1989  0.0974  0.8537
   69TMC2    H1 1077   2.407   0.755  12.107 -1.1231 -0.6505  2.6555
   69TMC2    H2 1078   2.160   0.865  11.773  1.2057 -2.2369 -0.0434
   69TMC2    C7 1079   2.404   0.772  11.849 -0.1141  0.4546 -0.3266
   69TMC2    C8 1080   1.942   0.920  11.908  0.2292  0.1261  0.6888
   69TMC2    O1 1081   2.518   0.773  11.893  0.3076  0.0778 -0.0689
   69TMC2    O2 1082   1.830   0.890  11.945  0.4339 -0.3577  0.1607
   69TMC2    O5 1083   1.968   0.981  11.791  0.2267 -0.2410 -0.3250
   69TMC2    H5 1084   2.061   1.007  11.773 -0.2765 -0.2324 -2.8360
   70MPD2     C 1085   1.969   0.892  12.546  0.1117  1.1444  0.4771
   70MPD2    C1 1086   2.054   0.801  12.481  0.1533 -0.0898 -0.1075
   70MPD2    C2 1087   2.083   0.683  12.542  0.0948  0.0560 -0.8424
   70MPD2    C3 1088   2.025   0.650  12.664 -0.0537  0.3937  0.0975
   70MPD2    C4 1089   1.944   0.742  12.727  0.2309 -0.6826 -0.0984
   70MPD2    C5 1090   1.914   0.869  12.670  0.3162  0.2801  0.0745
   70MPD2     H 1091   2.146   0.608  12.496 -1.8512 -1.3165 -1.2705
   70MPD2    H1 1092   1.904   0.719  12.825  0.7548  2.9585  0.9997
   70MPD2    H2 1093   1.946   0.987  12.499  0.3214  1.2666  0.6223
   70MPD2    H3 1094   1.865   0.947  12.729  0.2723  0.6182 -0.4067
   70MPD2     N 1095   2.048   0.530  12.736  0.2449  0.7624  0.0301
   70MPD2    H5 1096   1.978   0.497  12.801  0.4236 -1.4315 -0.8759
   70MPD2    N1 1097   2.086   0.825  12.347 -0.5833 -0.1091  0.1939
   70MPD2    H7 1098   2.032   0.895  12.298 -0.1529 -0.7962 -1.2482
   71TMC2    C1 1099   3.504   1.453   1.016 -0.2379 -0.3149  0.2931
   71TMC2    C2 1100   3.575   1.482   1.132  0.7134 -0.0848  0.3302
   71TMC2    C3 1101   3.536   1.576   1.222 -0.1765  0.0597  0.3859
   71TMC2    C4 1102   3.381   1.511   1.006 -0.3113 -0.6177  0.1323
   71TMC2    C5 1103   3.343   1.607   1.105  0.5274  0.6910 -0.3172
   71TMC2    C6 1104   3.414   1.634   1.218 -0.0198 -0.5651 -0.1989
   71TMC2     C 1105   3.548   1.335   0.945  0.3160 -0.0271 -0.6983
   71TMC2     O 1106   3.663   1.297   0.947 -0.0419 -0.0547  0.1245
   71TMC2     H 1107   3.670   1.433   1.148  1.0815  0.2719 -0.7613
   71TMC2    H1 1108   3.340   1.502   0.906 -0.5714 -2.6127  0.4245
   71TMC2    H2 1109   3.382   1.711   1.288 -1.4080 -0.3401 -1.0591
   71TMC2    C7 1110   3.218   1.682   1.086 -0.3403 -0.1397 -0.1456
   71TMC2    C8 1111   3.625   1.599   1.334 -0.4399  0.6511  0.1571
   71TMC2    O1 1112   3.196   1.783   1.157  0.6411 -0.8227 -0.1236
   71TMC2    O2 1113   3.701   1.512   1.377  0.1090 -0.0707  0.4326
   71TMC2    O5 1114   3.597   1.729   1.381 -0.2561  0.3973 -0.0575
   71TMC2    H5 1115   3.575   1.796   1.312  0.5144 -0.2487 -0.9238
   72MPD2     C 1116   3.444   0.926   0.675 -0.0643 -0.1081 -0.2412
   72MPD2    C1 1117   3.557   1.003   0.683 -0.4295  0.2979 -0.4221
   72MPD2    C2 1118   3.559   1.123   0.748  0.3359 -0.2334  0.1347
   72MPD2    C3 1119   3.443   1.157   0.815  1.0457  0.2102  0.3240
   72MPD2    C4 1120   3.332   1.089   0.812 -0.6983 -0.0509  0.0612
   72MPD2    C5 1121   3.325   0.969   0.735 -0.4018 -0.3128 -0.1995
   72MPD2     H 1122   3.659   1.164   0.757  0.6081 -0.6803 -0.9193
   72MPD2    H1 1123   3.245   1.130   0.862  1.0486  1.3899  1.9112
   72MPD2    H2 1124   3.435   0.834   0.620 -2.0115 -0.1863  0.2337
   72MPD2    H3 1125   3.230   0.921   0.718  0.4022 -0.2025 -4.9020
   72MPD2     N 1126   3.438   1.271   0.895 -0.9856  0.0733 -0.3314
   72MPD2    H5 1127   3.345   1.288   0.932 -0.1514 -1.2192  2.4237
   72MPD2    N1 1128   3.679   0.967   0.629  0.5181  0.0812  0.4574
   72MPD2    H7 1129   3.752   1.034   0.649  2.1592 -1.5354 -0.1621
   73TMC2    C1 1130   4.121   2.659  13.978  0.4940 -0.2041 -0.7321
   73TMC2    C2 1131   4.071   2.648  14.106 -0.3540 -0.3231  0.2077
   73TMC2    C3 1132   4.153   2.672  14.210 -0.3850  0.1457  0.5163
   73TMC2    C4 1133   4.254   2.675  13.970  0.0020 -0.1977  0.5229
   73TMC2    C5 1134   4.334   2.692  14.075  0.5388  0.0605  0.2590
   73TMC2    C6 1135   4.285   2.693  14.198 -0.1627 -0.0401 -0.0439
   73TMC2     C 1136   4.070   2.770  13.905 -0.1911  0.0829  0.5983
   73TMC2     O 1137   4.144   2.869  13.907 -0.4486 -0.5193 -0.2311
   73TMC2     H 1138   3.965   2.632  14.117 -0.7677  1.3011 -1.3408
   73TMC2    H1 1139   4.293   2.676  13.869 -1.3416 -1.3993 -0.0023
   73TMC2    H2 1140   4.345   2.691  14.288 -1.2841 -1.2048  0.6830
   73TMC2    C7 1141   4.444   2.780  14.046 -0.6840 -0.2200  0.7590
   73TMC2    C8 1142   4.083   2.692  14.335  0.3998  0.2509 -0.2047
   73TMC2    O1 1143   4.549   2.763  14.105 -0.6825 -0.3220 -0.0572
   73TMC2    O2 1144   3.987   2.633  14.380 -0.0743 -0.3071 -0.3541
   73TMC2    O5 1145   4.135   2.806  14.391 -0.6173  0.5767  0.0719
   73TMC2    H5 1146   4.210   2.847  14.343 -0.3785 -0.5282 -0.4898
   74MPD2     C 1147   3.796   2.982  13.517 -0.1243  0.0561  0.5450
   74MPD2    C1 1148   3.916   3.022  13.581  0.2449  0.4653 -0.5352
   74MPD2    C2 1149   3.981   2.936  13.664 -0.9081 -0.2169  0.2068
   74MPD2    C3 1150   3.912   2.823  13.717 -0.3137  0.3219 -0.3434
   74MPD2    C4 1151   3.787   2.797  13.664  0.4902 -0.3540 -0.7179
   74MPD2    C5 1152   3.732   2.875  13.562 -0.0535  0.1029 -0.0432
   74MPD2     H 1153   4.081   2.951  13.703 -0.0109 -0.1026 -2.1160
   74MPD2    H1 1154   3.740   2.704  13.696 -0.0497  0.4286  0.7653
   74MPD2    H2 1155   3.735   3.051  13.458  0.1982 -0.7839 -0.7788
   74MPD2    H3 1156   3.634   2.848  13.525 -0.0162  0.4768 -0.4131
   74MPD2     N 1157   3.967   2.739  13.820  0.3996  0.4520 -0.2031
   74MPD2    H5 1158   3.922   2.650  13.841  1.0964 -0.2630 -1.7156
   74MPD2    N1 1159   3.971   3.144  13.541 -0.4211  0.1235  0.0983
   74MPD2    H7 1160   3.931   3.195  13.464 -1.3827 -1.7473 -0.6365
   75TMC2    C1 1161   4.114   4.004  14.136 -0.2801  1.1799  0.7253
   75TMC2    C2 1162   4.021   4.085  14.194 -0.5481 -0.7784 -0.4401
   75TMC2    C3 1163   3.957   4.174  14.108 -0.8189 -0.0756 -0.2357
   75TMC2    C4 1164   4.127   3.987  14.003 -0.1887  0.2790  0.5768
   75TMC2    C5 1165   4.056   4.067  13.920 -0.3067 -0.6667 -0.4573
   75TMC2    C6 1166   3.981   4.167  13.974  0.4247  0.1456  0.0356
   75TMC2     C 1167   4.241   4.003  14.215  0.2564 -0.0823 -0.2273
   75TMC2     O 1168   4.248   4.081  14.308  0.1349 -0.2596 -0.1112
   75TMC2     H 1169   4.026   4.114  14.298  1.2259 -1.8655 -0.2355
   75TMC2    H1 1170   4.214   3.937  13.960 -0.7245  2.4241 -3.0337
   75TMC2    H2 1171   3.925   4.227  13.903 -0.2061 -0.9565 -0.3987
   75TMC2    C7 1172   4.103   4.079  13.791 -0.9159 -0.5012  0.4745
   75TMC2    C8 1173   3.891   4.286  14.173  0.6435 -0.3551  0.3872
   75TMC2    O1 1174   4.151   3.977  13.749  0.0477 -0.7286 -0.2202
   75TMC2    O2 1175   3.848   4.268  14.283 -0.4590  0.5907 -0.0029
   75TMC2    O5 1176   3.968   4.391  14.142 -0.1706 -0.3208 -0.5832
   75TMC2    H5 1177   3.980   4.418  14.048  0.8956  1.5181  0.0728
   76TMC2    C1 1178   2.887   4.490  11.949 -0.0709  0.1695  0.4872
   76TMC2    C2 1179   2.749   4.484  11.943  0.5455 -0.3962  0.2700
   76TMC2    C3 1180   2.702   4.397  12.037 -0.3080  0.3441  0.4427
   76TMC2    C4 1181   2.963   4.422  12.048 -0.1312  0.1190  0.5881
   76TMC2    C5 1182   2.900   4.347  12.138  0.0076 -0.3831  0.1411
   76TMC2    C6 1183   2.769   4.332  12.132  0.2238 -0.5779  0.2445
   76TMC2     C 1184   2.963   4.558  11.834  0.3715  0.2366  0.3087
   76TMC2     O 1185   2.893   4.616  11.752  0.2823 -0.1683  0.3403
   76TMC2     H 1186   2.688   4.532  11.868 -0.2212 -2.4691 -0.4405
   76TMC2    H1 1187   3.069   4.442  12.053 -0.3788  1.9130 -1.3083
   76TMC2    H2 1188   2.717   4.283  12.214  1.4133 -1.1450  0.6646
   76TMC2    C7 1189   2.967   4.254  12.229 -0.1843  0.2453  0.2253
   76TMC2    C8 1190   2.556   4.398  12.055 -0.3290  0.4339 -0.4086
   76TMC2    O1 1191   2.902   4.179  12.296 -0.8204 -0.9472 -0.3223
   76TMC2    O2 1192   2.476   4.497  12.039  0.1456 -0.2069 -0.0072
   76TMC2    O5 1193   2.523   4.268  12.054  0.4456  0.5259  0.1938
   76TMC2    H5 1194   2.604   4.214  12.052  0.3069  0.4530 -3.4704
   77MPD2     C 1195   3.396   0.031  11.640 -0.1389 -0.6411 -0.1870
   77MPD2    C1 1196   3.270   0.085  11.657 -0.3613  0.7341  0.5679
   77MPD2    C2 1197   3.180   0.012  11.727  1.0285 -0.4821  0.0581
   77MPD2    C3 1198   3.197   4.618  11.758  0.8714 -0.0080  0.1614
   77MPD2    C4 1199   3.324   4.562  11.741  0.0565 -0.6642 -0.0062
   77MPD2    C5 1200   3.422   4.641  11.685  0.3493  0.0014  0.1030
   77MPD2     H 1201   3.083   0.049  11.758  1.1194  1.0208 -1.4595
   77MPD2    H1 1202   3.350   4.461  11.770 -3.7612 -1.5398  0.2504
   77MPD2    H2 1203   3.477   0.081  11.588  0.7748 -0.8476  1.0243
   77MPD2    H3 1204   3.527   4.618  11.669 -0.1822 -2.4320  0.0602
   77MPD2     N 1205   3.099   4.537  11.825 -0.3861  0.4200  0.2093
   77MPD2    H5 1206   3.134   4.449  11.863  0.3535  0.4335 -0.4297
   77MPD2    N1 1207   3.248   0.214  11.607 -0.8596 -0.5120 -0.5584
   77MPD2    H7 1208   3.320   0.254  11.548 -0.4380  3.6062  2.7461
   78TMC2    C1 1209   0.127   1.460   1.740  0.2711 -0.8186 -0.2419
   78TMC2    C2 1210   0.150   1.487   1.879  0.3626  0.2487  0.7067
   78TMC2    C3 1211   0.281   1.489   1.916 -0.6660  0.3151  0.4059
   78TMC2    C4 1212   0.228   1.434   1.652 -0.1924  0.9030  0.1706
   78TMC2    C5 1213   0.356   1.452   1.698  0.2819  0.4738 -0.5894
   78TMC2    C6 1214   0.385   1.478   1.831  0.3391 -0.1312 -0.0514
   78TMC2     C 1215   0.002   1.486   1.676  0.4434  1.1160 -0.1471
   78TMC2     O 1216   4.733   1.475   1.549  0.2565  0.7139 -0.2701
   78TMC2     H 1217   0.076   1.496   1.958 -0.1612 -1.2514  0.3979
   78TMC2    H1 1218   0.201   1.410   1.550  0.1713 -1.5824  0.6335
   78TMC2    H2 1219   0.482   1.476   1.879  0.3238  2.0631  0.0978
   78TMC2    C7 1220   0.455   1.396   1.605 -0.1984  0.0153  0.0699
   78TMC2    C8 1221   0.317   1.504   2.057  0.5930 -0.2518  0.0743
   78TMC2    O1 1222   0.413   1.322   1.518 -0.1499  0.2221  0.7834
   78TMC2    O2 1223   0.428   1.473   2.097 -0.0241 -0.8023  0.1128
   78TMC2    O5 1224   0.249   1.605   2.110  0.6384 -0.4144 -0.2986
   78TMC2    H5 1225   0.181   1.642   2.050  2.1962  2.3621 -0.3658
   79MPD1     C 1226   4.264   1.627   1.708 -0.0806 -0.4430 -0.0890
   79MPD1    C1 1227   4.330   1.574   1.598 -0.3321  0.1395  0.2830
   79MPD1    C2 1228   4.458   1.527   1.625  0.2934  0.7532 -0.6710
   79MPD1    C3 1229   4.519   1.558   1.742 -0.4471 -0.1271  0.3423
   79MPD1    C4 1230   4.456   1.629   1.846 -0.0912  0.0066  0.2592
   79MPD1    C5 1231   4.322   1.658   1.828 -0.2450  0.1572  0.3317
   79MPD1     H 1232   4.509   1.474   1.545  0.1881  0.0464 -0.2701
   79MPD1    H1 1233   4.504   1.658   1.939 -1.1787 -0.6469  1.0264
   79MPD1    H2 1234   4.158   1.648   1.701  0.3881  1.8203 -0.4224
   79MPD1    H3 1235   4.259   1.691   1.910 -2.0558 -1.1372 -0.5632
   79MPD1     N 1236   4.655   1.537   1.769 -0.3578 -0.8562 -0.7527
   79MPD1    H5 1237   4.684   1.546   1.866 -0.5408  1.4389 -0.9086
   79MPD1    N1 1238   4.261   1.527   1.481 -0.7416 -0.4166  0.0992
   79MPD1    H6 1239   4.185   1.590   1.458 -0.1179  0.2712 -0.0669
   79MPD1    H7 1240   4.327   1.518   1.404  0.1082  1.0722  0.6420
   80TMC2    C1 1241   2.350   4.499  11.362  0.1420 -0.2499 -0.5627
   80TMC2    C2 1242   2.360   4.514  11.224  0.2817  0.0716 -0.1500
   80TMC2    C3 1243   2.263   4.458  11.147  0.0978  0.3334 -0.6039
   80TMC2    C4 1244   2.255   4.412  11.421 -0.2559 -0.3423  0.1910
   80TMC2    C5 1245   2.163   4.361  11.339  0.1064 -0.0451 -0.0284
   80TMC2    C6 1246   2.167   4.379  11.202 -0.2742  0.3467  0.4464
   80TMC2     C 1247   2.444   4.570  11.445  0.0443  0.4179 -0.2361
   80TMC2     O 1248   2.532   4.629  11.386  0.7000 -0.7751  0.3356
   80TMC2     H 1249   2.443   4.567  11.180 -0.2581  2.0523  1.2079
   80TMC2    H1 1250   2.264   4.396  11.527  0.6935 -1.5982 -0.0751
   80TMC2    H2 1251   2.092   4.336  11.138  0.7146 -2.1984  1.0062
   80TMC2    C7 1252   2.076   4.263  11.395 -0.1419 -0.5094 -0.1418
   80TMC2    C8 1253   2.231   4.510  11.013  0.2215  0.8161 -0.5717
   80TMC2    O1 1254   1.993   4.223  11.317 -0.4833 -0.0633 -0.0804
   80TMC2    O2 1255   2.168   4.450  10.926 -0.0274 -0.0643 -0.1846
   80TMC2    O5 1256   2.274   4.635  11.006 -0.0388  0.0280 -0.8142
   80TMC2    H5 1257   2.301   4.679  11.089  2.1497  1.4273 -2.2623
   81MPD2     C 1258   2.583   4.732  11.657  0.9004 -0.3726  0.2702
   81MPD2    C1 1259   2.451   4.690  11.668  0.4091 -0.1675  0.0922
   81MPD2    C2 1260   2.378   4.728  11.775 -0.0311 -0.0710  0.3266
   81MPD2    C3 1261   2.432   0.055  11.880 -1.0695  0.1348  1.0387
   81MPD2    C4 1262   2.565   0.076  11.877 -0.7888 -0.0329 -0.0292
   81MPD2    C5 1263   2.639   0.051  11.768  0.9746 -0.1477  0.6438
   81MPD2     H 1264   2.271   4.712  11.768  0.3291 -2.0844 -0.5717
   81MPD2    H1 1265   2.612   0.111  11.968  2.3494 -3.2090 -0.4424
   81MPD2    H2 1266   2.648   4.710  11.574  1.0298  2.4804 -0.3969
   81MPD2    H3 1267   2.747   0.063  11.765  0.8129  0.7511 -1.2983
   81MPD2     N 1268   2.365   0.086  12.000  0.5493 -0.4876  0.7176
   81MPD2    H5 1269   2.422   0.112  12.079 -0.9862  0.9349  1.3553
   81MPD2    N1 1270   2.388   4.605  11.573 -0.6486 -0.2179 -0.4936
   81MPD2    H7 1271   2.296   4.567  11.593 -1.2529  0.5717 -1.7515
   82TMC2    C1 1272   0.282   3.428  10.961  0.1260  0.3826  0.0449
   82TMC2    C2 1273   0.379   3.487  11.039  0.2660 -0.0245 -0.1748
   82TMC2    C3 1274   0.439   3.412  11.140  0.3168  0.1223 -0.1557
   82TMC2    C4 1275   0.241   3.296  10.978 -0.1272  0.1837  0.4810
   82TMC2    C5 1276   0.312   3.218  11.069 -0.6787  0.0914 -0.4141
   82TMC2    C6 1277   0.413   3.276  11.142  0.5488 -0.1818 -0.8048
   82TMC2     C 1278   0.217   3.491  10.847  0.6556  0.2039 -0.3808
   82TMC2     O 1279   0.101   3.452  10.814 -0.5938  0.1737 -0.8517
   82TMC2     H 1280   0.403   3.592  11.032 -0.8511  0.1684 -1.3009
   82TMC2    H1 1281   0.174   3.260  10.900  0.7154  0.4697 -0.3675
   82TMC2    H2 1282   0.464   3.224  11.222 -1.4130  0.1042  0.6350
   82TMC2    C7 1283   0.261   3.092  11.113 -0.0703  0.0358 -0.2758
   82TMC2    C8 1284   0.465   3.466  11.272 -0.1109  0.1292  0.2882
   82TMC2    O1 1285   0.328   3.038  11.201 -0.3207 -0.0450 -0.3051
   82TMC2    O2 1286   0.519   3.398  11.360 -0.1362 -0.1273  0.4097
   82TMC2    O5 1287   0.369   3.561  11.292  0.3867 -0.4138  0.0026
   82TMC2    H5 1288   0.313   3.580  11.214  3.1463  1.2545 -1.5645
   83MPD2     C 1289   0.209   3.725  10.397 -0.0978 -0.5700 -0.8183
   83MPD2    C1 1290   0.108   3.727  10.491  0.4091 -0.6281 -0.0321
   83MPD2    C2 1291   0.138   3.667  10.620 -0.4712  0.2455 -0.2200
   83MPD2    C3 1292   0.266   3.624  10.648  0.0465 -0.1064  0.4268
   83MPD2    C4 1293   0.367   3.643  10.554 -0.4720  0.0747  0.0051
   83MPD2    C5 1294   0.336   3.691  10.428  0.1668 -0.2990 -0.1672
   83MPD2     H 1295   0.054   3.649  10.686  0.6157 -3.0844  0.2486
   83MPD2    H1 1296   0.467   3.611  10.580 -0.9833  0.0989  2.0093
   83MPD2    H2 1297   0.186   3.767  10.300 -1.3231 -3.1961 -1.6518
   83MPD2    H3 1298   0.411   3.719  10.354  0.6481  0.9120  0.7755
   83MPD2     N 1299   0.311   3.552  10.766  0.2380  0.4057 -0.7216
   83MPD2    H5 1300   0.410   3.533  10.778 -0.2899 -1.7306  0.2146
   83MPD2    N1 1301   4.714   3.770  10.455  0.0267 -0.2452  0.4442
   83MPD2    H7 1302   4.699   3.801  10.359 -2.4856 -1.7840  0.3592
   84TMC2    C1 1303   1.070   2.995  11.146  0.0009 -0.1287  0.1708
   84TMC2    C2 1304   0.941   2.975  11.194 -0.2104  0.1639 -0.1113
   84TMC2    C3 1305   0.867   2.875  11.133  0.1684 -0.3617  0.5268
   84TMC2    C4 1306   1.123   2.921  11.042  0.1851  0.6432 -0.1207
   84TMC2    C5 1307   1.049   2.816  10.988 -0.4870  0.7549 -0.2431
   84TMC2    C6 1308   0.927   2.789  11.042  0.2096 -0.5703  0.4458
   84TMC2     C 1309   1.125   3.130  11.175  0.2109  0.2555  0.0049
   84TMC2     O 1310   1.059   3.203  11.251  0.3401 -0.1951  0.2915
   84TMC2     H 1311   0.900   3.032  11.277 -1.2408 -1.4543  0.4968
   84TMC2    H1 1312   1.219   2.950  11.002  1.0990 -1.9581  0.1932
   84TMC2    H2 1313   0.870   2.712  10.991 -1.6699  1.2485 -0.1779
   84TMC2    C7 1314   1.088   2.733  10.872 -0.4252 -0.3024  1.2592
   84TMC2    C8 1315   0.734   2.858  11.194  0.0889  0.0538 -0.2751
   84TMC2    O1 1316   1.026   2.624  10.857  0.6277 -0.7447  0.2365
   84TMC2    O2 1317   0.668   2.956  11.223 -0.8585  0.0725 -0.1640
   84TMC2    O5 1318   0.689   2.750  11.133 -0.3330  0.0430 -0.1146
   84TMC2    H5 1319   0.769   2.693  11.132 -1.2590 -1.2369 -1.2747
   85TMC2    C1 1320   2.472   1.197  15.539 -0.2832  0.6021  0.1575
   85TMC2    C2 1321   2.354   1.264  15.526  0.3765  1.5769 -0.0277
   85TMC2    C3 1322   2.351   1.357  15.422 -0.6015 -0.4786 -0.5080
   85TMC2    C4 1323   2.582   1.227  15.467 -0.4491  0.4115 -0.5965
   85TMC2    C5 1324   2.573   1.315  15.362  0.2846  0.3702 -0.2524
   85TMC2    C6 1325   2.455   1.381  15.336 -0.6968  0.4482  0.8643
   85TMC2     C 1326   2.484   1.121  15.663  0.4484 -0.2182  0.3150
   85TMC2     O 1327   2.593   1.125  15.723  1.0099  0.3434 -0.5472
   85TMC2     H 1328   2.269   1.230  15.584  2.0425 -0.7143  1.0468
   85TMC2    H1 1329   2.678   1.179  15.483 -2.4847 -3.1093  1.1794
   85TMC2    H2 1330   2.443   1.448  15.252 -2.8120  0.2267  0.9979
   85TMC2    C7 1331   2.673   1.304  15.260 -0.0801  0.0367  0.7549
   85TMC2    C8 1332   2.263   1.471  15.448  0.0420 -0.5001  0.1839
   85TMC2    O1 1333   2.778   1.256  15.291  0.0349 -0.1522 -0.0043
   85TMC2    O2 1334   2.215   1.525  15.348  0.2036 -0.2101  0.3972
   85TMC2    O5 1335   2.333   1.532  15.542 -0.3061 -0.5397 -0.1129
   85TMC2    H5 1336   2.379   1.471  15.605  1.0992  0.8541  0.2077
   86MPD2     C 1337   2.286   0.903  16.073  0.2091  0.8612 -0.3709
   86MPD2    C1 1338   2.218   0.857  15.958  0.6590  0.3075  0.3091
   86MPD2    C2 1339   2.250   0.911  15.837  0.4411  0.9145 -0.4043
   86MPD2    C3 1340   2.355   0.998  15.822 -0.7148  0.4420 -0.0076
   86MPD2    C4 1341   2.418   1.047  15.932 -0.4409  0.0547 -0.4821
   86MPD2    C5 1342   2.382   0.996  16.048  0.0769 -0.1812 -0.0790
   86MPD2     H 1343   2.181   0.889  15.756  1.4985 -3.4685 -0.0867
   86MPD2    H1 1344   2.497   1.122  15.940  1.4192 -1.8107 -1.4231
   86MPD2    H2 1345   2.274   0.861  16.172  0.9134  0.1706 -0.5700
   86MPD2    H3 1346   2.437   1.029  16.136  0.4014 -0.4466 -0.1804
   86MPD2     N 1347   2.376   1.048  15.693  0.1377 -0.3880 -0.2555
   86MPD2    H5 1348   2.306   1.028  15.622 -1.2732 -1.8419  1.5566
   86MPD2    N1 1349   2.115   0.758  15.965  0.1662  0.1673 -0.4324
   86MPD2    H7 1350   2.078   0.737  15.872  0.2388  3.2261 -1.1376
   87TMC2    C1 1351   4.097   4.168   0.875 -0.1425  0.1132  0.2847
   87TMC2    C2 1352   4.077   4.087   0.994  0.0051  0.1567  0.5617
   87TMC2    C3 1353   3.996   4.136   1.089 -0.4326 -0.3514 -0.6126
   87TMC2    C4 1354   4.019   4.275   0.851 -0.2505 -0.2429 -0.5847
   87TMC2    C5 1355   3.934   4.316   0.953  0.0140 -0.1413 -0.8108
   87TMC2    C6 1356   3.919   4.245   1.068  0.2881  0.2863 -0.1447
   87TMC2     C 1357   4.195   4.122   0.775  0.2063 -0.6603 -0.1909
   87TMC2     O 1358   4.174   4.159   0.655  0.4924 -0.2620  0.5092
   87TMC2     H 1359   4.129   3.993   1.009  0.5747  0.1408 -1.4141
   87TMC2    H1 1360   4.049   4.347   0.775  1.6418  0.5718  0.9444
   87TMC2    H2 1361   3.843   4.282   1.137 -0.4471 -0.6677 -0.4469
   87TMC2    C7 1362   3.903   4.458   0.963 -0.5259 -0.1696 -0.1808
   87TMC2    C8 1363   3.984   4.062   1.205  0.3296 -0.3682  0.4311
   87TMC2    O1 1364   3.874   4.512   0.860  0.1219  0.2576  0.1932
   87TMC2    O2 1365   4.022   3.949   1.209 -0.2521  0.0234 -0.1800
   87TMC2    O5 1366   3.919   4.132   1.297 -0.5113 -0.1142 -0.5280
   87TMC2    H5 1367   3.903   4.229   1.296  0.3858  0.0653  0.9246
   88MPD2     C 1368   3.922   4.658   1.264 -0.0995  0.7057  0.2533
   88MPD2    C1 1369   3.910   4.637   1.131 -0.2366 -0.0801 -0.4386
   88MPD2    C2 1370   3.890   0.007   1.045 -0.2503 -0.5344 -0.5034
   88MPD2    C3 1371   3.872   0.138   1.096  0.4252 -0.1941  0.1671
   88MPD2    C4 1372   3.871   0.151   1.228  0.3974  0.4696 -0.0401
   88MPD2    C5 1373   3.904   0.048   1.315 -0.5297  0.1593  0.1684
   88MPD2     H 1374   3.891   4.727   0.938 -0.9365 -1.2612 -0.3949
   88MPD2    H1 1375   3.845   0.248   1.269 -2.2411  0.1110 -0.8284
   88MPD2    H2 1376   3.942   4.572   1.328 -0.3975  0.7333  0.3809
   88MPD2    H3 1377   3.920   0.065   1.421 -0.8750 -0.1777  0.2725
   88MPD2     N 1378   3.843   0.239   1.000  0.7137  0.7029  0.2942
   88MPD2    H5 1379   3.849   0.212   0.903 -0.3579 -0.0122  0.4190
   88MPD2    N1 1380   3.933   4.509   1.086 -0.0574  0.2025  0.1276
   88MPD2    H7 1381   3.967   4.442   1.155 -0.1619 -2.2710 -2.1899
   89TMC2    C1 1382   0.749   1.766   1.372 -0.4879  0.3563  0.5096
   89TMC2    C2 1383   0.865   1.694   1.380  0.0639  0.4710  0.4786
   89TMC2    C3 1384   0.960   1.713   1.281 -0.3681 -0.1508 -0.2362
   89TMC2    C4 1385   0.731   1.858   1.272  0.1594  0.3071  0.5816
   89TMC2    C5 1386   0.840   1.887   1.189 -0.8430  0.0082 -0.3694
   89TMC2    C6 1387   0.953   1.810   1.180 -1.5843 -0.5245  0.3141
   89TMC2     C 1388   0.681   1.769   1.493  0.5085 -0.0424 -0.4826
   89TMC2     O 1389   0.745   1.763   1.597  0.0519  0.2089  0.0033
   89TMC2     H 1390   0.895   1.630   1.462 -0.0561 -1.4725 -0.9853
   89TMC2    H1 1391   0.651   1.928   1.291  0.5552  0.3471  2.1588
   89TMC2    H2 1392   1.034   1.839   1.114  0.3896 -2.7812  1.7490
   89TMC2    C7 1393   0.838   2.020   1.115  0.1056 -0.0276 -0.0780
   89TMC2    C8 1394   1.080   1.639   1.274 -0.8381  0.2412 -0.4786
   89TMC2    O1 1395   0.902   2.021   1.008  0.4947  0.6772  0.0118
   89TMC2    O2 1396   1.112   1.575   1.372 -0.0184 -0.3347  0.1693
   89TMC2    O5 1397   1.082   1.596   1.142  0.6278  0.5329 -0.5100
   89TMC2    H5 1398   1.020   1.638   1.079  3.0177  0.9428 -2.5728
   90MPD2     C 1399   0.257   1.826   1.769 -0.3391 -0.4194  0.2628
   90MPD2    C1 1400   0.217   1.821   1.640 -0.2858  0.2485 -0.5412
   90MPD2    C2 1401   0.316   1.785   1.552 -0.2283 -0.0801 -0.3435
   90MPD2    C3 1402   0.451   1.804   1.584 -0.0288 -0.0294 -0.2958
   90MPD2    C4 1403   0.489   1.827   1.710 -0.1497 -1.0314 -0.6588
   90MPD2    C5 1404   0.393   1.829   1.804 -0.3090  0.2466 -0.5834
   90MPD2     H 1405   0.283   1.757   1.453 -1.1527 -0.7764  0.1710
   90MPD2    H1 1406   0.595   1.839   1.732 -0.4966 -0.2616  0.6260
   90MPD2    H2 1407   0.191   1.847   1.852 -0.5324  1.4717 -0.3707
   90MPD2    H3 1408   0.419   1.852   1.906 -1.6241 -0.8935  0.0002
   90MPD2     N 1409   0.548   1.791   1.478  0.0284 -0.4775  0.9554
   90MPD2    H5 1410   0.511   1.772   1.385 -1.6987  0.9813  1.3584
   90MPD2    N1 1411   0.079   1.829   1.603 -0.0171  0.0863  0.4580
   90MPD2    H7 1412   0.063   1.801   1.507 -0.7785  0.8958  0.3523
   91TMC2    C1 1413   2.149   2.326  16.092  0.2885 -0.7148  0.2157
   91TMC2    C2 1414   2.218   2.349  16.203  0.3468  0.1519  0.1253
   91TMC2    C3 1415   2.142   2.342  16.314 -0.1283  0.1827 -0.3351
   91TMC2    C4 1416   2.017   2.296  16.087 -0.6576  0.2739  0.2260
   91TMC2    C5 1417   1.950   2.295  16.206 -0.1129  0.3819  0.2640
   91TMC2    C6 1418   2.009   2.320  16.324  0.7453  0.0955  0.5864
   91TMC2     C 1419   2.209   2.351  15.960  0.6326  0.3062 -0.4866
   91TMC2     O 1420   2.136   2.386  15.869  0.0635  0.5343 -0.3839
   91TMC2     H 1421   2.321   2.382  16.195  0.5498 -0.6775 -0.6656
   91TMC2    H1 1422   1.966   2.274  15.994  0.8999  0.6802 -0.7293
   91TMC2    H2 1423   1.946   2.319  16.412 -2.2535 -0.5808 -1.5654
   91TMC2    C7 1424   1.809   2.267  16.207  0.2220  0.0900 -0.0035
   91TMC2    C8 1425   2.229   2.331  16.426 -0.1999  0.3401  0.6672
   91TMC2    O1 1426   1.765   2.194  16.295  0.0221  0.5066 -0.1733
   91TMC2    O2 1427   2.344   2.304  16.400 -0.2343  0.3816 -0.7688
   91TMC2    O5 1428   2.163   2.263  16.518 -0.7076  0.3346  1.0971
   91TMC2    H5 1429   2.101   2.325  16.561  0.6271  2.1305  0.4392
   92MPD2     C 1430   2.373   2.462  15.722 -1.0568 -0.2383  0.3330
   92MPD2    C1 1431   2.421   2.416  15.844 -0.7765  0.4915 -0.7441
   92MPD2    C2 1432   2.558   2.420  15.863 -0.7431 -0.3342 -0.8708
   92MPD2    C3 1433   2.647   2.466  15.769 -0.0763  0.5642 -0.4561
   92MPD2    C4 1434   2.596   2.515  15.650 -0.7930 -0.6012  0.6736
   92MPD2    C5 1435   2.460   2.521  15.630  0.4068 -0.1243 -0.6692
   92MPD2     H 1436   2.602   2.375  15.951  0.0143  1.7250 -0.2087
   92MPD2    H1 1437   2.662   2.566  15.580  1.5843 -2.7841  1.3319
   92MPD2    H2 1438   2.273   2.433  15.691 -0.3018 -1.4519 -0.9647
   92MPD2    H3 1439   2.418   2.567  15.541 -0.5797  2.0519  0.9244
   92MPD2     N 1440   2.787   2.451  15.803  0.1108 -0.2383  0.0342
   92MPD2    H5 1441   2.813   2.384  15.875  2.0428 -0.2144 -0.6579
   92MPD2    N1 1442   2.349   2.361  15.949 -0.1287 -0.3472  0.2601
   92MPD2    H7 1443   2.405   2.336  16.030 -0.6983 -1.4020  0.3248
   93TMC2    C1 1444   4.229   2.098  13.932  0.4567 -0.2298 -0.1018
   93TMC2    C2 1445   4.105   2.156  13.912 -0.5455  0.2591  0.0736
   93TMC2    C3 1446   4.093   2.287  13.872  0.0964 -0.1102  0.1609
   93TMC2    C4 1447   4.343   2.169  13.902  0.3039 -0.2036 -0.0910
   93TMC2    C5 1448   4.329   2.303  13.863  0.0785 -0.4824 -0.3505
   93TMC2    C6 1449   4.207   2.366  13.857 -0.1404  0.4675  0.4881
   93TMC2     C 1450   4.240   1.969  13.989 -0.3139 -0.0721  0.5406
   93TMC2     O 1451   4.347   1.911  13.999  0.1324  0.5877 -0.1678
   93TMC2     H 1452   4.018   2.097  13.939  0.8787 -0.9855  1.9247
   93TMC2    H1 1453   4.437   2.118  13.915 -1.7513 -3.6384  1.2931
   93TMC2    H2 1454   4.196   2.469  13.825  0.9125  0.0069 -1.4156
   93TMC2    C7 1455   4.452   2.372  13.839 -0.0353  0.3224 -0.0354
   93TMC2    C8 1456   3.954   2.346  13.854  0.4734  0.0508  0.1305
   93TMC2    O1 1457   4.553   2.334  13.891 -0.1291  0.7040  0.5499
   93TMC2    O2 1458   3.930   2.464  13.837  0.1455 -0.0244 -0.0494
   93TMC2    O5 1459   3.854   2.254  13.873 -0.0983  0.1524 -0.1174
   93TMC2    H5 1460   3.879   2.160  13.879 -0.0761  0.1101 -0.8868
   94MPD2     C 1461   4.173   1.687  14.060 -0.5346 -0.1081 -0.6695
   94MPD2    C1 1462   4.092   1.802  14.106 -0.1298 -0.0716  0.1250
   94MPD2    C2 1463   3.961   1.776  14.152 -0.5155  0.5958  0.3258
   94MPD2    C3 1464   3.918   1.639  14.165  0.2234  1.2164  0.3672
   94MPD2    C4 1465   4.001   1.540  14.120  0.4606 -0.8985 -0.0990
   94MPD2    C5 1466   4.126   1.561  14.073  0.6511  0.0965 -0.5869
   94MPD2     H 1467   3.894   1.857  14.180 -0.1768  1.5346 -1.5944
   94MPD2    H1 1468   3.959   1.441  14.109 -1.1285 -0.3627  1.2017
   94MPD2    H2 1469   4.270   1.692  14.014 -0.7884  1.1254 -1.0787
   94MPD2    H3 1470   4.185   1.480  14.032 -2.5035 -1.0328 -2.9166
   94MPD2     N 1471   3.784   1.599  14.188  0.2274 -0.2821  0.0186
   94MPD2    H5 1472   3.746   1.506  14.171  0.9209 -0.8839  1.7358
   94MPD2    N1 1473   4.124   1.935  14.057  0.1664 -0.6326 -0.0464
   94MPD2    H7 1474   4.052   2.006  14.061  1.8436  1.1558 -1.3966
   95TMC2    C1 1475   3.745   3.536  15.684 -0.4463  0.2045  0.1376
   95TMC2    C2 1476   3.752   3.482  15.805  0.3034 -0.0441 -0.4832
   95TMC2    C3 1477   3.641   3.454  15.878 -0.5400 -0.5729  0.4319
   95TMC2    C4 1478   3.629   3.568  15.622  0.1649 -0.1327 -0.4654
   95TMC2    C5 1479   3.510   3.545  15.693 -0.4742  0.5088 -0.2840
   95TMC2    C6 1480   3.523   3.489  15.822 -0.3071  0.4627 -0.1320
   95TMC2     C 1481   3.864   3.591  15.628  0.1248 -0.5475 -0.1160
   95TMC2     O 1482   3.855   3.674  15.542 -0.0677  0.2904 -0.1305
   95TMC2     H 1483   3.849   3.460  15.850 -1.0451 -0.9080  1.9868
   95TMC2    H1 1484   3.624   3.619  15.527  1.3112 -0.4739 -0.7075
   95TMC2    H2 1485   3.435   3.492  15.886  1.0992 -1.8077  1.9258
   95TMC2    C7 1486   3.387   3.600  15.643  0.4449  0.4637 -0.1179
   95TMC2    C8 1487   3.644   3.378  15.994  0.9860  1.3946 -0.1291
   95TMC2    O1 1488   3.369   3.594  15.522  0.2154 -1.1026  0.3859
   95TMC2    O2 1489   3.753   3.370  16.054 -0.4910  0.8599 -0.0889
   95TMC2    O5 1490   3.572   3.272  15.953 -0.0716 -0.0588  0.3851
   95TMC2    H5 1491   3.495   3.284  15.893 -0.4789 -1.3892  0.6296
   96MPD2     C 1492   4.358   3.651  15.561  0.1433  0.2219  0.7276
   96MPD2    C1 1493   4.260   3.748  15.569 -0.0849 -0.6018  0.0422
   96MPD2    C2 1494   4.133   3.714  15.613 -0.5475  0.3157 -0.2653
   96MPD2    C3 1495   4.106   3.582  15.652 -0.1603  0.3115 -1.0343
   96MPD2    C4 1496   4.213   3.492  15.659  0.7173  0.1501  0.1193
   96MPD2    C5 1497   4.332   3.524  15.607  0.0298  0.0104 -0.1551
   96MPD2     H 1498   4.051   3.785  15.604 -0.4293  0.2523 -1.8879
   96MPD2    H1 1499   4.196   3.387  15.682 -0.2960  0.1170 -0.7909
   96MPD2    H2 1500   4.449   3.682  15.511 -0.9285  0.4908 -1.0386
   96MPD2    H3 1501   4.408   3.447  15.604 -0.4770 -0.5320  0.7372
   96MPD2     N 1502   3.973   3.538  15.681 -0.0445  0.2642  0.5394
   96MPD2    H5 1503   3.959   3.451  15.730 -0.4382  1.0422  1.8187
   96MPD2    N1 1504   4.285   3.875  15.527 -0.1180 -0.6417 -0.3757
   96MPD2    H7 1505   4.358   3.880  15.456 -0.1339 -1.2528 -0.4335
   97TMC2    C1 1506   1.348   2.285  17.047 -0.2379 -0.0974 -0.1846
   97TMC2    C2 1507   1.331   2.320  16.919  0.1072  0.3007  0.2779
   97TMC2    C3 1508   1.350   2.447  16.882  0.0302  0.0484 -0.6918
   97TMC2    C4 1509   1.375   2.378  17.148 -0.3696 -0.1718 -0.0331
   97TMC2    C5 1510   1.390   2.508  17.108  0.1970 -0.1848  0.0124
   97TMC2    C6 1511   1.370   2.546  16.979 -0.4564 -0.7326 -0.2576
   97TMC2     C 1512   1.346   2.144  17.087 -0.2227 -0.2949  0.0308
   97TMC2     O 1513   1.339   2.132  17.214 -0.1627  0.3483  0.3116
   97TMC2     H 1514   1.271   2.261  16.851 -0.7297 -0.8872  2.0448
   97TMC2    H1 1515   1.396   2.348  17.250  0.7767  1.1824  0.1423
   97TMC2    H2 1516   1.397   2.649  16.962 -0.3221 -0.9392 -1.2856
   97TMC2    C7 1517   1.497   2.575  17.190  0.2326 -0.2367 -0.3571
   97TMC2    C8 1518   1.330   2.490  16.748  0.5291  0.6395  0.7975
   97TMC2    O1 1519   1.595   2.620  17.128  0.2156  0.3015  0.4663
   97TMC2    O2 1520   1.312   2.609  16.715 -0.0165  0.3615  0.1388
   97TMC2    O5 1521   1.362   2.401  16.653 -0.6774  0.2219  0.0058
   97TMC2    H5 1522   1.367   2.310  16.691 -1.9532  0.6540  1.2120
   98MPD2     C 1523   1.324   1.637  17.008  1.0346 -0.0295  0.2060
   98MPD2    C1 1524   1.344   1.714  17.121  1.2151 -0.2658  0.3154
   98MPD2    C2 1525   1.354   1.854  17.114  0.1274 -0.3482 -0.0844
   98MPD2    C3 1526   1.338   1.918  16.996 -0.2236 -0.2221 -0.7220
   98MPD2    C4 1527   1.308   1.841  16.888 -0.3290 -0.1062 -0.2541
   98MPD2    C5 1528   1.301   1.706  16.887 -0.3998 -0.2081  0.4633
   98MPD2     H 1529   1.373   1.914  17.202 -1.6286  1.2269 -0.7768
   98MPD2    H1 1530   1.277   1.888  16.795 -1.8990 -2.1258 -0.7562
   98MPD2    H2 1531   1.332   1.529  17.012 -2.5759 -0.2830  0.4328
   98MPD2    H3 1532   1.276   1.656  16.794  0.8822 -1.7851  0.9628
   98MPD2     N 1533   1.332   2.055  16.987 -0.0482 -0.7695 -0.6277
   98MPD2    H5 1534   1.341   2.095  16.894  1.6804  1.0297  0.3087
   98MPD2    N1 1535   1.361   1.645  17.246  0.6042  0.1528 -0.1798
   98MPD2    H7 1536   1.338   1.546  17.248 -1.1064  0.5356 -1.5903
   99TMC2    C1 1537   4.496   3.547   1.589  0.3685 -0.5088  0.3549
   99TMC2    C2 1538   4.566   3.640   1.517 -0.0016 -0.1743  0.7235
   99TMC2    C3 1539   4.542   3.768   1.558  0.0754  0.0162  0.3808
   99TMC2    C4 1540   4.417   3.575   1.694 -0.1659 -0.0468 -0.2398
   99TMC2    C5 1541   4.395   3.709   1.723  0.5181 -0.2265  0.1588
   99TMC2    C6 1542   4.448   3.810   1.646 -0.1358  1.1422  0.8211
   99TMC2     C 1543   4.527   3.405   1.565 -0.5949  0.3192 -1.1746
   99TMC2     O 1544   4.531   3.335   1.666  0.5612  1.0127 -0.0680
   99TMC2     H 1545   4.637   3.625   1.437  1.7293 -0.6327  2.3627
   99TMC2    H1 1546   4.382   3.496   1.759  0.8203  0.0890  0.4636
   99TMC2    H2 1547   4.443   3.916   1.669 -0.4602  0.5921  3.2173
   99TMC2    C7 1548   4.261   3.741   1.767  0.3113 -0.0410  0.4763
   99TMC2    C8 1549   4.609   3.866   1.481 -0.9071  0.0105  0.0832
   99TMC2    O1 1550   4.244   3.848   1.816 -0.3518 -0.2614 -0.4329
   99TMC2    O2 1551   4.650   3.845   1.369  0.2689 -0.0570  0.2465
   99TMC2    O5 1552   4.644   3.981   1.554  0.0467 -0.4416 -0.5913
   99TMC2    H5 1553   4.637   3.978   1.652 -0.7226 -0.9353 -0.6642
  100MPD2     C 1554   4.640   3.149   1.448  0.0862 -0.4707 -0.2910
  100MPD2    C1 1555   4.574   3.250   1.374  0.2281 -0.5015 -0.1879
  100MPD2    C2 1556   4.553   3.241   1.238 -0.0445  0.3057 -0.4548
  100MPD2    C3 1557   4.604   3.130   1.168  0.1505  0.8081  0.2655
  100MPD2    C4 1558   4.671   3.030   1.243 -0.4653  0.3143 -0.2766
  100MPD2    C5 1559   4.693   3.045   1.380 -1.5673 -0.4243  0.0788
  100MPD2     H 1560   4.495   3.317   1.187 -1.0748 -0.3183 -0.1942
  100MPD2    H1 1561   4.705   2.942   1.189 -0.0459  0.4257 -0.1923
  100MPD2    H2 1562   4.663   3.151   1.554  1.3403  1.7326 -0.6030
  100MPD2    H3 1563   0.001   2.964   1.436 -0.4150  0.7548  0.8708
  100MPD2     N 1564   4.578   3.120   1.034 -0.3185 -0.0467 -0.0678
  100MPD2    H5 1565   4.512   3.187   0.995  0.7132 -0.0007 -1.7635
  100MPD2    N1 1566   4.528   3.372   1.429 -0.0386  0.6520 -0.2196
  100MPD2    H7 1567   4.491   3.445   1.368 -0.7299  2.8677  2.8292
  101TMC2    C1 1568   1.109   0.498  13.222 -0.0952  0.0309 -0.1181
  101TMC2    C2 1569   1.063   0.608  13.293 -0.2269 -0.4871  0.2576
  101TMC2    C3 1570   1.119   0.728  13.257 -0.1681 -0.5329 -0.7394
  101TMC2    C4 1571   1.192   0.505  13.112  0.0452  1.0038  0.2428
  101TMC2    C5 1572   1.243   0.634  13.083  0.2747 -0.7898  0.1131
  101TMC2    C6 1573   1.214   0.748  13.153 -0.5259 -0.1221 -0.0685
  101TMC2     C 1574   1.060   0.370  13.247  0.6848  0.2331 -0.6963
  101TMC2     O 1575   0.946   0.365  13.299  0.0402  0.2172 -0.5094
  101TMC2     H 1576   0.998   0.596  13.379 -3.0790  1.8544 -1.6068
  101TMC2    H1 1577   1.207   0.435  13.031 -2.5042  1.1147 -0.3335
  101TMC2    H2 1578   1.257   0.845  13.127 -4.3397  1.6683  0.2115
  101TMC2    C7 1579   1.274   0.655  12.945  0.7257 -0.3558 -0.5416
  101TMC2    C8 1580   1.057   0.845  13.315  0.6300 -0.2570  0.8030
  101TMC2    O1 1581   1.352   0.583  12.881 -0.4887 -0.2920  0.2647
  101TMC2    O2 1582   1.118   0.946  13.346 -0.0947  0.5391 -0.2247
  101TMC2    O5 1583   0.932   0.822  13.360 -0.5384 -0.0544 -0.1104
  101TMC2    H5 1584   0.884   0.756  13.306  0.2304  0.0390 -0.9113
  102MPD2     C 1585   1.159   0.062  13.089  0.3486 -0.0956  0.0941
  102MPD2    C1 1586   1.086   0.139  13.172 -0.6269 -0.1521 -0.7867
  102MPD2    C2 1587   0.970   0.084  13.227  0.4083  0.4936 -0.3815
  102MPD2    C3 1588   0.927   4.692  13.206 -0.3908  0.0446  0.1899
  102MPD2    C4 1589   1.010   4.620  13.115  0.4689  0.7322  0.1464
  102MPD2    C5 1590   1.119   4.675  13.058  0.4433  0.0419  0.0446
  102MPD2     H 1591   0.911   0.142  13.297  0.0158  0.1470 -0.4217
  102MPD2    H1 1592   0.981   4.519  13.088 -3.2339  1.2007  2.3454
  102MPD2    H2 1593   1.238   0.107  13.031  1.1019 -0.9996  0.4193
  102MPD2    H3 1594   1.167   4.616  12.981  0.1026 -0.0744 -0.0756
  102MPD2     N 1595   0.808   4.642  13.253  0.3791 -0.1179 -0.3422
  102MPD2    H5 1596   0.762   4.691  13.329  1.1596  0.5033 -0.2723
  102MPD2    N1 1597   1.136   0.272  13.195  0.3263  0.1830  0.2499
  102MPD2    H7 1598   1.228   0.303  13.167  1.1786 -2.8990 -0.3744
  103TMC2    C1 1599   3.643   4.472  12.589  0.3167  0.6435  1.0567
  103TMC2    C2 1600   3.743   4.527  12.516 -0.1054 -0.0078  0.0826
  103TMC2    C3 1601   3.841   4.584  12.589 -0.8298 -0.6128  0.1027
  103TMC2    C4 1602   3.639   4.477  12.727  0.4651 -0.2311 -0.5234
  103TMC2    C5 1603   3.746   4.533  12.791  0.0603 -0.2159 -0.2611
  103TMC2    C6 1604   3.844   4.596  12.725 -0.0516 -0.1944 -0.0939
  103TMC2     C 1605   3.533   4.427  12.517  0.0429  0.1046 -0.5401
  103TMC2     O 1606   3.506   4.494  12.419 -0.2623  0.0093  0.0931
  103TMC2     H 1607   3.746   4.513  12.408  0.2998  1.0649 -0.0404
  103TMC2    H1 1608   3.549   4.455  12.784  0.3194  1.0724 -0.2376
  103TMC2    H2 1609   3.918   4.661  12.770 -2.1467  1.9109  0.2919
  103TMC2    C7 1610   3.746   4.519  12.936 -0.4068 -0.1166 -0.5371
  103TMC2    C8 1611   3.954   4.649  12.520  0.1466 -0.2273  0.2847
  103TMC2    O1 1612   3.641   4.479  12.988  0.7503 -0.7525  0.0260
  103TMC2    O2 1613   4.027   4.734  12.570 -0.6113 -0.2972 -0.3702
  103TMC2    O5 1614   3.961   4.615  12.391  0.2444  0.1031  0.1716
  103TMC2    H5 1615   3.929   4.524  12.377 -0.3373  0.5895 -1.6606
  104MPD2     C 1616   3.304   4.148  12.581 -0.0930 -0.6116 -0.2167
  104MPD2    C1 1617   3.349   4.254  12.510 -0.4052  0.6839 -0.6724
  104MPD2    C2 1618   3.292   4.287  12.386  0.2710  0.1170 -0.0335
  104MPD2    C3 1619   3.182   4.217  12.350 -0.2636  0.2962  0.3894
  104MPD2    C4 1620   3.139   4.106  12.424 -0.0202  0.4728  0.1301
  104MPD2    C5 1621   3.207   4.067  12.533  0.4315 -0.2031 -0.0885
  104MPD2     H 1622   3.334   4.369  12.329 -1.5577  1.7088  0.9291
  104MPD2    H1 1623   3.053   4.044  12.402  0.2620 -0.4366  1.6115
  104MPD2    H2 1624   3.353   4.109  12.670 -1.0685  1.9546  1.4350
  104MPD2    H3 1625   3.192   3.975  12.588 -1.7617 -0.5124 -1.2277
  104MPD2     N 1626   3.106   4.276  12.248  0.7008  0.0053  0.0188
  104MPD2    H5 1627   3.146   4.358  12.205  1.6959 -1.7802 -2.4495
  104MPD2    N1 1628   3.455   4.319  12.571 -0.1431 -0.2511  0.2351
  104MPD2    H7 1629   3.475   4.284  12.664 -0.9629 -1.0648  0.0988
  105TMC2    C1 1630   4.438   3.719  17.693 -0.3787  0.7110 -0.2020
  105TMC2    C2 1631   4.356   3.816  17.651  0.3241 -0.1789 -1.0262
  105TMC2    C3 1632   4.281   3.876   0.003 -0.0744 -0.2261 -0.1636
  105TMC2    C4 1633   4.458   3.689   0.075  0.5384 -0.4487 -0.3459
  105TMC2    C5 1634   4.399   3.768   0.172 -0.9838  0.0213  0.1618
  105TMC2    C6 1635   4.310   3.867   0.136  0.0600  0.7020  0.0019
  105TMC2     C 1636   4.515   3.636  17.598 -0.1985  0.1562  0.1008
  105TMC2     O 1637   4.539   3.521  17.633 -0.4989 -0.4764 -0.3558
  105TMC2     H 1638   4.348   3.833  17.545 -0.8186  2.1489 -0.5699
  105TMC2    H1 1639   4.529   3.614   0.111  0.6383  0.0610  0.5216
  105TMC2    H2 1640   4.242   3.927   0.195  2.5822  3.5371  0.0126
  105TMC2    C7 1641   4.418   3.728   0.307 -0.0468  0.2211 -0.3430
  105TMC2    C8 1642   4.176   3.972  17.713  0.3529 -0.4104  0.0258
  105TMC2    O1 1643   4.474   3.624   0.324  0.7932 -0.3538  0.6961
  105TMC2    O2 1644   4.159   4.077   0.028 -0.6192 -1.0566  0.0536
  105TMC2    O5 1645   4.122   3.942  17.592 -0.5968 -0.1741 -0.0012
  105TMC2    H5 1646   4.159   3.857  17.562  1.8344  0.9820 -0.2720
  106MPD2     C 1647   0.121   3.595  17.221  0.7359  0.3668  0.0287
  106MPD2    C1 1648   0.099   3.733  17.252  0.9283  0.6310 -0.5228
  106MPD2    C2 1649   4.730   3.760  17.337  0.2361 -0.2827 -0.4335
  106MPD2    C3 1650   4.660   3.663  17.403 -0.3365 -0.1415  0.1485
  106MPD2    C4 1651   4.682   3.532  17.378  0.6818  0.3439 -0.1656
  106MPD2    C5 1652   0.040   3.502  17.281 -0.5812 -0.6531  0.6576
  106MPD2     H 1653   4.699   3.864  17.344  0.4851 -0.4464  2.8621
  106MPD2    H1 1654   4.626   3.460  17.435  0.0291 -1.4708 -3.0990
  106MPD2    H2 1655   0.192   3.562  17.146 -0.7374 -1.2475 -0.6634
  106MPD2    H3 1656   0.077   3.401  17.263 -0.5924 -0.4870 -0.3356
  106MPD2     N 1657   4.569   3.710  17.498  0.0450  0.1254  0.3089
  106MPD2    H5 1658   4.534   3.805  17.487  0.2306  0.1118 -0.3750
  106MPD2    N1 1659   0.186   3.838  17.198  0.0069  0.7098  0.1499
  106MPD2    H7 1660   0.164   3.935  17.217  3.0193  1.3696  0.1113
  107TMC2    C1 1661   1.058   3.918  11.376  0.8086  0.1495 -0.8546
  107TMC2    C2 1662   1.081   4.048  11.331  0.4131 -0.2703  0.1372
  107TMC2    C3 1663   1.181   4.070  11.250 -0.0659 -0.2666 -0.5413
  107TMC2    C4 1664   1.154   3.820  11.363  0.1731  0.3972  0.1899
  107TMC2    C5 1665   1.255   3.847  11.273 -0.1478  0.6276 -0.4554
  107TMC2    C6 1666   1.271   3.971  11.220 -0.3605  0.5642 -0.0767
  107TMC2     C 1667   0.955   3.894  11.472  0.2301  0.2783 -0.6017
  107TMC2     O 1668   0.965   3.808  11.555  0.0200 -0.1435  0.0301
  107TMC2     H 1669   1.021   4.126  11.376  2.1175  0.1098  1.7436
  107TMC2    H1 1670   1.145   3.721  11.405  0.9639 -0.6714 -2.1384
  107TMC2    H2 1671   1.353   4.001  11.156 -0.7267  1.7243  0.0102
  107TMC2    C7 1672   1.334   3.746  11.208  0.4410 -0.3952 -0.1827
  107TMC2    C8 1673   1.221   4.211  11.238 -0.7044  0.1939  0.2206
  107TMC2    O1 1674   1.417   3.785  11.126  0.0653  0.0507  0.9183
  107TMC2    O2 1675   1.210   4.284  11.334 -1.1153  0.4402 -0.0005
  107TMC2    O5 1676   1.306   4.231  11.136 -0.2714 -0.0298 -0.5519
  107TMC2    H5 1677   1.287   4.172  11.060 -0.3297 -4.4095  2.8933
  108MPD2     C 1678   0.614   3.900  11.353 -0.1064  0.3512 -0.7716
  108MPD2    C1 1679   0.718   3.892  11.449 -0.4186 -0.0723  0.3622
  108MPD2    C2 1680   0.682   3.824  11.571  0.5318 -0.2378 -0.8298
  108MPD2    C3 1681   0.551   3.776  11.596 -0.4257 -1.0510 -0.3410
  108MPD2    C4 1682   0.454   3.801  11.502  0.2040 -0.5446  0.1809
  108MPD2    C5 1683   0.487   3.858  11.386 -0.8181  0.6237 -0.5866
  108MPD2     H 1684   0.752   3.830  11.653 -0.8970  0.7154  0.3312
  108MPD2    H1 1685   0.352   3.767  11.517  0.2734 -0.0026  1.8898
  108MPD2    H2 1686   0.632   3.963  11.266 -1.5868  0.2744 -1.1269
  108MPD2    H3 1687   0.408   3.863  11.313  0.0208  0.8654 -1.4776
  108MPD2     N 1688   0.509   3.714  11.724  0.0573 -0.4944  0.1335
  108MPD2    H5 1689   0.410   3.721  11.746  0.0955 -2.6768  1.0091
  108MPD2    N1 1690   0.841   3.930  11.410  0.5721  0.5230 -0.0723
  108MPD2    H7 1691   0.850   3.990  11.329  2.0704  0.3674 -0.0305
  109TMC2    C1 1692   0.517   0.972   0.050  0.3780 -0.5677  0.1003
  109TMC2    C2 1693   0.436   1.010  17.694 -0.3305  0.5385 -0.2832
  109TMC2    C3 1694   0.490   1.081  17.590  0.2662  0.2605  0.4939
  109TMC2    C4 1695   0.655   0.985   0.037 -0.2492 -0.0526  0.7455
  109TMC2    C5 1696   0.706   1.047  17.674  0.7910 -0.2228  0.3227
  109TMC2    C6 1697   0.628   1.097  17.579 -0.0514 -0.0872  0.1749
  109TMC2     C 1698   0.461   0.880   0.149  0.2175 -0.5311  0.3412
  109TMC2     O 1699   0.371   0.805   0.114  0.2961  0.3989  0.4522
  109TMC2     H 1700   0.329   1.001  17.708 -0.5095  0.4076 -1.7933
  109TMC2    H1 1701   0.712   0.931   0.112 -0.5463 -0.9513  0.3204
  109TMC2    H2 1702   0.663   1.130  17.482  0.0059 -0.9197 -0.0904
  109TMC2    C7 1703   0.851   1.047  17.651  0.2221  0.1352 -1.3841
  109TMC2    C8 1704   0.418   1.098  17.473 -0.1342  0.4754  0.0124
  109TMC2    O1 1705   0.892   1.142  17.588  0.3074 -0.0212 -0.2502
  109TMC2    O2 1706   0.313   1.036  17.458 -0.3065  0.4313 -0.1522
  109TMC2    O5 1707   0.425   1.234  17.448 -1.0589 -0.1814  0.5448
  109TMC2    H5 1708   0.503   1.264  17.499  0.5867  1.0593 -2.7415
  110MPD2     C 1709   0.509   0.642   0.589 -0.3951  0.1292 -0.1831
  110MPD2    C1 1710   0.552   0.771   0.611 -0.5929  0.0764  0.5811
  110MPD2    C2 1711   0.535   0.865   0.505 -0.6567 -0.2330 -0.2259
  110MPD2    C3 1712   0.502   0.815   0.377  0.4733 -0.6413 -0.3611
  110MPD2    C4 1713   0.461   0.684   0.360  0.4572  0.4160 -0.3685
  110MPD2    C5 1714   0.455   0.603   0.469 -0.1579 -0.1462 -0.2688
  110MPD2     H 1715   0.595   0.956   0.506  0.6686 -1.1008 -0.8460
  110MPD2    H1 1716   0.439   0.644   0.262  0.4365 -1.6548  0.4704
  110MPD2    H2 1717   0.517   0.567   0.666 -2.1603  0.6311  0.4921
  110MPD2    H3 1718   0.425   0.500   0.452 -0.5579  0.0300 -0.6123
  110MPD2     N 1719   0.522   0.898   0.268 -0.2193 -0.1424 -0.2483
  110MPD2    H5 1720   0.579   0.982   0.271  0.3660 -0.5743  1.2423
  110MPD2    N1 1721   0.600   0.791   0.744 -0.1577 -0.0721  0.3270
  110MPD2    H7 1722   0.637   0.708   0.790  2.0901  0.8833  0.2204
  111TMC2    C1 1723   0.763   0.388  11.490  0.2910  0.7900 -0.0447
  111TMC2    C2 1724   0.657   0.417  11.578  0.4758 -0.3929 -0.1564
  111TMC2    C3 1725   0.676   0.417  11.711  0.4196 -0.3169  0.6504
  111TMC2    C4 1726   0.893   0.394  11.535 -0.3750 -0.6760  0.5070
  111TMC2    C5 1727   0.910   0.417  11.671 -0.0850  0.0382 -0.8344
  111TMC2    C6 1728   0.806   0.422  11.758  0.3015 -0.0446 -0.4108
  111TMC2     C 1729   0.739   0.388  11.343 -0.2140  0.2689  0.6807
  111TMC2     O 1730   0.840   0.425  11.278  0.3561 -0.3698  0.1711
  111TMC2     H 1731   0.556   0.421  11.539  0.7423 -0.0965 -0.8118
  111TMC2    H1 1732   0.974   0.405  11.463 -0.1362  1.9141  1.1634
  111TMC2    H2 1733   0.819   0.445  11.863  0.5209  4.0197 -1.3525
  111TMC2    C7 1734   1.042   0.428  11.730  0.1391  0.6446  0.2822
  111TMC2    C8 1735   0.570   0.478  11.783  0.6738 -0.2666  0.2058
  111TMC2    O1 1736   1.046   0.478  11.843  0.0315 -0.5350  0.2815
  111TMC2    O2 1737   0.497   0.555  11.730 -0.3051  0.3798  0.3146
  111TMC2    O5 1738   0.532   0.400  11.888 -0.7040  0.2269  0.4919
  111TMC2    H5 1739   0.600   0.337  11.919 -0.4098  0.2628 -0.0888
  112MPD2     C 1740   0.392   0.452  10.969  0.2577  0.6071 -0.1887
  112MPD2    C1 1741   0.524   0.495  10.984 -0.9268 -0.1124  0.0200
  112MPD2    C2 1742   0.598   0.459  11.091 -0.0869  0.3222  0.5377
  112MPD2    C3 1743   0.545   0.380  11.188 -0.1112  0.6865  0.8410
  112MPD2    C4 1744   0.414   0.333  11.166 -0.1320  0.3570 -0.2288
  112MPD2    C5 1745   0.342   0.365  11.054  0.0132  0.3463  0.8433
  112MPD2     H 1746   0.697   0.502  11.102  0.4553 -1.3216  2.0171
  112MPD2    H1 1747   0.372   0.261  11.235  1.2499 -0.0843  0.1527
  112MPD2    H2 1748   0.341   0.484  10.879  1.4279  0.9100 -0.7422
  112MPD2    H3 1749   0.247   0.315  11.040  0.0759  0.5485 -0.2669
  112MPD2     N 1750   0.613   0.346  11.310 -0.4080  0.2228 -0.8945
  112MPD2    H5 1751   0.555   0.303  11.381  1.5969 -1.1819 -0.1218
  112MPD2    N1 1752   0.591   0.584  10.897 -0.3257  0.4510 -0.0345
  112MPD2    H7 1753   0.687   0.608  10.916 -0.3818 -0.3559  1.3371
  113TMC2    C1 1754   3.731   3.476   0.433 -0.0494  0.3489  1.0892
  113TMC2    C2 1755   3.702   3.586   0.351 -0.3235  0.2974  0.5887
  113TMC2    C3 1756   3.642   3.560   0.230  0.8538  0.5520 -0.0812
  113TMC2    C4 1757   3.707   3.344   0.396 -0.4998  0.0490  0.2559
  113TMC2    C5 1758   3.656   3.328   0.271  0.3240  0.0338 -0.1411
  113TMC2    C6 1759   3.627   3.432   0.187 -0.4279 -0.3358  0.1008
  113TMC2     C 1760   3.729   3.520   0.577 -0.5355  0.1698 -0.0139
  113TMC2     O 1761   3.694   3.634   0.600  0.1031  0.6834  0.0018
  113TMC2     H 1762   3.724   3.688   0.377 -0.6442  0.1748  1.3376
  113TMC2    H1 1763   3.732   3.255   0.453 -0.7464  0.0609  0.3792
  113TMC2    H2 1764   3.579   3.399   0.095  1.8432  3.3665 -2.3997
  113TMC2    C7 1765   3.617   3.202   0.214  0.1508 -0.2621  0.0341
  113TMC2    C8 1766   3.590   3.677   0.161 -0.1589 -0.0972  0.2092
  113TMC2    O1 1767   3.600   3.191   0.094  0.5027  0.0367 -0.2370
  113TMC2    O2 1768   3.538   3.762   0.234  0.5173 -0.5169 -0.8990
  113TMC2    O5 1769   3.534   3.629   0.048 -0.5940  0.2591  0.2040
  113TMC2    H5 1770   3.597   3.568   0.003 -0.3168  0.9466 -0.3391
  114MPD2     C 1771   3.934   3.414   1.035  0.3036 -0.2171 -0.1160
  114MPD2    C1 1772   3.858   3.523   1.001 -0.2291 -0.1223 -0.0224
  114MPD2    C2 1773   3.803   3.524   0.873  0.5359  0.5852 -0.3659
  114MPD2    C3 1774   3.843   3.430   0.777 -0.1461  0.2211 -0.1137
  114MPD2    C4 1775   3.927   3.326   0.818 -0.1482 -1.0777  0.6118
  114MPD2    C5 1776   3.971   3.314   0.946 -0.0836  0.3723  0.8225
  114MPD2     H 1777   3.745   3.609   0.840 -0.6817 -0.4917 -1.0128
  114MPD2    H1 1778   3.971   3.255   0.749  0.4027 -0.8581  0.7350
  114MPD2    H2 1779   3.977   3.398   1.133  0.7865  1.6880 -0.0112
  114MPD2    H3 1780   4.037   3.233   0.977 -3.6671 -2.7575  0.3231
  114MPD2     N 1781   3.800   3.429   0.650 -0.3768  0.4303 -0.5591
  114MPD2    H5 1782   3.838   3.350   0.599  0.4060 -0.1821  0.9846
  114MPD2    N1 1783   3.824   3.623   1.094  0.1165  0.1860  0.1205
  114MPD2    H7 1784   3.756   3.692   1.065 -0.4310 -0.0550  0.8392
  115TMC2    C1 1785   4.492   1.484  17.251  1.0390 -0.0753 -0.0124
  115TMC2    C2 1786   4.443   1.531  17.134 -0.1254  0.0846  0.4884
  115TMC2    C3 1787   4.486   1.651  17.084 -0.3689 -0.0047  0.0702
  115TMC2    C4 1788   4.588   1.548  17.328  0.3438  0.5030 -0.4178
  115TMC2    C5 1789   4.621   1.675  17.289  0.2759  0.6692 -0.2458
  115TMC2    C6 1790   4.579   1.722  17.164  0.7544 -0.2308 -0.0643
  115TMC2     C 1791   4.462   1.342  17.273  0.1473  0.1714 -0.4332
  115TMC2     O 1792   4.392   1.276  17.194 -0.5978 -0.0132 -0.5355
  115TMC2     H 1793   4.380   1.469  17.072 -0.2202 -0.1299  0.8018
  115TMC2    H1 1794   4.624   1.508  17.422 -2.1266  0.6808  0.6115
  115TMC2    H2 1795   4.607   1.821  17.130  0.7970 -0.3994 -0.5274
  115TMC2    C7 1796   4.719   1.745  17.368 -0.4982  0.1618 -0.4990
  115TMC2    C8 1797   4.424   1.716  16.976  0.0777 -0.7660 -0.0281
  115TMC2    O1 1798   4.722   1.726  17.491 -0.0658  0.1344 -0.0243
  115TMC2    O2 1799   4.487   1.782  16.897 -0.3807 -0.1843 -0.3127
  115TMC2    O5 1800   4.304   1.663  16.959  0.4029  0.2447 -0.2018
  115TMC2    H5 1801   4.262   1.621  17.037 -2.6582  2.0275 -0.9025
  116MPD2     C 1802   4.457   0.915  17.562 -0.5959  0.3466 -0.5888
  116MPD2    C1 1803   4.436   0.932  17.428 -0.6883 -0.3969  0.3228
  116MPD2    C2 1804   4.450   1.062  17.368 -0.0132 -0.5003  0.2144
  116MPD2    C3 1805   4.488   1.167  17.444  0.3265  0.0565 -0.5460
  116MPD2    C4 1806   4.498   1.151  17.584  0.4978 -0.5246 -0.4920
  116MPD2    C5 1807   4.498   1.026  17.632 -0.1326 -0.0076 -0.2482
  116MPD2     H 1808   4.450   1.077  17.261  1.8475 -1.6075  0.0514
  116MPD2    H1 1809   4.515   1.224  17.662 -1.0359  0.5807 -1.1857
  116MPD2    H2 1810   4.449   0.821  17.615  1.5920 -0.0562 -0.9923
  116MPD2    H3 1811   4.491   1.011  17.739  4.1282  2.2652  0.3742
  116MPD2     N 1812   4.503   1.305  17.398 -0.2078  0.3267 -0.2306
  116MPD2    H5 1813   4.535   1.379  17.460 -0.2420  0.6939 -0.6498
  116MPD2    N1 1814   4.416   0.817  17.349 -0.4492 -0.3669 -0.4879
  116MPD2    H7 1815   4.422   0.725  17.390  0.8503  0.5170  1.3086
  117TMC2    C1 1816   3.600   2.165  14.073 -0.1010 -0.4668 -0.1073
  117TMC2    C2 1817   3.699   2.126  14.165 -0.7911 -0.7754 -0.4879
  117TMC2    C3 1818   3.777   2.228  14.212  0.3416 -0.1609  0.0902
  117TMC2    C4 1819   3.575   2.289  14.028  0.0546  0.4294 -0.3252
  117TMC2    C5 1820   3.657   2.381  14.072 -0.3743 -0.0030  0.9483
  117TMC2    C6 1821   3.754   2.359  14.170 -0.7155 -0.8069 -0.3760
  117TMC2     C 1822   3.513   2.061  14.015  0.5334 -0.8979  0.1752
  117TMC2     O 1823   3.569   1.959  13.982 -0.0549 -0.4833  0.3959
  117TMC2     H 1824   3.715   2.022  14.188  0.6385 -0.3677  0.3553
  117TMC2    H1 1825   3.496   2.290  13.953  0.2392  1.5990 -0.5016
  117TMC2    H2 1826   3.815   2.442  14.204  0.8554 -2.1707  0.1402
  117TMC2    C7 1827   3.639   2.519  14.023 -0.9177  0.7414 -0.8340
  117TMC2    C8 1828   3.908   2.194  14.257 -0.7582 -0.8748 -0.4107
  117TMC2    O1 1829   3.724   2.595  14.056 -0.1341 -0.0323 -0.2087
  117TMC2    O2 1830   3.981   2.129  14.183 -0.3748 -0.2125  0.0666
  117TMC2    O5 1831   3.955   2.304  14.321  0.4516 -0.2836 -1.1010
  117TMC2    H5 1832   3.884   2.338  14.379  1.0557 -1.0258  0.0785
  118MPD2     C 1833   3.388   2.675  13.801 -0.8709 -0.4261 -0.3716
  118MPD2    C1 1834   3.494   2.666  13.892  0.2642 -0.1562 -0.0604
  118MPD2    C2 1835   3.566   2.786  13.918  0.2648 -1.2620  0.1949
  118MPD2    C3 1836   3.550   2.902  13.841 -0.5317 -0.3084  0.0461
  118MPD2    C4 1837   3.454   2.897  13.742 -0.3321 -0.4096  0.8118
  118MPD2    C5 1838   3.375   2.783  13.723 -0.0467 -0.5142  0.1446
  118MPD2     H 1839   3.650   2.791  13.987  0.3589 -2.7395  0.1836
  118MPD2    H1 1840   3.428   2.977  13.673  2.4890 -1.6756 -1.7156
  118MPD2    H2 1841   3.335   2.587  13.767 -2.4659 -0.1176  1.3531
  118MPD2    H3 1842   3.288   2.780  13.658  0.6664 -0.8679 -0.7964
  118MPD2     N 1843   3.629   3.021  13.848 -1.6943 -0.2321 -0.1098
  118MPD2    H5 1844   3.612   3.096  13.782 -0.6266 -1.1361 -1.4128
  118MPD2    N1 1845   3.519   2.541  13.954 -0.4307  0.1091 -0.2858
  118MPD2    H7 1846   3.446   2.471  13.944 -0.8732  0.8843 -2.3710
  119TMC2    C1 1847   2.085   3.403  12.969 -0.4930  0.4835  0.2605
  119TMC2    C2 1848   2.142   3.319  13.065 -0.3718  0.4577  0.7612
  119TMC2    C3 1849   2.055   3.267  13.156  0.6725 -0.2625  0.3444
  119TMC2    C4 1850   1.949   3.398  12.951 -0.0773  0.3598 -0.3080
  119TMC2    C5 1851   1.871   3.344  13.048 -0.8406 -0.0054  0.3644
  119TMC2    C6 1852   1.919   3.291  13.163 -0.3876  0.1162 -0.3679
  119TMC2     C 1853   2.140   3.536  12.971  0.2664 -0.4359 -0.0227
  119TMC2     O 1854   2.065   3.625  12.925 -0.3642 -0.2507  0.2840
  119TMC2     H 1855   2.249   3.309  13.078 -0.5358 -0.0993  1.6770
  119TMC2    H1 1856   1.904   3.466  12.880 -0.8427 -1.1672 -1.2901
  119TMC2    H2 1857   1.857   3.227  13.225 -0.2766 -0.1436 -0.5260
  119TMC2    C7 1858   1.731   3.376  13.048 -0.8284  0.1004  0.4223
  119TMC2    C8 1859   2.109   3.182  13.260  1.0091  0.5197  0.3578
  119TMC2    O1 1860   1.682   3.391  12.937 -0.2687 -0.8487 -0.6038
  119TMC2    O2 1861   2.062   3.171  13.370  0.7626  0.5478 -0.6865
  119TMC2    O5 1862   2.163   3.083  13.181  0.4564 -0.1540  0.4397
  119TMC2    H5 1863   2.164   3.109  13.086 -0.5599  0.5920  0.6265
  120MPD2     C 1864   2.464   3.877  13.160 -0.3918 -0.6222 -0.7704
  120MPD2    C1 1865   2.346   3.896  13.104  0.1105  0.2193 -0.6990
  120MPD2    C2 1866   2.281   3.790  13.046  0.4211 -0.3403  0.0560
  120MPD2    C3 1867   2.331   3.655  13.056 -0.0182 -0.0445 -0.1579
  120MPD2    C4 1868   2.454   3.644  13.108  0.0438  0.5194  0.2323
  120MPD2    C5 1869   2.524   3.756  13.157  0.2463 -0.1762  0.0255
  120MPD2     H 1870   2.183   3.807  13.002  1.0967 -0.7799 -1.6058
  120MPD2    H1 1871   2.506   3.550  13.117 -0.6101  0.1774  0.4536
  120MPD2    H2 1872   2.523   3.959  13.199  1.2041 -2.4443  0.6215
  120MPD2    H3 1873   2.623   3.739  13.199  0.4035 -0.8978 -0.6273
  120MPD2     N 1874   2.259   3.543  13.027  0.1460  0.1179 -0.8476
  120MPD2    H5 1875   2.293   3.456  13.066  2.6883  1.0896 -0.8470
  120MPD2    N1 1876   2.283   4.022  13.128 -0.3102  0.1051  1.2416
  120MPD2    H7 1877   2.329   4.096  13.181 -0.5680 -0.1004  1.7420
  121TMC2    C1 1878   3.200   0.437  14.023  0.5746 -0.1248 -0.0147
  121TMC2    C2 1879   3.197   0.323  14.090  0.3727  0.2465 -0.3139
  121TMC2    C3 1880   3.076   0.280  14.129 -0.3417 -0.3687  0.4567
  121TMC2    C4 1881   3.090   0.513  13.995  1.0017  0.5045 -0.1214
  121TMC2    C5 1882   2.966   0.467  14.026  0.2076  0.2585  0.1984
  121TMC2    C6 1883   2.956   0.351  14.101 -0.3579 -0.0819  0.1346
  121TMC2     C 1884   3.329   0.490  14.006  0.6222 -0.0529  0.2467
  121TMC2     O 1885   3.415   0.436  14.077  0.2554  0.2004  0.4630
  121TMC2     H 1886   3.289   0.270  14.114  0.9486  2.4716  2.4267
  121TMC2    H1 1887   3.086   0.604  13.937  1.7712 -0.1207 -1.1571
  121TMC2    H2 1888   2.861   0.316  14.141  0.2262  0.8027  2.2851
  121TMC2    C7 1889   2.861   0.561  14.043 -0.2557 -0.1492  0.4925
  121TMC2    C8 1890   3.074   0.161  14.207 -0.1075 -0.6742  0.5119
  121TMC2    O1 1891   2.892   0.676  14.069  0.0218  0.2145 -0.3601
  121TMC2    O2 1892   3.155   0.133  14.291 -0.2119  0.3137 -0.4643
  121TMC2    O5 1893   2.997   0.081  14.125 -0.2053 -0.2110  0.4181
  121TMC2    H5 1894   2.976   0.128  14.041  1.5337 -0.1678  0.0031
  122MPD2     C 1895   3.595   0.558  13.888  0.3575  0.1469 -0.2092
  122MPD2    C1 1896   3.472   0.599  13.834 -0.1515  0.1809 -0.6771
  122MPD2    C2 1897   3.479   0.679  13.720  0.3397  0.3501 -0.6648
  122MPD2    C3 1898   3.593   0.719  13.654 -0.4872  0.2205 -0.8015
  122MPD2    C4 1899   3.715   0.678  13.712 -0.1541  0.1954 -0.0994
  122MPD2    C5 1900   3.710   0.597  13.822  0.3954 -0.6742 -0.2111
  122MPD2     H 1901   3.381   0.697  13.677 -1.0146 -1.7830  1.5519
  122MPD2    H1 1902   3.803   0.685  13.649  0.1414 -0.8971  0.1865
  122MPD2    H2 1903   3.610   0.490  13.972 -0.4227  2.2654  1.6331
  122MPD2    H3 1904   3.807   0.569  13.861 -0.4651 -3.0809  0.1724
  122MPD2     N 1905   3.598   0.788  13.533  0.4285  0.1133 -0.0876
  122MPD2    H5 1906   3.686   0.790  13.482 -0.1981 -0.7295 -1.2080
  122MPD2    N1 1907   3.348   0.568  13.893 -0.0889 -0.0244 -0.0745
  122MPD2    H7 1908   3.265   0.594  13.841  0.6177  1.3779 -0.4841
  123TMC2    C1 1909   1.698   4.002   9.920 -0.0270  0.0963 -0.4149
  123TMC2    C2 1910   1.831   3.993   9.909  0.1026  0.5787  0.2369
  123TMC2    C3 1911   1.878   3.870   9.898  0.4205 -0.5697 -1.0901
  123TMC2    C4 1912   1.614   3.895   9.929  0.3489  0.5409 -0.4409
  123TMC2    C5 1913   1.675   3.770   9.930 -0.1652 -0.0142  0.2622
  123TMC2    C6 1914   1.811   3.751   9.917  0.0618 -0.6676  0.2165
  123TMC2     C 1915   1.644   4.138   9.907  0.5373 -0.4755 -0.7962
  123TMC2     O 1916   1.716   4.230   9.939 -0.0949  0.2810 -0.3903
  123TMC2     H 1917   1.889   4.080   9.881 -0.4651  0.7790 -0.3105
  123TMC2    H1 1918   1.513   3.926   9.954 -0.1102  0.0689 -1.7056
  123TMC2    H2 1919   1.859   3.656   9.896  1.0581 -0.2530  0.6100
  123TMC2    C7 1920   1.590   3.651   9.936  0.2687  0.0160 -0.4923
  123TMC2    C8 1921   2.013   3.871   9.852 -0.6000 -0.0745  0.2866
  123TMC2    O1 1922   1.645   3.545   9.914  0.0781  0.6414  0.0610
  123TMC2    O2 1923   2.104   3.942   9.893  0.6324 -0.0103 -0.2749
  123TMC2    O5 1924   2.021   3.773   9.765  0.5262  0.1591  0.3184
  123TMC2    H5 1925   1.932   3.751   9.729  1.7484 -2.9981 -0.7527
  124MPD2     C 1926   1.362   4.495   9.662 -0.4476  0.2661  0.3756
  124MPD2    C1 1927   1.305   4.376   9.641  0.5096 -0.4758  0.8005
  124MPD2    C2 1928   1.371   4.269   9.694  0.3669 -0.3141 -0.0711
  124MPD2    C3 1929   1.476   4.274   9.785  0.1785  0.0755 -0.3143
  124MPD2    C4 1930   1.513   4.396   9.816 -0.9246  0.0464  0.0860
  124MPD2    C5 1931   1.466   4.511   9.750  0.5432 -0.2653  0.4786
  124MPD2     H 1932   1.341   4.176   9.648  0.6182  0.4574 -1.7781
  124MPD2    H1 1933   1.591   4.410   9.890  1.0956 -2.4044 -1.6051
  124MPD2    H2 1934   1.325   4.576   9.601  2.4217  0.9540 -0.4027
  124MPD2    H3 1935   1.504   4.609   9.776  0.9551 -0.0851 -0.8120
  124MPD2     N 1936   1.531   4.151   9.826  0.1028  0.3856  0.3938
  124MPD2    H5 1937   1.486   4.071   9.784  2.1870  0.3738 -1.8377
  124MPD2    N1 1938   1.202   4.370   9.544 -0.3112  0.1118  0.4975
  124MPD2    H7 1939   1.180   4.455   9.493  1.5176  0.5418  0.4335
  125TMC2    C1 1940   1.655   2.137   9.611  0.0553  0.3511 -0.5529
  125TMC2    C2 1941   1.727   2.186   9.718 -0.1332 -0.1270 -0.0061
  125TMC2    C3 1942   1.825   2.115   9.776  0.7372 -0.2296 -0.9496
  125TMC2    C4 1943   1.679   2.015   9.564  1.3022  0.2392 -0.3273
  125TMC2    C5 1944   1.767   1.938   9.639  0.3710  0.4085 -0.6215
  125TMC2    C6 1945   1.846   1.988   9.739  0.3040 -0.8480  0.2619
  125TMC2     C 1946   1.552   2.222   9.544  0.6449  0.4654 -0.6199
  125TMC2     O 1947   1.476   2.177   9.457  0.3350 -0.1361  0.0195
  125TMC2     H 1948   1.705   2.281   9.767  1.7886 -1.0072  2.5490
  125TMC2    H1 1949   1.625   1.969   9.482  0.2564  2.3992 -0.8253
  125TMC2    H2 1950   1.930   1.934   9.780  3.4483  2.3953 -1.9275
  125TMC2    C7 1951   1.796   1.804   9.581 -0.3504  0.2100  0.0612
  125TMC2    C8 1952   1.908   2.171   9.889 -1.4437  0.0203 -0.2578
  125TMC2    O1 1953   1.756   1.794   9.460  0.2558  0.1720 -0.0986
  125TMC2    O2 1954   1.877   2.277   9.934  0.2374 -0.2691  0.0557
  125TMC2    O5 1955   2.033   2.115   9.887  0.2750 -0.0997  0.0571
  125TMC2    H5 1956   2.043   2.059   9.807  1.0755  0.8293 -0.4971
  126MPD1     C 1957   1.394   2.702   9.419 -0.5684  0.5222  0.5300
  126MPD1    C1 1958   1.524   2.710   9.461  0.4208 -0.0770 -0.5714
  126MPD1    C2 1959   1.595   2.588   9.487 -0.3105 -0.1550 -0.3733
  126MPD1    C3 1960   1.533   2.459   9.499  0.7197 -0.6050  0.6014
  126MPD1    C4 1961   1.399   2.459   9.458  0.4636  0.3459 -0.6499
  126MPD1    C5 1962   1.337   2.575   9.406 -0.0892 -0.2161  0.2502
  126MPD1     H 1963   1.701   2.592   9.505 -0.5562  0.5803  0.9416
  126MPD1    H1 1964   1.334   2.373   9.444 -0.5003  1.3296 -2.2890
  126MPD1    H2 1965   1.353   2.788   9.368 -0.5388  1.3476  1.9237
  126MPD1    H3 1966   1.242   2.571   9.353  0.6840  1.2560 -1.2264
  126MPD1     N 1967   1.599   2.345   9.549  0.5349 -0.8257 -0.3179
  126MPD1    H5 1968   1.679   2.365   9.609  1.0407 -0.8468 -0.9895
  126MPD1    N1 1969   1.589   2.830   9.447 -0.5458 -0.2469 -0.1213
  126MPD1    H6 1970   1.526   2.910   9.455  0.5639  0.7189 -0.9808
  126MPD1    H7 1971   1.659   2.832   9.521  0.1821 -0.6086 -0.8008
  127TMC2    C1 1972   2.846   4.730   9.493 -0.3535  0.0756  0.1485
  127TMC2    C2 1973   2.776   0.059   9.398  0.3274  0.1280 -0.0402
  127TMC2    C3 1974   2.650   0.017   9.366  0.0761 -0.0036  0.9631
  127TMC2    C4 1975   2.789   4.628   9.574  0.1603  1.3065  0.3428
  127TMC2    C5 1976   2.662   4.588   9.535  0.2155  0.3975 -0.5350
  127TMC2    C6 1977   2.591   4.649   9.430 -0.0166  0.1771  0.3607
  127TMC2     C 1978   2.967   0.060   9.524 -0.3075 -0.2994 -0.7622
  127TMC2     O 1979   2.984   0.169   9.478 -0.2279  0.0084 -0.2124
  127TMC2     H 1980   2.823   0.130   9.331 -0.0228  0.6106  0.2247
  127TMC2    H1 1981   2.829   4.595   9.670 -1.7830 -0.0681  0.6818
  127TMC2    H2 1982   2.502   4.597   9.395 -1.3551  1.6261  1.6432
  127TMC2    C7 1983   2.597   4.490   9.624  0.1208 -0.2464 -0.2005
  127TMC2    C8 1984   2.582   0.106   9.275  0.4793  0.1424  0.2404
  127TMC2    O1 1985   2.667   4.403   9.674 -0.0439  0.1395 -1.0151
  127TMC2    O2 1986   2.639   0.175   9.189  0.0979  0.2494  0.6111
  127TMC2    O5 1987   2.450   0.078   9.275  0.3726 -0.1562 -0.2485
  127TMC2    H5 1988   2.413   0.033   9.354  2.4079 -0.3045  0.6260
  128MPD2     C 1989   3.213   4.699   9.775 -0.4525 -0.3000 -0.3977
  128MPD2    C1 1990   3.150   0.044   9.683 -0.1160  0.2356 -0.2214
  128MPD2    C2 1991   3.205   0.174   9.668 -0.4113 -0.4509 -0.1384
  128MPD2    C3 1992   3.319   0.215   9.736  0.0562 -0.6132 -0.6662
  128MPD2    C4 1993   3.388   0.122   9.811 -0.3709  0.4235 -0.6313
  128MPD2    C5 1994   3.330   4.736   9.833 -0.1462 -0.3527  0.4329
  128MPD2     H 1995   3.162   0.246   9.600 -0.4247  0.7128  1.1022
  128MPD2    H1 1996   3.486   0.147   9.851 -0.3811 -1.8395  0.7718
  128MPD2    H2 1997   3.172   4.601   9.795  0.8148 -0.7047  0.2246
  128MPD2    H3 1998   3.375   4.663   9.899  1.4775  2.0031  1.9327
  128MPD2     N 1999   3.363   0.348   9.702  0.4094 -0.2601 -0.5825
  128MPD2    H5 2000   3.296   0.410   9.658 -0.1764 -0.8150 -0.4696
  128MPD2    N1 2001   3.032   4.732   9.625 -0.3136  0.0665 -0.7725
  128MPD2    H7 2002   3.001   4.637   9.642 -1.4446  0.7912  1.1487
  129TMC2    C1 2003   1.962   0.272   1.076 -0.3704 -0.0381  0.0131
  129TMC2    C2 2004   1.920   0.367   0.984 -0.0402  0.8915  0.1486
  129TMC2    C3 2005   1.788   0.395   0.987  0.0758 -0.9846  0.7748
  129TMC2    C4 2006   1.873   0.198   1.154  0.5620 -0.0722 -0.8274
  129TMC2    C5 2007   1.741   0.233   1.152  0.3703 -0.0884 -0.6262
  129TMC2    C6 2008   1.702   0.339   1.074  0.2232  0.6188 -0.1145
  129TMC2     C 2009   2.098   0.209   1.039 -0.7177 -0.4113  0.1132
  129TMC2     O 2010   2.135   0.104   1.086  0.2185  0.5198 -0.2220
  129TMC2     H 2011   1.988   0.398   0.906  1.3547  2.8169  2.1323
  129TMC2    H1 2012   1.914   0.117   1.212  1.2453  0.1738 -0.9650
  129TMC2    H2 2013   1.595   0.358   1.068  0.0204 -1.3985 -3.0586
  129TMC2    C7 2014   1.636   0.148   1.213  0.0003  0.3199  0.0459
  129TMC2    C8 2015   1.751   0.520   0.922 -0.9509  0.2485 -0.1610
  129TMC2    O1 2016   1.521   0.179   1.208  0.1111  0.6040  0.9034
  129TMC2    O2 2017   1.636   0.549   0.898  0.2842  0.4266 -0.5394
  129TMC2    O5 2018   1.854   0.611   0.936  0.1139 -0.3684 -0.4482
  129TMC2    H5 2019   1.945   0.585   0.965  0.6311 -1.6818 -3.3081
  130MPD2     C 2020   2.384   0.153   0.941 -0.1065 -0.1745 -0.1193
  130MPD2    C1 2021   2.312   0.271   0.911 -0.1180  0.0743  0.5735
  130MPD2    C2 2022   2.360   0.367   0.826 -0.1227  0.3740  0.5273
  130MPD2    C3 2023   2.481   0.349   0.758 -0.5433 -0.2693 -0.6175
  130MPD2    C4 2024   2.553   0.232   0.786  0.1269  0.7749 -0.0818
  130MPD2    C5 2025   2.507   0.142   0.880  0.3852  0.5437  0.0483
  130MPD2     H 2026   2.307   0.457   0.796 -0.1643  0.0553 -0.3449
  130MPD2    H1 2027   2.654   0.207   0.756 -0.8443 -2.0072 -1.0223
  130MPD2    H2 2028   2.357   0.078   1.014 -0.6714 -1.9480 -2.1590
  130MPD2    H3 2029   2.577   0.067   0.915 -0.0108  0.8670  1.5363
  130MPD2     N 2030   2.523   0.457   0.676  0.0889  0.1122  0.3729
  130MPD2    H5 2031   2.473   0.543   0.695 -3.1130 -1.7624  0.4758
  130MPD2    N1 2032   2.177   0.292   0.965 -0.7299 -0.0932 -0.1518
  130MPD2    H7 2033   2.134   0.382   0.945  2.9662  1.7367 -0.0465
  131TMC2    C1 2034   1.004   0.497   9.475  0.0594  0.4722  0.6436
  131TMC2    C2 2035   1.086   0.500   9.588  0.1171  0.2089  0.3014
  131TMC2    C3 2036   1.109   0.620   9.654  0.6467  0.5122  0.2121
  131TMC2    C4 2037   0.947   0.620   9.433 -0.3632 -0.7109 -0.3558
  131TMC2    C5 2038   0.975   0.733   9.502 -0.8558 -0.7879 -0.0517
  131TMC2    C6 2039   1.051   0.735   9.617  0.3387 -0.0663  0.4826
  131TMC2     C 2040   0.983   0.374   9.410 -0.6940  0.5363  0.3042
  131TMC2     O 2041   1.026   0.272   9.464 -0.4963 -0.0497 -0.2474
  131TMC2     H 2042   1.108   0.407   9.638  0.1857 -0.3198 -0.7095
  131TMC2    H1 2043   0.887   0.620   9.343 -1.2904 -1.0592  0.2608
  131TMC2    H2 2044   1.038   0.811   9.694 -0.2892 -0.3174  0.6236
  131TMC2    C7 2045   0.897   0.841   9.464  0.5802  0.5380  0.3028
  131TMC2    C8 2046   1.188   0.626   9.775  0.2076  0.4311  0.1671
  131TMC2    O1 2047   0.804   0.828   9.386 -0.0637  0.1295 -0.2523
  131TMC2    O2 2048   1.211   0.527   9.844 -0.3328  0.1954  0.3984
  131TMC2    O5 2049   1.236   0.752   9.787 -0.2616  0.3119  0.3462
  131TMC2    H5 2050   1.207   0.817   9.719 -1.4089 -0.0990  0.4490
  132MPD2     C 2051   0.890   0.286   9.074 -0.2341  0.8123 -0.6191
  132MPD2    C1 2052   0.897   0.270   9.207 -0.2588  0.0217  0.1290
  132MPD2    C2 2053   0.885   0.143   9.263 -0.4850 -0.1999  0.1205
  132MPD2    C3 2054   0.884   0.027   9.181  0.2229 -0.6515 -0.1708
  132MPD2    C4 2055   0.877   0.048   9.044  0.7946  0.6173  0.2116
  132MPD2    C5 2056   0.865   0.174   8.993 -0.4686 -0.3225  0.6210
  132MPD2     H 2057   0.896   0.125   9.369  3.4369 -0.9315 -0.3726
  132MPD2    H1 2058   0.865   4.702   8.974 -2.3813  1.4709 -0.2415
  132MPD2    H2 2059   0.899   0.383   9.025 -0.6738  0.8386 -0.6497
  132MPD2    H3 2060   0.868   0.186   8.885 -0.4829  1.1775  0.7829
  132MPD2     N 2061   0.891   4.633   9.234  0.3019 -0.9368 -0.6450
  132MPD2    H5 2062   0.898   4.620   9.334  1.6090 -4.1214 -1.1404
  132MPD2    N1 2063   0.928   0.382   9.287 -0.6120  0.1928 -0.6386
  132MPD2    H7 2064   0.933   0.477   9.252  0.3690  0.0808 -0.8103
  133TMC2    C1 2065   0.594   0.369   8.263 -0.8240  0.4871 -0.3638
  133TMC2    C2 2066   0.609   0.493   8.203 -1.4057 -0.3918  0.3472
  133TMC2    C3 2067   0.639   0.489   8.066 -0.7628 -0.4551  0.1788
  133TMC2    C4 2068   0.642   0.258   8.202  0.4201 -0.2220  0.2750
  133TMC2    C5 2069   0.661   0.260   8.069  0.5321 -0.7671 -0.2256
  133TMC2    C6 2070   0.669   0.375   8.002 -0.2189  0.5666  0.0902
  133TMC2     C 2071   0.600   0.367   8.410 -0.4744  0.7658 -0.0838
  133TMC2     O 2072   0.591   0.260   8.459  0.2772 -0.0775 -0.3046
  133TMC2     H 2073   0.565   0.583   8.244 -0.8440  0.9855 -2.0500
  133TMC2    H1 2074   0.659   0.164   8.253  0.9845  0.8885  2.1209
  133TMC2    H2 2075   0.705   0.382   7.900 -1.1589 -1.0132 -0.3560
  133TMC2    C7 2076   0.745   0.149   8.024 -1.0059  0.3125  0.3858
  133TMC2    C8 2077   0.692   0.611   8.005  0.8121  0.6503 -0.4044
  133TMC2    O1 2078   0.823   0.097   8.101 -0.0203  0.3483  0.4364
  133TMC2    O2 2079   0.811   0.636   8.016 -0.5207 -0.4193  0.3072
  133TMC2    O5 2080   0.596   0.700   8.015 -0.2929  0.1796 -0.2212
  133TMC2    H5 2081   0.503   0.668   8.022 -0.2074 -0.8389 -3.5080
  134MPD2     C 2082   0.679   0.635   8.656  0.7974  0.0425  0.0480
  134MPD2    C1 2083   0.619   0.519   8.614 -0.5839  0.1313  0.2312
  134MPD2    C2 2084   0.560   0.434   8.711  0.7575  0.0283  0.3319
  134MPD2    C3 2085   0.579   0.458   8.846 -0.4544 -0.6075  0.0128
  134MPD2    C4 2086   0.647   0.572   8.881  0.5751 -0.2843  0.2835
  134MPD2    C5 2087   0.686   0.664   8.788 -0.1318 -0.4457  0.3014
  134MPD2     H 2088   0.513   0.343   8.675  1.2247  0.8489 -2.3042
  134MPD2    H1 2089   0.683   0.591   8.981 -1.0359  1.5486  0.5226
  134MPD2    H2 2090   0.691   0.709   8.578  1.1737  0.8988  0.9172
  134MPD2    H3 2091   0.713   0.761   8.829  0.2707 -0.0178 -0.9966
  134MPD2     N 2092   0.541   0.376   8.952 -0.4020 -0.1656  0.2509
  134MPD2    H5 2093   0.553   0.401   9.050 -1.2302  0.0526  0.2988
  134MPD2    N1 2094   0.616   0.491   8.473 -0.0236  0.4503 -0.1964
  134MPD2    H7 2095   0.658   0.564   8.417 -0.6223  0.2672 -0.8764
  135TMC2    C1 2096   2.521   2.408   9.646  0.1251 -0.3199  0.1054
  135TMC2    C2 2097   2.565   2.472   9.532  0.0192  0.3104 -0.2215
  135TMC2    C3 2098   2.531   2.602   9.514  0.3817  0.0368  0.1622
  135TMC2    C4 2099   2.462   2.483   9.750  0.0448 -0.1325 -0.4156
  135TMC2    C5 2100   2.421   2.609   9.718 -0.2209  0.2258  0.5874
  135TMC2    C6 2101   2.464   2.673   9.604 -0.0076  0.4176  0.6750
  135TMC2     C 2102   2.562   2.275   9.677 -0.1295  0.0401  0.1722
  135TMC2     O 2103   2.593   2.273   9.794  0.0236 -0.2486 -0.5525
  135TMC2     H 2104   2.615   2.411   9.458 -0.3074 -1.1933  0.7930
  135TMC2    H1 2105   2.432   2.431   9.841  0.0190  3.7672  1.7920
  135TMC2    H2 2106   2.435   2.777   9.587  0.5612  0.5228  0.3592
  135TMC2    C7 2107   2.340   2.681   9.807  0.2646 -0.3941 -1.1008
  135TMC2    C8 2108   2.594   2.683   9.408  0.2932  0.0856  0.2726
  135TMC2    O1 2109   2.346   2.801   9.792  0.4569  0.3744  0.3722
  135TMC2    O2 2110   2.546   2.784   9.358 -0.4780  0.3065  0.1657
  135TMC2    O5 2111   2.726   2.676   9.444 -0.1567  0.2640 -0.0054
  135TMC2    H5 2112   2.741   2.612   9.517 -0.1706  2.3990  1.8538
  136MPD2     C 2113   2.708   2.023   9.680 -0.3740  0.1051  0.3199
  136MPD2    C1 2114   2.625   2.062   9.579 -0.4368 -0.0853  0.0841
  136MPD2    C2 2115   2.596   1.972   9.475  0.3560  0.1849  0.0900
  136MPD2    C3 2116   2.668   1.853   9.465  0.1105  0.2026 -0.1905
  136MPD2    C4 2117   2.766   1.827   9.555 -0.2881 -0.5260  0.5739
  136MPD2    C5 2118   2.783   1.910   9.667  0.1696  0.2814  0.0060
  136MPD2     H 2119   2.533   2.002   9.391  2.1688 -2.0859 -2.0629
  136MPD2    H1 2120   2.831   1.741   9.547  0.2400 -0.0732 -0.0060
  136MPD2    H2 2121   2.733   2.085   9.765 -0.1782  0.8625 -0.2845
  136MPD2    H3 2122   2.866   1.889   9.734 -0.1761 -0.7151  0.1121
  136MPD2     N 2123   2.649   1.767   9.362 -0.1865  0.0765 -0.5742
  136MPD2    H5 2124   2.723   1.699   9.349 -0.0349  0.2748 -0.7359
  136MPD2    N1 2125   2.563   2.189   9.572  0.2230  0.2308 -0.0531
  136MPD2    H7 2126   2.510   2.211   9.489  3.4230 -1.7171 -2.6468
  137TMC2    C1 2127   2.038   1.872   8.848 -0.5769  0.9851  0.1402
  137TMC2    C2 2128   2.126   1.846   8.743  0.4016 -0.6660 -0.9677
  137TMC2    C3 2129   2.075   1.819   8.619  0.4431 -0.0327 -0.7565
  137TMC2    C4 2130   1.899   1.867   8.834  0.3334  0.4069 -0.3476
  137TMC2    C5 2131   1.853   1.841   8.705 -0.2256  0.2243 -0.1657
  137TMC2    C6 2132   1.935   1.833   8.594  0.3981 -0.3457 -0.4426
  137TMC2     C 2133   2.090   1.905   8.980 -0.5270 -0.2485 -0.1324
  137TMC2     O 2134   2.207   1.872   8.999 -0.6990  0.2381 -0.1908
  137TMC2     H 2135   2.233   1.843   8.763  0.3033  2.1947  0.0066
  137TMC2    H1 2136   1.828   1.895   8.910  1.5885  0.5469  0.7874
  137TMC2    H2 2137   1.899   1.812   8.494  1.6287  3.1686 -1.5834
  137TMC2    C7 2138   1.710   1.796   8.693  0.0049 -0.1844  0.0610
  137TMC2    C8 2139   2.150   1.748   8.521  0.4962  0.3521 -0.1753
  137TMC2    O1 2140   1.670   1.749   8.586 -0.3840  0.8187  0.7775
  137TMC2    O2 2141   2.107   1.675   8.434  0.2575  0.4415  0.0260
  137TMC2    O5 2142   2.267   1.815   8.511 -0.0951 -0.0806 -0.1896
  137TMC2    H5 2143   2.288   1.876   8.585  1.4919 -1.6439  0.6598
  138MPD2     C 2144   1.936   2.093   9.251  0.6146  0.8377  0.2809
  138MPD2    C1 2145   2.022   2.002   9.191 -0.1089  0.5801 -0.4180
  138MPD2    C2 2146   2.122   1.950   9.268 -0.0312  0.5519 -0.2141
  138MPD2    C3 2147   2.129   1.975   9.405 -0.2350  0.5511 -0.0265
  138MPD2    C4 2148   2.037   2.061   9.464 -0.1514 -0.4664  0.2899
  138MPD2    C5 2149   1.953   2.127   9.377 -0.3231 -0.2723  0.1215
  138MPD2     H 2150   2.196   1.877   9.236 -0.0545  0.0885  0.7564
  138MPD2    H1 2151   2.049   2.098   9.565  1.5104 -2.3901  0.7861
  138MPD2    H2 2152   1.856   2.145   9.199  0.4254  0.3594  0.0947
  138MPD2    H3 2153   1.898   2.215   9.410 -1.5483 -1.0322  0.0905
  138MPD2     N 2154   2.230   1.906   9.483  0.8874  0.2273 -0.2208
  138MPD2    H5 2155   2.312   1.870   9.435  1.1159  0.7620 -0.2362
  138MPD2    N1 2156   1.997   1.969   9.058  0.3306 -0.1972 -0.0010
  138MPD2    H7 2157   1.920   2.013   9.008 -1.4364 -1.2211  1.7882
  139TMC2    C1 2158   2.925   2.955  12.986 -0.3995  0.2210  0.3422
  139TMC2    C2 2159   2.983   2.992  12.868  0.0867 -0.6262  0.0713
  139TMC2    C3 2160   2.975   3.120  12.828  0.0779 -0.4636 -0.2510
  139TMC2    C4 2161   2.839   3.042  13.049  1.6366 -0.2767 -0.3550
  139TMC2    C5 2162   2.834   3.170  13.004  0.3889  0.1901 -0.4473
  139TMC2    C6 2163   2.895   3.213  12.888  0.4083  0.3576 -0.2466
  139TMC2     C 2164   2.925   2.813  13.019 -0.7293  0.0698 -0.2104
  139TMC2     O 2165   2.988   2.734  12.948 -0.3049 -0.0678 -0.0611
  139TMC2     H 2166   3.037   2.925  12.802 -0.9981 -1.4732  0.0319
  139TMC2    H1 2167   2.790   3.020  13.143  0.8049  1.1467 -0.4563
  139TMC2    H2 2168   2.880   3.313  12.849 -0.1647 -0.4975 -2.2208
  139TMC2    C7 2169   2.798   3.281  13.089 -0.1887  0.0001  0.4107
  139TMC2    C8 2170   3.039   3.164  12.706  0.6188  0.3726  0.6971
  139TMC2    O1 2171   2.791   3.394  13.041  0.4407  0.2114 -0.1825
  139TMC2    O2 2172   3.013   3.116  12.595 -0.5551  0.0045 -0.7595
  139TMC2    O5 2173   3.084   3.289  12.723  0.9140  0.0075  0.5899
  139TMC2    H5 2174   3.133   3.291  12.808  1.7948 -0.3459  0.0852
  140MPD2     C 2175   2.746   2.636  13.290  0.4423  0.5886 -0.9265
  140MPD2    C1 2176   2.840   2.653  13.189 -0.1335 -0.4242 -0.3445
  140MPD2    C2 2177   2.932   2.549  13.175 -0.0832 -0.2463 -0.1974
  140MPD2    C3 2178   2.921   2.429  13.253 -0.0324 -0.0534 -0.0379
  140MPD2    C4 2179   2.802   2.413  13.327 -0.8177  0.2868  0.0031
  140MPD2    C5 2180   2.721   2.518  13.343 -0.4251 -0.5938 -0.2128
  140MPD2     H 2181   3.017   2.570  13.111 -1.0581  2.0863 -0.7313
  140MPD2    H1 2182   2.762   2.327  13.381 -0.8519  0.9603  1.0456
  140MPD2    H2 2183   2.671   2.711  13.312  0.6227  0.2234  0.9269
  140MPD2    H3 2184   2.633   2.512  13.406 -1.6105 -1.0536 -1.9358
  140MPD2     N 2185   3.014   2.327  13.240 -0.3243  0.1858 -1.1808
  140MPD2    H5 2186   3.095   2.346  13.181  1.8611 -1.0604  1.4353
  140MPD2    N1 2187   2.851   2.781  13.133 -0.0425 -0.3429  0.3475
  140MPD2    H7 2188   2.804   2.859  13.176 -0.6041 -0.7709  0.4986
  141TMC2    C1 2189   3.232   0.144  14.612 -0.1691 -0.1511  0.4770
  141TMC2    C2 2190   3.092   0.139  14.609  0.1040 -0.3776 -0.0825
  141TMC2    C3 2191   3.027   0.259  14.630 -1.3106 -0.4496  0.2358
  141TMC2    C4 2192   3.304   0.258  14.626  0.6774  0.0537  0.4978
  141TMC2    C5 2193   3.234   0.377  14.640 -0.9186  0.1805  0.1398
  141TMC2    C6 2194   3.095   0.374  14.646  0.0738 -0.0166 -0.0683
  141TMC2     C 2195   3.300   0.015  14.586 -0.3457  0.3025 -0.7137
  141TMC2     O 2196   3.331   4.693  14.690 -0.2067  0.0694  0.2910
  141TMC2     H 2197   3.040   0.048  14.582  0.4651 -0.4495 -0.5486
  141TMC2    H1 2198   3.412   0.260  14.614  0.4237 -0.3567 -1.8602
  141TMC2    H2 2199   3.048   0.471  14.658  1.0741  0.8081 -2.6680
  141TMC2    C7 2200   3.310   0.501  14.652 -0.3537  0.9828  0.1402
  141TMC2    C8 2201   2.885   0.243  14.660 -0.6276 -0.1472  0.1404
  141TMC2    O1 2202   3.250   0.609  14.630 -0.2082 -0.1851 -0.3793
  141TMC2    O2 2203   2.815   0.163  14.604 -0.0362 -0.5854 -0.0252
  141TMC2    O5 2204   2.848   0.330  14.759 -0.1342  0.1820 -0.1257
  141TMC2    H5 2205   2.914   0.372  14.818 -1.5351  0.7157  1.0416
  142TMC2    C1 2206   1.331   2.799   9.937 -0.2717  0.4162  0.2242
  142TMC2    C2 2207   1.429   2.739   9.867 -0.1452 -0.2341  0.1780
  142TMC2    C3 2208   1.507   2.821   9.788  0.2362 -0.4421 -0.3284
  142TMC2    C4 2209   1.308   2.935   9.935 -0.2785  1.0677 -0.2830
  142TMC2    C5 2210   1.388   3.011   9.851  0.5997 -0.3561 -0.5308
  142TMC2    C6 2211   1.494   2.958   9.782  0.4371  0.2472 -0.7951
  142TMC2     C 2212   1.276   2.716  10.046 -0.3088 -0.4736  0.7359
  142TMC2     O 2213   1.250   2.598  10.029 -0.0677 -0.2629 -0.4399
  142TMC2     H 2214   1.447   2.635   9.890 -3.4274 -1.4670 -2.8007
  142TMC2    H1 2215   1.240   2.980  10.007  0.7236 -0.6065  1.7076
  142TMC2    H2 2216   1.551   3.016   9.710  0.5344 -0.1662 -1.0532
  142TMC2    C7 2217   1.407   3.151   9.879 -0.0026  0.6645  0.1058
  142TMC2    C8 2218   1.640   2.778   9.769  0.7454  0.7279 -0.0579
  142TMC2    O1 2219   1.514   3.203   9.848 -0.2271 -0.6771 -0.0682
  142TMC2    O2 2220   1.718   2.829   9.689 -0.2659  0.1155  0.0914
  142TMC2    O5 2221   1.685   2.723   9.880  0.1424 -0.2103 -0.1371
  142TMC2    H5 2222   1.609   2.711   9.941 -1.3267  2.4368 -1.4498
  143MPD2     C 2223   0.995   2.727  10.468 -0.3977  0.1657  0.6014
  143MPD2    C1 2224   0.983   2.646  10.358 -0.4071  0.1094  0.0154
  143MPD2    C2 2225   1.072   2.672  10.253  0.0782  0.0172 -0.1474
  143MPD2    C3 2226   1.161   2.777  10.257 -1.0565  0.6396 -0.9388
  143MPD2    C4 2227   1.158   2.860  10.361 -0.1352 -0.0905 -0.5475
  143MPD2    C5 2228   1.083   2.829  10.473 -0.3512 -0.3655 -0.2870
  143MPD2     H 2229   1.068   2.600  10.173 -0.3781  0.1977 -0.2854
  143MPD2    H1 2230   1.226   2.943  10.379 -1.9500  0.9794  1.4428
  143MPD2    H2 2231   0.938   2.702  10.557  2.4373 -0.0294  2.3683
  143MPD2    H3 2232   1.097   2.882  10.567 -1.3239  1.2636 -1.0558
  143MPD2     N 2233   1.251   2.796  10.157  0.1569  0.5212  0.4871
  143MPD2    H5 2234   1.308   2.878  10.175 -1.8539  2.3296 -1.4566
  143MPD2    N1 2235   0.900   2.535  10.352 -0.1279  0.4888 -1.2324
  143MPD2    H7 2236   0.851   2.510  10.438 -0.0289  1.6201 -0.8467
  144TMC2    C1 2237   4.207   2.405   0.746 -0.1657 -0.2913  0.0535
  144TMC2    C2 2238   4.315   2.317   0.745 -0.1997 -0.0995  0.0453
  144TMC2    C3 2239   4.429   2.351   0.810  0.9079 -0.4193  0.4679
  144TMC2    C4 2240   4.215   2.518   0.817 -0.1549 -0.6767 -0.7372
  144TMC2    C5 2241   4.333   2.548   0.874  0.3079 -0.0614  0.3487
  144TMC2    C6 2242   4.442   2.472   0.872  0.2447 -0.3626  0.7151
  144TMC2     C 2243   4.115   2.372   0.640 -0.1072 -0.2339  0.5601
  144TMC2     O 2244   4.131   2.277   0.563 -0.0024  0.8814 -0.4086
  144TMC2     H 2245   4.307   2.228   0.684  0.8725 -1.7134  2.2782
  144TMC2    H1 2246   4.141   2.595   0.795  1.4664  1.2713  0.6344
  144TMC2    H2 2247   4.533   2.482   0.930  1.7325 -2.6938 -1.2173
  144TMC2    C7 2248   4.342   2.676   0.939  0.4016  0.4646 -0.2292
  144TMC2    C8 2249   4.542   2.262   0.796 -0.3884  0.2976  0.0300
  144TMC2    O1 2250   4.455   2.698   0.974  0.6032  0.0086 -0.7950
  144TMC2    O2 2251   4.528   2.144   0.759  0.2295  0.2846  0.0785
  144TMC2    O5 2252   4.647   2.338   0.782  0.4999  0.3962  0.0270
  144TMC2    H5 2253   4.646   2.436   0.780  1.1032  0.4047  0.4584
  145MPD2     C 2254   3.800   2.591   0.304 -0.0672  0.1487  1.1850
  145MPD2    C1 2255   3.869   2.468   0.299  0.3657  0.3443  0.5529
  145MPD2    C2 2256   3.934   2.426   0.407  0.0637 -0.4054  0.2184
  145MPD2    C3 2257   3.932   2.496   0.525 -0.2310 -0.4565  0.3480
  145MPD2    C4 2258   3.853   2.606   0.531  0.5920  0.5039  0.4413
  145MPD2    C5 2259   3.788   2.659   0.420 -0.2536 -0.6603 -0.4913
  145MPD2     H 2260   3.993   2.337   0.389  0.7312 -0.2196  1.5269
  145MPD2    H1 2261   3.848   2.658   0.626  0.4615  2.0477 -0.4100
  145MPD2    H2 2262   3.753   2.628   0.213  0.0696 -1.0173  0.6520
  145MPD2    H3 2263   3.740   2.756   0.428 -1.4367 -1.1696 -1.3710
  145MPD2     N 2264   4.018   2.464   0.639  0.7877 -0.4629 -0.2898
  145MPD2    H5 2265   4.022   2.529   0.717 -1.1059 -0.4396 -0.2102
  145MPD2    N1 2266   3.861   2.391   0.184 -0.1119  0.1932 -0.4348
  145MPD2    H7 2267   3.897   2.296   0.190  3.3946  1.4484 -1.2404
  146TMC2    C1 2268   1.186   1.552  12.994  0.5774 -0.2944 -0.2077
  146TMC2    C2 2269   1.107   1.624  12.903 -0.1535  0.0765  0.6166
  146TMC2    C3 2270   1.105   1.560  12.777  0.1500  1.0411  0.5257
  146TMC2    C4 2271   1.252   1.434  12.963  0.0381 -0.1216 -0.0816
  146TMC2    C5 2272   1.237   1.373  12.839 -0.9017 -0.0548  0.3519
  146TMC2    C6 2273   1.172   1.440  12.738  0.0127  0.7039  0.1631
  146TMC2     C 2274   1.144   1.593  13.135  0.1775 -0.4217  0.1620
  146TMC2     O 2275   1.073   1.693  13.137 -0.6635 -0.5828  0.3350
  146TMC2     H 2276   1.039   1.706  12.925 -0.3149 -0.0586  0.6195
  146TMC2    H1 2277   1.324   1.396  13.035 -0.4644 -1.5357 -0.3250
  146TMC2    H2 2278   1.158   1.391  12.642  0.7619 -2.2924  1.5806
  146TMC2    C7 2279   1.332   1.268  12.805 -0.1333 -0.0215  0.3947
  146TMC2    C8 2280   1.041   1.630  12.668  0.3344 -0.1774  0.1723
  146TMC2    O1 2281   1.366   1.268  12.686  0.0333  0.0216  1.0365
  146TMC2    O2 2282   1.047   1.753  12.663 -0.0262 -0.8200  0.2691
  146TMC2    O5 2283   0.982   1.545  12.574 -0.0924  0.3033 -0.2271
  146TMC2    H5 2284   0.971   1.457  12.616 -0.2092  1.2504  1.7273
  147MPD2     C 2285   1.609   0.850  12.920 -0.5083  1.3574 -0.0265
  147MPD2    C1 2286   1.558   0.901  13.040 -0.3916  0.0810 -0.1252
  147MPD2    C2 2287   1.499   1.023  13.038  0.0843  0.0164 -0.0186
  147MPD2    C3 2288   1.463   1.079  12.912 -0.3130 -0.8982 -0.0729
  147MPD2    C4 2289   1.518   1.032  12.795  0.4245  0.3557  0.6265
  147MPD2    C5 2290   1.599   0.922  12.803  0.1030  0.1276 -0.8555
  147MPD2     H 2291   1.457   1.073  13.124  1.3655 -2.4210  2.0172
  147MPD2    H1 2292   1.515   1.078  12.696 -1.2763 -0.0053  0.5159
  147MPD2    H2 2293   1.660   0.754  12.922  0.1530  1.7065  0.0076
  147MPD2    H3 2294   1.649   0.885  12.715  2.2004  1.8813 -0.3824
  147MPD2     N 2295   1.371   1.188  12.911 -0.0219  1.0675 -0.1911
  147MPD2    H5 2296   1.323   1.190  13.001  1.2351  4.3260  0.4292
  147MPD2    N1 2297   1.581   0.825  13.157  0.4745 -0.2704 -0.1163
  147MPD2    H7 2298   1.614   0.730  13.144 -0.5948 -0.6376 -0.1574
  148TMC2    C1 2299   0.375   4.298  10.243 -0.5614  0.3202 -0.0307
  148TMC2    C2 2300   0.480   4.350  10.164  0.2609  0.4129  0.1513
  148TMC2    C3 2301   0.607   4.332  10.212  0.6489 -0.7240 -1.1285
  148TMC2    C4 2302   0.393   4.239  10.363 -0.1710 -0.8990  0.1932
  148TMC2    C5 2303   0.520   4.216  10.400 -0.6239  0.3507  0.6433
  148TMC2    C6 2304   0.630   4.261  10.329  0.2873 -0.2386 -0.4273
  148TMC2     C 2305   0.243   4.293  10.189  0.1837  0.4204  0.5202
  148TMC2     O 2306   0.154   4.283  10.276  0.1271  0.8796  0.2402
  148TMC2     H 2307   0.463   4.394  10.067 -1.3759  0.3122  0.3957
  148TMC2    H1 2308   0.312   4.216  10.431 -0.8651  1.3801  0.1557
  148TMC2    H2 2309   0.733   4.254  10.364  0.3055 -0.2091 -0.4744
  148TMC2    C7 2310   0.554   4.125  10.511 -0.4090 -0.6006  0.0810
  148TMC2    C8 2311   0.709   4.420  10.153 -0.2383 -0.6576 -0.2315
  148TMC2    O1 2312   0.670   4.133  10.552 -0.1171 -0.6367  0.0034
  148TMC2    O2 2313   0.684   4.526  10.099  0.0765  0.6773 -0.5823
  148TMC2    O5 2314   0.811   4.335  10.117  0.0114 -0.2919  0.5143
  148TMC2    H5 2315   0.803   4.247  10.160 -0.3085 -1.2346 -1.4601
  149MPD2     C 2316   4.722   4.245  10.040 -0.0872 -0.1133  0.2968
  149MPD2    C1 2317   0.114   4.245   9.981 -0.1731 -0.4129  0.0985
  149MPD2    C2 2318   0.119   4.225   9.847 -0.4809  0.3677  0.8746
  149MPD2    C3 2319   0.008   4.187   9.770  0.6057 -0.1830 -0.1105
  149MPD2    C4 2320   4.629   4.168   9.832  0.4504 -0.2826 -0.2675
  149MPD2    C5 2321   4.616   4.201   9.965 -0.1235 -0.0669 -0.2862
  149MPD2     H 2322   0.211   4.254   9.797 -1.5112  0.8527 -0.7209
  149MPD2    H1 2323   4.542   4.135   9.776  0.4959 -0.6318 -0.1331
  149MPD2    H2 2324   4.700   4.286  10.138  0.7128 -0.9397  0.8223
  149MPD2    H3 2325   4.519   4.203  10.012 -0.2021 -2.0175 -0.3642
  149MPD2     N 2326   0.016   4.155   9.632 -0.1446  0.1700 -0.7637
  149MPD2    H5 2327   4.670   4.110   9.594 -0.0411  0.3044 -1.1506
  149MPD2    N1 2328   0.233   4.284  10.051 -0.2559  0.2400  0.1258
  149MPD2    H7 2329   0.321   4.283  10.001 -0.9543 -0.9287 -1.0760
  150TMC2    C1 2330   3.231   3.883  12.144  0.4203 -0.4748  0.5771
  150TMC2    C2 2331   3.178   3.971  12.048 -0.5148 -0.1146 -0.1264
  150TMC2    C3 2332   3.254   4.080  12.015 -0.1249  0.3993  0.4075
  150TMC2    C4 2333   3.349   3.909  12.203  0.2451 -0.4992  0.3090
  150TMC2    C5 2334   3.413   4.025  12.162  0.8779 -0.4138  0.2124
  150TMC2    C6 2335   3.370   4.114  12.069  0.1981 -0.1584  0.3697
  150TMC2     C 2336   3.148   3.761  12.181  0.2553 -0.3082  0.8703
  150TMC2     O 2337   3.206   3.685  12.261 -0.0263 -0.6227 -0.4927
  150TMC2     H 2338   3.094   3.956  11.981 -0.3335 -0.0944 -0.3574
  150TMC2    H1 2339   3.385   3.843  12.281  1.5033 -2.0838 -1.6248
  150TMC2    H2 2340   3.429   4.200  12.039  0.2468 -0.4230 -0.2997
  150TMC2    C7 2341   3.555   4.051  12.201 -0.7632 -0.0647 -0.7548
  150TMC2    C8 2342   3.214   4.184  11.922 -0.9114 -0.2329 -0.0824
  150TMC2    O1 2343   3.633   4.114  12.127 -0.1608 -0.3288  0.1081
  150TMC2    O2 2344   3.214   4.298  11.958 -0.0001 -0.0101  0.3324
  150TMC2    O5 2345   3.137   4.136  11.824  0.1612 -0.3056  0.5019
  150TMC2    H5 2346   3.155   4.040  11.824 -1.1513 -0.5512  3.0879
  151MPD2     C 2347   2.745   3.456  12.119 -0.2054 -0.6873 -0.6152
  151MPD2    C1 2348   2.722   3.572  12.059  0.0084  0.1740 -0.2099
  151MPD2    C2 2349   2.811   3.680  12.079 -0.3350 -0.5114 -0.2092
  151MPD2    C3 2350   2.928   3.644  12.135  0.4052  0.2132  0.0945
  151MPD2    C4 2351   2.959   3.525  12.195 -0.5761  0.2509  0.1162
  151MPD2    C5 2352   2.867   3.428  12.180 -0.1495 -0.0298 -0.8932
  151MPD2     H 2353   2.806   3.780  12.038 -0.6626 -0.6625 -0.5407
  151MPD2    H1 2354   3.053   3.505  12.244 -0.3478  1.5170  0.2071
  151MPD2    H2 2355   2.667   3.381  12.116  0.8042 -1.6843 -2.0545
  151MPD2    H3 2356   2.888   3.337  12.234 -1.7318  0.5845  0.7498
  151MPD2     N 2357   3.026   3.749  12.129 -0.1416  0.1540 -0.3679
  151MPD2    H5 2358   2.995   3.829  12.076 -0.7500  0.4127  0.3758
  151MPD2    N1 2359   2.607   3.582  11.991 -0.2150  0.7403 -0.5159
  151MPD2    H7 2360   2.550   3.499  11.982  0.6213  0.1690 -0.5097
  152TMC2    C1 2361   3.134   3.628  12.608  0.4257 -0.1951  1.5641
  152TMC2    C2 2362   3.202   3.534  12.531  0.0533  0.5077  0.1910
  152TMC2    C3 2363   3.326   3.498  12.568 -0.2188 -1.3143 -0.2521
  152TMC2    C4 2364   3.184   3.685  12.715 -0.3890  0.1581 -0.2107
  152TMC2    C5 2365   3.311   3.643  12.752  0.1021  0.0355  0.1698
  152TMC2    C6 2366   3.385   3.550  12.678 -0.0442  0.2606 -0.5154
  152TMC2     C 2367   2.994   3.654  12.596 -0.0412  0.0893 -0.1036
  152TMC2     O 2368   2.945   3.761  12.628  0.1652  0.5902  0.2251
  152TMC2     H 2369   3.152   3.482  12.450 -0.1976 -2.8891  2.4997
  152TMC2    H1 2370   3.122   3.748  12.778 -0.8703 -0.7281  0.1929
  152TMC2    H2 2371   3.485   3.528  12.713 -0.7122 -1.7805  0.0624
  152TMC2    C7 2372   3.345   3.684  12.891  0.2884  0.2197  0.2577
  152TMC2    C8 2373   3.405   3.417  12.477  1.0072  0.2306  0.4255
  152TMC2    O1 2374   3.262   3.737  12.960 -0.5240  0.0145  0.0831
  152TMC2    O2 2375   3.494   3.343  12.514  0.1989  0.1014 -0.1255
  152TMC2    O5 2376   3.381   3.465  12.354  0.1256  0.5488  0.0567
  152TMC2    H5 2377   3.324   3.545  12.357 -1.6806 -0.7492 -0.0811
  153MPD2     C 2378   2.757   3.400  12.497 -0.1658 -0.4827 -0.3225
  153MPD2    C1 2379   2.803   3.528  12.506  0.0630  0.1204 -0.2768
  153MPD2    C2 2380   2.714   3.640  12.485 -0.5702 -0.2189  0.3094
  153MPD2    C3 2381   2.592   3.614  12.418  0.0134  0.3455  0.5828
  153MPD2    C4 2382   2.549   3.484  12.403  0.3525 -0.2047  0.5834
  153MPD2    C5 2383   2.630   3.384  12.441 -0.0674 -0.3506  0.2924
  153MPD2     H 2384   2.748   3.742  12.501  0.3445 -0.3614 -0.7246
  153MPD2    H1 2385   2.455   3.456  12.358  0.1095  0.7196  0.5235
  153MPD2    H2 2386   2.815   3.309  12.511  0.7463  0.4065  1.6596
  153MPD2    H3 2387   2.594   3.282  12.438  2.3341 -1.1787 -0.5798
  153MPD2     N 2388   2.521   3.729  12.370  0.3331 -0.4393 -0.5657
  153MPD2    H5 2389   2.570   3.818  12.368 -5.0651  2.5508  0.1941
  153MPD2    N1 2390   2.934   3.542  12.556 -0.3331  0.2089  0.3961
  153MPD2    H7 2391   2.992   3.459  12.542 -0.1076  0.6900 -1.5456
  154TMC2    C1 2392   4.203   3.508   0.573 -0.2591  0.6149  0.7111
  154TMC2    C2 2393   4.191   3.505   0.709 -0.9451  0.2630  0.7333
  154TMC2    C3 2394   4.292   3.450   0.784 -0.0854  0.1631 -0.0400
  154TMC2    C4 2395   4.321   3.473   0.510  1.2242  0.2248  0.2917
  154TMC2    C5 2396   4.422   3.427   0.588  0.3342 -1.2512  0.2184
  154TMC2    C6 2397   4.405   3.404   0.720 -0.3993 -0.4699 -0.0976
  154TMC2     C 2398   4.095   3.591   0.515 -0.3116  0.7463 -1.0226
  154TMC2     O 2399   4.041   3.679   0.581 -0.1324 -0.1310  0.1897
  154TMC2     H 2400   4.099   3.536   0.758 -1.3261 -1.6825  1.2373
  154TMC2    H1 2401   4.327   3.482   0.402  1.3868 -2.1765  0.0875
  154TMC2    H2 2402   4.483   3.363   0.783  0.3548 -1.2007 -1.5095
  154TMC2    C7 2403   4.529   3.340   0.532  0.5013 -0.0209  0.2291
  154TMC2    C8 2404   4.278   3.428   0.921 -0.2132 -0.2049 -0.4645
  154TMC2    O1 2405   4.572   3.254   0.605 -0.1615  0.6868 -0.3147
  154TMC2    O2 2406   4.359   3.353   0.980 -0.0829 -0.0990  0.2559
  154TMC2    O5 2407   4.244   3.550   0.968 -0.2783  0.6019  0.4591
  154TMC2    H5 2408   4.187   3.603   0.909 -0.8026  0.2689  0.6668
  155MPD2     C 2409   4.020   3.583   0.157 -0.5122 -0.0920  0.2351
  155MPD2    C1 2410   4.020   3.634   0.286 -0.5480  0.1920 -0.5040
  155MPD2    C2 2411   3.959   3.758   0.308 -0.4336 -0.2671 -0.0161
  155MPD2    C3 2412   3.900   3.832   0.210 -0.4365 -0.8138 -0.2398
  155MPD2    C4 2413   3.903   3.784   0.079 -0.0507 -0.9581 -0.0808
  155MPD2    C5 2414   3.958   3.660   0.062 -0.1732  0.6846 -0.4008
  155MPD2     H 2415   3.949   3.799   0.408 -0.3152 -1.8221  0.6349
  155MPD2    H1 2416   3.848   3.828  17.743  0.4339  0.6674  0.4513
  155MPD2    H2 2417   4.061   3.486   0.132 -2.7051 -1.7848  3.2394
  155MPD2    H3 2418   3.941   3.620  17.709 -1.3584 -1.3755  0.6297
  155MPD2     N 2419   3.823   3.937   0.256  0.3948  0.1692 -0.6980
  155MPD2    H5 2420   3.839   3.956   0.355  0.5868 -0.2110 -0.6533
  155MPD2    N1 2421   4.085   3.559   0.383 -0.0966  0.2093  0.3992
  155MPD2    H7 2422   4.120   3.470   0.349 -0.7576  0.2038 -0.2693
  156TMC2    C1 2423   2.957   0.909  10.953 -0.3414 -0.1389 -0.1621
  156TMC2    C2 2424   2.969   0.837  10.842 -0.2319 -0.1472 -0.5785
  156TMC2    C3 2425   2.938   0.893  10.725 -0.3437 -0.2514 -0.7821
  156TMC2    C4 2426   2.919   1.037  10.945  0.2820  0.6286 -0.9672
  156TMC2    C5 2427   2.883   1.094  10.826  0.0885 -0.2461 -0.1309
  156TMC2    C6 2428   2.896   1.019  10.713  0.4468 -0.6683  0.1600
  156TMC2     C 2429   3.056   0.898  11.059 -0.2487  1.3455 -0.4153
  156TMC2     O 2430   3.055   0.999  11.133  0.5632 -0.1880 -0.1342
  156TMC2     H 2431   3.022   0.742  10.843  0.7794  0.4212  0.0359
  156TMC2    H1 2432   2.890   1.097  11.031  4.3029  0.2533  0.7028
  156TMC2    H2 2433   2.855   1.053  10.618  2.1665 -0.0865 -0.3881
  156TMC2    C7 2434   2.837   1.233  10.825 -0.1539 -0.0184  0.4554
  156TMC2    C8 2435   2.967   0.817  10.611  0.1954 -0.5886  0.0206
  156TMC2    O1 2436   2.860   1.302  10.924  0.3088  0.5830  0.0803
  156TMC2    O2 2437   2.903   0.836  10.507  0.2453  0.0862  0.8455
  156TMC2    O5 2438   3.098   0.799  10.610 -0.1065  0.0550 -0.3737
  156TMC2    H5 2439   3.150   0.805  10.693 -0.6701 -1.5746  0.0857
  157MPD2     C 2440   3.274   0.622  11.202 -0.0825  0.0321  0.0403
  157MPD2    C1 2441   3.206   0.745  11.197 -0.1762  0.2621 -0.3047
  157MPD2    C2 2442   3.212   0.837  11.301  0.4677  0.6587  0.2965
  157MPD2    C3 2443   3.292   0.815  11.412 -0.2096  0.2663 -0.5924
  157MPD2    C4 2444   3.365   0.698  11.414 -0.3482 -0.2993  0.1385
  157MPD2    C5 2445   3.359   0.604  11.311  0.0544  0.5619 -0.1403
  157MPD2     H 2446   3.153   0.928  11.298  0.1898  0.4481 -0.5307
  157MPD2    H1 2447   3.436   0.671  11.491  2.5689 -0.0195 -2.4652
  157MPD2    H2 2448   3.269   0.552  11.119 -0.0665  1.8710 -1.5287
  157MPD2    H3 2449   3.415   0.512  11.314  1.9286  1.6774 -0.5247
  157MPD2     N 2450   3.297   0.914  11.516 -0.6400 -0.9435  0.9247
  157MPD2    H5 2451   3.236   0.995  11.505  2.2097  1.0917 -0.1060
  157MPD2    N1 2452   3.126   0.777  11.077 -0.2011  0.5904 -0.3104
  157MPD2    H7 2453   3.121   0.718  10.994  4.5842  1.8348 -1.5094
  158TMC2    C1 2454   3.776   4.151  13.194 -0.6025  0.0670 -0.0159
  158TMC2    C2 2455   3.883   4.164  13.112 -0.1092  0.4176 -0.4871
  158TMC2    C3 2456   3.856   4.175  12.980  0.0263  0.0146  0.5534
  158TMC2    C4 2457   3.646   4.153  13.152  0.5131 -0.2082  0.2512
  158TMC2    C5 2458   3.624   4.178  13.020 -0.1737  0.7512  0.3242
  158TMC2    C6 2459   3.724   4.184  12.932  0.3189  0.2587  0.2066
  158TMC2     C 2460   3.815   4.102  13.322 -0.2766 -0.1896 -0.1186
  158TMC2     O 2461   3.926   4.047  13.327 -0.0720  0.0125 -0.0347
  158TMC2     H 2462   3.984   4.172  13.150 -0.6386 -1.3528  1.2956
  158TMC2    H1 2463   3.571   4.129  13.226  1.3458 -1.3433  0.7272
  158TMC2    H2 2464   3.710   4.174  12.825 -1.0294 -0.2548  0.4374
  158TMC2    C7 2465   3.497   4.196  12.963  0.4432 -0.2197 -0.3686
  158TMC2    C8 2466   3.970   4.221  12.903  0.0147  0.3878 -0.1748
  158TMC2    O1 2467   3.490   4.209  12.843  0.0225 -0.0657  0.3759
  158TMC2    O2 2468   4.058   4.298  12.939 -0.2095 -0.2318  0.0462
  158TMC2    O5 2469   3.971   4.165  12.776  0.1730  0.2398 -0.0923
  158TMC2    H5 2470   3.905   4.093  12.765  2.0081 -0.9374 -3.4829
  159MPD2     C 2471   3.724   3.974  13.806  0.0464 -0.2120  0.1547
  159MPD2    C1 2472   3.620   4.046  13.762  0.6150 -1.0368 -0.0831
  159MPD2    C2 2473   3.620   4.089  13.629 -0.3430 -0.0192  0.7697
  159MPD2    C3 2474   3.727   4.062  13.546 -0.3543 -0.2137 -0.0792
  159MPD2    C4 2475   3.828   3.977  13.593  0.0715 -0.3725 -0.3661
  159MPD2    C5 2476   3.824   3.926  13.721  0.3268 -0.2575 -0.3562
  159MPD2     H 2477   3.545   4.161  13.601 -0.5107 -0.5183 -0.0548
  159MPD2    H1 2478   3.912   3.950  13.529  1.6221 -0.1073  1.5520
  159MPD2    H2 2479   3.725   3.929  13.905 -0.3452  2.4219  1.3434
  159MPD2    H3 2480   3.915   3.871  13.742  1.6989  1.6308 -1.3461
  159MPD2     N 2481   3.716   4.116  13.415  0.1818 -0.8431 -0.6106
  159MPD2    H5 2482   3.630   4.162  13.389  0.3873 -1.1328 -1.8048
  159MPD2    N1 2483   3.517   4.061  13.853  0.0252  0.1343  0.8217
  159MPD2    H7 2484   3.529   4.016  13.943  1.8027 -0.7341  0.1311
  160TMC2    C1 2485   3.409   3.081   1.024  0.1915  0.2204  0.3550
  160TMC2    C2 2486   3.490   2.969   1.038  0.0419 -0.5390 -0.1778
  160TMC2    C3 2487   3.571   2.935   0.931 -0.2295  0.2621  0.6961
  160TMC2    C4 2488   3.404   3.154   0.909 -0.4465  0.1811 -0.5069
  160TMC2    C5 2489   3.502   3.126   0.816  0.6611  0.3070 -0.4723
  160TMC2    C6 2490   3.581   3.018   0.821  1.0235 -0.6314 -0.1059
  160TMC2     C 2491   3.316   3.132   1.121  0.0943 -0.2236  0.2340
  160TMC2     O 2492   3.360   3.140   1.237 -0.3761  0.7240  0.1652
  160TMC2     H 2493   3.502   2.915   1.131 -1.1494  0.3732  0.5047
  160TMC2    H1 2494   3.340   3.239   0.891 -1.4959 -0.8790 -1.8139
  160TMC2    H2 2495   3.667   3.008   0.756  1.2512  0.4279  0.0350
  160TMC2    C7 2496   3.497   3.182   0.684 -0.3356  0.2964  0.0260
  160TMC2    C8 2497   3.648   2.814   0.940  0.1468 -0.2986 -0.8631
  160TMC2    O1 2498   3.538   3.121   0.584 -0.6499 -0.5471  0.0564
  160TMC2    O2 2499   3.688   2.763   1.043 -0.4153 -0.0292  0.2505
  160TMC2    O5 2500   3.697   2.785   0.822 -0.2105  0.2927 -1.1951
  160TMC2    H5 2501   3.644   2.824   0.749 -0.1508  1.0930 -0.8094
  161MPD2     C 2502   3.129   3.329   1.248 -0.3014 -0.3410  0.2397
  161MPD2    C1 2503   3.104   3.266   1.132 -0.4970  0.2671 -0.4128
  161MPD2    C2 2504   2.991   3.284   1.061  1.0008  0.0387 -0.3754
  161MPD2    C3 2505   2.899   3.381   1.104  0.4328  0.1937  0.0790
  161MPD2    C4 2506   2.924   3.445   1.222  0.2970 -0.6131 -0.1009
  161MPD2    C5 2507   3.035   3.413   1.298  0.1534 -0.5742 -0.9000
  161MPD2     H 2508   2.979   3.223   0.972  3.9765 -1.3630  0.1702
  161MPD2    H1 2509   2.851   3.519   1.252  2.6819  0.3430  3.4357
  161MPD2    H2 2510   3.221   3.313   1.303 -0.5915  0.4824  0.9654
  161MPD2    H3 2511   3.044   3.464   1.393  0.2228  0.0411 -1.2334
  161MPD2     N 2512   2.782   3.430   1.032  0.3962 -0.1868  0.3929
  161MPD2    H5 2513   2.727   3.503   1.076 -2.2703 -1.4763 -0.8419
  161MPD2    N1 2514   3.201   3.181   1.068  0.0431  0.1308  0.2437
  161MPD2    H7 2515   3.196   3.153   0.971  0.5403  1.6542 -0.2284
  162TMC2    C1 2516   0.329   0.330   0.789  0.7847  0.4345 -0.1461
  162TMC2    C2 2517   0.252   0.432   0.753  0.3860 -0.2133 -0.0384
  162TMC2    C3 2518   0.222   0.519   0.856 -0.4100 -0.3498  0.2639
  162TMC2    C4 2519   0.398   0.322   0.908  0.3795  0.4340 -0.5255
  162TMC2    C5 2520   0.364   0.410   1.005  0.0065  0.4460  0.1728
  162TMC2    C6 2521   0.278   0.514   0.986 -0.4646  0.0747  0.1675
  162TMC2     C 2522   0.356   0.233   0.690  0.7117  0.0857 -0.0738
  162TMC2     O 2523   0.381   0.272   0.576  0.1953 -0.3051 -0.2327
  162TMC2     H 2524   0.210   0.441   0.653 -1.9203  0.0026  0.9530
  162TMC2    H1 2525   0.467   0.239   0.922 -1.4035 -0.6547  1.7991
  162TMC2    H2 2526   0.246   0.570   1.073 -1.3354  0.1749 -0.2234
  162TMC2    C7 2527   0.460   0.436   1.112 -0.0032 -0.9395  0.4944
  162TMC2    C8 2528   0.093   0.578   0.834 -0.5706 -0.2746  0.6344
  162TMC2    O1 2529   0.467   0.555   1.145 -0.1651  0.0728  0.1071
  162TMC2    O2 2530   0.004   0.509   0.775 -0.5880 -0.0807  0.7062
  162TMC2    O5 2531   0.056   0.642   0.948 -0.3813 -0.2245  0.2152
  162TMC2    H5 2532   0.132   0.686   0.992 -0.8318 -0.7495  1.5091
  163MPD2     C 2533   0.438   4.479   0.549 -0.3294  0.2923 -0.5671
  163MPD2    C1 2534   0.495   4.593   0.506  0.1601 -0.3143 -0.7829
  163MPD2    C2 2535   0.476   4.712   0.571 -0.4445  0.1938  0.5612
  163MPD2    C3 2536   0.392   4.725   0.680 -0.4059 -0.1125  0.5195
  163MPD2    C4 2537   0.333   4.604   0.721  0.3759 -0.8347 -0.1675
  163MPD2    C5 2538   0.354   4.487   0.647  0.2790 -0.2751 -0.1939
  163MPD2     H 2539   0.518   0.066   0.531  0.0883 -0.2418  0.1528
  163MPD2    H1 2540   0.266   4.602   0.807 -0.3464 -1.2695 -0.7420
  163MPD2    H2 2541   0.437   4.382   0.500  0.8637  0.2321 -0.4822
  163MPD2    H3 2542   0.294   4.398   0.663  0.4385 -0.0385  1.7376
  163MPD2     N 2543   0.350   0.105   0.740  0.4468 -0.3767 -0.2582
  163MPD2    H5 2544   0.318   0.088   0.835 -0.9459  3.7862  0.0480
  163MPD2    N1 2545   0.575   4.571   0.391 -0.0994  0.3636  0.0588
  163MPD2    H7 2546   0.590   4.471   0.380  1.5538  0.5551  0.4779
  164TMC2    C1 2547   1.343   4.638  10.638 -0.1415 -0.9566 -0.4685
  164TMC2    C2 2548   1.391   0.030  10.660 -0.4451 -0.3049  0.8092
  164TMC2    C3 2549   1.318   0.105  10.751 -0.4777 -0.1168 -0.4778
  164TMC2    C4 2550   1.247   4.583  10.714 -0.4842  0.8215  0.1698
  164TMC2    C5 2551   1.190   4.656  10.811  0.2620  0.4734  0.3135
  164TMC2    C6 2552   1.225   0.055  10.831 -0.3927  0.9811 -0.3875
  164TMC2     C 2553   1.395   4.581  10.515 -0.1955  0.0511 -0.6438
  164TMC2     O 2554   1.457   4.648  10.435  0.2444  0.4376  0.3965
  164TMC2     H 2555   1.472   0.075  10.605 -0.2643  0.3753  1.6322
  164TMC2    H1 2556   1.210   4.483  10.692 -3.1054  1.5145  1.3964
  164TMC2    H2 2557   1.170   0.121  10.897 -0.1316 -0.5374  1.3512
  164TMC2    C7 2558   1.065   4.614  10.869 -0.3191 -0.0366  0.3041
  164TMC2    C8 2559   1.363   0.240  10.770 -0.3518 -0.3370 -0.4317
  164TMC2    O1 2560   0.980   4.560  10.800 -0.2564 -0.4766  0.1661
  164TMC2    O2 2561   1.377   0.291  10.881  0.3255 -0.5257 -0.4438
  164TMC2    O5 2562   1.374   0.300  10.650  0.0063  0.2362 -0.2965
  164TMC2    H5 2563   1.337   0.253  10.573 -3.0361  0.5626  0.9685
  165TMC2    C1 2564   2.370   2.325   0.120 -0.1917 -0.3981  0.1211
  165TMC2    C2 2565   2.335   2.442   0.067 -0.1547 -0.7419 -0.7627
  165TMC2    C3 2566   2.424   2.545   0.085  0.0662 -1.0278 -0.2255
  165TMC2    C4 2567   2.496   2.317   0.180  0.3417  0.1668 -0.0315
  165TMC2    C5 2568   2.584   2.418   0.183  0.1762  0.3213 -0.2241
  165TMC2    C6 2569   2.541   2.539   0.152  1.2262  0.0086  0.7919
  165TMC2     C 2570   2.299   2.206   0.084  0.2772  0.1217 -0.1300
  165TMC2     O 2571   2.342   2.095   0.116  0.4309 -0.3206  0.1874
  165TMC2     H 2572   2.233   2.468   0.042 -0.0067  2.1737  1.6569
  165TMC2    H1 2573   2.534   2.223   0.218  0.3575 -0.3451 -1.3125
  165TMC2    H2 2574   2.607   2.625   0.160  2.0225 -0.5642  0.3085
  165TMC2    C7 2575   2.687   2.414   0.287  0.0112 -0.3158  0.3304
  165TMC2    C8 2576   2.380   2.675   0.034 -0.0465  0.3214 -0.2452
  165TMC2    O1 2577   2.783   2.489   0.279  0.1551  0.6734  0.2177
  165TMC2    O2 2578   2.260   2.710   0.051  0.5290  0.5729  0.1002
  165TMC2    O5 2579   2.459   2.708  17.674  0.0155  0.1237 -0.5945
  165TMC2    H5 2580   2.537   2.650  17.661  0.3980  0.7634 -1.2016
  166MPD2     C 2581   1.993   1.957  17.500 -0.9005 -0.8015 -0.1735
  166MPD2    C1 2582   2.072   1.907  17.599  0.1914 -0.7326 -0.5212
  166MPD2    C2 2583   2.145   1.993  17.675 -0.2311 -0.3377 -0.7022
  166MPD2    C3 2584   2.138   2.133  17.654 -0.1000  0.7656  0.5981
  166MPD2    C4 2585   2.052   2.185  17.555 -0.0152 -0.1409  0.3573
  166MPD2    C5 2586   1.975   2.093  17.487 -0.2529  0.1598  0.2090
  166MPD2     H 2587   2.203   1.961   0.015  0.1239 -1.4604 -1.3544
  166MPD2    H1 2588   2.046   2.291  17.535 -0.6005 -0.3698 -0.6836
  166MPD2    H2 2589   1.942   1.882  17.441 -0.0538 -2.1192  0.7610
  166MPD2    H3 2590   1.898   2.131  17.420 -0.0881 -1.1611 -0.7243
  166MPD2     N 2591   2.205   2.228  17.735 -0.3767  0.6422  0.8924
  166MPD2    H5 2592   2.196   2.326  17.710 -0.9501  0.3834  0.0992
  166MPD2    N1 2593   2.086   1.766  17.616  0.1768  0.2250  0.2256
  166MPD2    H7 2594   2.032   1.715  17.547 -0.4039  0.3650  0.5745
  167TMC2    C1 2595   0.696   4.519  12.717 -0.3916  0.4931 -0.5779
  167TMC2    C2 2596   0.576   4.567  12.756 -0.2931  0.4636  0.0630
  167TMC2    C3 2597   0.468   4.481  12.781  0.4802 -0.3279 -0.5797
  167TMC2    C4 2598   0.718   4.384  12.704  0.9145 -0.1667 -0.1373
  167TMC2    C5 2599   0.615   4.301  12.737 -0.6140  0.0798  0.4839
  167TMC2    C6 2600   0.488   4.346  12.769  0.1652  0.1833  0.0554
  167TMC2     C 2601   0.796   4.621  12.677  0.0408  0.1653 -0.9730
  167TMC2     O 2602   0.785   4.735  12.713 -0.4885 -0.0062 -0.1267
  167TMC2     H 2603   0.565   4.673  12.774 -0.8822  0.7545 -1.9987
  167TMC2    H1 2604   0.814   4.334  12.693  0.6061 -0.8341  0.2283
  167TMC2    H2 2605   0.403   4.282  12.790  0.1605  0.2386  0.2086
  167TMC2    C7 2606   0.631   4.160  12.716  0.0644  0.0371  0.2127
  167TMC2    C8 2607   0.333   4.523  12.802 -0.6893  0.2531 -1.2503
  167TMC2    O1 2608   0.557   4.082  12.774 -0.0770  0.5094 -0.0897
  167TMC2    O2 2609   0.238   4.455  12.761 -0.0745 -0.2929  0.1600
  167TMC2    O5 2610   0.320   4.645  12.854 -0.1166  0.1219  0.2974
  167TMC2    H5 2611   0.396   4.700  12.884 -0.9196  2.1796 -1.4724
  168MPD2     C 2612   1.009   0.051  12.530  0.4027  0.2614 -0.5884
  168MPD2    C1 2613   0.959   4.663  12.491 -0.0743  0.0952 -0.1207
  168MPD2    C2 2614   1.001   4.619  12.366 -0.2938 -0.1409 -0.0054
  168MPD2    C3 2615   1.088   4.679  12.280  0.5916  0.2540  0.5474
  168MPD2    C4 2616   1.145   0.061  12.324 -0.0983 -0.1591  0.2146
  168MPD2    C5 2617   1.106   0.111  12.446 -0.1394  0.7772  0.7891
  168MPD2     H 2618   0.955   4.530  12.325  0.3128 -0.0717 -0.8431
  168MPD2    H1 2619   1.217   0.107  12.257 -0.0067 -1.2391 -0.4422
  168MPD2    H2 2620   0.984   0.097  12.625 -2.1320  1.1687 -1.7020
  168MPD2    H3 2621   1.143   0.208  12.477  0.1994  0.5834  0.9816
  168MPD2     N 2622   1.099   4.619  12.154  0.2094  0.5172 -0.0727
  168MPD2    H5 2623   1.037   4.540  12.142 -1.3995  2.0969 -2.2255
  168MPD2    N1 2624   0.867   4.582  12.565 -0.1939 -0.1160 -0.6661
  168MPD2    H7 2625   0.861   4.486  12.530 -0.8825 -0.0348 -0.7741
  169MPD1     C 2626   2.511   4.672   8.826 -0.3602 -0.3332 -0.1564
  169MPD1    C1 2627   2.637   4.629   8.828  0.0646  0.2391  0.3014
  169MPD1    C2 2628   2.671   4.544   8.929 -0.1460  0.0434 -0.5133
  169MPD1    C3 2629   2.597   4.513   9.043 -0.0360  0.3204  0.2052
  169MPD1    C4 2630   2.471   4.564   9.046 -0.2740 -0.2868  0.6722
  169MPD1    C5 2631   2.430   4.634   8.932  0.9186  0.3879 -0.6588
  169MPD1     H 2632   2.776   4.518   8.923 -0.2471  0.2076 -3.1727
  169MPD1    H1 2633   2.404   4.544   9.129 -0.8490 -1.5375 -0.0953
  169MPD1    H2 2634   2.480   4.732   8.741  0.7063 -0.3723 -0.5703
  169MPD1    H3 2635   2.323   4.651   8.937  1.1187  0.7783  2.4569
  169MPD1     N 2636   2.645   4.421   9.141 -0.0505 -1.2287 -0.3659
  169MPD1    H5 2637   2.741   4.392   9.125  0.2875  0.2233 -1.0594
  169MPD1    N1 2638   2.717   4.653   8.715 -0.5474 -0.0944  0.2575
  169MPD1    H6 2639   2.814   4.641   8.744  0.3310  2.5188 -1.6465
  169MPD1    H7 2640   2.698   0.007   8.675 -4.9597 -0.2289  1.9688
  170MPD1     C 2641   1.554   1.837  12.055 -1.0010  0.0844  0.0011
  170MPD1    C1 2642   1.682   1.807  12.091  0.2379  1.2931 -0.6172
  170MPD1    C2 2643   1.713   1.827  12.226 -0.2904 -0.1556 -0.4900
  170MPD1    C3 2644   1.621   1.872  12.318  0.2380 -0.2619  0.3000
  170MPD1    C4 2645   1.491   1.884  12.276  0.1127  0.3900  0.6099
  170MPD1    C5 2646   1.458   1.869  12.142  0.4807  0.7180  0.1811
  170MPD1     H 2647   1.815   1.816  12.261  0.2663  0.6791 -1.8679
  170MPD1    H1 2648   1.410   1.913  12.342 -0.6580  0.3004 -0.2948
  170MPD1    H2 2649   1.533   1.831  11.949 -2.9075 -4.3637  0.6358
  170MPD1    H3 2650   1.359   1.880  12.101 -0.2580 -0.9869  1.4877
  170MPD1     N 2651   1.669   1.907  12.444  0.4567  0.5102  0.4177
  170MPD1    H5 2652   1.764   1.889  12.475  0.4549  1.6100  1.0505
  170MPD1    N1 2653   1.784   1.789  11.997  0.2337 -0.4547  0.0071
  170MPD1    H6 2654   1.860   1.733  12.035 -0.0937 -1.9019 -1.5173
  170MPD1    H7 2655   1.750   1.744  11.913  1.1305 -1.3915  0.1409
  171MPD1     C 2656   4.643   3.076  15.248  1.0664  0.8654 -0.5487
  171MPD1    C1 2657   4.639   3.127  15.373  0.4983 -0.1798  0.1232
  171MPD1    C2 2658   0.003   3.092  15.461 -0.2461  0.6373  0.6992
  171MPD1    C3 2659   0.087   2.986  15.438  0.2376  0.2948 -0.4788
  171MPD1    C4 2660   0.085   2.920  15.314 -0.1911 -1.0425 -0.5795
  171MPD1    C5 2661   4.728   2.972  15.222  0.1836  0.4192  0.2302
  171MPD1     H 2662   0.000   3.140  15.558 -0.9288  0.2962  0.8525
  171MPD1    H1 2663   0.154   2.840  15.289  1.6771  0.6020 -0.7698
  171MPD1    H2 2664   4.574   3.100  15.169  0.1063 -1.2082 -0.3458
  171MPD1    H3 2665   4.722   2.932  15.121 -0.3063 -1.2981  0.9505
  171MPD1     N 2666   0.177   2.951  15.536  0.1037 -1.0663  0.5585
  171MPD1    H5 2667   0.248   2.883  15.509  0.6785 -0.6163  0.9355
  171MPD1    N1 2668   4.561   3.234  15.408 -0.1312 -0.1664  0.2374
  171MPD1    H6 2669   4.546   3.250  15.507 -3.7807 -2.3092  0.0493
  171MPD1    H7 2670   4.471   3.219  15.363 -0.4871 -2.2896  1.6480
  172MPD1     C 2671   4.008   1.752   0.372 -0.0242 -0.4277 -0.1169
  172MPD1    C1 2672   4.102   1.766   0.276  0.0970 -0.4427  0.4172
  172MPD1    C2 2673   4.190   1.870   0.293  0.7913  0.1260  0.3923
  172MPD1    C3 2674   4.159   1.972   0.380  0.4239 -0.3615 -0.3236
  172MPD1    C4 2675   4.046   1.971   0.453 -0.0191 -0.3856  0.5153
  172MPD1    C5 2676   3.983   1.851   0.463 -0.1397  0.6052  0.5936
  172MPD1     H 2677   4.275   1.868   0.226 -1.0682 -0.2171 -1.9327
  172MPD1    H1 2678   4.004   2.056   0.505  1.6928  1.9989 -2.0007
  172MPD1    H2 2679   3.941   1.667   0.362  0.0524 -0.5073  0.0656
  172MPD1    H3 2680   3.890   1.841   0.518 -0.4135  1.4646  0.2884
  172MPD1     N 2681   4.227   2.093   0.397  0.4121 -0.0058  0.2968
  172MPD1    H5 2682   4.187   2.165   0.457 -1.4423 -1.0405  0.3082
  172MPD1    N1 2683   4.115   1.668   0.179 -0.0262  0.2333 -0.2763
  172MPD1    H6 2684   4.107   1.710   0.086 -0.6978 -1.0206 -0.7890
  172MPD1    H7 2685   4.041   1.598   0.187 -0.7554  1.2985  2.2140
  173MPD1     C 2686   0.118   2.442  14.048 -0.9264 -0.3846 -0.8892
  173MPD1    C1 2687   0.141   2.303  14.060 -0.0969  0.4327 -0.4483
  173MPD1    C2 2688   0.257   2.262  14.113  0.2503 -0.5310 -0.2143
  173MPD1    C3 2689   0.348   2.352  14.162 -0.7903 -0.5412 -0.0034
  173MPD1    C4 2690   0.333   2.493  14.147 -0.1178  0.1255 -0.5865
  173MPD1    C5 2691   0.213   2.532  14.088 -0.2017 -0.2418 -0.0329
  173MPD1     H 2692   0.276   2.156  14.127  1.2960 -0.0653  1.8340
  173MPD1    H1 2693   0.409   2.562  14.183  0.4979 -1.5759  1.3918
  173MPD1    H2 2694   0.030   2.488  14.004 -0.2733  0.6548 -1.1269
  173MPD1    H3 2695   0.200   2.635  14.058  2.7361 -0.5143 -2.2395
  173MPD1     N 2696   0.457   2.291  14.230 -0.1224  0.3029 -0.3333
  173MPD1    H5 2697   0.457   2.189  14.240  0.0132  0.4873  1.6539
  173MPD1    N1 2698   0.046   2.216  14.011 -0.0128 -0.0874  0.0930
  173MPD1    H6 2699   0.047   2.129  14.065 -2.4928  0.2901  0.7730
  173MPD1    H7 2700   4.693   2.263  14.019  0.6486  0.7975  2.3348
  174MPD1     C 2701   1.473   2.042  14.475 -0.2098  0.5006  0.3778
  174MPD1    C1 2702   1.424   2.134  14.388  0.4396  0.0821  0.5621
  174MPD1    C2 2703   1.281   2.166  14.392  0.5136 -0.3923 -0.7622
  174MPD1    C3 2704   1.200   2.117  14.496  0.6215  0.2038  0.3925
  174MPD1    C4 2705   1.259   2.021  14.578 -0.3487  0.0940 -0.2338
  174MPD1    C5 2706   1.394   1.990  14.570 -0.9877 -0.2468 -0.3190
  174MPD1     H 2707   1.241   2.228  14.313  0.3713 -0.7429 -0.9698
  174MPD1    H1 2708   1.200   1.981  14.660  0.6068  2.0632  1.4093
  174MPD1    H2 2709   1.579   2.021  14.474 -0.1630  0.9738 -4.1631
  174MPD1    H3 2710   1.436   1.921  14.642  0.1355 -2.6505 -3.2621
  174MPD1     N 2711   1.061   2.138  14.514 -0.3876  0.6178 -0.4249
  174MPD1    H5 2712   1.011   2.080  14.580 -0.0030 -0.6770 -1.2723
  174MPD1    N1 2713   1.502   2.163  14.276  0.5642  0.4853 -0.2404
  174MPD1    H6 2714   1.474   2.239  14.214  1.0512  0.1165 -0.9109
  174MPD1    H7 2715   1.604   2.163  14.285  0.4389  1.7949  1.1736
  175MPD1     C 2716   3.808   3.266  15.504 -0.5312 -0.6122 -0.4512
  175MPD1    C1 2717   3.696   3.221  15.569 -0.3648 -0.0099 -0.2282
  175MPD1    C2 2718   3.728   3.165  15.694  0.0359  0.6938 -0.7923
  175MPD1    C3 2719   3.849   3.159  15.759 -0.0779 -0.5255  0.1730
  175MPD1    C4 2720   3.957   3.188  15.678 -0.2642 -0.9973  0.5055
  175MPD1    C5 2721   3.934   3.247  15.557  0.2649 -0.1606  0.6177
  175MPD1     H 2722   3.643   3.128  15.751 -0.6185 -0.5437 -2.5649
  175MPD1    H1 2723   4.058   3.187  15.716 -0.3983  0.0153  0.8789
  175MPD1    H2 2724   3.804   3.298  15.400 -0.4437 -2.3792 -1.0055
  175MPD1    H3 2725   4.012   3.287  15.494 -0.8971  0.9166 -0.1461
  175MPD1     N 2726   3.863   3.122  15.900 -0.7739 -0.2186 -0.9897
  175MPD1    H5 2727   3.777   3.131  15.953  0.5447  0.8048  0.9629
  175MPD1    N1 2728   3.574   3.214  15.514 -0.1882 -0.2601  0.3148
  175MPD1    H6 2729   3.552   3.296  15.458  0.6008 -0.5221 -0.3751
  175MPD1    H7 2730   3.500   3.199  15.583 -0.9046 -1.0421 -0.6251
  176MPD1     C 2731   0.946   4.688  16.919 -0.6126  0.3438  0.4706
  176MPD1    C1 2732   0.878   0.005  17.025  0.0603  0.0520  0.8512
  176MPD1    C2 2733   0.865   0.143  17.042  0.0523 -0.9695 -0.3462
  176MPD1    C3 2734   0.906   0.220  16.936  0.1285 -0.2152 -0.5677
  176MPD1    C4 2735   0.981   0.167  16.834 -0.9649 -0.5071 -0.1761
  176MPD1    C5 2736   0.987   0.028  16.819  0.8706  0.5378 -1.0232
  176MPD1     H 2737   0.815   0.191  17.125 -0.4621  0.5015 -1.4927
  176MPD1    H1 2738   1.007   0.226  16.746 -1.5852 -0.3208 -0.2344
  176MPD1    H2 2739   0.960   4.581  16.914  1.2699  0.6046  0.1130
  176MPD1    H3 2740   1.017   4.724  16.724  0.6360  1.5723 -1.5384
  176MPD1     N 2741   0.884   0.359  16.949 -0.6956 -0.4548  0.6733
  176MPD1    H5 2742   0.822   0.389  17.024 -1.6305 -1.9698  0.5188
  176MPD1    N1 2743   0.849   4.654  17.135  0.3889  0.3477  0.0678
  176MPD1    H6 2744   0.822   4.559  17.107 -0.7981  0.5463  0.5304
  176MPD1    H7 2745   0.779   4.685  17.202 -1.3189 -0.6092 -1.2582
  177MPD1     C 2746   4.123   1.076   9.756  0.0613 -0.6050 -0.2779
  177MPD1    C1 2747   4.064   1.063   9.637 -0.4301 -0.1232  0.2956
  177MPD1    C2 2748   3.932   1.017   9.629  0.0148  0.2814  0.3894
  177MPD1    C3 2749   3.874   0.960   9.735 -0.0355  0.5151 -0.0193
  177MPD1    C4 2750   3.935   0.962   9.859  0.3674  0.5965 -0.1855
  177MPD1    C5 2751   4.058   1.028   9.868  0.0421 -0.2339  0.2967
  177MPD1     H 2752   3.879   1.015   9.535 -3.7826 -0.6232  2.5489
  177MPD1    H1 2753   3.894   0.918   9.949 -0.7716  0.9872 -0.5234
  177MPD1    H2 2754   4.215   1.130   9.775  0.1344 -0.2155 -1.7937
  177MPD1    H3 2755   4.105   1.029   9.966  0.8613 -1.0174 -0.0902
  177MPD1     N 2756   3.751   0.896   9.708  0.2435  0.3578  0.1407
  177MPD1    H5 2757   3.712   0.909   9.616 -1.3004 -0.6312  0.6642
  177MPD1    N1 2758   4.126   1.118   9.523 -0.5076 -0.1872 -0.3007
  177MPD1    H6 2759   4.102   1.063   9.441  1.0305 -1.2383 -0.0394
  177MPD1    H7 2760   4.227   1.123   9.534 -0.4727 -1.0589 -0.2353
  178MPD1     C 2761   1.772   1.328  17.716  0.3073  0.6214  0.7679
  178MPD1    C1 2762   1.761   1.457  17.656 -0.2076  0.1203  0.3639
  178MPD1    C2 2763   1.735   1.467  17.523  0.0082  0.0095  0.1181
  178MPD1    C3 2764   1.709   1.354  17.448  0.3594  0.3376  0.8156
  178MPD1    C4 2765   1.720   1.231  17.511  1.0225  0.4464 -0.9088
  178MPD1    C5 2766   1.752   1.218  17.642 -0.5130 -0.2378 -0.0625
  178MPD1     H 2767   1.740   1.565  17.476 -1.9615  0.0498 -0.0088
  178MPD1    H1 2768   1.700   1.141  17.454 -2.5373  0.1704  0.7910
  178MPD1    H2 2769   1.810   1.308   0.070  0.4469 -3.8775 -0.1863
  178MPD1    H3 2770   1.770   1.121  17.687  1.9658 -0.6467 -1.8772
  178MPD1     N 2771   1.693   1.359  17.312  0.2018 -0.0450 -0.4034
  178MPD1    H5 2772   1.694   1.265  17.273 -1.7449  0.6725 -2.1999
  178MPD1    N1 2773   1.796   1.568  17.735 -0.2148  0.3156 -0.4096
  178MPD1    H6 2774   1.776   1.654  17.686 -2.4307 -0.7100 -1.3352
  178MPD1    H7 2775   1.768   1.549   0.086  1.9568 -0.8428 -0.0093
  179MPD1     C 2776   1.179   4.322  14.648 -0.3022  0.4336  0.3152
  179MPD1    C1 2777   1.223   4.379  14.764 -0.1910 -0.1761  0.4858
  179MPD1    C2 2778   1.214   4.307  14.879 -0.1863  1.2072 -0.2013
  179MPD1    C3 2779   1.154   4.182  14.871  0.3116 -0.7949 -0.6176
  179MPD1    C4 2780   1.094   4.134  14.764 -0.0942 -0.1124  0.0987
  179MPD1    C5 2781   1.106   4.201  14.647  0.1240 -0.4291 -0.2990
  179MPD1     H 2782   1.258   4.346  14.970  1.3551  0.7162 -0.7393
  179MPD1    H1 2783   1.052   4.033  14.767  0.2066 -0.1898  1.3997
  179MPD1    H2 2784   1.186   4.383  14.558 -1.1603  0.3958  0.2226
  179MPD1    H3 2785   1.059   4.162  14.557  1.5148  0.2754 -1.3297
  179MPD1     N 2786   1.130   4.109  14.990  0.6147 -0.2849  0.1512
  179MPD1    H5 2787   1.097   4.016  14.966 -2.7400  0.6063  1.2952
  179MPD1    N1 2788   1.308   4.492  14.748  0.9968  0.0056 -0.2624
  179MPD1    H6 2789   1.316   4.551  14.831  0.6941  1.9810 -1.6438
  179MPD1    H7 2790   1.273   4.556  14.677  2.1822  2.5872  1.4971
  180MPD1     C 2791   1.563   0.097  15.408  0.6898 -0.3141 -0.5832
  180MPD1    C1 2792   1.631   0.161  15.311 -0.2602 -0.2999  0.5546
  180MPD1    C2 2793   1.564   0.210  15.194 -0.3658  0.4826  0.5240
  180MPD1    C3 2794   1.426   0.209  15.192 -0.6835  0.3223  0.3862
  180MPD1    C4 2795   1.361   0.151  15.292 -0.5407  0.1044  0.2957
  180MPD1    C5 2796   1.430   0.094  15.392  0.6350 -1.2307 -0.0481
  180MPD1     H 2797   1.627   0.254  15.117  0.3997  0.2578  1.0145
  180MPD1    H1 2798   1.254   0.165  15.301 -0.4393  1.0294  0.1624
  180MPD1    H2 2799   1.618   0.048  15.488  0.2235 -0.5755 -0.4206
  180MPD1    H3 2800   1.375   0.042  15.470 -3.9694  2.3262 -0.9058
  180MPD1     N 2801   1.360   0.256  15.075 -0.4474  0.4831  0.5358
  180MPD1    H5 2802   1.425   0.304  15.013 -0.4616 -0.7658 -0.4381
  180MPD1    N1 2803   1.769   0.192  15.327 -0.0558  0.7872  0.0355
  180MPD1    H6 2804   1.825   0.137  15.392 -0.5121  2.5951  1.9463
  180MPD1    H7 2805   1.817   0.206  15.238  1.4617 -0.0200  0.7158
  181MPD1     C 2806   2.446   2.336  10.758 -0.1543 -0.9673 -0.1326
  181MPD1    C1 2807   2.473   2.468  10.775 -0.1125  0.1190 -0.3176
  181MPD1    C2 2808   2.556   2.542  10.697  0.6046 -0.1283 -0.3117
  181MPD1    C3 2809   2.615   2.483  10.588  0.4868 -0.6160 -0.1354
  181MPD1    C4 2810   2.591   2.348  10.568  0.2591  0.0710 -0.0045
  181MPD1    C5 2811   2.502   2.280  10.649  0.4971  0.3080 -0.3149
  181MPD1     H 2812   2.593   2.635  10.738  1.9397  0.0683 -1.9463
  181MPD1    H1 2813   2.636   2.301  10.481  0.0797 -0.4734  0.1975
  181MPD1    H2 2814   2.372   2.296  10.827 -1.1118 -0.8280 -1.0840
  181MPD1    H3 2815   2.487   2.175  10.627  1.8189 -0.2286  1.2644
  181MPD1     N 2816   2.704   2.545  10.501  0.1904 -0.2830 -0.3982
  181MPD1    H5 2817   2.739   2.488  10.424 -1.5575 -0.8711 -0.7659
  181MPD1    N1 2818   2.447   2.531  10.895  0.4414 -0.4176  0.0758
  181MPD1    H6 2819   2.374   2.491  10.953 -0.8140  0.4397 -0.9089
  181MPD1    H7 2820   2.438   2.632  10.887 -0.7061 -0.4479  1.0221
  182MPD1     C 2821   3.521   2.014   1.166  0.5776  0.0752 -0.3132
  182MPD1    C1 2822   3.562   1.924   1.077  0.1483  0.8443  0.2711
  182MPD1    C2 2823   3.480   1.887   0.975  0.3555 -0.6289  0.1578
  182MPD1    C3 2824   3.361   1.955   0.948  0.0415 -0.3674  0.6096
  182MPD1    C4 2825   3.329   2.064   1.028 -0.1238 -0.1416 -0.0805
  182MPD1    C5 2826   3.409   2.092   1.135 -0.1313 -0.0837  0.7974
  182MPD1     H 2827   3.513   1.808   0.909  1.0292  1.4485 -1.9583
  182MPD1    H1 2828   3.246   2.132   1.011 -0.4287 -0.1697  1.2532
  182MPD1    H2 2829   3.579   2.032   1.256  0.3524 -0.5649 -0.0393
  182MPD1    H3 2830   3.384   2.166   1.211 -1.6040 -3.5809  3.6831
  182MPD1     N 2831   3.286   1.937   0.827 -0.4736  0.5015 -0.1406
  182MPD1    H5 2832   3.210   2.001   0.808 -1.0900  0.5316  2.3716
  182MPD1    N1 2833   3.679   1.847   1.098 -0.2672  0.0732  1.0096
  182MPD1    H6 2834   3.703   1.805   1.008 -0.8175  2.7830 -0.4011
  182MPD1    H7 2835   3.766   1.882   1.138  0.7828 -0.7990 -0.5081
  183MPD1     C 2836   2.925   0.583   8.654 -0.5297  0.0275  0.8627
  183MPD1    C1 2837   2.859   0.695   8.608  0.6864  0.1524 -0.7422
  183MPD1    C2 2838   2.926   0.817   8.605 -0.0194  0.0480 -0.2634
  183MPD1    C3 2839   3.047   0.823   8.675 -0.2216  0.2357 -0.1294
  183MPD1    C4 2840   3.086   0.713   8.749 -0.2451  0.2471  0.0861
  183MPD1    C5 2841   3.028   0.591   8.738 -0.7997 -0.1151  0.0046
  183MPD1     H 2842   2.888   0.898   8.543  1.0538 -1.3266 -2.7071
  183MPD1    H1 2843   3.164   0.719   8.824 -0.8310  3.8173  0.4072
  183MPD1    H2 2844   2.876   0.487   8.647 -1.5436  0.4225  2.4843
  183MPD1    H3 2845   3.068   0.502   8.785  2.7918  1.5619  0.1667
  183MPD1     N 2846   3.109   0.950   8.692  0.2945 -0.1403 -0.0740
  183MPD1    H5 2847   3.060   1.029   8.650 -1.2516 -0.6955  0.7211
  183MPD1    N1 2848   2.736   0.675   8.538 -0.5392  0.5994  0.4446
  183MPD1    H6 2849   2.679   0.602   8.581 -0.2427  1.2541  1.9364
  183MPD1    H7 2850   2.680   0.759   8.532 -0.0302  0.7957 -1.4823
  184MPD1     C 2851   2.779   0.622   8.998 -0.5761 -0.1162 -0.3990
  184MPD1    C1 2852   2.665   0.582   9.060  0.0524 -0.1692 -0.2598
  184MPD1    C2 2853   2.669   0.549   9.197  0.4800  0.2260 -0.2515
  184MPD1    C3 2854   2.784   0.568   9.276 -0.3921 -0.3130  1.0437
  184MPD1    C4 2855   2.902   0.606   9.208  0.6474 -0.1066  0.4685
  184MPD1    C5 2856   2.895   0.628   9.072 -0.1612  1.4635 -0.0117
  184MPD1     H 2857   2.578   0.526   9.252  0.0995  0.1365 -0.9156
  184MPD1    H1 2858   2.994   0.626   9.261  0.6771 -0.6186  0.6119
  184MPD1    H2 2859   2.789   0.631   8.891  2.0012 -0.9980 -0.2419
  184MPD1    H3 2860   2.986   0.651   9.017 -0.8577  2.0332 -0.9379
  184MPD1     N 2861   2.791   0.546   9.415 -0.1485 -0.0902 -0.0175
  184MPD1    H5 2862   2.884   0.561   9.453  0.0661 -1.6608  0.0773
  184MPD1    N1 2863   2.562   0.545   8.977 -0.1552 -0.0021 -0.2194
  184MPD1    H6 2864   2.555   0.605   8.895  0.3003  0.1106 -0.1720
  184MPD1    H7 2865   2.467   0.546   9.016 -0.9150  1.2306 -2.1039
  185MPD1     C 2866   2.788   4.428  10.086  0.4133 -0.6282 -0.3721
  185MPD1    C1 2867   2.680   4.476  10.016  0.6200  0.3570  0.2948
  185MPD1    C2 2868   2.692   4.607   9.963 -0.0425  0.3713 -0.2614
  185MPD1    C3 2869   2.814   4.673   9.962 -0.0708  0.2870  0.5727
  185MPD1    C4 2870   2.922   4.608  10.013 -0.5162  0.0045 -0.7599
  185MPD1    C5 2871   2.909   4.489  10.076  0.1421  0.5172  0.1392
  185MPD1     H 2872   2.605   4.669   9.945  0.4936  1.2767  0.2632
  185MPD1    H1 2873   3.021   4.654  10.010  0.3439 -1.9987 -3.4997
  185MPD1    H2 2874   2.780   4.332  10.135 -1.2470  0.6769  1.8946
  185MPD1    H3 2875   2.998   4.448  10.123  0.0411 -0.0924 -0.1939
  185MPD1     N 2876   2.837   0.072   9.911 -0.4759  0.1932  0.0277
  185MPD1    H5 2877   2.920   0.118   9.950 -2.3380  2.6679  1.1127
  185MPD1    N1 2878   2.548   4.423  10.039 -0.2546 -0.3064  0.4865
  185MPD1    H6 2879   2.488   4.465   9.969 -1.0158  1.9933  2.4855
  185MPD1    H7 2880   2.544   4.321  10.034 -0.9067 -0.0959 -3.2017
  186MPD1     C 2881   1.781   3.830  15.781  0.4087 -0.5440  0.1159
  186MPD1    C1 2882   1.726   3.937  15.715  0.2532 -0.1503 -0.1850
  186MPD1    C2 2883   1.719   4.062  15.772  0.8961 -0.4767 -0.1929
  186MPD1    C3 2884   1.739   4.077  15.907 -0.0705 -0.0821  1.2429
  186MPD1    C4 2885   1.782   3.972  15.978  0.8359 -0.2082  0.6253
  186MPD1    C5 2886   1.805   3.847  15.915  0.1378 -0.4396  0.1152
  186MPD1     H 2887   1.684   4.148  15.716  0.8550  0.7736  1.7714
  186MPD1    H1 2888   1.799   3.991  16.083  1.3702  1.2124  0.2949
  186MPD1    H2 2889   1.794   3.734  15.733 -0.5117 -0.3390 -0.5457
  186MPD1    H3 2890   1.842   3.761  15.968 -1.4079  0.4638  2.6609
  186MPD1     N 2891   1.701   4.197  15.973 -0.0530  0.0308 -0.2065
  186MPD1    H5 2892   1.681   4.186  16.072 -1.1696 -0.0566 -0.4429
  186MPD1    N1 2893   1.712   3.919  15.577  0.7759  0.2774  0.2938
  186MPD1    H6 2894   1.644   3.978  15.530  0.3028 -2.3454 -2.3540
  186MPD1    H7 2895   1.693   3.820  15.559  1.1251  0.2581  0.0277
  187MPD1     C 2896   1.098   1.605   0.025  0.5013  0.2242  0.2841
  187MPD1    C1 2897   1.045   1.513  17.684 -0.5395  0.1206  0.0621
  187MPD1    C2 2898   1.034   1.548  17.552 -0.8641 -0.3834  0.0159
  187MPD1    C3 2899   1.077   1.671  17.505 -0.5261  0.5646 -0.5366
  187MPD1    C4 2900   1.145   1.754  17.593  0.6115 -0.1613  0.5799
  187MPD1    C5 2901   1.162   1.720  17.726  0.1348  0.5452 -1.0437
  187MPD1     H 2902   0.978   1.479  17.490 -1.6367  0.0444  0.2354
  187MPD1    H1 2903   1.176   1.855  17.572 -0.5508 -0.2393 -1.4499
  187MPD1    H2 2904   1.093   1.583   0.131 -0.5201  2.2815  0.6540
  187MPD1    H3 2905   1.204   1.787   0.054  0.4262  1.1490 -1.7644
  187MPD1     N 2906   1.069   1.709  17.374  0.1448  0.4791  0.7674
  187MPD1    H5 2907   1.095   1.807  17.361 -0.6154  0.5755 -0.0318
  187MPD1    N1 2908   0.973   1.402  17.730 -0.4996  0.5156 -0.2211
  187MPD1    H6 2909   1.013   1.360   0.068 -4.0860  0.3484  1.4047
  187MPD1    H7 2910   0.969   1.324  17.664  3.1496  1.2240 -1.3055
  188MPD1     C 2911   0.275   0.932   9.986  0.3244  0.2919 -0.5216
  188MPD1    C1 2912   0.200   0.838   9.917 -0.0736 -0.4758  0.1364
  188MPD1    C2 2913   0.249   0.707   9.904  0.5784 -0.5756 -0.3506
  188MPD1    C3 2914   0.383   0.684   9.947 -0.3144  1.2933  0.4264
  188MPD1    C4 2915   0.454   0.789   9.994 -0.3593 -0.1230  0.7095
  188MPD1    C5 2916   0.407   0.918  10.003 -1.0714 -0.2030  0.0265
  188MPD1     H 2917   0.190   0.623   9.870 -1.1178  1.0341 -1.3891
  188MPD1    H1 2918   0.559   0.772  10.014 -0.8605 -0.4591  3.0737
  188MPD1    H2 2919   0.242   1.035   9.988 -3.1050 -0.7822 -0.4738
  188MPD1    H3 2920   0.482   0.997  10.007 -1.1059 -0.1349 -0.7317
  188MPD1     N 2921   0.441   0.560   9.951  0.2762  0.3825 -0.2545
  188MPD1    H5 2922   0.534   0.558   9.992  0.0808 -3.8946 -0.0535
  188MPD1    N1 2923   0.068   0.873   9.876  0.5737  0.2668  0.3168
  188MPD1    H6 2924   0.061   0.825   9.787 -1.4612 -1.5351  1.4494
  188MPD1    H7 2925   0.068   0.971   9.846  1.2161  0.6934  1.7242
  189MPD1     C 2926   2.619   2.599  17.134 -0.5857  0.8905  0.1586
  189MPD1    C1 2927   2.566   2.536  17.242  0.2792  0.2699  0.4200
  189MPD1    C2 2928   2.505   2.615  17.335 -0.0895 -0.2440  0.3819
  189MPD1    C3 2929   2.467   2.745  17.309 -0.2616 -0.4432  0.0019
  189MPD1    C4 2930   2.530   2.809  17.201 -0.0098  0.8796 -0.0050
  189MPD1    C5 2931   2.603   2.733  17.117  0.4271 -0.1016  0.8771
  189MPD1     H 2932   2.464   2.565  17.422  3.4510  2.5753  3.6545
  189MPD1    H1 2933   2.521   2.913  17.173  2.2616  0.3080 -2.8212
  189MPD1    H2 2934   2.683   2.551  17.061 -0.8766  1.9591 -0.8070
  189MPD1    H3 2935   2.643   2.768  17.022 -0.8446  0.5072  0.5706
  189MPD1     N 2936   2.389   2.812  17.403  0.1009  0.4786  0.1654
  189MPD1    H5 2937   2.368   2.762  17.489  0.5744 -0.7939 -0.4610
  189MPD1    N1 2938   2.589   2.397  17.271  0.1384 -0.1899 -0.0358
  189MPD1    H6 2939   2.682   2.369  17.242 -0.8322 -3.2520 -0.0923
  189MPD1    H7 2940   2.593   2.372  17.370  0.5048  0.2761  0.0709
  190MPD1     C 2941   1.905   1.288  14.898 -0.2704  0.6631 -0.3274
  190MPD1    C1 2942   1.974   1.168  14.882  0.9915 -0.5442 -0.0969
  190MPD1    C2 2943   1.932   1.065  14.964  0.2162 -0.6858  0.7493
  190MPD1    C3 2944   1.831   1.071  15.057  0.2060 -0.0833 -1.0454
  190MPD1    C4 2945   1.767   1.190  15.077 -0.8221 -0.0055 -0.4876
  190MPD1    C5 2946   1.805   1.303  15.001 -0.0383  0.8427 -0.4446
  190MPD1     H 2947   1.988   0.972  14.963 -0.2133 -0.9619  2.0113
  190MPD1    H1 2948   1.692   1.203  15.154 -0.2176  0.6316  0.0001
  190MPD1    H2 2949   1.943   1.377  14.848 -0.5019 -1.8950 -5.0647
  190MPD1    H3 2950   1.768   1.401  15.027 -0.8961  0.9699 -2.1307
  190MPD1     N 2951   1.800   0.958  15.134 -0.5980 -0.1723 -0.8660
  190MPD1    H5 2952   1.853   0.877  15.102 -1.4413 -0.8633 -0.5276
  190MPD1    N1 2953   2.067   1.165  14.775  0.5822 -0.5807 -0.3560
  190MPD1    H6 2954   2.119   1.253  14.768 -0.8597  0.1625 -1.6839
  190MPD1    H7 2955   2.133   1.088  14.771  1.7761  0.2805  2.8505
  191MPD1     C 2956   0.317   2.649  12.929  0.1239 -0.5351  1.1518
  191MPD1    C1 2957   0.196   2.719  12.918  0.2082  0.3747 -0.6798
  191MPD1    C2 2958   0.176   2.806  12.814 -0.1068  0.4982  1.3795
  191MPD1    C3 2959   0.275   2.810  12.715  0.0167  0.6841  0.3607
  191MPD1    C4 2960   0.396   2.742  12.726 -0.2102 -0.6558  0.3567
  191MPD1    C5 2961   0.416   2.660  12.840 -0.0151  0.2337  0.0577
  191MPD1     H 2962   0.089   2.870  12.808  1.3101  1.9407 -3.2484
  191MPD1    H1 2963   0.469   2.735  12.646 -1.1923 -1.7695 -0.4420
  191MPD1    H2 2964   0.348   2.588  13.013  0.3616 -1.3224  0.4930
  191MPD1    H3 2965   0.511   2.608  12.848 -0.2061  0.1704  1.8587
  191MPD1     N 2966   0.248   2.893  12.597 -0.0686  0.2494 -0.0358
  191MPD1    H5 2967   0.153   2.928  12.599 -0.5723 -1.0233 -1.7036
  191MPD1    N1 2968   0.104   2.709  13.022  0.8567 -1.0852  0.0115
  191MPD1    H6 2969   0.140   2.751  13.107 -0.2395 -2.8556  1.3623
  191MPD1    H7 2970   0.085   2.612  13.050  0.9918 -1.5697 -1.6057
  192MPD1     C 2971   0.255   3.731  12.826  0.3801 -0.7669 -0.9926
  192MPD1    C1 2972   0.179   3.617  12.850 -0.0756 -1.0723  0.1700
  192MPD1    C2 2973   0.165   3.525  12.746 -0.3353  0.3363 -0.1963
  192MPD1    C3 2974   0.229   3.549  12.621 -0.2788  0.3218 -0.5408
  192MPD1    C4 2975   0.303   3.665  12.599  0.5302  0.3833 -0.2244
  192MPD1    C5 2976   0.314   3.750  12.702 -0.4044 -1.0402  0.3954
  192MPD1     H 2977   0.115   3.432  12.767 -1.1661  0.7278 -0.4519
  192MPD1    H1 2978   0.357   3.688  12.508 -0.5570  4.0834  0.0170
  192MPD1    H2 2979   0.277   3.792  12.913 -2.9217 -0.5652 -0.2882
  192MPD1    H3 2980   0.370   3.842  12.693 -0.5490 -0.9747  0.1444
  192MPD1     N 2981   0.227   3.463  12.513  0.8028 -0.0762  0.7911
  192MPD1    H5 2982   0.293   3.482  12.438 -1.5806 -1.3338 -1.5927
  192MPD1    N1 2983   0.157   3.574  12.987 -0.7495 -0.4486  0.0395
  192MPD1    H6 2984   0.082   3.506  12.993 -1.4420  0.1030 -2.6199
  192MPD1    H7 2985   0.147   3.645  13.059  1.8266 -0.9502  0.8847
  193MPD1     C 2986   0.327   2.712  16.072  0.1033 -0.1401  0.2000
  193MPD1    C1 2987   0.261   2.835  16.072  0.0816 -0.1790 -0.3545
  193MPD1    C2 2988   0.320   2.931  16.148  0.5118 -0.7025  0.1551
  193MPD1    C3 2989   0.445   2.919  16.199 -0.1533  1.0119  0.0496
  193MPD1    C4 2990   0.516   2.803  16.187  0.3462 -0.2639 -0.8855
  193MPD1    C5 2991   0.453   2.705  16.126  0.6211  0.1973  0.5631
  193MPD1     H 2992   0.266   3.024  16.165  1.4839  0.4202 -2.9387
  193MPD1    H1 2993   0.614   2.782  16.229  0.8860  1.6206 -1.2088
  193MPD1    H2 2994   0.288   2.623  16.023 -0.8399  1.9820 -2.8724
  193MPD1    H3 2995   0.497   2.606  16.119 -0.5261 -0.1636 -1.3439
  193MPD1     N 2996   0.501   3.016  16.281  0.2215 -0.5383 -0.7320
  193MPD1    H5 2997   0.596   2.996  16.311  0.1289  0.4373  0.2081
  193MPD1    N1 2998   0.132   2.852  16.022 -0.5022  0.6653 -0.3451
  193MPD1    H6 2999   0.137   2.946  15.985  0.8675  0.5239 -0.5346
  193MPD1    H7 3000   0.110   2.786  15.948  1.6841 -1.0718  0.5251
  194MPD1     C 3001   3.158   0.426  15.858 -0.5105  0.4699  0.3669
  194MPD1    C1 3002   3.253   0.327  15.885  0.6273 -0.0870 -0.6886
  194MPD1    C2 3003   3.273   0.276  16.015 -0.0420  0.7804  0.7576
  194MPD1    C3 3004   3.189   0.323  16.113 -0.0289 -0.4895 -0.6486
  194MPD1    C4 3005   3.091   0.416  16.088  1.0025  0.2369 -0.1600
  194MPD1    C5 3006   3.080   0.475  15.961  0.4065  0.0535  0.1117
  194MPD1     H 3007   3.352   0.203  16.027  1.5342  2.2199 -0.8692
  194MPD1    H1 3008   3.033   0.466  16.165 -0.7631 -0.5315 -0.9913
  194MPD1    H2 3009   3.144   0.463  15.757  0.1117 -0.7799 -0.1747
  194MPD1    H3 3010   2.998   0.544  15.947  0.2497 -0.4030 -1.1796
  194MPD1     N 3011   3.203   0.282  16.249  0.7453  0.1393 -0.5115
  194MPD1    H5 3012   3.131   0.322  16.309  2.2150 -0.0495  1.3696
  194MPD1    N1 3013   3.335   0.291  15.774  0.1086 -0.3428 -0.1003
  194MPD1    H6 3014   3.273   0.304  15.694 -0.0813 -1.9451 -0.2019
  194MPD1    H7 3015   3.364   0.194  15.769 -1.9256 -0.8707 -1.5744
  195MPD1     C 3016   0.731   1.951  17.265 -0.0622  0.0320  0.1426
  195MPD1    C1 3017   0.701   1.901  17.389 -0.2615 -0.3497  0.5915
  195MPD1    C2 3018   0.590   1.822  17.406  0.3043  0.2445  0.7108
  195MPD1    C3 3019   0.516   1.779  17.296  0.7014  0.0232 -0.4221
  195MPD1    C4 3020   0.547   1.822  17.167 -0.7251  0.0826  0.0986
  195MPD1    C5 3021   0.660   1.911  17.156  0.0513  0.1028 -0.7972
  195MPD1     H 3022   0.576   1.792  17.509  0.2408 -2.3503 -0.0568
  195MPD1    H1 3023   0.497   1.799  17.074  0.4774  0.0413 -0.5333
  195MPD1    H2 3024   0.820   2.010  17.247 -0.4758  0.5834 -0.0998
  195MPD1    H3 3025   0.688   1.940  17.056  1.7482  0.8645 -0.0867
  195MPD1     N 3026   0.405   1.691  17.309  0.0318  0.8219  0.3071
  195MPD1    H5 3027   0.349   1.674  17.227  0.5014 -0.4331  0.2364
  195MPD1    N1 3028   0.773   1.959  17.499 -0.1388 -0.3259 -0.2713
  195MPD1    H6 3029   0.777   1.891  17.574  0.9942  0.2681  0.2176
  195MPD1    H7 3030   0.871   1.978  17.477  0.3716 -1.4498  1.0511
  196MPD1     C 3031   3.909   0.228  17.693 -0.1670 -0.1560  0.0659
  196MPD1    C1 3032   3.925   0.355  17.656 -0.3816  0.2013 -0.2652
  196MPD1    C2 3033   3.936   0.456  17.745 -1.2850 -0.0594 -0.1370
  196MPD1    C3 3034   3.901   0.442   0.128 -0.2047 -0.3816 -0.2880
  196MPD1    C4 3035   3.876   0.315   0.169 -0.1853 -0.7834 -0.1690
  196MPD1    C5 3036   3.886   0.208   0.082 -0.6200  0.3112  0.3257
  196MPD1     H 3037   3.957   0.555  17.707  0.1964 -0.1567  0.4282
  196MPD1    H1 3038   3.854   0.290   0.272  0.3465 -1.1999 -0.1594
  196MPD1    H2 3039   3.913   0.145  17.623 -0.6746 -0.3212  0.2341
  196MPD1    H3 3040   3.872   0.107   0.118  1.5739  0.2956  1.1246
  196MPD1     N 3041   3.899   0.546   0.226  0.2705  0.6556 -0.2408
  196MPD1    H5 3042   3.859   0.527   0.317 -0.3554 -0.3840 -0.7312
  196MPD1    N1 3043   3.963   0.378  17.522  0.5963  0.6764 -0.4959
  196MPD1    H6 3044   3.921   0.465  17.491 -0.4087 -0.2634 -1.8115
  196MPD1    H7 3045   3.925   0.303  17.465 -0.6807 -1.9781  3.7960
  197MPD1     C 3046   4.210   3.207  17.607 -0.3715  0.6239  0.1113
  197MPD1    C1 3047   4.265   3.330  17.634  0.3489  0.5669  0.2171
  197MPD1    C2 3048   4.220   3.437  17.557  0.4021  0.7612  0.7120
  197MPD1    C3 3049   4.146   3.412  17.443  0.7576  0.6603  0.2249
  197MPD1    C4 3050   4.113   3.280  17.413 -0.3644 -0.7490 -0.0105
  197MPD1    C5 3051   4.138   3.182  17.494 -0.0491  0.5580  0.3349
  197MPD1     H 3052   4.239   3.538  17.592 -1.1558  1.2265  0.1906
  197MPD1    H1 3053   4.054   3.259  17.325  0.1739 -0.4098 -0.4493
  197MPD1    H2 3054   4.218   3.123  17.675 -0.6037 -1.0889 -1.9937
  197MPD1    H3 3055   4.101   3.085  17.465 -0.3584  0.2279  1.8515
  197MPD1     N 3056   4.087   3.509  17.363 -0.8696 -0.9570  0.2577
  197MPD1    H5 3057   4.034   3.477  17.282  3.3288 -0.5585 -2.6480
  197MPD1    N1 3058   4.336   3.347   0.007 -0.0997  0.8408 -0.2251
  197MPD1    H6 3059   4.390   3.433   0.015  1.1222  0.0067  0.4894
  197MPD1    H7 3060   4.404   3.274   0.027 -1.2001 -0.3768 -0.9595
  198MPD1     C 3061   0.916   1.580  15.258 -0.4254  0.4987  0.0156
  198MPD1    C1 3062   1.038   1.593  15.189 -0.1899 -0.6295  0.1897
  198MPD1    C2 3063   1.113   1.708  15.197  0.4787 -0.0304  0.2341
  198MPD1    C3 3064   1.073   1.814  15.271  0.3302 -0.1062 -0.2171
  198MPD1    C4 3065   0.951   1.804  15.336 -0.0518 -0.0123  0.5915
  198MPD1    C5 3066   0.875   1.689  15.327 -1.1015  1.1336 -0.1667
  198MPD1     H 3067   1.201   1.711  15.134  0.5220  1.8016  0.3969
  198MPD1    H1 3068   0.914   1.884  15.399 -0.8542  0.0020  0.1027
  198MPD1    H2 3069   0.845   1.498  15.255  1.9889 -1.6146  0.7627
  198MPD1    H3 3070   0.779   1.689  15.377 -0.4191  2.2061  1.1260
  198MPD1     N 3071   1.153   1.929  15.274  0.1723  0.2419  0.1376
  198MPD1    H5 3072   1.240   1.925  15.221 -1.0714 -1.7741 -1.7863
  198MPD1    N1 3073   1.058   1.497  15.088 -0.2865 -0.7285 -0.2532
  198MPD1    H6 3074   1.002   1.413  15.096 -0.2124 -0.9020 -1.5221
  198MPD1    H7 3075   1.151   1.464  15.064 -0.2732 -0.2157 -0.9098
  199MPD1     C 3076   3.723   3.529   9.805  0.1975  0.3310 -0.7005
  199MPD1    C1 3077   3.663   3.423   9.742 -0.1396 -0.4173  0.3260
  199MPD1    C2 3078   3.532   3.393   9.762  0.8417 -0.1532  0.0113
  199MPD1    C3 3079   3.460   3.461   9.857  0.1392  0.5844  0.4798
  199MPD1    C4 3080   3.519   3.571   9.918  0.1727 -0.2084  0.0178
  199MPD1    C5 3081   3.653   3.600   9.897 -0.4414 -0.0527  0.5890
  199MPD1     H 3082   3.485   3.312   9.707 -0.1792 -0.6631  1.6169
  199MPD1    H1 3083   3.473   3.623  10.001 -0.4716  2.2132 -1.8624
  199MPD1    H2 3084   3.825   3.557   9.781  0.5353 -0.5013 -0.2383
  199MPD1    H3 3085   3.698   3.691   9.937  0.0808 -0.4133  0.8281
  199MPD1     N 3086   3.323   3.431   9.893  0.2974 -0.1703 -0.5220
  199MPD1    H5 3087   3.271   3.504   9.941  0.7676 -1.1624  1.4861
  199MPD1    N1 3088   3.735   3.363   9.634 -0.5794 -0.0543  0.1716
  199MPD1    H6 3089   3.836   3.361   9.644 -0.4948  1.2423 -0.4265
  199MPD1    H7 3090   3.712   3.264   9.626  2.7562 -0.8904  1.1593
  200MPD1     C 3091   2.823   3.085  15.156 -0.0856 -0.7972  0.3894
  200MPD1    C1 3092   2.724   3.043  15.069  0.0004  0.2331 -0.4713
  200MPD1    C2 3093   2.724   3.111  14.947  0.4896 -0.2983  0.2103
  200MPD1    C3 3094   2.809   3.215  14.925 -0.0987 -0.4554 -0.7804
  200MPD1    C4 3095   2.895   3.258  15.023 -0.6408  0.1296 -0.5907
  200MPD1    C5 3096   2.903   3.194  15.139 -0.6403  0.5705  0.0582
  200MPD1     H 3097   2.666   3.072  14.864  1.2662 -0.5534 -0.2144
  200MPD1    H1 3098   2.968   3.335  15.001 -0.7575  0.1031 -1.0783
  200MPD1    H2 3099   2.841   3.029  15.247 -0.4971  0.5901  1.3174
  200MPD1    H3 3100   2.975   3.227  15.213 -0.1317 -1.2708  0.3800
  200MPD1     N 3101   2.789   3.282  14.801  0.2724 -0.1042 -0.0498
  200MPD1    H5 3102   2.733   3.239  14.729  0.4076  0.0218 -0.2308
  200MPD1    N1 3103   2.641   2.929  15.094 -0.5990  0.8171  0.2858
  200MPD1    H6 3104   2.635   2.893  15.189  0.2942  2.1067  0.8251
  200MPD1    H7 3105   2.548   2.940  15.054  0.7928  1.8342 -2.6546
  201MPD1     C 3106   4.022   2.222  13.438  0.1434  0.5811 -0.3059
  201MPD1    C1 3107   3.954   2.113  13.492  0.8674  1.0864  0.2456
  201MPD1    C2 3108   4.030   2.015  13.554 -0.0926  0.1182  0.3472
  201MPD1    C3 3109   4.163   2.030  13.582  0.2661 -0.6633 -0.2874
  201MPD1    C4 3110   4.225   2.146  13.538  0.3591  0.4658 -0.7368
  201MPD1    C5 3111   4.152   2.243  13.477 -0.2581  0.2855  0.5390
  201MPD1     H 3112   3.973   1.929  13.588 -2.1414  1.6735  0.8694
  201MPD1    H1 3113   4.333   2.157  13.535  0.3308  1.1435  1.3155
  201MPD1    H2 3114   3.968   2.285  13.369 -2.0357  0.0044  0.8833
  201MPD1    H3 3115   4.198   2.329  13.429 -0.6373 -1.3162 -2.6837
  201MPD1     N 3116   4.233   1.916  13.630  0.3193  0.0765 -0.0595
  201MPD1    H5 3117   4.178   1.836  13.659  0.9748 -0.0090  0.9350
  201MPD1    N1 3118   3.820   2.086  13.471  0.0648  0.1436 -1.2725
  201MPD1    H6 3119   3.772   2.025  13.537 -1.1046  0.5068 -1.7937
  201MPD1    H7 3120   3.763   2.168  13.451  0.9360  0.9774 -0.3434
  202MPD1     C 3121   3.797   0.101   8.743 -0.0591  0.5845  0.2456
  202MPD1    C1 3122   3.777   0.060   8.872 -0.2081  0.7223  0.1327
  202MPD1    C2 3123   3.806   0.161   8.965  0.5786  0.5246 -0.3930
  202MPD1    C3 3124   3.890   0.269   8.933  0.7360 -0.2022  0.0018
  202MPD1    C4 3125   3.909   0.305   8.802  0.3741 -0.1074 -0.6312
  202MPD1    C5 3126   3.857   0.220   8.710  0.3100  0.0842  0.9405
  202MPD1     H 3127   3.778   0.136   9.067 -0.6683  1.4394 -0.5085
  202MPD1    H1 3128   3.954   0.399   8.772 -0.2690  0.6042  0.6094
  202MPD1    H2 3129   3.758   0.044   8.659  0.7522  2.1065 -1.1582
  202MPD1    H3 3130   3.879   0.232   8.605 -1.6973  1.9308  0.7312
  202MPD1     N 3131   3.929   0.372   9.024 -0.3931  0.3360  0.0367
  202MPD1    H5 3132   3.977   0.453   8.986  2.5428 -1.1401  0.5311
  202MPD1    N1 3133   3.686   4.691   8.895  0.2742 -0.8117  0.4374
  202MPD1    H6 3134   3.684   4.612   8.830  0.3098 -1.1555  0.8543
  202MPD1    H7 3135   3.700   4.650   8.987 -0.5218 -2.1896 -0.0503
  203MPD1     C 3136   3.286   2.505  12.445  0.0493 -0.1631  0.2535
  203MPD1    C1 3137   3.316   2.447  12.322 -0.0577  0.1569 -0.2483
  203MPD1    C2 3138   3.356   2.316  12.336  0.2296  1.0827 -0.5722
  203MPD1    C3 3139   3.353   2.239  12.447 -0.6544  0.4981  0.4738
  203MPD1    C4 3140   3.298   2.294  12.559  0.1576  0.2875 -0.5484
  203MPD1    C5 3141   3.264   2.425  12.561  0.5189 -0.1155  0.0109
  203MPD1     H 3142   3.407   2.268  12.253  2.1115  2.5351 -0.2565
  203MPD1    H1 3143   3.289   2.233  12.648  0.3489  0.0077 -0.7217
  203MPD1    H2 3144   3.290   2.613  12.457  0.8088 -0.0222 -1.3101
  203MPD1    H3 3145   3.246   2.466  12.660  0.6884 -0.7600  0.3113
  203MPD1     N 3146   3.395   2.102  12.439 -0.3998  0.0933  0.6053
  203MPD1    H5 3147   3.424   2.065  12.349  2.5479  1.2627  1.0721
  203MPD1    N1 3148   3.333   2.513  12.199 -0.1213 -0.2942 -0.1177
  203MPD1    H6 3149   3.329   2.462  12.112 -1.4768  1.2782 -0.9768
  203MPD1    H7 3150   3.275   2.597  12.195 -1.8483 -1.5138 -0.7069
  204MPD1     C 3151   2.403   3.987  17.568  0.0412  0.8501  0.5523
  204MPD1    C1 3152   2.516   4.033  17.510 -0.3713  0.8287 -0.6211
  204MPD1    C2 3153   2.627   3.954  17.526  0.5837 -0.3766 -0.0868
  204MPD1    C3 3154   2.628   3.832  17.584 -0.3439 -0.1774  0.0824
  204MPD1    C4 3155   2.505   3.790  17.643  0.2337 -0.0191  0.0016
  204MPD1    C5 3156   2.397   3.867  17.627  0.1671  0.0175 -0.5186
  204MPD1     H 3157   2.719   3.996  17.487 -0.0364 -0.5529 -1.7096
  204MPD1    H1 3158   2.476   3.696  17.689 -1.1661  0.7624  0.6908
  204MPD1    H2 3159   2.311   4.044  17.561 -0.6655  0.0949  3.5225
  204MPD1    H3 3160   2.301   3.831  17.660  0.3258 -0.5843 -0.7088
  204MPD1     N 3161   2.745   3.752  17.577  0.0742  0.0829  0.0435
  204MPD1    H5 3162   2.825   3.798  17.536  1.0220 -2.4516 -0.9824
  204MPD1    N1 3163   2.519   4.169  17.463 -0.2785 -0.4510  0.0909
  204MPD1    H6 3164   2.591   4.174  17.391 -0.2281  0.4941  0.2104
  204MPD1    H7 3165   2.427   4.199  17.433  0.4768  1.3474 -0.4337
  205MPD1     C 3166   3.429   1.845   0.154 -0.0746  0.2160  0.4727
  205MPD1    C1 3167   3.364   1.953   0.212 -0.4948 -0.5706  0.1886
  205MPD1    C2 3168   3.318   2.051   0.126 -0.4851  0.0179 -0.4707
  205MPD1    C3 3169   3.334   2.038  17.732  0.4352 -0.6782  0.3466
  205MPD1    C4 3170   3.378   1.921  17.676 -0.0911 -0.2801  0.1268
  205MPD1    C5 3171   3.441   1.830   0.015 -0.0994 -0.2771  0.2762
  205MPD1     H 3172   3.272   2.143   0.159  0.1118  0.1258  0.0560
  205MPD1    H1 3173   3.379   1.912  17.568  3.2836  1.3384  0.0073
  205MPD1    H2 3174   3.484   1.770   0.209  1.0361  0.4058 -0.3870
  205MPD1    H3 3175   3.499   1.748  17.721  0.0581  0.1634 -0.4132
  205MPD1     N 3176   3.289   2.143  17.643 -0.3407 -0.2081  0.6259
  205MPD1    H5 3177   3.281   2.118  17.545  1.2761 -1.6433  0.8487
  205MPD1    N1 3178   3.371   1.989   0.345 -0.1178 -0.6114 -0.2352
  205MPD1    H6 3179   3.290   2.043   0.376  0.0438  0.7156 -2.1386
  205MPD1    H7 3180   3.389   1.909   0.405  0.3590 -0.5630 -0.3153
  206MPD1     C 3181   3.166   4.453  16.499 -0.1433  0.1098 -0.0859
  206MPD1    C1 3182   3.037   4.492  16.500 -0.0258 -0.1770 -1.0875
  206MPD1    C2 3183   2.998   4.575  16.389 -0.3829 -0.3173 -0.2604
  206MPD1    C3 3184   3.081   4.588  16.276  0.0547 -0.3590 -0.1738
  206MPD1    C4 3185   3.205   4.543  16.278  0.0907 -0.7318  0.2571
  206MPD1    C5 3186   3.249   4.471  16.394  0.4157 -0.8297  0.1038
  206MPD1     H 3187   2.893   4.600  16.394 -0.6199 -0.6981 -3.4134
  206MPD1    H1 3188   3.275   4.547  16.195 -0.9214  0.2909 -0.5335
  206MPD1    H2 3189   3.200   4.389  16.580 -1.6475 -1.1386 -0.4214
  206MPD1    H3 3190   3.345   4.420  16.399  1.7004  1.4450 -1.0568
  206MPD1     N 3191   3.036   4.654  16.159 -0.2647 -0.0761 -0.1718
  206MPD1    H5 3192   3.094   4.645  16.077 -1.6359  0.1762 -1.1669
  206MPD1    N1 3193   2.963   4.484  16.625  0.2876  0.9167  0.1481
  206MPD1    H6 3194   2.980   4.392  16.664  0.5410  0.8406 -0.1518
  206MPD1    H7 3195   2.864   4.497  16.606  0.3103 -2.4583 -2.2054
  207MPD1     C 3196   0.125   2.455   9.861  0.0809  0.4637  0.4845
  207MPD1    C1 3197   0.094   2.357   9.956  0.2693 -0.0141  0.1003
  207MPD1    C2 3198   0.200   2.313  10.035 -0.0121  0.0358 -0.3911
  207MPD1    C3 3199   0.324   2.383  10.033 -0.1844 -0.1639 -0.3556
  207MPD1    C4 3200   0.346   2.486   9.939 -0.3709 -0.0510  0.2671
  207MPD1    C5 3201   0.249   2.525   9.858 -0.7210 -0.6572 -0.4234
  207MPD1     H 3202   0.191   2.220  10.090 -1.4042 -1.2128 -2.7614
  207MPD1    H1 3203   0.430   2.554   9.934  0.9494 -1.8812 -2.0299
  207MPD1    H2 3204   0.051   2.491   9.790  1.2003 -2.0068 -1.9462
  207MPD1    H3 3205   0.265   2.614   9.798 -0.5359  0.2197  0.9308
  207MPD1     N 3206   0.434   2.351  10.114 -0.2960  0.7131 -0.8955
  207MPD1    H5 3207   0.525   2.392  10.095  0.4387 -1.5148 -2.1928
  207MPD1    N1 3208   4.704   2.296   9.947 -0.0310 -0.2476 -0.7979
  207MPD1    H6 3209   4.633   2.352   9.901  0.4135  0.2424 -0.8828
  207MPD1    H7 3210   4.677   2.266  10.040  1.7006 -2.1188 -0.8828
  208MPD1     C 3211   3.000   0.754  17.041 -0.1638 -0.2362  0.3869
  208MPD1    C1 3212   3.018   0.864  16.971 -0.3325  0.1300 -0.7842
  208MPD1    C2 3213   2.960   0.981  17.025 -0.0864 -0.6778  0.0927
  208MPD1    C3 3214   2.900   0.983  17.153 -0.4581  0.5917  0.5161
  208MPD1    C4 3215   2.877   0.860  17.216 -0.4216 -0.8191  0.4819
  208MPD1    C5 3216   2.925   0.748  17.155  0.4293 -0.1208 -0.3759
  208MPD1     H 3217   2.970   1.073  16.969 -1.3959 -0.6443 -0.0727
  208MPD1    H1 3218   2.799   0.842  17.290  1.0557 -0.4878  2.1342
  208MPD1    H2 3219   3.042   0.659  17.008 -1.7357 -1.0715  0.8094
  208MPD1    H3 3220   2.907   0.651  17.201  0.1287 -0.6798 -1.6645
  208MPD1     N 3221   2.846   1.105  17.209  0.2432 -0.3714 -0.0622
  208MPD1    H5 3222   2.870   1.190  17.158 -2.1220  1.9220  2.6397
  208MPD1    N1 3223   3.060   0.857  16.835  0.0526 -0.3962 -0.8199
  208MPD1    H6 3224   3.143   0.800  16.849  0.3919  0.4610  0.6298
  208MPD1    H7 3225   3.090   0.949  16.806 -0.2634  0.0830  0.3783
  209MPD1     C 3226   1.137   2.171  12.040 -0.1482 -0.3363  0.3330
  209MPD1    C1 3227   1.189   2.293  11.996 -0.8344  0.7920 -0.2605
  209MPD1    C2 3228   1.130   2.347  11.885 -0.0266  0.0532 -0.0797
  209MPD1    C3 3229   1.040   2.279  11.806 -0.1254  0.6943  0.7476
  209MPD1    C4 3230   0.990   2.154  11.842  0.0025 -0.1688  0.0437
  209MPD1    C5 3231   1.039   2.108  11.967 -0.1699 -0.1904  0.0948
  209MPD1     H 3232   1.167   2.443  11.850 -1.9495  0.6672 -0.4427
  209MPD1    H1 3233   0.915   2.096  11.788  2.8270 -1.7855 -2.1258
  209MPD1    H2 3234   1.157   2.116  12.131 -0.6551 -3.3796 -1.3976
  209MPD1    H3 3235   0.997   2.016  12.004 -0.2982 -0.9514 -1.9539
  209MPD1     N 3236   1.018   2.333  11.672  0.0791  0.1833 -0.5680
  209MPD1    H5 3237   1.029   2.433  11.656 -1.2864  0.4422  0.0505
  209MPD1    N1 3238   1.264   2.370  12.079 -0.2171  0.0386  0.1087
  209MPD1    H6 3239   1.321   2.302  12.129 -2.3780 -2.2005 -0.4401
  209MPD1    H7 3240   1.323   2.436  12.030 -3.3064  2.0921 -0.8837
  210MPD1     C 3241   1.560   2.806  10.997 -0.1875  0.1954 -0.1572
  210MPD1    C1 3242   1.497   2.853  11.104 -0.3084  0.0786  0.1305
  210MPD1    C2 3243   1.384   2.782  11.154  0.3803  0.1125 -0.8738
  210MPD1    C3 3244   1.354   2.661  11.096 -0.2106  0.5474 -0.4477
  210MPD1    C4 3245   1.442   2.604  11.000  0.9501  0.5723  0.5907
  210MPD1    C5 3246   1.544   2.681  10.952 -0.6034 -0.7531 -0.0429
  210MPD1     H 3247   1.322   2.818  11.235 -0.0068 -1.3051 -0.5363
  210MPD1    H1 3248   1.423   2.503  10.964 -1.7689  0.7282  1.6098
  210MPD1    H2 3249   1.646   2.864  10.963  0.2744 -1.5990 -2.0257
  210MPD1    H3 3250   1.617   2.645  10.880  1.0176 -1.1738  1.8035
  210MPD1     N 3251   1.255   2.570  11.154  0.5548  0.2825 -0.0069
  210MPD1    H5 3252   1.243   2.482  11.105  2.4488 -0.3414  0.6385
  210MPD1    N1 3253   1.523   2.990  11.147 -0.1984 -0.6813  0.3245
  210MPD1    H6 3254   1.618   3.020  11.124 -0.7914  0.2806 -0.8807
  210MPD1    H7 3255   1.503   3.001  11.246 -1.9400 -0.8955 -0.0076
  211MPD1     C 3256   3.632   2.527  15.285 -0.2220  0.4894 -0.0909
  211MPD1    C1 3257   3.524   2.445  15.268  0.2026  0.0192  0.1142
  211MPD1    C2 3258   3.452   2.405  15.376  0.2845 -0.1993 -0.7433
  211MPD1    C3 3259   3.459   2.469  15.500 -0.4664 -0.3685  0.2711
  211MPD1    C4 3260   3.572   2.551  15.519 -0.0592 -0.2143 -1.2539
  211MPD1    C5 3261   3.656   2.581  15.412  0.0978  0.8061  0.5538
  211MPD1     H 3262   3.387   2.318  15.368 -0.3465  0.2595 -0.6156
  211MPD1    H1 3263   3.599   2.603  15.610  2.8406 -0.1612 -2.1399
  211MPD1    H2 3264   3.699   2.552  15.203  3.3680 -0.0682  2.7234
  211MPD1    H3 3265   3.738   2.651  15.422  0.1090  1.0828 -1.4502
  211MPD1     N 3266   3.374   2.448  15.605  0.1148 -0.4040  0.0395
  211MPD1    H5 3267   3.296   2.387  15.584  0.4691 -0.3609 -1.3514
  211MPD1    N1 3268   3.521   2.362  15.154 -0.2248 -0.1427  0.8298
  211MPD1    H6 3269   3.425   2.337  15.131 -0.5131  2.3094 -0.6415
  211MPD1    H7 3270   3.546   2.421  15.075  0.7547 -0.4631  0.8951
  212MPD1     C 3271   2.778   0.427  16.959 -0.0104 -0.6038  0.2285
  212MPD1    C1 3272   2.748   0.386  16.828 -0.1707  0.5327 -0.0868
  212MPD1    C2 3273   2.647   0.298  16.809  0.3693 -0.4001 -0.1161
  212MPD1    C3 3274   2.578   0.242  16.922 -0.1506  0.0767 -0.0231
  212MPD1    C4 3275   2.620   0.277  17.048 -0.2432 -0.4335  0.0118
  212MPD1    C5 3276   2.710   0.372  17.067  0.2640 -0.1383  0.1633
  212MPD1     H 3277   2.629   0.273  16.705 -0.8473  0.8081 -0.1952
  212MPD1    H1 3278   2.567   0.240  17.135 -3.2311 -1.3014 -2.1740
  212MPD1    H2 3279   2.851   0.507  16.968  1.0059 -1.4968 -0.0596
  212MPD1    H3 3280   2.724   0.406  17.169 -0.5685  1.4845 -0.2523
  212MPD1     N 3281   2.474   0.158  16.913 -0.2649 -0.0576  0.1005
  212MPD1    H5 3282   2.413   0.149  16.993  2.1126 -1.3439  1.7756
  212MPD1    N1 3283   2.809   0.456  16.727  0.0016 -0.0264 -0.0798
  212MPD1    H6 3284   2.819   0.401  16.643 -1.0366  0.6898 -0.6645
  212MPD1    H7 3285   2.904   0.473  16.759  0.8157  0.1068 -2.5992
  213MPD1     C 3286   1.265   0.850  15.394  0.7988 -0.6903 -0.1786
  213MPD1    C1 3287   1.156   0.836  15.480  0.0943 -0.2457  0.6578
  213MPD1    C2 3288   1.038   0.881  15.422 -0.4215  0.4687 -0.0667
  213MPD1    C3 3289   1.035   0.983  15.323  0.4299  0.3049 -0.2405
  213MPD1    C4 3290   1.158   1.022  15.271  0.7496 -0.0974  0.3937
  213MPD1    C5 3291   1.266   0.953  15.299 -0.3143  0.3569  0.5702
  213MPD1     H 3292   0.938   0.851  15.451 -0.3943  2.7519  2.3542
  213MPD1    H1 3293   1.157   1.087  15.184 -0.8978  0.0683  0.5294
  213MPD1    H2 3294   1.359   0.804  15.423  2.1296  3.3556  1.9339
  213MPD1    H3 3295   1.359   0.977  15.247  0.6983  0.0525  2.2381
  213MPD1     N 3296   0.908   1.047  15.307  0.0720 -0.2064 -0.1829
  213MPD1    H5 3297   0.833   0.996  15.355  0.6510 -0.2055  0.7206
  213MPD1    N1 3298   1.149   0.718  15.562 -0.0997  0.1232 -0.1070
  213MPD1    H6 3299   1.235   0.705  15.616 -0.5441 -0.1645  0.5320
  213MPD1    H7 3300   1.069   0.733  15.623 -0.5515  2.8032 -1.3906
  214MPD1     C 3301   0.109   0.616  15.101  0.2715 -0.0277  0.2229
  214MPD1    C1 3302   0.197   0.637  15.208 -0.7398 -0.5383  0.2728
  214MPD1    C2 3303   0.288   0.743  15.204 -0.2252 -0.1567 -0.2701
  214MPD1    C3 3304   0.289   0.827  15.094  0.1601 -1.0090  0.0620
  214MPD1    C4 3305   0.203   0.801  14.985  0.0090  0.3936 -0.1916
  214MPD1    C5 3306   0.116   0.702  14.993 -0.8057  0.4963  0.1112
  214MPD1     H 3307   0.345   0.755  15.295  0.5095  2.1467 -1.0274
  214MPD1    H1 3308   0.220   0.859  14.895 -0.5992 -2.1282 -1.9349
  214MPD1    H2 3309   0.031   0.541  15.094 -0.6315  0.7370  2.0636
  214MPD1    H3 3310   0.045   0.683  14.914 -0.0877  1.4451 -0.7593
  214MPD1     N 3311   0.382   0.938  15.083  0.1152  0.5414  0.2296
  214MPD1    H5 3312   0.389   0.985  14.994 -1.6792  1.3611  0.5143
  214MPD1    N1 3313   0.207   0.534  15.308  0.4594 -0.4456 -0.2567
  214MPD1    H6 3314   0.214   0.570  15.403 -3.5357 -0.1111 -0.0951
  214MPD1    H7 3315   0.114   0.492  15.308  0.7531 -1.0891  0.8316
  215MPD1     C 3316   4.401   2.261  11.140  0.1548 -1.2013 -0.5962
  215MPD1    C1 3317   4.434   2.150  11.217  0.0973 -0.8959  0.4428
  215MPD1    C2 3318   4.567   2.137  11.257  0.5742  0.3538  1.0196
  215MPD1    C3 3319   4.665   2.236  11.227 -0.2759 -0.3375 -0.5693
  215MPD1    C4 3320   4.628   2.343  11.151 -0.0571  0.0311  0.2373
  215MPD1    C5 3321   4.495   2.361  11.116  0.5304  0.3252 -0.0470
  215MPD1     H 3322   4.597   2.053  11.318  1.0243  1.3583  2.1916
  215MPD1    H1 3323   4.703   2.419  11.129 -0.9413  1.6922  3.0490
  215MPD1    H2 3324   4.300   2.282  11.107 -0.2597  1.9293  2.6250
  215MPD1    H3 3325   4.473   2.457  11.070 -1.4409 -0.4738 -0.7447
  215MPD1     N 3326   0.061   2.210  11.262 -0.1325  0.2995 -0.1309
  215MPD1    H5 3327   0.083   2.160  11.348 -0.2299 -0.5220 -0.5862
  215MPD1    N1 3328   4.338   2.049  11.240 -0.1813 -0.4282 -0.0031
  215MPD1    H6 3329   4.243   2.086  11.238 -0.7900 -2.0838 -0.9010
  215MPD1    H7 3330   4.340   1.997  11.328  1.1513 -1.1164 -0.4399
  216MPD1     C 3331   2.742   3.975  16.050  0.1804 -0.2919 -0.4891
  216MPD1    C1 3332   2.675   3.867  16.096  0.0888  1.3039  0.3930
  216MPD1    C2 3333   2.637   3.852  16.227  0.5488  0.0093  0.2468
  216MPD1    C3 3334   2.658   3.957  16.314  0.6195 -0.3496  0.5822
  216MPD1    C4 3335   2.715   4.074  16.269 -0.2375 -0.1155  0.3292
  216MPD1    C5 3336   2.766   4.077  16.139  0.3103 -0.0897  0.2303
  216MPD1     H 3337   2.604   3.758  16.269  0.9662  0.0060  0.5654
  216MPD1    H1 3338   2.733   4.164  16.326 -1.6922  0.4174 -0.0483
  216MPD1    H2 3339   2.770   3.987  15.946 -0.1110 -0.3291 -0.5716
  216MPD1    H3 3340   2.822   4.162  16.100 -1.4863  0.5898 -0.8709
  216MPD1     N 3341   2.613   3.945  16.452 -0.0369  0.2130  0.6058
  216MPD1    H5 3342   2.559   3.863  16.476  0.6559 -0.3230  0.3405
  216MPD1    N1 3343   2.659   3.764  15.999  0.4950  0.1706 -0.4008
  216MPD1    H6 3344   2.571   3.718  16.022  0.5358  0.4512  0.3062
  216MPD1    H7 3345   2.623   3.804  15.913 -1.5061 -0.0573  0.3303
  217MPD1     C 3346   1.834   1.489   8.791 -0.3490 -0.2007 -0.4987
  217MPD1    C1 3347   1.930   1.478   8.700 -0.4678  0.3538  0.1950
  217MPD1    C2 3348   2.060   1.486   8.750  0.4672 -0.5395 -0.0049
  217MPD1    C3 3349   2.083   1.520   8.886  0.5610 -0.0017  0.3850
  217MPD1    C4 3350   1.982   1.550   8.967 -0.8104 -0.2048  0.2515
  217MPD1    C5 3351   1.859   1.533   8.913 -0.1100 -0.6692  0.4230
  217MPD1     H 3352   2.140   1.454   8.684  1.1332  0.6873  0.2085
  217MPD1    H1 3353   1.988   1.591   9.067  0.9014  4.7207 -1.8672
  217MPD1    H2 3354   1.730   1.490   8.762 -0.0253 -1.1647 -1.7079
  217MPD1    H3 3355   1.775   1.564   8.974 -0.2431 -0.4984  0.1540
  217MPD1     N 3356   2.216   1.544   8.941 -0.4535  0.5689 -0.0041
  217MPD1    H5 3357   2.214   1.581   9.035 -1.9295 -0.2142  0.2676
  217MPD1    N1 3358   1.908   1.428   8.570 -1.0463 -0.1444 -0.6607
  217MPD1    H6 3359   1.816   1.459   8.538 -1.6717 -1.1024  0.2166
  217MPD1    H7 3360   1.976   1.461   8.502  0.3924 -3.3294 -0.7673
  218MPD1     C 3361   0.006   1.976  13.398  0.1272  0.7067 -0.2916
  218MPD1    C1 3362   0.142   2.001  13.400  0.1710  1.2007  0.2009
  218MPD1    C2 3363   0.192   2.046  13.290  0.3369 -0.1251  0.2665
  218MPD1    C3 3364   0.125   2.064  13.170 -0.3194 -0.2302  0.4663
  218MPD1    C4 3365   4.728   2.039  13.177  0.0781  0.3188  0.5958
  218MPD1    C5 3366   4.664   1.999  13.283 -0.4720 -0.3741 -0.7169
  218MPD1     H 3367   0.299   2.060  13.289  0.2499  0.5200 -0.5072
  218MPD1    H1 3368   4.662   2.044  13.091  0.0348  2.2332  0.7382
  218MPD1    H2 3369   4.690   1.936  13.483  1.3964 -0.2184  0.0495
  218MPD1    H3 3370   4.559   1.977  13.272 -0.6915 -1.6220  3.7451
  218MPD1     N 3371   0.190   2.111  13.059 -0.1170  0.2540  0.3115
  218MPD1    H5 3372   0.291   2.103  13.053 -0.3507 -0.7275 -2.3562
  218MPD1    N1 3373   0.219   2.010  13.522  0.2583 -0.5663  0.2221
  218MPD1    H6 3374   0.320   2.012  13.511  0.0387 -0.4890 -1.8253
  218MPD1    H7 3375   0.198   1.929  13.579 -2.5940  1.1035  1.5333
  219MPD1     C 3376   0.136   1.862  12.102 -0.4212 -0.0325  0.1888
  219MPD1    C1 3377   0.227   1.970  12.098  0.1226  0.1171  0.0692
  219MPD1    C2 3378   0.237   2.035  12.214  0.3606 -0.4251  0.4146
  219MPD1    C3 3379   0.151   2.011  12.322  0.0944 -0.1649  0.4911
  219MPD1    C4 3380   0.065   1.909  12.318  0.0356  0.6972  0.2330
  219MPD1    C5 3381   0.053   1.837  12.211 -0.0175 -0.2733  0.0509
  219MPD1     H 3382   0.314   2.111  12.220  0.4237 -0.3710 -1.3602
  219MPD1    H1 3383   0.006   1.894  12.408 -0.9494  0.2040 -0.4953
  219MPD1    H2 3384   0.120   1.808  12.010 -1.4605  2.3312 -1.0275
  219MPD1    H3 3385   4.719   1.755  12.204  2.1842 -2.2447  0.7055
  219MPD1     N 3386   0.175   2.066  12.455 -0.1854 -0.4606 -0.3330
  219MPD1    H5 3387   0.143   2.019  12.540 -2.0498  1.1948 -0.1165
  219MPD1    N1 3388   0.318   1.989  11.994  1.2861  0.4754 -0.0382
  219MPD1    H6 3389   0.281   1.949  11.907 -1.2016  0.2123  1.1432
  219MPD1    H7 3390   0.343   2.086  11.978  0.4514  0.1976 -3.0533
  220MPD1     C 3391   0.389   3.330   9.968  0.1942 -0.2975 -0.1839
  220MPD1    C1 3392   0.382   3.320  10.103 -0.4890 -0.4540 -0.4633
  220MPD1    C2 3393   0.361   3.195  10.159 -0.4185  0.1406 -0.4469
  220MPD1    C3 3394   0.332   3.089  10.084 -0.5581  0.3112  0.2697
  220MPD1    C4 3395   0.318   3.109   9.948 -0.4485  0.1983 -0.1642
  220MPD1    C5 3396   0.361   3.223   9.894  0.2028 -0.0107 -0.6480
  220MPD1     H 3397   0.374   3.186  10.266 -1.2892  2.1284 -0.1661
  220MPD1    H1 3398   0.299   3.025   9.883  0.5151 -1.9408  2.3202
  220MPD1    H2 3399   0.425   3.418   9.915 -0.0481  0.8741  1.5788
  220MPD1    H3 3400   0.371   3.232   9.786  1.6446 -0.7501 -0.5721
  220MPD1     N 3401   0.309   2.965  10.153  0.1494 -0.1396 -0.2914
  220MPD1    H5 3402   0.339   2.945  10.248  2.2651  1.4523 -0.6266
  220MPD1    N1 3403   0.437   3.422  10.186  0.2090 -0.5550  0.0557
  220MPD1    H6 3404   0.393   3.406  10.276 -1.8160 -0.3758 -0.8942
  220MPD1    H7 3405   0.414   3.514  10.149 -1.3425 -0.7534  0.5110
  221MPD1     C 3406   2.375   2.041  15.573  0.2026 -0.7432 -0.0552
  221MPD1    C1 3407   2.378   1.899  15.579  0.5458 -0.0639  0.1712
  221MPD1    C2 3408   2.495   1.836  15.629 -0.4934 -0.5918 -1.0904
  221MPD1    C3 3409   2.602   1.910  15.680  0.3794  0.6747  0.0469
  221MPD1    C4 3410   2.581   2.047  15.682 -0.4316  0.3789  0.4557
  221MPD1    C5 3411   2.474   2.111  15.635 -0.5624  0.4289  0.4752
  221MPD1     H 3412   2.505   1.729  15.641  0.0140 -0.1759  2.0900
  221MPD1    H1 3413   2.658   2.103  15.733  1.8150 -1.3232 -1.0721
  221MPD1    H2 3414   2.285   2.087  15.537  0.1521 -0.9045 -0.1337
  221MPD1    H3 3415   2.467   2.219  15.638  1.5996  0.5714  0.2407
  221MPD1     N 3416   2.727   1.849  15.724  0.1331  0.3768  0.5923
  221MPD1    H5 3417   2.797   1.909  15.766  1.3438 -0.1548 -0.7004
  221MPD1    N1 3418   2.279   1.823  15.512 -0.6437 -0.5308  0.6425
  221MPD1    H6 3419   2.188   1.865  15.533 -1.9653 -1.4598 -3.2755
  221MPD1    H7 3420   2.265   1.730  15.551 -0.4776  0.1918  2.4482
  222MPD1     C 3421   1.405   0.402   0.357 -0.5080 -1.1864  0.4977
  222MPD1    C1 3422   1.514   0.427   0.279 -0.7938 -0.4233 -0.0175
  222MPD1    C2 3423   1.491   0.488   0.159  0.4382 -0.0135 -0.2022
  222MPD1    C3 3424   1.366   0.512   0.108 -0.5565  0.6949  0.1581
  222MPD1    C4 3425   1.250   0.480   0.184 -0.0338  0.5366 -0.1979
  222MPD1    C5 3426   1.280   0.431   0.310 -0.3633  0.8446  0.2912
  222MPD1     H 3427   1.579   0.510   0.100  0.6190 -0.3446 -0.0498
  222MPD1    H1 3428   1.147   0.503   0.161 -0.5831 -2.3961 -0.7458
  222MPD1    H2 3429   1.411   0.346   0.449  1.0029 -0.0838  1.0746
  222MPD1    H3 3430   1.201   0.395   0.374  0.5924  0.1295  1.0662
  222MPD1     N 3431   1.336   0.570  17.727  0.1936 -0.2186  0.0397
  222MPD1    H5 3432   1.237   0.581  17.713 -0.0462  1.3612  2.9933
  222MPD1    N1 3433   1.637   0.365   0.302 -0.7996  0.1487  0.2826
  222MPD1    H6 3434   1.662   0.323   0.391  0.9043  1.5130  0.4585
  222MPD1    H7 3435   1.718   0.410   0.260 -1.7671  0.7380 -0.9590
  223MPD1     C 3436   0.531   0.751  17.489 -0.8591  0.2650 -0.5898
  223MPD1    C1 3437   0.602   0.684  17.590 -0.7818  0.0245 -0.2981
  223MPD1    C2 3438   0.745   0.677  17.576  0.8013  0.5324 -0.1156
  223MPD1    C3 3439   0.813   0.742  17.477  0.3061 -0.3300  0.4641
  223MPD1    C4 3440   0.738   0.815  17.381 -0.6039  0.2619  0.5369
  223MPD1    C5 3441   0.597   0.810  17.387 -0.5456  0.4169  0.2155
  223MPD1     H 3442   0.802   0.608  17.637  1.7405 -0.4151 -2.0626
  223MPD1    H1 3443   0.785   0.875  17.304 -0.9977 -1.0834 -0.7576
  223MPD1    H2 3444   0.424   0.753  17.478 -0.8085 -0.6036 -1.2656
  223MPD1    H3 3445   0.550   0.853  17.299  1.2608  0.1263 -0.8993
  223MPD1     N 3446   0.956   0.732  17.477  0.2284  0.0102  0.1030
  223MPD1    H5 3447   0.996   0.673  17.550  1.5733 -0.0020 -0.6544
  223MPD1    N1 3448   0.538   0.606  17.688  0.4136 -0.4621 -0.4392
  223MPD1    H6 3449   0.448   0.646  17.714  1.5611  0.9302  1.3760
  223MPD1    H7 3450   0.596   0.584   0.023  1.3528  1.7919 -0.5030
  224MPD1     C 3451   2.450   2.034   8.974  0.2325  0.4042  0.1123
  224MPD1    C1 3452   2.447   2.109   9.086  0.2987 -0.8147  0.3354
  224MPD1    C2 3453   2.566   2.120   9.151 -0.1414  1.1656  0.0234
  224MPD1    C3 3454   2.675   2.048   9.113 -0.0347  0.3191  0.4272
  224MPD1    C4 3455   2.667   1.953   9.014 -0.1161  0.0367  0.1292
  224MPD1    C5 3456   2.555   1.953   8.939  0.3064 -0.0381 -0.8360
  224MPD1     H 3457   2.572   2.182   9.240 -0.4122  1.1301  0.0665
  224MPD1    H1 3458   2.748   1.884   8.996 -0.8424 -0.7567 -0.1116
  224MPD1    H2 3459   2.363   2.030   8.910  0.7624 -1.1225 -0.5069
  224MPD1    H3 3460   2.544   1.882   8.858  1.6410 -1.4123  0.2074
  224MPD1     N 3461   2.793   2.056   9.195 -0.0327 -0.0947 -0.3223
  224MPD1    H5 3462   2.859   1.980   9.179  0.2808 -0.1338  1.1125
  224MPD1    N1 3463   2.327   2.182   9.113 -0.1811 -0.1989  0.3019
  224MPD1    H6 3464   2.252   2.115   9.103  2.2105 -2.8786  0.1357
  224MPD1    H7 3465   2.348   2.215   9.207 -1.0502 -0.2540  0.5083
  225MPD1     C 3466   4.541   3.022  13.418 -0.1552  0.8307  0.3942
  225MPD1    C1 3467   4.427   2.964  13.384  0.1640  0.4660 -0.1766
  225MPD1    C2 3468   4.433   2.887  13.269  0.6537 -0.5542 -0.1162
  225MPD1    C3 3469   4.550   2.854  13.205  0.1876  0.2193  0.6721
  225MPD1    C4 3470   4.667   2.919  13.247  0.4960 -0.1708 -0.0145
  225MPD1    C5 3471   4.657   3.006  13.350  0.0738  0.5675  0.6110
  225MPD1     H 3472   4.350   2.854  13.208  1.9500 -0.2230 -2.0721
  225MPD1    H1 3473   0.022   2.908  13.191  0.3713 -1.7192  0.0991
  225MPD1    H2 3474   4.549   3.098  13.494 -0.0779  0.3859  0.8299
  225MPD1    H3 3475   0.003   3.070  13.378 -0.1835  1.9122 -1.7259
  225MPD1     N 3476   4.555   2.801  13.075 -0.5971  0.5107 -0.0858
  225MPD1    H5 3477   4.647   2.784  13.037 -0.2514 -2.0768  1.9071
  225MPD1    N1 3478   4.306   3.019  13.439 -0.0409 -0.1180  0.1749
  225MPD1    H6 3479   4.317   3.060  13.532 -1.7598 -0.5956  0.5760
  225MPD1    H7 3480   4.225   2.959  13.427 -0.7542  0.7302  0.7091
  226MPD1     C 3481   3.308   2.428   9.421 -0.5220  0.0339 -0.6016
  226MPD1    C1 3482   3.205   2.512   9.395  0.1525  0.3227 -0.4882
  226MPD1    C2 3483   3.121   2.486   9.283  0.6423  0.9099  0.1842
  226MPD1    C3 3484   3.160   2.384   9.196 -0.4300  0.4518  0.5260
  226MPD1    C4 3485   3.272   2.302   9.229 -0.0039  0.7597  0.1782
  226MPD1    C5 3486   3.347   2.327   9.342  0.4325  0.6401 -0.1447
  226MPD1     H 3487   3.034   2.543   9.252  0.3939  0.1769 -0.4596
  226MPD1    H1 3488   3.292   2.216   9.166  1.2391  1.7502 -0.7907
  226MPD1    H2 3489   3.364   2.440   9.513 -1.7503 -2.3782  0.4546
  226MPD1    H3 3490   3.428   2.260   9.367  0.1947  0.2681 -0.3730
  226MPD1     N 3491   3.066   2.356   9.091  0.1947 -0.1082 -0.4525
  226MPD1    H5 3492   2.987   2.419   9.097 -1.2726 -1.9750 -0.1157
  226MPD1    N1 3493   3.160   2.607   9.491  0.2027 -0.8804  0.5117
  226MPD1    H6 3494   3.115   2.687   9.446  0.5762 -1.0442 -0.1486
  226MPD1    H7 3495   3.241   2.641   9.541 -0.9340 -0.8907  2.3673
  227MPD1     C 3496   2.707   2.982   8.731  0.2269 -0.0679  0.3817
  227MPD1    C1 3497   2.736   2.939   8.864  0.2091 -0.9248 -0.0640
  227MPD1    C2 3498   2.745   2.802   8.887 -0.2082  0.1124  0.3511
  227MPD1    C3 3499   2.723   2.709   8.781  0.0951 -0.1854 -0.4849
  227MPD1    C4 3500   2.691   2.758   8.657  0.7541 -0.2625  0.5162
  227MPD1    C5 3501   2.677   2.890   8.634 -0.7029  0.3332  0.1165
  227MPD1     H 3502   2.774   2.772   8.988  0.6337  0.8475  0.3246
  227MPD1    H1 3503   2.679   2.698   8.568  1.9328 -1.9544  1.5201
  227MPD1    H2 3504   2.703   3.087   8.708 -3.3061 -0.1817  0.6003
  227MPD1    H3 3505   2.657   2.921   8.532 -1.9688 -1.7714 -0.2759
  227MPD1     N 3506   2.752   2.572   8.809 -0.7416  0.1148 -0.2343
  227MPD1    H5 3507   2.805   2.556   8.895  1.2520 -1.0699 -1.6829
  227MPD1    N1 3508   2.775   3.035   8.955  0.2725 -0.2086  0.0674
  227MPD1    H6 3509   2.752   2.989   9.043 -0.1279  0.2266  0.1932
  227MPD1    H7 3510   2.729   3.125   8.945  0.5683 -0.1927 -1.1058
  228MPD1     C 3511   2.129   0.067  13.348 -0.8811 -0.0913  0.6806
  228MPD1    C1 3512   2.085   0.091  13.479  0.0624  0.3188 -0.0919
  228MPD1    C2 3513   1.973   0.172  13.492  0.3712  0.0529 -0.0447
  228MPD1    C3 3514   1.925   0.249  13.393  0.7145 -0.2619 -0.0032
  228MPD1    C4 3515   1.978   0.232  13.267  0.5717  0.0300  0.0541
  228MPD1    C5 3516   2.071   0.140  13.242  0.2240  0.0189 -0.1416
  228MPD1     H 3517   1.917   0.176  13.585  1.6949  2.0600  0.6487
  228MPD1    H1 3518   1.938   0.284  13.181  1.6623 -0.1589 -0.5635
  228MPD1    H2 3519   2.207   4.734  13.321 -0.4072 -0.0079  1.8248
  228MPD1    H3 3520   2.099   0.121  13.139 -0.6420 -2.1252  0.0076
  228MPD1     N 3521   1.818   0.341  13.418 -0.2408  0.3170 -0.4410
  228MPD1    H5 3522   1.772   0.337  13.508  1.5105  0.0665  0.4295
  228MPD1    N1 3523   2.135   0.014  13.586  0.3729  0.3363  0.0264
  228MPD1    H6 3524   2.225   4.707  13.570  0.8597  0.5562  2.1616
  228MPD1    H7 3525   2.140   0.066  13.673  3.4065  0.5093 -0.2353
  229MPD1     C 3526   1.942   4.260  13.766  0.9878  0.2170 -0.5304
  229MPD1    C1 3527   1.810   4.249  13.798 -0.4598  0.0917  0.1806
  229MPD1    C2 3528   1.767   4.184  13.915 -0.7771 -0.5157 -0.9862
  229MPD1    C3 3529   1.866   4.147  14.008 -0.3031  0.4804  0.4621
  229MPD1    C4 3530   1.999   4.163  13.978 -0.3973  0.9189  0.6238
  229MPD1    C5 3531   2.036   4.220  13.861 -0.5539  0.4372 -0.8486
  229MPD1     H 3532   1.664   4.159  13.939 -0.0543 -1.8622  0.7291
  229MPD1    H1 3533   2.074   4.125  14.046 -0.6514  2.1622  1.6095
  229MPD1    H2 3534   1.976   4.310  13.676  0.2237  0.5590 -0.6296
  229MPD1    H3 3535   2.139   4.214  13.828  0.1692 -1.0613  1.6866
  229MPD1     N 3536   1.838   4.081  14.130  0.6171 -0.3735 -0.1191
  229MPD1    H5 3537   1.920   4.046  14.177 -0.0360 -0.9807  0.5585
  229MPD1    N1 3538   1.714   4.279  13.701 -0.2612  0.0378  0.3326
  229MPD1    H6 3539   1.753   4.343  13.632  1.1233 -0.0373  1.0515
  229MPD1    H7 3540   1.630   4.323  13.739  0.0134  0.0194  0.9673
  230MPD1     C 3541   1.627   4.043  15.115  0.1641  0.0857  0.4907
  230MPD1    C1 3542   1.737   3.965  15.087 -0.8604 -0.2313 -0.2656
  230MPD1    C2 3543   1.746   3.924  14.952 -0.3720 -0.6763  0.5156
  230MPD1    C3 3544   1.658   3.972  14.851 -0.0211 -0.0191 -0.8970
  230MPD1    C4 3545   1.552   4.056  14.889  0.1023 -0.4036  0.0166
  230MPD1    C5 3546   1.548   4.095  15.017 -0.3161 -0.2696  0.2793
  230MPD1     H 3547   1.825   3.853  14.929  1.3328  1.6380 -0.7257
  230MPD1    H1 3548   1.486   4.103  14.818 -0.6843  1.3084  1.8985
  230MPD1    H2 3549   1.595   4.074  15.214 -0.2429  0.9594  0.0908
  230MPD1    H3 3550   1.470   4.168  15.038  0.4098  0.6655 -0.2452
  230MPD1     N 3551   1.680   3.931  14.716 -0.1756  0.5059 -0.7985
  230MPD1    H5 3552   1.771   3.901  14.684 -0.7052 -2.3111  0.3519
  230MPD1    N1 3553   1.806   3.908  15.193  1.5905  0.9891  0.9140
  230MPD1    H6 3554   1.901   3.875  15.180  1.0196 -0.2917 -0.0243
  230MPD1    H7 3555   1.806   3.959  15.281  1.6334  3.2819 -0.3990
  231MPD1     C 3556   4.124   1.239  15.361  0.1863 -0.5532 -0.4543
  231MPD1    C1 3557   4.139   1.219  15.230  0.5024  0.5655  0.1048
  231MPD1    C2 3558   4.262   1.257  15.175 -0.5494  0.0011 -0.5487
  231MPD1    C3 3559   4.368   1.282  15.250 -0.6147  0.0796 -0.0114
  231MPD1    C4 3560   4.353   1.295  15.388 -0.2935 -0.3167 -0.2569
  231MPD1    C5 3561   4.230   1.279  15.439  0.0902  0.4085  0.3688
  231MPD1     H 3562   4.275   1.270  15.068 -0.7122 -3.6339 -1.0274
  231MPD1    H1 3563   4.440   1.317  15.449 -0.2455 -0.1824 -0.3747
  231MPD1    H2 3564   4.033   1.220  15.418  0.7120  1.4257  1.0775
  231MPD1    H3 3565   4.213   1.300  15.544 -0.5734  0.7029  0.1969
  231MPD1     N 3566   4.494   1.302  15.188 -0.1779  0.6719 -0.3036
  231MPD1    H5 3567   4.495   1.275  15.090  0.8993  0.5501 -0.2645
  231MPD1    N1 3568   4.019   1.195  15.158 -0.5988  0.0912  0.4688
  231MPD1    H6 3569   3.949   1.141  15.209  2.0078 -2.5057  1.3210
  231MPD1    H7 3570   4.036   1.143  15.073  1.3072  0.8378  0.4140
  232MPD1     C 3571   1.643   3.652  17.602 -0.0271 -0.4360 -0.4900
  232MPD1    C1 3572   1.565   3.763  17.585  0.8097 -0.1046 -0.3302
  232MPD1    C2 3573   1.432   3.761  17.604  0.0505 -0.2305  0.6013
  232MPD1    C3 3574   1.372   3.656  17.668  0.3067  0.5082 -0.1190
  232MPD1    C4 3575   1.451   3.544  17.712 -0.4946 -0.7036 -0.0514
  232MPD1    C5 3576   1.589   3.543  17.668 -0.2911  0.1309 -0.1240
  232MPD1     H 3577   1.372   3.844  17.566  2.1290 -0.2081 -2.6291
  232MPD1    H1 3578   1.418   3.450   0.008 -1.8864 -0.8138 -1.3947
  232MPD1    H2 3579   1.735   3.641  17.546  0.3248  1.5608 -0.3126
  232MPD1    H3 3580   1.653   3.456  17.677 -0.7438 -0.1108  0.7345
  232MPD1     N 3581   1.228   3.665  17.678 -0.0442  0.7086 -0.4206
  232MPD1    H5 3582   1.181   3.740  17.629  2.4826  1.3410 -1.8608
  232MPD1    N1 3583   1.607   3.874  17.513 -0.2482  0.7020 -0.9414
  232MPD1    H6 3584   1.701   3.898  17.542  0.6224 -2.7565 -0.8203
  232MPD1    H7 3585   1.553   3.959  17.526 -0.5678  0.2517  0.6017
  233MPD1     C 3586   1.980   2.570  17.106  0.5048  0.2617 -0.1963
  233MPD1    C1 3587   1.933   2.458  17.160  0.2766 -0.4395  0.3032
  233MPD1    C2 3588   2.030   2.367  17.206 -0.5231 -0.2958 -0.6842
  233MPD1    C3 3589   2.166   2.385  17.193 -0.4416  0.0600  0.0653
  233MPD1    C4 3590   2.207   2.501  17.132  0.1024 -0.6928 -0.3417
  233MPD1    C5 3591   2.111   2.591  17.088 -0.0516  0.4805  0.2068
  233MPD1     H 3592   1.978   2.284  17.252  0.6165 -0.9965 -0.6712
  233MPD1    H1 3593   2.311   2.523  17.108  0.1336 -1.0272 -0.5061
  233MPD1    H2 3594   1.905   2.643  17.080 -1.3332 -1.0918  1.2146
  233MPD1    H3 3595   2.140   2.685  17.042 -0.6950  0.0887 -0.9857
  233MPD1     N 3596   2.261   2.295  17.234 -0.3403  0.3524 -0.2382
  233MPD1    H5 3597   2.360   2.319  17.233  0.2748 -2.2370  0.7081
  233MPD1    N1 3598   1.803   2.457  17.204  0.1773  0.0750  0.0489
  233MPD1    H6 3599   1.739   2.519  17.154  0.6366  0.3171 -0.2409
  233MPD1    H7 3600   1.772   2.361  17.214 -1.9375  0.5737 -1.5567
  234MPD1     C 3601   3.631   0.428   9.325  0.1232 -1.2491  0.2671
  234MPD1    C1 3602   3.579   0.473   9.205 -0.0059  0.2713 -1.0570
  234MPD1    C2 3603   3.573   0.602   9.186  0.4044  0.1250  1.1682
  234MPD1    C3 3604   3.611   0.695   9.282  0.0720 -0.4466 -0.1677
  234MPD1    C4 3605   3.663   0.656   9.404 -0.0536 -0.0890  0.0649
  234MPD1    C5 3606   3.665   0.520   9.425 -0.2729  0.8385  0.4210
  234MPD1     H 3607   3.525   0.637   9.096  4.2519 -0.1227 -0.9708
  234MPD1    H1 3608   3.692   0.722   9.485 -1.7411  0.0614  0.5540
  234MPD1    H2 3609   3.636   0.324   9.354  2.3651 -1.0622  0.6087
  234MPD1    H3 3610   3.698   0.500   9.526 -1.3479  1.5929  0.9192
  234MPD1     N 3611   3.582   0.835   9.255 -0.2760 -0.2569 -0.7191
  234MPD1    H5 3612   3.533   0.853   9.168  0.3042 -1.1628 -1.2447
  234MPD1    N1 3613   3.529   0.385   9.107  0.6266 -0.0475 -0.0023
  234MPD1    H6 3614   3.558   0.404   9.011  3.2492  0.3912  0.8722
  234MPD1    H7 3615   3.549   0.287   9.124  0.6424 -0.4522 -2.3885
  235MPD1     C 3616   0.355   3.843   9.095  0.4109 -0.0427 -0.2265
  235MPD1    C1 3617   0.398   3.942   9.009 -0.3058  0.2867  0.3148
  235MPD1    C2 3618   0.494   4.030   9.057  0.3287 -0.2738 -0.7583
  235MPD1    C3 3619   0.543   4.019   9.184  0.8438 -0.5791  0.5926
  235MPD1    C4 3620   0.490   3.935   9.277 -0.0578 -0.6298  0.4856
  235MPD1    C5 3621   0.401   3.844   9.228  0.6560  0.3051 -0.5689
  235MPD1     H 3622   0.531   4.102   8.984 -0.7905  0.1196 -0.9322
  235MPD1    H1 3623   0.511   3.922   9.383 -0.8720 -1.4344  0.5486
  235MPD1    H2 3624   0.277   3.775   9.064 -0.6154  1.0042  0.0540
  235MPD1    H3 3625   0.379   3.759   9.293  0.6754  1.0465  0.4080
  235MPD1     N 3626   0.649   4.102   9.211  0.4133  0.4118  0.0442
  235MPD1    H5 3627   0.686   4.163   9.139  0.5134 -0.1663 -0.3953
  235MPD1    N1 3628   0.343   3.958   8.878 -0.4817  0.0237  0.4478
  235MPD1    H6 3629   0.248   3.922   8.874 -0.8318  0.9511  0.6004
  235MPD1    H7 3630   0.350   4.057   8.855 -1.3535 -0.8874 -3.7371
  236MPD1     C 3631   0.558   4.579   8.914 -0.0181  0.1381  0.4437
  236MPD1    C1 3632   0.463   4.512   8.839  0.3894 -0.0716 -0.4715
  236MPD1    C2 3633   0.387   4.414   8.904  0.4261  0.1299  0.6217
  236MPD1    C3 3634   0.394   4.404   9.042 -0.2795  0.1300  0.2560
  236MPD1    C4 3635   0.482   4.481   9.112  0.0520 -0.6924  0.6035
  236MPD1    C5 3636   0.568   4.564   9.045 -0.4215  0.3859  0.3645
  236MPD1     H 3637   0.319   4.359   8.839 -1.4177  2.5145  0.5069
  236MPD1    H1 3638   0.488   4.472   9.220 -0.2731 -0.6513  0.6246
  236MPD1    H2 3639   0.636   4.641   8.872 -1.0914 -0.9664 -3.1594
  236MPD1    H3 3640   0.650   4.609   9.101 -0.6250  1.2945 -0.0739
  236MPD1     N 3641   0.326   4.310   9.119  0.4583 -0.6741 -0.0142
  236MPD1    H5 3642   0.361   4.295   9.213  0.3154 -1.5554 -0.0981
  236MPD1    N1 3643   0.473   4.503   8.699 -0.0633 -0.4899  0.1133
  236MPD1    H6 3644   0.504   4.591   8.659  0.4455 -1.1659 -0.9960
  236MPD1    H7 3645   0.391   4.470   8.648 -1.2136  0.6117  1.2419
  237MPD1     C 3646   0.139   2.508  15.486  0.2016 -0.7105  0.3378
  237MPD1    C1 3647   0.063   2.458  15.587 -1.0552 -0.0590 -0.0496
  237MPD1    C2 3648   4.664   2.481  15.581 -0.1342  0.3099 -0.2023
  237MPD1    C3 3649   4.599   2.552  15.475  0.1928 -0.0260 -0.1485
  237MPD1    C4 3650   4.679   2.600  15.375 -0.1090 -0.2193  1.1128
  237MPD1    C5 3651   0.076   2.569  15.382 -1.0451 -0.6611 -0.5431
  237MPD1     H 3652   4.604   2.435  15.659 -1.4120 -0.9621 -1.9245
  237MPD1    H1 3653   4.641   2.673  15.304  1.0823 -2.2135 -1.5461
  237MPD1    H2 3654   0.247   2.498  15.488  0.0346 -2.2629  1.5698
  237MPD1    H3 3655   0.144   2.611  15.309 -0.9995  1.9147  0.9726
  237MPD1     N 3656   4.459   2.576  15.465 -0.2572  0.3769 -0.3867
  237MPD1    H5 3657   4.431   2.611  15.374  3.0060  2.4728 -0.5628
  237MPD1    N1 3658   0.128   2.408  15.700 -0.0643 -0.0851  0.4452
  237MPD1    H6 3659   0.204   2.349  15.667 -1.0735 -1.4664  0.6287
  237MPD1    H7 3660   0.061   2.355  15.755 -1.8626 -1.8394 -3.4506
  238MPD1     C 3661   2.184   0.635  14.710 -1.1558  0.0020 -0.6085
  238MPD1    C1 3662   2.070   0.605  14.784  0.6337 -1.3989  0.0612
  238MPD1    C2 3663   1.964   0.688  14.780 -0.7226 -0.0665 -0.7381
  238MPD1    C3 3664   1.957   0.803  14.700  0.1769 -0.9707  0.3678
  238MPD1    C4 3665   2.066   0.836  14.626  0.2629 -0.8433  0.2419
  238MPD1    C5 3666   2.174   0.746  14.624  0.5089 -0.7737 -0.2144
  238MPD1     H 3667   1.872   0.665  14.833 -1.6073 -0.3123 -2.3703
  238MPD1    H1 3668   2.068   0.916  14.552 -0.8388 -1.6800 -0.6839
  238MPD1    H2 3669   2.275   0.576  14.707  0.5391  2.6480 -1.2518
  238MPD1    H3 3670   2.263   0.774  14.569  0.5814 -1.1585 -0.2902
  238MPD1     N 3671   1.852   0.899  14.707 -0.4131  0.0941  0.1124
  238MPD1    H5 3672   1.871   0.985  14.657 -2.1228  0.5873  0.3105
  238MPD1    N1 3673   2.087   0.514  14.891  0.1565 -0.6351 -0.1804
  238MPD1    H6 3674   1.994   0.480  14.917  0.5595 -1.1168  0.6591
  238MPD1    H7 3675   2.143   0.434  14.860 -0.3062 -0.2417 -2.0384
  239MPD1     C 3676   1.686   2.353  14.746  0.1486 -0.1578 -0.1013
  239MPD1    C1 3677   1.757   2.441  14.659 -0.2064 -0.4295  0.1643
  239MPD1    C2 3678   1.692   2.497  14.554 -0.5390 -0.2632  0.8281
  239MPD1    C3 3679   1.551   2.466  14.527  0.3743  0.1764 -0.0303
  239MPD1    C4 3680   1.484   2.386  14.609  0.4297 -0.2212 -1.0047
  239MPD1    C5 3681   1.549   2.327  14.722  0.2261 -0.4582 -0.0031
  239MPD1     H 3682   1.739   2.573  14.493  0.4000 -3.0066 -1.8803
  239MPD1    H1 3683   1.380   2.357  14.609 -0.2801  2.3955  1.9230
  239MPD1    H2 3684   1.730   2.300  14.830 -0.3707  1.9730  1.5120
  239MPD1    H3 3685   1.503   2.244  14.775 -1.0470 -1.3612 -2.4972
  239MPD1     N 3686   1.470   2.520  14.420  0.2483  0.5437 -0.4071
  239MPD1    H5 3687   1.371   2.500  14.422  0.8822 -2.8514 -2.1205
  239MPD1    N1 3688   1.889   2.487  14.690 -0.3768 -0.4655  0.9971
  239MPD1    H6 3689   1.941   2.520  14.608 -0.6319 -1.9509  0.2253
  239MPD1    H7 3690   1.939   2.405  14.725 -0.3527 -0.6010  0.6530
  240MPD1     C 3691   1.349   2.232  13.741 -0.2594  0.4434 -0.1046
  240MPD1    C1 3692   1.240   2.256  13.823 -0.1914  0.7062  0.1673
  240MPD1    C2 3693   1.203   2.156  13.915  0.2148  0.0082  0.1796
  240MPD1    C3 3694   1.291   2.050  13.945  0.0555  0.1661  0.1198
  240MPD1    C4 3695   1.403   2.035  13.865 -0.1918 -0.1082 -0.0403
  240MPD1    C5 3696   1.421   2.114  13.756  0.3552  0.2732 -0.5198
  240MPD1     H 3697   1.108   2.160  13.966  0.4221  0.0281  0.5631
  240MPD1    H1 3698   1.469   1.949  13.875  0.5615  0.2838 -1.7907
  240MPD1    H2 3699   1.381   2.291  13.656  1.0584 -0.4204 -0.1941
  240MPD1    H3 3700   1.507   2.103  13.691  1.3310  0.7976  0.6832
  240MPD1     N 3701   1.253   1.959  14.049  0.0965  0.9982  0.2390
  240MPD1    H5 3702   1.163   1.977  14.091 -0.9518 -0.8894 -1.2008
  240MPD1    N1 3703   1.158   2.368  13.810 -0.5690  0.5132 -0.3477
  240MPD1    H6 3704   1.119   2.397  13.900  0.4338  3.3253 -0.8095
  240MPD1    H7 3705   1.198   2.450  13.764 -0.1740  0.6506  0.2383
  241MPD1     C 3706   1.794   1.595  14.831  0.5345 -0.1171  0.3643
  241MPD1    C1 3707   1.662   1.622  14.862  0.0843 -0.6285  0.1034
  241MPD1    C2 3708   1.577   1.643  14.755 -0.5565 -0.0301 -0.3480
  241MPD1    C3 3709   1.602   1.610  14.624 -0.0039 -1.1216 -0.0190
  241MPD1    C4 3710   1.731   1.573  14.598 -0.5208  0.6452 -0.3958
  241MPD1    C5 3711   1.829   1.575  14.695 -0.8592 -0.5244 -0.1592
  241MPD1     H 3712   1.482   1.686  14.786  0.6984  1.4074  1.4565
  241MPD1    H1 3713   1.757   1.543  14.497 -1.8942  0.6435 -0.7386
  241MPD1    H2 3714   1.878   1.592  14.899 -0.7547 -0.6839  1.9114
  241MPD1    H3 3715   1.927   1.540  14.666 -1.9878 -2.7094 -1.3087
  241MPD1     N 3716   1.511   1.624  14.520 -0.6048  0.2274  0.2135
  241MPD1    H5 3717   1.535   1.603  14.424  1.1489  0.6287  0.5525
  241MPD1    N1 3718   1.634   1.650  14.995 -0.6462 -0.1701  0.5300
  241MPD1    H6 3719   1.707   1.620  15.059  0.3397 -0.3522 -0.6799
  241MPD1    H7 3720   1.542   1.614  15.017 -0.6310 -1.5255 -1.6458
  242MPD1     C 3721   0.313   4.274  15.820 -0.5302 -0.3598 -0.2445
  242MPD1    C1 3722   0.397   4.381  15.854  0.4970  0.1359  0.2888
  242MPD1    C2 3723   0.517   4.402  15.790  0.1872  0.3635 -0.3016
  242MPD1    C3 3724   0.545   4.331  15.673  0.6201  0.7003  0.5210
  242MPD1    C4 3725   0.456   4.231  15.634  0.6224  0.1659 -0.1083
  242MPD1    C5 3726   0.343   4.203  15.710 -0.2575  0.0556 -0.0807
  242MPD1     H 3727   0.583   4.483  15.821  1.3882  0.3322 -2.7172
  242MPD1    H1 3728   0.483   4.166  15.552 -1.9514  0.1790 -0.9709
  242MPD1    H2 3729   0.226   4.253  15.881  1.4826 -2.7410  1.8474
  242MPD1    H3 3730   0.276   4.120  15.693 -0.0525 -0.2586  0.6445
  242MPD1     N 3731   0.651   4.361  15.589 -0.5648 -0.5388 -0.3026
  242MPD1    H5 3732   0.657   4.307  15.503  0.3606  0.1642 -0.6752
  242MPD1    N1 3733   0.372   4.454  15.969 -0.5081  0.5526  0.4743
  242MPD1    H6 3734   0.271   4.463  15.980 -0.5945  0.2864 -0.1007
  242MPD1    H7 3735   0.411   4.548  15.967 -0.0036  0.3326  0.0340
  243MPD1     C 3736   2.119   4.035  17.309 -0.2602  0.0095 -0.4145
  243MPD1    C1 3737   2.096   3.899  17.313  0.3236 -0.2136  0.4353
  243MPD1    C2 3738   2.205   3.813  17.299 -0.2774  0.1374 -0.1744
  243MPD1    C3 3739   2.325   3.866  17.256  0.7362  0.0111 -0.1065
  243MPD1    C4 3740   2.343   4.001  17.233  0.4017  0.0257 -0.2714
  243MPD1    C5 3741   2.235   4.076  17.266 -0.3976 -0.0823  0.6029
  243MPD1     H 3742   2.183   3.707  17.311  0.1131  0.0783  0.0325
  243MPD1    H1 3743   2.431   4.046  17.190  0.5163 -0.7513 -0.8471
  243MPD1    H2 3744   2.045   4.111  17.332  0.1613  0.7637 -1.5558
  243MPD1    H3 3745   2.235   4.184  17.253  0.5141 -0.3565 -1.6418
  243MPD1     N 3746   2.416   3.765  17.232  0.5601  0.3462  0.5875
  243MPD1    H5 3747   2.387   3.671  17.255 -1.2155  1.5964  3.5366
  243MPD1    N1 3748   1.967   3.870  17.364  0.6257  0.1170 -0.3763
  243MPD1    H6 3749   1.942   3.774  17.340  0.0424  0.3594 -0.7447
  243MPD1    H7 3750   1.898   3.935  17.326  0.3498 -0.7499 -1.3446
  244MPD1     C 3751   2.547   3.053  17.667  0.0890 -0.3805 -0.2272
  244MPD1    C1 3752   2.491   3.176  17.680 -0.0741 -0.0957 -0.4480
  244MPD1    C2 3753   2.530   3.275  17.585  0.1083  0.2040 -0.6349
  244MPD1    C3 3754   2.599   3.245  17.471  0.7962  0.3731 -0.3201
  244MPD1    C4 3755   2.648   3.118  17.455 -0.4334  0.1931 -0.2961
  244MPD1    C5 3756   2.629   3.029  17.559 -1.6071  0.0094 -0.3330
  244MPD1     H 3757   2.499   3.378  17.592 -2.1345 -0.5636  0.5733
  244MPD1    H1 3758   2.729   3.088  17.389 -1.8695 -1.9031 -1.1153
  244MPD1    H2 3759   2.536   2.972  17.738  1.0846  0.0717  0.4427
  244MPD1    H3 3760   2.668   2.928  17.569  0.2047  0.8564  1.2311
  244MPD1     N 3761   2.624   3.350  17.382 -0.3291  0.4573 -0.3563
  244MPD1    H5 3762   2.570   3.435  17.395 -1.3169  0.2844 -3.3172
  244MPD1    N1 3763   2.378   3.191   0.017  0.1425  0.2920  0.4227
  244MPD1    H6 3764   2.363   3.108   0.076 -2.0997 -0.4470 -1.1794
  244MPD1    H7 3765   2.385   3.276   0.072  1.8715  0.0753  0.5525
  245MPD1     C 3766   3.994   3.580  13.359  0.0316 -0.5868 -0.1670
  245MPD1    C1 3767   3.983   3.635  13.483 -0.8734  0.7097  0.2558
  245MPD1    C2 3768   4.092   3.703  13.535 -0.1153  0.2702 -1.0306
  245MPD1    C3 3769   4.208   3.726  13.467  0.2777 -0.1365  0.3731
  245MPD1    C4 3770   4.216   3.663  13.342  0.5351 -0.4749 -0.0477
  245MPD1    C5 3771   4.110   3.596  13.287  0.0877 -0.1254 -0.2693
  245MPD1     H 3772   4.078   3.756  13.628  0.9386  1.8299 -1.7662
  245MPD1    H1 3773   4.293   3.676  13.267  0.8705 -1.5195  0.1082
  245MPD1    H2 3774   3.904   3.544  13.311  0.3393  0.3430 -1.4339
  245MPD1    H3 3775   4.120   3.557  13.186 -0.5387  0.1726 -0.4464
  245MPD1     N 3776   4.308   3.808  13.519 -0.5439  0.8256 -0.0480
  245MPD1    H5 3777   4.283   3.861  13.602 -1.9089  0.0476  0.0340
  245MPD1    N1 3778   3.863   3.631  13.554 -0.7978 -1.2396  0.1341
  245MPD1    H6 3779   3.782   3.602  13.499  1.8599 -1.4025 -3.7007
  245MPD1    H7 3780   3.846   3.722  13.595  0.5718 -1.1057  0.4058
  246MPD1     C 3781   0.886   4.571   7.655  0.9320  0.4139  0.1804
  246MPD1    C1 3782   0.844   4.682   7.594  0.4318 -0.4638 -0.1224
  246MPD1    C2 3783   0.783   0.044   7.674  0.2044 -0.1587  0.2273
  246MPD1    C3 3784   0.793   0.036   7.812 -0.1469  0.7759  0.2982
  246MPD1    C4 3785   0.851   4.662   7.876 -0.2683 -0.6945 -0.2428
  246MPD1    C5 3786   0.887   4.560   7.796 -0.1018  0.2718 -0.3262
  246MPD1     H 3787   0.745   0.135   7.628  0.5695  1.3399  2.8212
  246MPD1    H1 3788   0.851   4.644   7.983 -1.1253  1.9986  0.2148
  246MPD1    H2 3789   0.911   4.482   7.599 -3.1463  0.6122 -1.9748
  246MPD1    H3 3790   0.916   4.461   7.830  1.2647  0.3600 -1.2257
  246MPD1     N 3791   0.740   0.143   7.887  0.2657 -0.2165  0.1071
  246MPD1    H5 3792   0.698   0.218   7.834  2.2456 -0.0185 -1.1803
  246MPD1    N1 3793   0.826   4.673   7.452 -0.9624 -0.1760 -0.3979
  246MPD1    H6 3794   0.816   0.023   7.399 -0.1008 -0.1384 -0.4961
  246MPD1    H7 3795   0.904   4.616   7.420 -0.0070  2.7075 -3.2020
  247MPD1     C 3796   2.933   3.841  15.732 -0.3656 -0.0394  0.3857
  247MPD1    C1 3797   2.990   3.818  15.609  0.6456  0.1969  0.1064
  247MPD1    C2 3798   3.120   3.765  15.602  0.2081  0.3310 -0.1135
  247MPD1    C3 3799   3.177   3.723  15.725  0.2295 -0.3726  0.4725
  247MPD1    C4 3800   3.108   3.743  15.847 -0.0781 -0.1804  0.5487
  247MPD1    C5 3801   2.986   3.805  15.849 -0.3115 -0.3123 -0.0175
  247MPD1     H 3802   3.168   3.757  15.505 -0.5029  2.2940 -0.6292
  247MPD1    H1 3803   3.153   3.716  15.941 -0.9898 -3.0158  0.1574
  247MPD1    H2 3804   2.842   3.901  15.736  0.8676  1.9025 -0.4648
  247MPD1    H3 3805   2.947   3.830  15.947 -0.9304  0.1667 -0.3886
  247MPD1     N 3806   3.307   3.663  15.739  0.1327  0.2968 -0.3953
  247MPD1    H5 3807   3.348   3.666  15.832  0.3274  1.6290 -0.5210
  247MPD1    N1 3808   2.936   3.875  15.498  0.2633 -0.1079 -0.7502
  247MPD1    H6 3809   2.973   3.968  15.477 -1.4959  0.3406 -1.8435
  247MPD1    H7 3810   2.976   3.826  15.419  0.2348 -1.1753 -0.0943
  248MPD1     C 3811   0.084   3.177   0.137 -0.1396  0.6330  0.7303
  248MPD1    C1 3812   0.005   3.292   0.100 -0.6698  0.0472 -0.1561
  248MPD1    C2 3813   4.665   3.354   0.194 -1.1548  0.0607  0.3238
  248MPD1    C3 3814   4.647   3.309   0.324 -0.1173 -0.0676 -0.4294
  248MPD1    C4 3815   4.709   3.187   0.349 -0.1387 -0.8198  0.2327
  248MPD1    C5 3816   0.059   3.126   0.261 -0.1915  0.6802 -0.0614
  248MPD1     H 3817   4.612   3.444   0.163 -1.4732 -0.3543 -0.3165
  248MPD1    H1 3818   4.692   3.132   0.440 -2.8689 -0.6491 -0.1460
  248MPD1    H2 3819   0.149   3.129   0.065 -0.0318  2.2671 -0.2572
  248MPD1    H3 3820   0.107   3.033   0.289  1.5482  1.7974  0.6486
  248MPD1     N 3821   4.559   3.377   0.404 -0.0448 -0.1836 -0.3726
  248MPD1    H5 3822   4.528   3.469   0.374 -2.7882 -0.5745  1.2774
  248MPD1    N1 3823   0.020   3.340  17.723  0.7827 -0.2575  0.5224
  248MPD1    H6 3824   4.682   3.401  17.690  0.2159 -1.3986 -0.3006
  248MPD1    H7 3825   0.058   3.265  17.666  1.7198  1.7168 -1.4790
  249MPD1     C 3826   0.957   1.674  10.904 -0.1761 -0.3646  0.5760
  249MPD1    C1 3827   0.974   1.806  10.936 -0.8488  0.1572  0.6714
  249MPD1    C2 3828   1.005   1.889  10.830 -0.0482 -0.2620 -0.1884
  249MPD1    C3 3829   0.998   1.856  10.696 -0.0782  0.3223 -0.5897
  249MPD1    C4 3830   0.982   1.723  10.661 -0.8722  0.1496 -0.5169
  249MPD1    C5 3831   0.957   1.642  10.769  0.1167 -0.3664 -0.9229
  249MPD1     H 3832   1.031   1.991  10.857 -0.8888 -0.5867  1.8195
  249MPD1    H1 3833   0.979   1.676  10.564  2.9290  1.2105 -1.1659
  249MPD1    H2 3834   0.929   1.598  10.977 -0.1462 -1.8302 -0.9403
  249MPD1    H3 3835   0.947   1.537  10.748  0.2872 -0.3251 -1.2020
  249MPD1     N 3836   1.028   1.958  10.589 -0.0167  0.0574  0.0917
  249MPD1    H5 3837   1.057   2.053  10.610  0.7538  0.0049 -0.7240
  249MPD1    N1 3838   0.990   1.851  11.067 -0.1362  0.9252 -0.2863
  249MPD1    H6 3839   0.949   1.944  11.075  0.4398  1.0916  0.6365
  249MPD1    H7 3840   0.933   1.789  11.124  1.3243 -0.1543 -0.0338
  250MPD2     C 3841   2.666   1.685  13.094 -0.0159  0.1053  0.1646
  250MPD2    C1 3842   2.628   1.786  13.007  0.2075  0.3294  0.2228
  250MPD2    C2 3843   2.579   1.751  12.886  0.0016  0.1231 -1.1067
  250MPD2    C3 3844   2.576   1.625  12.839 -1.0743 -0.0794  0.1206
  250MPD2    C4 3845   2.617   1.519  12.920  0.1685  0.4328  0.0016
  250MPD2    C5 3846   2.661   1.551  13.048 -0.1170  0.1343  0.0198
  250MPD2     H 3847   2.533   1.830  12.828 -0.7291 -0.8281 -1.8146
  250MPD2    H1 3848   2.616   1.415  12.889  1.5492  0.9785 -1.8504
  250MPD2    H2 3849   2.683   1.696  13.200 -1.3419 -1.5602  0.5554
  250MPD2    H3 3850   2.682   1.470  13.116 -2.0561 -0.1832  0.2379
  250MPD2     N 3851   2.553   1.588  12.703 -0.2256  0.2494 -0.3235
  250MPD2    H5 3852   2.570   1.489  12.684  1.9807  0.3593  1.0429
  250MPD2    N1 3853   2.635   1.922  13.051  0.3176 -0.2284 -0.2976
  250MPD2    H7 3854   2.684   1.944  13.137 -1.4608 -0.1294  0.6994
  251TMC3    C1 3855   2.658   2.146  13.014 -0.3391 -0.3641  0.2761
  251TMC3    C2 3856   2.601   2.260  12.988 -0.1722 -0.6196 -0.0092
  251TMC3    C3 3857   2.666   2.370  12.941 -0.1669 -0.1902  0.2722
  251TMC3    C4 3858   2.793   2.137  12.993  0.2931 -0.2754 -0.3716
  251TMC3    C5 3859   2.855   2.240  12.934  0.5302  0.3587 -0.1486
  251TMC3    C6 3860   2.789   2.355  12.903  0.6882 -0.4540  0.1552
  251TMC3     C 3861   2.580   2.027  12.986  0.2038 -0.0018 -0.2074
  251TMC3     O 3862   2.497   2.035  12.898 -0.6213 -0.1715  0.1046
  251TMC3     H 3863   2.493   2.272  12.991 -0.2191 -1.0402 -0.1323
  251TMC3    H1 3864   2.834   2.037  12.988  0.0554 -0.4264  0.6261
  251TMC3    H2 3865   2.843   2.434  12.852 -0.8496 -0.0643 -0.8815
  251TMC3    C7 3866   2.996   2.225  12.927  0.1969  0.0712  0.1816
  251TMC3    C8 3867   2.598   2.494  12.963 -0.1058  0.1725  0.8877
  251TMC3    O1 3868   3.041   2.118  12.971  0.5832 -0.2814  0.3388
  251TMC3    O2 3869   2.510   2.495  13.054  0.3248 -0.4283 -0.6879
  252TMC3    C1 3870   2.651   4.302   9.339  0.2086  0.2042 -0.9423
  252TMC3    C2 3871   2.787   4.313   9.341  0.0869  0.0292  0.0161
  252TMC3    C3 3872   2.847   4.237   9.436 -0.3611 -0.7157 -0.6171
  252TMC3    C4 3873   2.591   4.213   9.411 -0.1358 -0.2297 -0.0104
  252TMC3    C5 3874   2.657   4.125   9.493 -0.0810 -0.1553  0.0464
  252TMC3    C6 3875   2.788   4.136   9.509 -0.0878  0.4185 -0.8234
  252TMC3     C 3876   2.571   4.383   9.250 -0.4217 -0.6877  0.1144
  252TMC3     O 3877   2.458   4.396   9.285 -0.0457 -0.2495  0.3780
  252TMC3     H 3878   2.835   4.392   9.283 -0.2905 -0.5860 -1.1147
  252TMC3    H1 3879   2.483   4.205   9.402 -0.1637 -1.5380  1.4881
  252TMC3    H2 3880   2.849   4.076   9.575  0.5344  1.5563 -0.3504
  252TMC3    C7 3881   2.571   4.032   9.570 -0.4879 -0.1925 -0.2766
  252TMC3    C8 3882   2.978   4.295   9.482  0.0585 -0.2281  0.0791
  252TMC3    O1 3883   2.451   4.050   9.546  0.0707 -0.0196 -0.0886
  252TMC3    O2 3884   3.031   4.365   9.398  0.3876  0.1336 -0.1387
  253MPD2     C 3885   4.256   2.969  15.379  0.1217 -0.0783  0.4817
  253MPD2    C1 3886   4.123   2.917  15.351  0.2087 -0.0767 -0.3079
  253MPD2    C2 3887   4.041   2.878  15.458  0.1805 -0.6713  0.1867
  253MPD2    C3 3888   4.086   2.883  15.592  0.2937 -0.9599  0.2391
  253MPD2    C4 3889   4.206   2.932  15.614  0.2128 -0.0441  0.4162
  253MPD2    C5 3890   4.290   2.965  15.513  0.0670 -0.6953 -0.3630
  253MPD2     H 3891   3.938   2.846  15.443 -0.2682  1.1250 -0.5538
  253MPD2    H1 3892   4.231   2.964  15.714 -0.0304 -1.6676  1.0048
  253MPD2    H2 3893   4.326   3.008  15.305 -1.2982  0.1563 -0.7310
  253MPD2    H3 3894   4.382   3.012  15.546 -0.0418 -1.1960  0.6616
  253MPD2     N 3895   4.007   2.853  15.708  0.1458 -0.0421 -0.1576
  253MPD2    H5 3896   4.060   2.873  15.792 -0.2134 -0.8928  0.2683
  253MPD2    N1 3897   4.068   2.914  15.224 -0.0789 -0.1740  0.7243
  253MPD2    H7 3898   3.971   2.885  15.216 -1.1634  2.9373  2.1337
  254TMC3    C1 3899   3.823   2.782  15.847 -0.4292  0.6404 -0.7027
  254TMC3    C2 3900   3.690   2.797  15.874 -0.4555 -0.5112  0.2445
  254TMC3    C3 3901   3.648   2.772  15.998  0.0710  0.3731 -0.0909
  254TMC3    C4 3902   3.914   2.743  15.946 -0.0950  0.5375  0.5137
  254TMC3    C5 3903   3.867   2.731  16.070  0.1882 -0.2088  1.2816
  254TMC3    C6 3904   3.736   2.745  16.094 -0.6926 -0.2713 -0.2860
  254TMC3     C 3905   3.873   2.810  15.709 -0.7011  0.2258  0.2703
  254TMC3     O 3906   3.793   2.837  15.622  0.9275 -0.1213 -1.0869
  254TMC3     H 3907   3.630   2.826  15.789  0.0613  2.3323  0.8611
  254TMC3    H1 3908   4.018   2.721  15.923 -0.1899  0.9083 -0.2791
  254TMC3    H2 3909   3.694   2.719  16.190 -0.2928  1.5387  0.3792
  254TMC3    C7 3910   3.933   2.648  16.171 -0.3830  0.2395  0.7380
  254TMC3    C8 3911   3.524   2.842  16.036  0.0535  0.0347 -0.2690
  254TMC3    O1 3912   3.855   2.607  16.256  0.7152 -0.4614 -0.1061
  254TMC3    O2 3913   3.533   2.899  16.144  0.5216 -0.4879  0.2919
  255MPD2     C 3914   2.043   1.728  10.300 -0.3035  0.4300  1.2509
  255MPD2    C1 3915   2.075   1.851  10.256 -0.0243 -0.3159 -0.1615
  255MPD2    C2 3916   2.196   1.882  10.193 -0.4315 -0.1340 -0.0296
  255MPD2    C3 3917   2.272   1.784  10.154 -0.1494  0.1249  0.1615
  255MPD2    C4 3918   2.235   1.657  10.184  0.1109 -0.7480 -0.2379
  255MPD2    C5 3919   2.131   1.622  10.268 -0.3862 -0.0482  0.0680
  255MPD2     H 3920   2.224   1.983  10.164  0.5540 -0.3034  0.3245
  255MPD2    H1 3921   2.294   1.576  10.143  0.1456  0.1233 -1.9094
  255MPD2    H2 3922   1.956   1.707  10.362 -0.5109  1.3554  1.2699
  255MPD2    H3 3923   2.090   1.525  10.291 -3.2809  1.0371 -0.4881
  255MPD2     N 3924   2.371   1.813  10.057 -0.0483  0.2957 -0.6481
  255MPD2    H5 3925   2.377   1.909  10.026  0.1862  0.8530  1.1018
  255MPD2    N1 3926   1.973   1.950  10.284 -0.1325 -0.6979 -0.5148
  255MPD2    H7 3927   1.887   1.923  10.331  0.0865  1.4037  1.1072
  256TMC3    C1 3928   1.858   2.156  10.288  0.7017 -0.1235 -0.0281
  256TMC3    C2 3929   1.868   2.288  10.298  0.1790  0.0976  1.4751
  256TMC3    C3 3930   1.758   2.364  10.278  1.3047 -1.1207 -0.5630
  256TMC3    C4 3931   1.739   2.098  10.250 -0.3107 -0.0777 -0.2632
  256TMC3    C5 3932   1.633   2.181  10.225  0.2785 -0.4272 -0.1455
  256TMC3    C6 3933   1.636   2.313  10.242 -0.8851 -0.0982  0.2713
  256TMC3     C 3934   1.981   2.084  10.255  0.4626 -0.0416 -0.0020
  256TMC3     O 3935   2.081   2.150  10.230 -0.1156  0.1563 -0.3115
  256TMC3     H 3936   1.966   2.331  10.313  0.4867 -0.7325  1.8280
  256TMC3    H1 3937   1.736   1.993  10.220  0.7848  0.0710 -0.8862
  256TMC3    H2 3938   1.563   2.384  10.205 -0.2852 -0.6426 -2.0028
  256TMC3    C7 3939   1.549   2.130  10.120 -0.1713 -0.6521  0.1541
  256TMC3    C8 3940   1.777   2.500  10.236 -0.0040  0.0721 -0.6255
  256TMC3    O1 3941   1.582   2.030  10.062 -0.1111 -0.1587 -0.0645
  256TMC3    O2 3942   1.726   2.593  10.294 -0.1951  0.2299 -0.5361
  257MPD2     C 3943   1.304   2.624  12.960  0.1983 -0.2573  0.3772
  257MPD2    C1 3944   1.354   2.602  12.835  0.4022  0.2136  0.3838
  257MPD2    C2 3945   1.433   2.494  12.822 -0.5044 -0.5774 -0.2642
  257MPD2    C3 3946   1.468   2.412  12.925  0.1397 -0.1894 -0.8068
  257MPD2    C4 3947   1.424   2.436  13.052 -0.1878 -0.2159 -0.3312
  257MPD2    C5 3948   1.338   2.547  13.067  0.2441 -0.1124 -0.1910
  257MPD2     H 3949   1.474   2.462  12.728 -2.7647 -2.7595 -0.5138
  257MPD2    H1 3950   1.451   2.372  13.136 -1.0285 -2.1302 -1.5158
  257MPD2    H2 3951   1.237   2.706  12.983  1.9710  0.6429  2.3491
  257MPD2    H3 3952   1.297   2.570  13.164  1.9995  1.7993  0.0970
  257MPD2     N 3953   1.543   2.299  12.886 -0.1937  1.1012  0.2030
  257MPD2    H5 3954   1.568   2.292  12.788 -0.2142 -0.0395  0.2819
  257MPD2    N1 3955   1.334   2.687  12.729 -0.3087 -0.0870  0.1313
  257MPD2    H7 3956   1.388   2.674  12.644  0.5021  2.2187  0.2880
  258TMC3    C1 3957   1.649   2.092  12.877 -0.2676 -0.4908 -0.2962
  258TMC3    C2 3958   1.615   2.086  12.743  0.3170 -0.5232  0.3167
  258TMC3    C3 3959   1.659   1.982  12.668 -0.1520  0.4386  0.8295
  258TMC3    C4 3960   1.731   1.997  12.931  0.8858 -0.1102  1.2811
  258TMC3    C5 3961   1.770   1.896  12.852 -0.5482  0.1611 -0.3098
  258TMC3    C6 3962   1.748   1.891  12.718  0.1447  0.2572 -0.2760
  258TMC3     C 3963   1.584   2.193  12.961 -0.5188  0.0322 -1.0812
  258TMC3     O 3964   1.579   2.179  13.084  0.3044  0.1213 -0.5408
  258TMC3     H 3965   1.545   2.153  12.694  1.3478  0.6309  0.4106
  258TMC3    H1 3966   1.757   1.996  13.036  3.2482  1.2464  0.7088
  258TMC3    H2 3967   1.760   1.796  12.667 -0.6618 -0.5390  1.0256
  258TMC3    C7 3968   1.893   1.812  12.900 -0.8839  0.2997  0.2909
  258TMC3    C8 3969   1.595   1.958  12.540  0.3075 -0.8246  0.2554
  258TMC3    O1 3970   1.942   1.753  12.806  0.2473  0.1609 -0.2884
  258TMC3    O2 3971   1.485   2.013  12.535  0.2323  0.3637  0.5777
  259MPD2     C 3972   4.709   4.679   0.741 -0.5670 -0.8799  0.2713
  259MPD2    C1 3973   4.712   4.548   0.708  0.5360 -0.3199 -0.0728
  259MPD2    C2 3974   4.729   4.502   0.577  0.5592 -0.2795  0.4453
  259MPD2    C3 3975   0.030   4.597   0.474  0.5201 -0.0359 -0.0345
  259MPD2    C4 3976   0.022   4.727   0.508  0.1093  0.1013 -0.5866
  259MPD2    C5 3977   4.733   0.029   0.636 -0.1293  0.1641  0.2600
  259MPD2     H 3978   4.727   4.395   0.558 -1.4024 -0.3562  1.0209
  259MPD2    H1 3979   0.022   0.074   0.439 -0.6302  0.8226  0.3005
  259MPD2    H2 3980   4.680   4.722   0.836  0.5947  0.0941  0.1854
  259MPD2    H3 3981   4.718   0.134   0.657  0.5359  0.1112  1.0190
  259MPD2     N 3982   0.068   4.563   0.342  0.4566  0.0629 -0.0005
  259MPD2    H5 3983   0.100   4.631   0.274  0.6174  2.1076  2.1373
  259MPD2    N1 3984   4.688   4.460   0.811  0.1583  0.3231 -0.2851
  259MPD2    H7 3985   4.698   4.501   0.904 -0.8312  0.4151 -0.2186
  260TMC3    C1 3986   0.114   4.423   0.142  0.4310 -0.3361 -0.4126
  260TMC3    C2 3987   0.244   4.453   0.095 -0.2795 -0.9103  0.3896
  260TMC3    C3 3988   0.291   4.397  17.725 -0.9907  0.9358  0.5240
  260TMC3    C4 3989   0.048   4.324   0.074  0.2574  0.0071  0.0851
  260TMC3    C5 3990   0.098   4.279  17.704  0.0245 -1.1699 -0.4005
  260TMC3    C6 3991   0.216   4.307  17.656  0.1939 -0.5606 -0.1165
  260TMC3     C 3992   0.071   4.437   0.282  0.0819  0.0655 -0.7954
  260TMC3     O 3993   0.001   4.343   0.322 -0.1078 -0.4780  0.4477
  260TMC3     H 3994   0.312   4.522   0.143 -0.2986 -1.0364  0.6029
  260TMC3    H1 3995   4.686   4.305   0.113  0.9178  1.1967  2.3421
  260TMC3    H2 3996   0.261   4.267  17.566 -0.0129  1.5368 -1.1459
  260TMC3    C7 3997   0.067   4.138  17.683 -0.9322  0.8977  0.7948
  260TMC3    C8 3998   0.438   4.386  17.724 -0.1975  0.2090 -0.3244
  260TMC3    O1 3999   0.113   4.093  17.577 -0.1127 -0.3316 -0.2533
  260TMC3    O2 4000   0.516   4.462   0.031 -0.0824  0.2235  0.0136
  261MPD2     C 4001   2.172   1.827  11.980  1.0084 -0.0037  0.0242
  261MPD2    C1 4002   2.274   1.868  12.068  0.2787 -0.6515  0.5652
  261MPD2    C2 4003   2.321   1.999  12.064  0.3076  0.2964 -0.4557
  261MPD2    C3 4004   2.258   2.093  11.980  0.7159  0.4540  0.3176
  261MPD2    C4 4005   2.169   2.051  11.885 -0.3581  0.9585 -1.0241
  261MPD2    C5 4006   2.126   1.919  11.894  0.1534 -0.4804 -0.3473
  261MPD2     H 4007   2.399   2.026  12.135 -0.4034  1.2656 -0.0540
  261MPD2    H1 4008   2.116   2.116  11.817 -1.5097 -0.6647 -1.6898
  261MPD2    H2 4009   2.137   1.727  11.958  0.5531 -0.1869  1.5612
  261MPD2    H3 4010   2.047   1.901  11.822  0.0066  0.7806 -0.4991
  261MPD2     N 4011   2.305   2.224  11.983 -0.1112  0.3005 -0.1857
  261MPD2    H5 4012   2.394   2.237  12.031  0.2436  1.7689 -1.2488
  261MPD2    N1 4013   2.332   1.781  12.167 -0.0793  0.2890  0.6687
  261MPD2    H7 4014   2.395   1.830  12.229 -0.9364  1.8721  0.2823
  262TMC3    C1 4015   2.311   2.457  11.981  0.4453 -0.6438  0.3925
  262TMC3    C2 4016   2.244   2.577  12.008 -0.2554 -1.0510  0.5784
  262TMC3    C3 4017   2.327   2.684  12.040 -0.7254 -1.4444  0.5804
  262TMC3    C4 4018   2.446   2.455  11.949  0.2171 -0.0656  0.6231
  262TMC3    C5 4019   2.524   2.564  11.980 -0.3924  0.3574  0.0425
  262TMC3    C6 4020   2.465   2.681  12.028  0.7894 -0.5563 -0.8962
  262TMC3     C 4021   2.231   2.339  11.953 -0.3074  0.5045  0.1859
  262TMC3     O 4022   2.111   2.344  11.925  0.4007 -0.1211  0.0342
  262TMC3     H 4023   2.140   2.571  12.037 -0.0858 -2.2586  0.9498
  262TMC3    H1 4024   2.484   2.364  11.904  0.3313 -0.1868  0.9621
  262TMC3    H2 4025   2.533   2.760  12.059 -0.3339  0.3621 -0.7871
  262TMC3    C7 4026   2.639   2.582  11.892 -0.5236  0.3343 -0.4765
  262TMC3    C8 4027   2.291   2.823  12.007  1.0475  0.2571 -0.0182
  262TMC3    O1 4028   2.685   2.480  11.832  0.7282  0.0960 -0.9493
  262TMC3    O2 4029   2.386   2.893  11.976  0.5251  0.0221  0.6137
  263MPD2     C 4030   3.233   1.835  11.440  0.1604  0.6415 -0.5475
  263MPD2    C1 4031   3.363   1.861  11.395 -0.0391  0.1701  0.5210
  263MPD2    C2 4032   3.385   1.959  11.303 -0.3368 -0.2634  0.0645
  263MPD2    C3 4033   3.275   2.032  11.246 -0.1964 -0.5008 -0.2056
  263MPD2    C4 4034   3.151   2.000  11.289  0.1301  0.4178  0.3962
  263MPD2    C5 4035   3.132   1.915  11.397  0.2816  0.0286  0.1167
  263MPD2     H 4036   3.483   1.973  11.260  0.1933  1.4545  1.8176
  263MPD2    H1 4037   3.057   2.047  11.259 -0.5293 -1.0730  0.1422
  263MPD2    H2 4038   3.209   1.766  11.520  1.0453 -2.1911 -2.7444
  263MPD2    H3 4039   3.032   1.906  11.438  0.5098  1.5962  1.0068
  263MPD2     N 4040   3.298   2.122  11.143  0.1640  0.4145  0.4576
  263MPD2    H5 4041   3.394   2.132  11.111 -0.4995 -1.0531 -2.0109
  263MPD2    N1 4042   3.467   1.771  11.439  0.0572  0.0474 -0.2265
  263MPD2    H7 4043   3.440   1.711  11.517  0.2817  2.3148  1.5989
  264TMC3    C1 4044   3.256   2.316  11.000  0.1020  0.0081 -0.4370
  264TMC3    C2 4045   3.220   2.444  11.031 -1.2362 -0.2215 -0.0917
  264TMC3    C3 4046   3.274   2.548  10.956 -0.8721 -0.3611  0.1394
  264TMC3    C4 4047   3.332   2.284  10.882 -0.2263 -0.3328  0.0601
  264TMC3    C5 4048   3.372   2.388  10.807 -0.8760  0.2108 -0.1801
  264TMC3    C6 4049   3.357   2.518  10.845 -0.2326 -0.7372  0.6607
  264TMC3     C 4050   3.204   2.214  11.088 -0.3074  0.8908 -0.5084
  264TMC3     O 4051   3.100   2.259  11.136 -0.1596  0.3973  0.5528
  264TMC3     H 4052   3.165   2.463  11.123 -0.7024 -0.6794  0.3243
  264TMC3    H1 4053   3.371   2.184  10.866  0.6680 -0.1452  1.0829
  264TMC3    H2 4054   3.416   2.595  10.796 -0.9148 -1.2208 -0.9381
  264TMC3    C7 4055   3.463   2.356  10.695  0.4225 -0.4992  0.9079
  264TMC3    C8 4056   3.286   2.681  11.016 -0.3089  0.0924 -0.1615
  264TMC3    O1 4057   3.523   2.254  10.688  0.5948 -0.8422  0.3944
  264TMC3    O2 4058   3.352   2.768  10.961 -0.5942  0.1338  0.0736
  265MPD2     C 4059   0.492   2.320  15.672  0.1910 -0.1170 -0.5917
  265MPD2    C1 4060   0.490   2.415  15.576 -0.5143  0.7779  0.5627
  265MPD2    C2 4061   0.517   2.380  15.450 -0.9843 -0.5541  0.1773
  265MPD2    C3 4062   0.576   2.258  15.416  1.0592  0.3549 -0.3914
  265MPD2    C4 4063   0.582   2.162  15.522  0.8354  0.0128  1.3763
  265MPD2    C5 4064   0.530   2.195  15.643  0.0882  0.2799  0.2529
  265MPD2     H 4065   0.511   2.455  15.372 -2.1455  0.7211  1.4934
  265MPD2    H1 4066   0.609   2.060  15.499  0.3554  0.0666  0.5700
  265MPD2    H2 4067   0.454   2.340  15.772 -2.3711  1.1712 -1.7999
  265MPD2    H3 4068   0.529   2.120  15.722 -0.6029  0.2170  0.1902
  265MPD2     N 4069   0.625   2.220  15.285  0.1251 -0.1176 -0.0169
  265MPD2    H5 4070   0.673   2.130  15.290 -2.3728 -1.5116 -1.3888
  265MPD2    N1 4071   0.456   2.553  15.608 -0.0675  0.3886  0.1229
  265MPD2    H7 4072   0.444   2.618  15.531 -0.7290 -0.4707 -0.5042
  266TMC3    C1 4073   0.459   2.756  15.728 -0.1857  0.4522 -0.4135
  266TMC3    C2 4074   0.540   2.826  15.815  0.5144 -0.2848  0.0613
  266TMC3    C3 4075   0.508   2.956  15.844 -0.1470 -0.3240  0.4014
  266TMC3    C4 4076   0.350   2.816  15.663  0.0211  1.0179  0.0623
  266TMC3    C5 4077   0.324   2.947  15.699 -0.2555 -1.1321  0.4105
  266TMC3    C6 4078   0.398   3.023  15.791 -0.8970 -0.2646  0.1988
  266TMC3     C 4079   0.471   2.613  15.734 -0.4219 -0.2016  0.3735
  266TMC3     O 4080   0.514   2.569  15.837 -0.1110  0.5515  0.9135
  266TMC3     H 4081   0.617   2.767  15.864 -0.0881  0.2426  1.6146
  266TMC3    H1 4082   0.269   2.768  15.609  2.5209 -2.8414 -0.2472
  266TMC3    H2 4083   0.372   3.127  15.808  0.3511 -0.1002  1.1285
  266TMC3    C7 4084   0.220   3.026  15.638 -0.5469 -0.1010 -0.4809
  266TMC3    C8 4085   0.613   3.032  15.909  0.4466 -0.0731  0.1249
  266TMC3    O1 4086   0.171   3.122  15.698 -0.8332 -0.1383 -0.2985
  266TMC3    O2 4087   0.717   2.975  15.941 -0.5429  0.1747  0.5739
  267MPD2     C 4088   2.346   4.573  17.327 -0.4126  0.2936 -0.0458
  267MPD2    C1 4089   2.469   4.518  17.303 -0.2730 -0.2482 -0.2490
  267MPD2    C2 4090   2.476   4.427  17.197  0.1500 -1.0391  0.5427
  267MPD2    C3 4091   2.364   4.379  17.129  0.2961  0.3298  0.0932
  267MPD2    C4 4092   2.245   4.438  17.161  0.0984  0.2346 -0.6187
  267MPD2    C5 4093   2.236   4.537  17.249 -0.1891  0.3403 -0.6972
  267MPD2     H 4094   2.571   4.384  17.166  2.1351  3.0455  1.0913
  267MPD2    H1 4095   2.151   4.412  17.113  0.8684 -2.5782 -0.6420
  267MPD2    H2 4096   2.324   4.644  17.405  0.0909  1.2489 -0.7744
  267MPD2    H3 4097   2.139   4.583  17.264 -0.8533 -0.6998 -1.8246
  267MPD2     N 4098   2.369   4.282  17.023  0.0225  0.5115 -0.2946
  267MPD2    H5 4099   2.281   4.261  16.975 -0.3586  1.4674 -0.0130
  267MPD2    N1 4100   2.585   4.551  17.377  0.3732  0.0836 -0.5946
  267MPD2    H7 4101   2.675   4.523  17.341  1.0566 -0.1213  1.2769
  268TMC3    C1 4102   2.722   4.645  17.539 -0.6242 -0.2251  0.5912
  268TMC3    C2 4103   2.785   4.731  17.461  0.7083  0.0453  0.1760
  268TMC3    C3 4104   2.896   0.046  17.517 -0.2266 -0.4768 -1.1587
  268TMC3    C4 4105   2.769   4.593  17.654 -0.6484 -0.0007  0.2171
  268TMC3    C5 4106   2.887   4.647  17.707 -0.1120 -0.4649  0.1159
  268TMC3    C6 4107   2.944   0.010  17.640  0.3182 -0.0269 -0.3825
  268TMC3     C 4108   2.584   4.610  17.503 -0.2331 -0.0716  0.1432
  268TMC3     O 4109   2.500   4.614  17.591  0.4287 -0.2951 -0.4743
  268TMC3     H 4110   2.741   0.041  17.373 -0.0967  0.9573  1.0658
  268TMC3    H1 4111   2.719   4.518  17.713 -1.4511 -0.6424 -1.2595
  268TMC3    H2 4112   3.041   0.049  17.669  0.7585 -0.0823 -1.7831
  268TMC3    C7 4113   2.935   4.597   0.083  0.3391 -0.6240 -0.3648
  268TMC3    C8 4114   2.968   0.155  17.448 -0.5154 -0.2282 -0.5769
  268TMC3    O1 4115   2.887   4.491   0.124  0.0314  0.0910 -0.1012
  268TMC3    O2 4116   3.056   0.216  17.506 -0.6617  0.1651 -0.1832
  269MPD2     C 4117   3.152   2.679  15.388 -0.0278  1.0788  0.4432
  269MPD2    C1 4118   3.022   2.715  15.376 -0.4597 -0.3771 -0.2449
  269MPD2    C2 4119   2.991   2.849  15.396  1.3047  0.1413 -0.6407
  269MPD2    C3 4120   3.093   2.943  15.428 -0.1791 -0.0371  0.0235
  269MPD2    C4 4121   3.225   2.902  15.437 -0.4504  0.1939  0.1111
  269MPD2    C5 4122   3.257   2.768  15.421 -0.4437 -0.3059 -0.1135
  269MPD2     H 4123   2.890   2.881  15.377  2.3047  3.4197 -0.4929
  269MPD2    H1 4124   3.305   2.969  15.464  1.2572 -1.5078 -0.7077
  269MPD2    H2 4125   3.171   2.575  15.365 -0.6174  1.3181 -1.1107
  269MPD2    H3 4126   3.361   2.742  15.435  0.3795  2.5741 -0.8318
  269MPD2     N 4127   3.043   3.074  15.447 -0.6721 -0.0077 -0.2933
  269MPD2    H5 4128   2.943   3.090  15.438 -0.8009 -0.9513 -0.5877
  269MPD2    N1 4129   2.921   2.620  15.330  0.5820 -0.1016 -0.7216
  269MPD2    H7 4130   2.956   2.526  15.321 -2.1350 -1.1531 -0.1924
  270TMC3    C1 4131   2.708   2.515  15.319 -0.2130 -0.4556 -0.5973
  270TMC3    C2 4132   2.573   2.521  15.280  0.0942  0.2121 -0.6381
  270TMC3    C3 4133   2.507   2.401  15.277 -0.3391  0.4844  0.1131
  270TMC3    C4 4134   2.765   2.399  15.360 -0.0276 -1.0896  0.6455
  270TMC3    C5 4135   2.701   2.279  15.355  0.6987  0.7920 -0.5098
  270TMC3    C6 4136   2.568   2.282  15.312 -0.4862  0.0063 -0.8192
  270TMC3     C 4137   2.781   2.640  15.321  0.5292  1.0651 -0.0231
  270TMC3     O 4138   2.715   2.737  15.342 -0.2408  0.7343  0.1769
  270TMC3     H 4139   2.523   2.612  15.248 -1.8459 -1.2660 -1.8248
  270TMC3    H1 4140   2.854   2.413  15.422  0.8766  0.1908 -0.9548
  270TMC3    H2 4141   2.508   2.191  15.314 -1.6995  0.8093 -0.8365
  270TMC3    C7 4142   2.768   2.154  15.393 -0.7127 -0.6168 -0.0188
  270TMC3    C8 4143   2.364   2.412  15.260  0.8197 -0.0881 -0.1693
  270TMC3    O1 4144   2.881   2.167  15.441 -0.3902 -0.0366 -0.4915
  270TMC3    O2 4145   2.314   2.488  15.338 -0.1662  0.0413  0.2609
  271MPD2     C 4146   2.256   2.182  13.805 -0.5816 -0.4249  0.4203
  271MPD2    C1 4147   2.250   2.284  13.898  0.5333  0.3903  0.1015
  271MPD2    C2 4148   2.177   2.398  13.858  0.6102 -0.5312  0.3884
  271MPD2    C3 4149   2.125   2.412  13.730 -0.1175 -0.4618 -0.8843
  271MPD2    C4 4150   2.126   2.304  13.639  0.1255 -0.0800  0.5259
  271MPD2    C5 4151   2.192   2.194  13.685  0.0406 -0.0065 -0.0214
  271MPD2     H 4152   2.173   2.478  13.930 -0.6305  0.1516 -0.4358
  271MPD2    H1 4153   2.087   2.304  13.538 -2.0252  2.3897  1.3520
  271MPD2    H2 4154   2.297   2.083  13.825  1.4083  0.1941 -0.6224
  271MPD2    H3 4155   2.202   2.115  13.613  0.8567  1.9183 -2.0062
  271MPD2     N 4156   2.068   2.527  13.674 -0.2587  0.2005  0.0329
  271MPD2    H5 4157   2.017   2.512  13.588  0.5285 -1.6547 -0.1123
  271MPD2    N1 4158   2.309   2.274  14.025  0.5683  0.0679  0.4598
  271MPD2    H7 4159   2.298   2.345  14.097 -1.3767 -0.0396  0.2817
  272TMC3    C1 4160   2.476   2.215  14.177  0.2510 -0.0365 -0.1278
  272TMC3    C2 4161   2.603   2.176  14.170  0.3304  0.8932 -0.3092
  272TMC3    C3 4162   2.668   2.191  14.287  0.0603 -0.2480 -1.5972
  272TMC3    C4 4163   2.409   2.258  14.286 -0.1025 -0.4482 -0.0857
  272TMC3    C5 4164   2.484   2.287  14.389  0.3659 -0.0840 -0.0766
  272TMC3    C6 4165   2.612   2.237  14.406 -0.0860  0.7221  0.1015
  272TMC3     C 4166   2.404   2.188  14.058  0.2374  0.1373  0.4351
  272TMC3     O 4167   2.464   2.114  13.980 -0.1542  0.1787 -0.8775
  272TMC3     H 4168   2.647   2.148  14.074 -1.2481 -1.0968 -0.4437
  272TMC3    H1 4169   2.308   2.292  14.270  0.5074  0.9136 -1.0038
  272TMC3    H2 4170   2.670   2.256  14.495  0.1531  1.9317 -0.3150
  272TMC3    C7 4171   2.427   2.336  14.508 -0.5090 -0.8482  0.3778
  272TMC3    C8 4172   2.810   2.150  14.275  0.1815 -0.1281 -0.4985
  272TMC3    O1 4173   2.309   2.317  14.531 -0.8380 -0.3221  0.0742
  272TMC3    O2 4174   2.856   2.145  14.161 -0.1209  0.6028 -0.1210
  273MPD2     C 4175   3.722   1.247  11.769 -0.1379  0.0408 -0.1619
  273MPD2    C1 4176   3.849   1.236  11.728 -0.8073  0.1147 -0.6553
  273MPD2    C2 4177   3.866   1.199  11.592 -0.5133  0.2627 -0.6465
  273MPD2    C3 4178   3.760   1.163  11.504  0.4704  0.2791 -0.5049
  273MPD2    C4 4179   3.633   1.188  11.544  0.3094 -0.4899  0.4727
  273MPD2    C5 4180   3.619   1.231  11.673 -0.0744 -0.0720 -0.4523
  273MPD2     H 4181   3.964   1.179  11.551 -0.6339 -3.0465  0.6735
  273MPD2    H1 4182   3.549   1.171  11.478  1.2605  1.3435 -1.2119
  273MPD2    H2 4183   3.693   1.279  11.868  1.2530  0.7233  0.0152
  273MPD2    H3 4184   3.520   1.255  11.711 -0.3919 -1.8113 -0.1908
  273MPD2     N 4185   3.787   1.116  11.370 -0.1981 -0.3983  0.1219
  273MPD2    H5 4186   3.711   1.114  11.303  0.0278  2.2979 -0.2250
  273MPD2    N1 4187   3.959   1.257  11.811  0.7469 -0.1581  0.0119
  273MPD2    H7 4188   3.942   1.252  11.911 -1.1760 -0.9564 -0.3430
  274TMC3    C1 4189   3.929   1.083  11.169 -0.1153  0.1290 -0.0622
  274TMC3    C2 4190   3.828   1.118  11.081 -0.0847 -0.0386 -0.3293
  274TMC3    C3 4191   3.867   1.142  10.951 -0.4619 -0.1748 -0.4595
  274TMC3    C4 4192   4.061   1.069  11.127 -0.2155  0.3183  0.5282
  274TMC3    C5 4193   4.093   1.120  11.004 -0.2080 -0.3621  0.1919
  274TMC3    C6 4194   3.995   1.151  10.914 -0.6011  0.1487 -0.4847
  274TMC3     C 4195   3.918   1.097  11.316 -0.6514 -0.6549 -0.2480
  274TMC3     O 4196   4.020   1.062  11.378 -0.1023  0.1426 -0.6705
  274TMC3     H 4197   3.730   1.145  11.120 -0.8901 -0.0707 -2.3203
  274TMC3    H1 4198   4.142   1.027  11.185 -0.4643 -0.0213  0.6346
  274TMC3    H2 4199   4.018   1.172  10.810 -1.9943 -1.0552 -1.0389
  274TMC3    C7 4200   4.229   1.132  10.952  0.1682  1.0199 -0.0952
  274TMC3    C8 4201   3.764   1.167  10.846  0.2521  0.1309  0.2254
  274TMC3    O1 4202   4.249   1.104  10.832  0.1573 -0.5377  0.1039
  274TMC3    O2 4203   3.649   1.128  10.867 -0.3411  0.6957 -0.2671
  275MPD2     C 4204   4.121   3.289  14.380  0.0019  0.2864  0.4298
  275MPD2    C1 4205   4.033   3.370  14.311 -0.7905 -0.7644 -0.4565
  275MPD2    C2 4206   3.916   3.322  14.268  0.0147 -0.9720 -0.4314
  275MPD2    C3 4207   3.875   3.191  14.288  0.0488 -0.0741  0.1939
  275MPD2    C4 4208   3.971   3.109  14.330 -0.1557 -0.2010 -0.2643
  275MPD2    C5 4209   4.088   3.158  14.391  0.1072  0.5562 -0.3754
  275MPD2     H 4210   3.843   3.385  14.218  1.1452  0.9370  0.3582
  275MPD2    H1 4211   3.951   3.003  14.345 -0.0147  0.0217  1.4873
  275MPD2    H2 4212   4.216   3.319  14.421  1.4745 -1.4087 -1.7601
  275MPD2    H3 4213   4.161   3.097  14.442 -1.8697 -0.3478  1.3843
  275MPD2     N 4214   3.749   3.140  14.255  0.2906  0.8321  0.2061
  275MPD2    H5 4215   3.726   3.049  14.293  2.2882  0.7999  1.3257
  275MPD2    N1 4216   4.058   3.503  14.298 -0.3328  0.2088  0.2560
  275MPD2    H7 4217   3.993   3.545  14.233 -1.5456  0.7120  1.7911
  276TMC3    C1 4218   4.102   3.710  14.400  0.2966 -0.0320 -0.1066
  276TMC3    C2 4219   3.964   3.725  14.391  0.8695 -0.0370 -0.2279
  276TMC3    C3 4220   3.899   3.814  14.470 -0.0697  0.4686 -0.2392
  276TMC3    C4 4221   4.173   3.791  14.482  0.2441 -0.7527  0.4691
  276TMC3    C5 4222   4.106   3.883  14.556 -0.2183 -0.3180  0.5029
  276TMC3    C6 4223   3.969   3.892  14.555  0.1894 -0.4316 -0.5942
  276TMC3     C 4224   4.156   3.579  14.365 -0.0539  0.0872  0.1019
  276TMC3     O 4225   4.257   3.543  14.428  0.6280 -0.3497 -0.2444
  276TMC3     H 4226   3.897   3.680  14.318 -1.6732  0.8230  1.6122
  276TMC3    H1 4227   4.279   3.771  14.494  0.3499 -1.4130 -1.5855
  276TMC3    H2 4228   3.927   3.966  14.623  0.2590  0.2925 -1.3460
  276TMC3    C7 4229   4.179   3.949  14.668 -0.0495 -0.2855 -0.0397
  276TMC3    C8 4230   3.790   3.737  14.518 -0.1511 -0.5698 -0.1002
  276TMC3    O1 4231   4.106   3.992  14.758  0.3815 -0.3750  0.2544
  276TMC3    O2 4232   3.675   3.770  14.488  0.1687  0.0706  0.0930
  277MPD2     C 4233   0.905   2.725  13.127 -0.1802  0.0971  0.2611
  277MPD2    C1 4234   0.792   2.784  13.175 -0.2247 -0.2737 -0.4521
  277MPD2    C2 4235   0.757   2.761  13.306  0.0490 -1.0260  0.2468
  277MPD2    C3 4236   0.811   2.658  13.380 -0.1741  0.2063  0.4232
  277MPD2    C4 4237   0.924   2.599  13.330 -0.3034 -0.0604  0.3239
  277MPD2    C5 4238   0.967   2.631  13.202  0.6068 -0.1960  0.2796
  277MPD2     H 4239   0.675   2.814  13.353  1.4355  1.0780  0.2721
  277MPD2    H1 4240   0.975   2.519  13.383  0.2431  0.0756 -0.0024
  277MPD2    H2 4241   0.942   2.731  13.025  1.3576 -2.6203  0.6424
  277MPD2    H3 4242   1.054   2.572  13.172  0.6755  0.3431 -0.5685
  277MPD2     N 4243   0.740   2.630  13.492  0.0434 -0.2097 -1.1175
  277MPD2    H5 4244   0.664   2.692  13.520  0.1839 -0.0968 -0.9874
  277MPD2    N1 4245   0.722   2.877  13.097  0.3385  0.0544  0.6845
  277MPD2    H7 4246   0.770   2.915  13.016  1.4212 -0.1359  1.2357
  278TMC3    C1 4247   0.640   2.496  13.665 -0.7772  0.0174 -0.0498
  278TMC3    C2 4248   0.646   2.388  13.754 -0.0103  0.0162  0.8455
  278TMC3    C3 4249   0.529   2.343  13.814  0.4838  0.2035 -0.2052
  278TMC3    C4 4250   0.527   2.573  13.660  0.5498 -0.5306 -0.3271
  278TMC3    C5 4251   0.410   2.529  13.721  0.0422  0.5128  0.0047
  278TMC3    C6 4252   0.410   2.412  13.797  0.1912 -0.6394  0.1012
  278TMC3     C 4253   0.751   2.520  13.574 -0.1715 -0.2469 -0.9279
  278TMC3     O 4254   0.830   2.427  13.568  0.3717 -0.1677  0.0160
  278TMC3     H 4255   0.739   2.332  13.759 -0.2749 -0.2555  2.6273
  278TMC3    H1 4256   0.517   2.642  13.577  2.0373 -0.3101 -0.3249
  278TMC3    H2 4257   0.319   2.384  13.849  0.8250  0.8940  2.0683
  278TMC3    C7 4258   0.297   2.623  13.722  0.3083 -0.0483  0.2077
  278TMC3    C8 4259   0.525   2.205  13.871  0.0071 -0.0174 -0.3530
  278TMC3    O1 4260   0.324   2.737  13.704  0.0614 -0.5161  0.5353
  278TMC3    O2 4261   0.625   2.158  13.918 -0.1582 -0.7608 -0.0365
  279MPD2     C 4262   0.295   2.185   0.360 -0.0546 -0.7366 -0.0578
  279MPD2    C1 4263   0.186   2.266   0.345  0.7177 -0.5628  0.0145
  279MPD2    C2 4264   0.182   2.339   0.223 -0.2041 -0.0442 -0.5483
  279MPD2    C3 4265   0.282   2.338   0.130 -0.3023 -0.0354  0.3963
  279MPD2    C4 4266   0.395   2.263   0.155 -0.4080  0.5019 -0.3149
  279MPD2    C5 4267   0.399   2.179   0.264 -0.5674 -0.3725 -0.1819
  279MPD2     H 4268   0.102   2.411   0.207  1.1141  1.6035  0.4148
  279MPD2    H1 4269   0.471   2.252   0.079  1.0381  1.2502  1.0439
  279MPD2    H2 4270   0.297   2.113   0.441  1.0529 -0.5083  0.1227
  279MPD2    H3 4271   0.476   2.102   0.270  1.6282  1.8522 -0.0429
  279MPD2     N 4272   0.278   2.396  17.744  0.1271 -0.1068  0.1680
  279MPD2    H5 4273   0.367   2.400  17.695 -0.0686  0.1297 -0.1675
  279MPD2    N1 4274   0.078   2.271   0.432  0.1003  0.9529 -0.2405
  279MPD2    H7 4275   0.074   2.195   0.500 -1.2285  1.1592 -0.0968
  280TMC3    C1 4276   4.590   2.359   0.470 -0.5155 -0.4993 -0.4428
  280TMC3    C2 4277   4.534   2.244   0.447 -0.2290 -0.4513  0.6874
  280TMC3    C3 4278   4.412   2.233   0.400 -0.1716  0.5142 -0.6278
  280TMC3    C4 4279   4.525   2.478   0.440 -0.2945  0.0069 -0.0227
  280TMC3    C5 4280   4.400   2.466   0.392  0.4591  0.5165 -0.3269
  280TMC3    C6 4281   4.337   2.344   0.371 -0.5354 -0.4433  0.5589
  280TMC3     C 4282   4.729   2.377   0.437 -0.5756 -0.0327 -0.8592
  280TMC3     O 4283   0.027   2.492   0.414 -0.1630  0.2611 -0.2996
  280TMC3     H 4284   4.575   2.150   0.484  1.5221 -0.2655 -0.7532
  280TMC3    H1 4285   4.558   2.577   0.469  1.4021 -0.4961 -0.1991
  280TMC3    H2 4286   4.241   2.349   0.321  0.0626 -0.3935 -0.5823
  280TMC3    C7 4287   4.319   2.590   0.425 -0.4360  0.5788 -0.3317
  280TMC3    C8 4288   4.359   2.107   0.355  0.3950  0.1430 -0.0985
  280TMC3    O1 4289   4.346   2.646   0.530  0.2945 -0.9524 -0.2932
  280TMC3    O2 4290   4.434   2.019   0.320 -0.3957  0.1667 -0.4647
  281TMC3    C1 4291   3.096   2.102  13.266  0.9859 -1.1018 -0.3299
  281TMC3    C2 4292   3.221   2.148  13.239 -1.4226  0.4611  0.2772
  281TMC3    C3 4293   3.309   2.051  13.187 -0.7016 -0.8798 -0.7904
  281TMC3    C4 4294   3.057   1.969  13.278  0.0724 -0.1212  0.3310
  281TMC3    C5 4295   3.159   1.883  13.257  0.2827 -0.8246 -0.1001
  281TMC3    C6 4296   3.282   1.917  13.204 -1.1902 -0.7456 -0.5786
  281TMC3     C 4297   2.999   2.206  13.296  1.1023  0.6167  0.2894
  281TMC3     O 4298   2.892   2.159  13.339 -0.3128  0.2346  0.3554
  281TMC3     H 4299   3.245   2.254  13.237  0.7376 -0.0431 -0.2328
  281TMC3    H1 4300   2.959   1.940  13.315 -0.4840  0.6362 -0.5229
  281TMC3    H2 4301   3.355   1.843  13.172  2.1849  2.2452  0.1313
  281TMC3    C7 4302   3.133   1.753  13.310  0.3440  0.0289  0.1363
  281TMC3    C8 4303   3.454   2.082  13.160 -0.1561 -0.3422 -0.4981
  281TMC3    O1 4304   3.021   1.710  13.322 -0.8729  0.4861  0.1467
  281TMC3    O2 4305   3.543   2.016  13.219  0.8176 -0.0891  0.4209
  282MPD2     C 4306   0.611   4.668  14.865 -0.0324  0.4033 -0.1205
  282MPD2    C1 4307   0.485   4.629  14.907 -0.4579  0.1138 -0.4083
  282MPD2    C2 4308   0.380   4.635  14.811 -1.2553  0.5465  0.3423
  282MPD2    C3 4309   0.402   4.653  14.680 -0.3867 -0.1027 -0.1773
  282MPD2    C4 4310   0.530   4.683  14.643 -0.1227 -0.3976 -0.0556
  282MPD2    C5 4311   0.631   4.699  14.734  0.3920  0.1350 -0.0796
  282MPD2     H 4312   0.280   4.608  14.843 -1.3771  1.4142  0.6909
  282MPD2    H1 4313   0.559   4.705  14.541 -0.7219  1.5689  0.1925
  282MPD2    H2 4314   0.694   4.659  14.934 -0.4752 -0.4667  0.2978
  282MPD2    H3 4315   0.731   4.719  14.699 -0.0613 -0.9624 -2.0140
  282MPD2     N 4316   0.295   4.640  14.587  0.1228  0.1704 -0.2332
  282MPD2    H5 4317   0.203   4.645  14.631 -0.4451  0.0306 -1.4219
  282MPD2    N1 4318   0.459   4.612  15.046 -0.3811 -0.3104  0.5468
  282MPD2    H7 4319   0.534   4.648  15.105  0.5264 -2.1076  0.4761
  283TMC3    C1 4320   0.340   4.569  15.251 -0.7407 -0.1313 -0.0635
  283TMC3    C2 4321   0.392   4.676  15.319  0.0932 -0.1106 -0.1184
  283TMC3    C3 4322   0.376   4.684  15.460  0.2764  0.4273  0.1895
  283TMC3    C4 4323   0.259   4.473  15.321 -0.0414 -0.3353  0.1781
  283TMC3    C5 4324   0.240   4.492  15.458 -0.3441 -0.0496  0.1262
  283TMC3    C6 4325   0.296   4.599  15.527 -0.1976 -0.0834 -0.6142
  283TMC3     C 4326   0.342   4.563  15.103  0.5269  0.5250  0.0170
  283TMC3     O 4327   0.249   4.496  15.054 -0.0398  0.2933  0.0088
  283TMC3     H 4328   0.451   0.015  15.269  0.5328 -1.1254 -1.1519
  283TMC3    H1 4329   0.218   4.392  15.260  0.5526 -0.7499  0.3313
  283TMC3    H2 4330   0.285   4.621  15.633  1.4036  1.0199 -0.6727
  283TMC3    C7 4331   0.126   4.438  15.522  0.0080  0.2671  0.1798
  283TMC3    C8 4332   0.438   0.057  15.527  0.1934 -0.0844  0.1742
  283TMC3    O1 4333   0.059   4.514  15.596 -0.2167 -0.1211  0.0161
  283TMC3    O2 4334   0.491   0.035  15.633 -0.3588  0.4375  0.0145
  284MPD2     C 4335   3.678   3.571  12.227  0.1264  0.0196 -0.2581
  284MPD2    C1 4336   3.772   3.637  12.147  0.5537  0.0485 -0.2346
  284MPD2    C2 4337   3.898   3.585  12.144 -0.2381 -0.4577  0.6655
  284MPD2    C3 4338   3.928   3.464  12.210 -0.3256 -0.1343 -0.4225
  284MPD2    C4 4339   3.832   3.402  12.284 -0.1643 -0.1943 -0.4177
  284MPD2    C5 4340   3.709   3.456  12.297  0.2668  0.7312  0.1347
  284MPD2     H 4341   3.980   3.634  12.094 -0.7638  1.4248  1.6560
  284MPD2    H1 4342   3.854   3.311  12.339 -1.2973  0.5248  1.2180
  284MPD2    H2 4343   3.582   3.620  12.236 -1.4926 -3.1579 -0.4163
  284MPD2    H3 4344   3.639   3.399  12.357 -0.7289  1.1433 -0.6316
  284MPD2     N 4345   4.051   3.402  12.201  0.6131 -0.4141 -0.0461
  284MPD2    H5 4346   4.054   3.302  12.217 -0.8642 -0.6465 -1.2846
  284MPD2    N1 4347   3.753   3.746  12.057 -0.1268  0.3214 -0.1758
  284MPD2    H7 4348   3.838   3.786  12.018  1.1511 -2.0869  0.1691
  285TMC3    C1 4349   3.674   3.845  11.875 -0.5612  0.5643  0.1944
  285TMC3    C2 4350   3.621   3.783  11.758 -0.2657 -0.2122  0.2802
  285TMC3    C3 4351   3.681   3.835  11.647  0.6454  0.7282 -0.0211
  285TMC3    C4 4352   3.754   3.955  11.877  0.5580 -0.5585 -0.2776
  285TMC3    C5 4353   3.800   4.005  11.763  0.1377 -0.5134 -0.1947
  285TMC3    C6 4354   3.770   3.939  11.648  0.4970 -0.0618 -0.0201
  285TMC3     C 4355   3.636   3.789  12.007  0.5653 -0.7803 -0.3230
  285TMC3     O 4356   3.522   3.736  12.021 -0.2025 -0.3002  0.5056
  285TMC3     H 4357   3.546   3.705  11.750 -1.8455  1.1689  1.6024
  285TMC3    H1 4358   3.788   3.996  11.971  0.7549 -0.1618 -0.5269
  285TMC3    H2 4359   3.790   3.983  11.551 -3.0372  0.3822 -0.5571
  285TMC3    C7 4360   3.835   4.142  11.747  0.2364 -0.9252  0.5800
  285TMC3    C8 4361   3.677   3.748  11.524 -0.4890  0.0099 -0.5021
  285TMC3    O1 4362   3.912   4.178  11.658  0.2172 -0.4923  0.2224
  285TMC3    O2 4363   3.625   3.641  11.542 -0.1691 -0.4043 -0.1880
  286MPD2     C 4364   3.889   2.155   0.877 -0.5142 -0.3218 -0.2543
  286MPD2    C1 4365   3.774   2.106   0.818 -0.6331 -0.3133  0.2551
  286MPD2    C2 4366   3.777   1.967   0.797  0.0119  0.5342  0.8463
  286MPD2    C3 4367   3.887   1.887   0.820 -0.2100  0.4196  0.0827
  286MPD2    C4 4368   4.001   1.947   0.874  0.9105 -0.3150  0.2037
  286MPD2    C5 4369   4.000   2.079   0.901  0.0193  0.8850 -0.9940
  286MPD2     H 4370   3.693   1.924   0.744  0.4540  0.7590 -0.0377
  286MPD2    H1 4371   4.084   1.885   0.904  1.0398 -0.9986 -1.5514
  286MPD2    H2 4372   3.897   2.263   0.886 -0.0701 -0.3686 -0.0533
  286MPD2    H3 4373   4.086   2.132   0.940  0.1345  0.4596 -0.6763
  286MPD2     N 4374   3.888   1.744   0.810  0.1844 -0.1273 -0.0420
  286MPD2    H5 4375   3.972   1.700   0.847 -0.1700  0.7429  1.8075
  286MPD2    N1 4376   3.665   2.178   0.774 -0.1259 -0.2927 -0.2198
  286MPD2    H7 4377   3.601   2.128   0.713 -0.5643 -0.7518  0.6135
  287TMC3    C1 4378   3.813   1.526   0.787 -0.2909 -0.6681  0.5917
  287TMC3    C2 4379   3.816   1.451   0.677  0.4077  0.6299 -0.2923
  287TMC3    C3 4380   3.927   1.373   0.655  0.4057  0.2647 -0.4566
  287TMC3    C4 4381   3.908   1.511   0.885  0.3108 -0.7679 -0.3922
  287TMC3    C5 4382   4.021   1.441   0.859 -0.1494 -0.3523  0.1654
  287TMC3    C6 4383   4.035   1.371   0.744  0.5165  0.4669  0.0418
  287TMC3     C 4384   3.785   1.664   0.763  0.5135 -0.4213  0.0027
  287TMC3     O 4385   3.671   1.700   0.737  0.0029  0.1165 -0.3393
  287TMC3     H 4386   3.740   1.478   0.605  0.0869 -0.9119 -0.5418
  287TMC3    H1 4387   3.907   1.573   0.974 -0.2182 -0.8162 -0.3645
  287TMC3    H2 4388   4.129   1.322   0.722  0.6839  0.4949  0.6878
  287TMC3    C7 4389   4.139   1.493   0.919 -0.1904  0.2454  0.5063
  287TMC3    C8 4390   3.919   1.282   0.549  0.3864  0.6373 -0.5918
  287TMC3    O1 4391   4.126   1.608   0.962  0.3178  0.5832  0.1009
  287TMC3    O2 4392   3.815   1.222   0.539  0.0443  0.4988  0.2347
  288TMC3    C1 4393   0.849   2.238  14.478  0.3515  0.6364  0.0902
  288TMC3    C2 4394   0.801   2.134  14.556 -0.2637 -0.1615  0.7349
  288TMC3    C3 4395   0.666   2.104  14.544  0.2957 -0.0818 -0.3224
  288TMC3    C4 4396   0.770   2.320  14.400  0.3834  0.4290 -0.2349
  288TMC3    C5 4397   0.644   2.273  14.378 -0.9556  0.1683 -0.0173
  288TMC3    C6 4398   0.592   2.166  14.446  0.0878  0.4918  0.2123
  288TMC3     C 4399   0.994   2.234  14.451  0.1675 -0.0578  0.1604
  288TMC3     O 4400   1.037   2.314  14.372  0.3577 -0.6250  0.1864
  288TMC3     H 4401   0.858   2.098  14.640 -1.7038  0.1818  1.8575
  288TMC3    H1 4402   0.806   2.402  14.340  1.7955  0.3873  0.5717
  288TMC3    H2 4403   0.485   2.147  14.443 -0.4687  3.2779  2.1255
  288TMC3    C7 4404   0.570   2.355  14.281  0.0404  1.0952 -0.4975
  288TMC3    C8 4405   0.602   2.110  14.665 -0.3570 -0.3051  0.1979
  288TMC3    O1 4406   0.604   2.470  14.273 -0.1464 -0.1820  0.2604
  288TMC3    O2 4407   0.620   2.213  14.729  0.1258 -0.4825  0.2221
  289MPD2     C 4408   0.867   1.285  14.435  0.2465  0.2255  0.2874
  289MPD2    C1 4409   0.847   1.398  14.359  0.5297  1.4606 -0.0171
  289MPD2    C2 4410   0.725   1.412  14.296  0.2944 -0.1699 -0.3389
  289MPD2    C3 4411   0.625   1.321  14.316 -0.1727  1.0663  1.0939
  289MPD2    C4 4412   0.645   1.208  14.390 -0.7693 -0.1658  0.3442
  289MPD2    C5 4413   0.765   1.193  14.454 -0.2983 -0.2859 -0.7530
  289MPD2     H 4414   0.709   1.487  14.220  0.4074 -2.3675 -2.5341
  289MPD2    H1 4415   0.565   1.135  14.391 -0.2909 -0.6899 -0.8785
  289MPD2    H2 4416   0.964   1.268  14.482  1.5832  0.6372 -2.2896
  289MPD2    H3 4417   0.770   1.108  14.522 -0.7396 -0.4484 -0.9224
  289MPD2     N 4418   0.495   1.331  14.253 -0.2774  0.4205 -0.6638
  289MPD2    H5 4419   0.429   1.255  14.257  0.6402 -0.3920 -1.1350
  289MPD2    N1 4420   0.962   1.487  14.341 -0.4745 -0.5651 -1.1182
  289MPD2    H7 4421   1.048   1.456  14.385 -2.6635 -5.1263 -0.0192
  290TMC3    C1 4422   0.317   1.418  14.133 -0.1792 -0.5918 -0.5242
  290TMC3    C2 4423   0.232   1.525  14.143 -0.3205  0.4659 -1.0268
  290TMC3    C3 4424   0.110   1.522  14.088  0.0180 -0.0103  0.5015
  290TMC3    C4 4425   0.281   1.293  14.081 -0.2451  0.5053  0.0242
  290TMC3    C5 4426   0.144   1.286  14.054  0.9817  0.4140  0.3683
  290TMC3    C6 4427   0.063   1.397  14.064  0.6151 -0.4072  0.5847
  290TMC3     C 4428   0.447   1.445  14.196 -0.7430 -0.0707  1.0304
  290TMC3     O 4429   0.484   1.560  14.204  0.1399 -0.4016  0.1981
  290TMC3     H 4430   0.272   1.620  14.178  0.6719 -0.4349  0.2790
  290TMC3    H1 4431   0.358   1.219  14.066 -0.1716  0.8094 -1.1266
  290TMC3    H2 4432   4.696   1.381  14.040  0.8836  1.8232 -2.0732
  290TMC3    C7 4433   0.120   1.195  13.944  0.0607 -0.0844 -0.0759
  290TMC3    C8 4434   0.009   1.622  14.129 -0.0072  0.0242  0.1186
  290TMC3    O1 4435   0.052   1.243  13.855  0.1296  0.1804 -0.6227
  290TMC3    O2 4436   4.629   1.590  14.138 -0.3809 -0.3604 -0.8760
  291MPD2     C 4437   0.417   1.243   0.330 -0.5776  0.8389  0.4191
  291MPD2    C1 4438   0.302   1.178   0.289  0.4966 -0.3114 -0.5590
  291MPD2    C2 4439   0.243   1.215   0.171 -0.2447  0.3713 -0.0274
  291MPD2    C3 4440   0.293   1.323   0.097 -0.3755 -0.0196  0.5886
  291MPD2    C4 4441   0.406   1.384   0.137 -0.0985 -0.0893  0.2417
  291MPD2    C5 4442   0.469   1.350   0.256  0.1090 -0.6086  0.2816
  291MPD2     H 4443   0.154   1.161   0.140 -1.5942  1.3127  2.2296
  291MPD2    H1 4444   0.448   1.468   0.083 -2.0710 -1.1529 -2.9498
  291MPD2    H2 4445   0.470   1.206   0.417  0.7655 -2.5803 -1.8275
  291MPD2    H3 4446   0.553   1.413   0.286  1.2051 -0.9827 -1.9517
  291MPD2     N 4447   0.242   1.371  17.717 -0.2602 -0.8523  0.2648
  291MPD2    H5 4448   0.278   1.460  17.685 -1.3262 -1.2636 -2.0681
  291MPD2    N1 4449   0.241   1.080   0.369 -0.1453 -0.6507  0.0540
  291MPD2    H7 4450   0.174   1.020   0.322 -2.2931  1.0025  0.9965
  292TMC3    C1 4451   0.192   0.947   0.554  0.1653 -0.6406  0.3391
  292TMC3    C2 4452   0.125   0.976   0.671 -0.2123 -0.4901 -0.9060
  292TMC3    C3 4453   0.012   0.895   0.692  0.2497 -0.5216  0.1321
  292TMC3    C4 4454   0.158   0.845   0.467  0.2440  0.5067  0.0167
  292TMC3    C5 4455   0.057   0.764   0.507 -0.0233 -0.3956 -0.1912
  292TMC3    C6 4456   4.714   0.793   0.609  0.3356  0.9806  0.1607
  292TMC3     C 4457   0.264   1.057   0.503 -0.6394 -0.5486  0.1957
  292TMC3     O 4458   0.325   1.123   0.589 -0.2580  0.4043 -0.4161
  292TMC3     H 4459   0.138   1.076   0.711 -1.0210  0.7069 -3.6080
  292TMC3    H1 4460   0.217   0.828   0.378 -1.9914 -1.7650 -1.0305
  292TMC3    H2 4461   4.629   0.729   0.626 -1.4229  2.6457 -2.5067
  292TMC3    C7 4462   0.038   0.649   0.425 -0.3198  0.3969 -0.2423
  292TMC3    C8 4463   4.663   0.926   0.802 -0.2207  0.0822 -1.2608
  292TMC3    O1 4464   0.085   0.656   0.314 -0.0627  0.6218 -0.0250
  292TMC3    O2 4465   4.706   0.997   0.889  0.1131 -0.2982 -0.3061
  293MPD2     C 4466   1.744   2.286  12.424 -0.7526 -1.1575 -0.1180
  293MPD2    C1 4467   1.669   2.397  12.466  0.1852 -0.2161  0.8830
  293MPD2    C2 4468   1.702   2.457  12.582 -0.4267  0.3662 -0.0795
  293MPD2    C3 4469   1.808   2.414  12.656 -0.4674  0.6650  0.0663
  293MPD2    C4 4470   1.894   2.318  12.605 -0.0855  0.7698  0.5906
  293MPD2    C5 4471   1.865   2.260  12.486 -0.0374 -0.1486 -0.3459
  293MPD2     H 4472   1.642   2.541  12.616 -2.1497  0.3911 -3.1795
  293MPD2    H1 4473   1.981   2.285  12.661 -0.4036 -1.3021 -0.1337
  293MPD2    H2 4474   1.718   2.232  12.333 -0.4406 -0.1235 -0.8217
  293MPD2    H3 4475   1.930   2.178  12.455 -0.7351  0.3357 -3.0368
  293MPD2     N 4476   1.845   2.468  12.783  0.0251  0.2116 -0.2621
  293MPD2    H5 4477   1.920   2.417  12.828 -1.1209 -0.0237  1.4031
  293MPD2    N1 4478   1.544   2.416  12.394  0.9854 -0.1302  0.4826
  293MPD2    H7 4479   1.531   2.345  12.322  1.1871  1.8288 -1.4815
  294TMC3    C1 4480   1.311   2.466  12.379 -0.4296  0.1700 -0.1258
  294TMC3    C2 4481   1.255   2.350  12.414 -0.3396  0.7322  0.6531
  294TMC3    C3 4482   1.120   2.337  12.420  0.1960  0.7585 -0.7589
  294TMC3    C4 4483   1.231   2.569  12.339 -0.5123  0.3698  0.2878
  294TMC3    C5 4484   1.092   2.545  12.324  0.4343 -0.0139  0.0502
  294TMC3    C6 4485   1.033   2.430  12.379  0.0137 -0.6825  0.7741
  294TMC3     C 4486   1.443   2.502  12.428 -0.1998 -0.3481  0.0424
  294TMC3     O 4487   1.453   2.610  12.484 -0.5537 -0.1736 -0.0242
  294TMC3     H 4488   1.326   2.279  12.456 -1.8300 -0.1639  1.6400
  294TMC3    H1 4489   1.280   2.660  12.306 -0.1489  0.6114  1.5255
  294TMC3    H2 4490   0.929   2.416  12.348 -0.5441  0.6809  2.0433
  294TMC3    C7 4491   1.009   2.643  12.250 -0.2918  0.7857 -0.0914
  294TMC3    C8 4492   1.076   2.202  12.409  0.9241 -0.1962 -0.3775
  294TMC3    O1 4493   0.890   2.636  12.279  0.4002 -1.1984 -0.0820
  294TMC3    O2 4494   1.159   2.114  12.403 -0.0448 -0.0040  0.9758
  295MPD2     C 4495   2.733   0.547  17.427 -0.3493  0.7463 -0.4142
  295MPD2    C1 4496   2.632   0.623  17.479  0.4492  0.5608  0.2277
  295MPD2    C2 4497   2.628   0.632  17.619 -0.5131  0.0544 -0.1739
  295MPD2    C3 4498   2.713   0.565  17.708  0.9270 -0.8187  0.3832
  295MPD2    C4 4499   2.816   0.498  17.646 -0.4103  0.1142  0.4568
  295MPD2    C5 4500   2.821   0.486  17.513 -0.9322  0.1552  0.9488
  295MPD2     H 4501   2.547   0.692  17.658 -0.5432  2.5184 -4.0278
  295MPD2    H1 4502   2.894   0.444  17.700 -0.4041 -0.4151 -0.0809
  295MPD2    H2 4503   2.748   0.546  17.319 -3.0013  0.4041 -0.7692
  295MPD2    H3 4504   2.901   0.424  17.474  0.2548  1.4395  1.3429
  295MPD2     N 4505   2.723   0.580   0.106 -0.3909 -0.1161 -0.1973
  295MPD2    H5 4506   2.808   0.546   0.150 -0.1739  0.7791  0.0708
  295MPD2    N1 4507   2.526   0.698  17.413 -0.1765 -0.3724 -0.6667
  295MPD2    H7 4508   2.448   0.734  17.466 -0.2811 -1.8116  0.1827
  296TMC3    C1 4509   2.661   0.672   0.319  0.2190  0.3676  0.0486
  296TMC3    C2 4510   2.635   0.788   0.378  0.3098 -1.0191  0.1520
  296TMC3    C3 4511   2.606   0.792   0.508 -0.1248  0.0090 -0.9674
  296TMC3    C4 4512   2.671   0.556   0.389  0.4818 -0.2023  0.0187
  296TMC3    C5 4513   2.646   0.559   0.523  0.2653  0.7746 -0.0629
  296TMC3    C6 4514   2.612   0.678   0.587  0.2510  0.1069 -0.3598
  296TMC3     C 4515   2.649   0.670   0.173  0.3230  0.0259  0.8602
  296TMC3     O 4516   2.568   0.755   0.132  0.3113  0.2096 -0.1136
  296TMC3     H 4517   2.636   0.877   0.315 -3.5601  0.7136  2.5579
  296TMC3    H1 4518   2.677   0.457   0.345 -0.2887  0.4632 -1.6123
  296TMC3    H2 4519   2.586   0.683   0.692  1.1190 -2.0591 -0.0255
  296TMC3    C7 4520   2.620   0.432   0.589  0.0885  0.2256 -0.2584
  296TMC3    C8 4521   2.542   0.909   0.567 -0.0603  0.4556  0.3015
  296TMC3    O1 4522   2.662   0.328   0.541 -0.0790  0.2721 -0.1501
  296TMC3    O2 4523   2.555   0.923   0.685 -0.0589 -0.4216  0.1706
  297MPD2     C 4524   4.383   3.122  16.603  0.4509  0.4877 -0.1483
  297MPD2    C1 4525   4.374   3.159  16.471  1.0222  0.0046  0.4120
  297MPD2    C2 4526   4.464   3.251  16.417 -0.3369  0.0025 -0.5210
  297MPD2    C3 4527   4.557   3.310  16.493  0.5874 -0.1935  0.1024
  297MPD2    C4 4528   4.564   3.277  16.628  0.0143 -0.2653  0.1701
  297MPD2    C5 4529   4.485   3.176  16.676  0.0562 -0.0538 -0.2852
  297MPD2     H 4530   4.457   3.280  16.313  0.0880  1.5863 -0.1226
  297MPD2    H1 4531   4.625   3.327  16.703  0.2111 -0.0231 -0.1498
  297MPD2    H2 4532   4.319   3.041  16.636 -0.1005  1.3966  1.0611
  297MPD2    H3 4533   4.490   3.151  16.782 -0.2331  0.3584 -0.1730
  297MPD2     N 4534   4.633   3.414  16.425 -0.2477 -0.3572  0.4994
  297MPD2    H5 4535   4.600   3.436  16.332  2.1672 -1.3624 -0.5955
  297MPD2    N1 4536   4.265   3.111  16.392 -0.2731 -0.2452 -0.8130
  297MPD2    H7 4537   4.273   3.144  16.297 -0.4687 -0.7208 -0.9941
  298TMC3    C1 4538   4.054   3.005  16.318  0.0913 -0.1508  0.3152
  298TMC3    C2 4539   4.065   3.058  16.191 -0.5912 -0.0081  0.5607
  298TMC3    C3 4540   3.957   3.081  16.111 -0.4931 -0.0127 -0.0651
  298TMC3    C4 4541   3.927   2.995  16.367 -0.0618  0.1017 -0.2434
  298TMC3    C5 4542   3.819   3.035  16.298  0.4426  0.4519 -0.1345
  298TMC3    C6 4543   3.829   3.079  16.167  0.2012 -0.3162 -0.1642
  298TMC3     C 4544   4.161   3.026  16.422 -0.0444  0.5387 -0.3311
  298TMC3     O 4545   4.128   2.977  16.530  0.0463 -0.1151 -0.8088
  298TMC3     H 4546   4.163   3.074  16.148  0.7663 -1.9020  2.9873
  298TMC3    H1 4547   3.898   2.967  16.468 -1.0046  0.8316 -0.3103
  298TMC3    H2 4548   3.739   3.114  16.118  0.1938 -1.5953 -1.0960
  298TMC3    C7 4549   3.722   3.105  16.373  0.1338  0.9779 -0.1735
  298TMC3    C8 4550   3.975   3.079  15.961  0.9203 -0.6325  0.4639
  298TMC3    O1 4551   3.757   3.153  16.479 -0.5357 -0.3226  0.0423
  298TMC3    O2 4552   4.082   3.047  15.910 -0.1701  0.2232  0.2457
  299MPD2     C 4553   4.699   2.215  10.850  0.7761 -0.3153  0.1146
  299MPD2    C1 4554   4.710   2.338  10.782  0.4159  0.4709  0.8195
  299MPD2    C2 4555   4.631   2.363  10.669  0.1100 -0.4364 -0.2145
  299MPD2    C3 4556   4.542   2.267  10.626  0.2403 -0.0015 -0.4569
  299MPD2    C4 4557   4.537   2.140  10.688  0.1348  1.2480 -0.1548
  299MPD2    C5 4558   4.617   2.117  10.799  0.5815  0.3097 -0.1797
  299MPD2     H 4559   4.631   2.464  10.629 -2.5423 -0.2870  0.2029
  299MPD2    H1 4560   4.474   2.056  10.663  3.5062 -1.4713  0.4725
  299MPD2    H2 4561   0.007   2.190  10.945  0.4643 -0.5438  0.1995
  299MPD2    H3 4562   4.621   2.025  10.857 -0.1146  0.4479  0.0836
  299MPD2     N 4563   4.453   2.297  10.525  1.1349 -0.1830  0.1373
  299MPD2    H5 4564   4.403   2.212  10.500  1.0771  0.3262 -1.4458
  299MPD2    N1 4565   0.057   2.432  10.847 -0.6212  0.6455  0.0641
  299MPD2    H7 4566   0.091   2.410  10.940  2.6190 -2.5086 -1.8754
  300TMC3    C1 4567   4.298   2.419  10.415 -0.6347  0.2256 -0.5349
  300TMC3    C2 4568   4.280   2.529  10.335  0.2971 -0.8800  0.9135
  300TMC3    C3 4569   4.162   2.594  10.325 -0.3070 -0.7166 -0.1271
  300TMC3    C4 4570   4.192   2.368  10.488 -0.5026 -0.4031 -0.0523
  300TMC3    C5 4571   4.071   2.437  10.476  0.3661  0.0138 -0.3775
  300TMC3    C6 4572   4.055   2.552  10.399 -0.1948 -0.1825 -0.5298
  300TMC3     C 4573   4.432   2.416  10.471  0.0947 -0.0508 -0.0616
  300TMC3     O 4574   4.487   2.523  10.470  0.1914  0.1430  0.1277
  300TMC3     H 4575   4.365   2.561  10.275  0.0702 -1.6025  0.2040
  300TMC3    H1 4576   4.201   2.301  10.572 -0.6956 -0.1325  0.1850
  300TMC3    H2 4577   3.958   2.597  10.388 -0.0867  0.6647  1.9264
  300TMC3    C7 4578   3.976   2.400  10.578  0.3756  0.1636 -1.1378
  300TMC3    C8 4579   4.148   2.696  10.220  0.0085  0.1901  0.1581
  300TMC3    O1 4580   3.933   2.288  10.574 -0.2040  0.3085 -0.4974
  300TMC3    O2 4581   4.248   2.740  10.170  0.0035 -0.2343 -0.3232
  301MPD2     C 4582   2.422   4.183   1.109 -0.4183 -0.5508  0.4253
  301MPD2    C1 4583   2.405   4.172   0.967 -1.0034  0.2081  0.8333
  301MPD2    C2 4584   2.431   4.050   0.911 -0.0553  0.2565 -0.0923
  301MPD2    C3 4585   2.478   3.944   0.986  0.6997 -0.7266  0.0322
  301MPD2    C4 4586   2.495   3.960   1.121  0.3219  0.6264  0.1400
  301MPD2    C5 4587   2.470   4.077   1.177  0.5573 -0.0916  0.6442
  301MPD2     H 4588   2.412   4.052   0.805  1.8765  1.8006 -0.4201
  301MPD2    H1 4589   2.528   3.872   1.176  0.9480  1.1564  0.6086
  301MPD2    H2 4590   2.408   4.275   1.165  0.1435 -0.4577  0.4153
  301MPD2    H3 4591   2.495   4.083   1.283  1.3071  1.5687  0.3684
  301MPD2     N 4592   2.505   3.816   0.929  0.6613  0.0196  0.2241
  301MPD2    H5 4593   2.530   3.739   0.991 -0.8744 -0.5458  0.1457
  301MPD2    N1 4594   2.363   4.280   0.887  0.0695 -0.6668  0.3105
  301MPD2    H7 4595   2.362   4.260   0.787  1.3635 -0.8989  0.3398
  302TMC3    C1 4596   2.553   3.652   0.767 -0.0345 -0.0403 -0.3249
  302TMC3    C2 4597   2.631   3.584   0.863 -0.0261  0.2011  0.0657
  302TMC3    C3 4598   2.623   3.449   0.857  1.2040 -0.1398 -0.4336
  302TMC3    C4 4599   2.486   3.591   0.669  0.6827 -0.3357 -0.4474
  302TMC3    C5 4600   2.481   3.456   0.661 -0.9567  0.5506  0.1167
  302TMC3    C6 4601   2.546   3.389   0.758  0.1345 -0.1406 -0.2961
  302TMC3     C 4602   2.511   3.791   0.795 -0.2733  0.7490  0.1594
  302TMC3     O 4603   2.452   3.858   0.711  0.8479 -0.3117  0.0810
  302TMC3     H 4604   2.690   3.639   0.935  0.9659  0.1827 -0.7357
  302TMC3    H1 4605   2.447   3.658   0.593  2.1668  1.6135  0.4755
  302TMC3    H2 4606   2.529   3.283   0.772 -2.3554  0.4572  1.2080
  302TMC3    C7 4607   2.403   3.395   0.559  1.0531  0.1132  0.1817
  302TMC3    C8 4608   2.730   3.370   0.918  0.2686 -0.4384  0.6368
  302TMC3    O1 4609   2.413   3.279   0.530  0.2196 -0.1063  0.0715
  302TMC3    O2 4610   2.767   3.265   0.869  0.0267  0.3728  0.0777
  303MPD2     C 4611   2.739   2.913  11.118  0.1833 -0.0605  0.4942
  303MPD2    C1 4612   2.611   2.951  11.135 -0.2000 -0.9494  0.4715
  303MPD2    C2 4613   2.529   2.944  11.026 -0.0012  0.3070  0.3774
  303MPD2    C3 4614   2.578   2.907  10.901 -0.2380  0.0174  0.4575
  303MPD2    C4 4615   2.712   2.891  10.892 -0.6175 -0.6881  0.0663
  303MPD2    C5 4616   2.794   2.893  11.000  0.2740  0.8755 -0.0205
  303MPD2     H 4617   2.423   2.965  11.034  0.2052  1.2361  0.6515
  303MPD2    H1 4618   2.762   2.854  10.803 -0.0906  1.0301 -0.3624
  303MPD2    H2 4619   2.807   2.914  11.203  1.7371  3.0770 -0.7902
  303MPD2    H3 4620   2.899   2.868  10.995 -0.3657 -2.1967  2.2764
  303MPD2     N 4621   2.501   2.874  10.788  0.8285  0.2668  0.3197
  303MPD2    H5 4622   2.555   2.853  10.704 -0.4553  0.4017 -0.5497
  303MPD2    N1 4623   2.575   2.977  11.271 -0.4012 -0.3384  0.3100
  303MPD2    H7 4624   2.640   2.965  11.347  2.1738  0.3244 -1.7824
  304TMC3    C1 4625   2.438   3.025  11.446  0.8072 -0.5761 -0.0934
  304TMC3    C2 4626   2.360   3.124  11.488 -0.3578 -0.0991 -0.4386
  304TMC3    C3 4627   2.276   3.104  11.595  0.2737 -0.0503  0.1063
  304TMC3    C4 4628   2.438   2.903  11.507 -0.1442 -0.6001 -0.2116
  304TMC3    C5 4629   2.373   2.893  11.626 -0.4391  0.0137 -0.2979
  304TMC3    C6 4630   2.293   2.992  11.666 -0.0550 -0.1080  0.5792
  304TMC3     C 4631   2.447   3.011  11.307 -0.3302 -0.4015 -0.6049
  304TMC3     O 4632   2.359   3.068  11.241  0.4552  0.7920 -0.2693
  304TMC3     H 4633   2.342   3.209  11.424 -4.6440 -0.5654  0.1486
  304TMC3    H1 4634   2.484   2.818  11.458 -0.6892  1.3985 -4.1940
  304TMC3    H2 4635   2.237   2.975  11.757 -1.8844  1.3352 -0.2904
  304TMC3    C7 4636   2.315   2.763  11.653 -0.4489 -0.4630  0.9470
  304TMC3    C8 4637   2.140   3.132  11.570 -0.4429 -0.1571  0.1488
  304TMC3    O1 4638   2.189   2.767  11.669 -0.7979  0.0767 -0.5289
  304TMC3    O2 4639   2.107   3.238  11.519  0.3125 -0.1864 -0.2265
  305MPD2     C 4640   0.330   4.637  14.025  0.2967 -0.6097 -0.2273
  305MPD2    C1 4641   0.424   4.542  13.998  0.5697  0.2601  0.4387
  305MPD2    C2 4642   0.436   4.493  13.870  1.0007  0.1821  0.7617
  305MPD2    C3 4643   0.359   4.548  13.766  0.1070  0.0126  0.1382
  305MPD2    C4 4644   0.257   4.634  13.802 -0.0053  0.3442  0.0769
  305MPD2    C5 4645   0.236   4.668  13.932 -0.6396  1.4093 -0.5239
  305MPD2     H 4646   0.521   4.432  13.843  0.9143 -0.3473  1.7156
  305MPD2    H1 4647   0.185   4.665  13.727 -1.5716 -2.2408  0.4828
  305MPD2    H2 4648   0.330   4.685  14.123 -1.2704 -0.4304 -0.3210
  305MPD2    H3 4649   0.149   4.728  13.956 -1.0801  1.4429 -2.1748
  305MPD2     N 4650   0.373   4.512  13.627 -0.4352  0.5182  0.2638
  305MPD2    H5 4651   0.312   4.559  13.560 -0.2852 -0.2206 -0.3932
  305MPD2    N1 4652   0.503   4.499  14.113 -0.0200  0.2614  0.4800
  305MPD2    H7 4653   0.475   4.522  14.208  0.9522  1.4237  0.4971
  306TMC3    C1 4654   0.623   4.342  14.238  0.1916  1.6265 -0.2627
  306TMC3    C2 4655   0.667   4.213  14.246  0.3362 -0.1096 -0.6475
  306TMC3    C3 4656   0.754   4.183  14.345  0.0015  0.4584  0.1349
  306TMC3    C4 4657   0.664   4.443  14.331  0.8465 -0.3777 -0.3430
  306TMC3    C5 4658   0.744   4.400  14.436  0.0496 -0.0700 -0.9248
  306TMC3    C6 4659   0.796   4.269  14.443 -0.6444 -0.0229  0.1016
  306TMC3     C 4660   0.585   4.388  14.113 -0.4223  0.3421 -0.3460
  306TMC3     O 4661   0.604   4.307  14.021  0.1842  0.1467  0.2865
  306TMC3     H 4662   0.636   4.144  14.167  1.1396 -1.0360 -0.1483
  306TMC3    H1 4663   0.648   4.546  14.304 -0.9098 -0.8798 -1.2080
  306TMC3    H2 4664   0.864   4.237  14.521 -0.2954 -1.2981 -0.7215
  306TMC3    C7 4665   0.842   4.485  14.488 -0.6491 -0.4212  0.3267
  306TMC3    C8 4666   0.813   4.046  14.343  0.5402 -0.4584  0.1146
  306TMC3    O1 4667   0.881   4.577  14.416 -0.1738  0.6253 -0.0813
  306TMC3    O2 4668   0.934   4.041  14.339  0.3719  0.3909  0.6676
  307MPD2     C 4669   3.416   3.121  17.493  0.5271 -0.9106 -0.0552
  307MPD2    C1 4670   3.377   3.230  17.559 -0.0860 -0.0877  0.1452
  307MPD2    C2 4671   3.326   3.208  17.686 -0.3759  0.0136 -0.4884
  307MPD2    C3 4672   3.286   3.084  17.731 -0.4701  0.0771  0.1583
  307MPD2    C4 4673   3.318   2.975  17.649 -0.1470  0.0661 -0.8157
  307MPD2    C5 4674   3.380   2.997  17.531  0.0950 -0.5031  0.2207
  307MPD2     H 4675   3.312   3.293   0.007 -1.6247 -0.2957 -0.3520
  307MPD2    H1 4676   3.299   2.871  17.673  2.9218 -0.2284  0.3597
  307MPD2    H2 4677   3.463   3.131  17.396  0.7273  2.3352  0.3845
  307MPD2    H3 4678   3.386   2.914  17.461 -2.0355  1.0718 -1.8330
  307MPD2     N 4679   3.219   3.073   0.116  0.2973  0.5858 -0.0655
  307MPD2    H5 4680   3.184   3.157   0.162  1.3094 -0.2027  2.1364
  307MPD2    N1 4681   3.380   3.361  17.510 -0.1696  0.0707 -0.0982
  307MPD2    H7 4682   3.358   3.433  17.579 -2.1164 -0.9144  0.3004
  308TMC3    C1 4683   3.034   2.864   0.495  0.6327 -0.5667  0.2483
  308TMC3    C2 4684   3.092   2.943   0.583 -0.7038 -0.0680 -0.3436
  308TMC3    C3 4685   3.159   3.047   0.535 -0.1864 -0.1988 -0.6966
  308TMC3    C4 4686   3.068   2.870   0.359  0.1086  0.1606 -0.1878
  308TMC3    C5 4687   3.138   2.982   0.312  0.1727  0.6033  0.2047
  308TMC3    C6 4688   3.176   3.073   0.399  0.2999 -0.6264  0.9749
  308TMC3     C 4689   2.926   2.778   0.540 -0.2186  0.3449  0.5811
  308TMC3     O 4690   2.937   2.731   0.650  0.0835  1.0637  0.4186
  308TMC3     H 4691   3.061   2.937   0.686 -0.6432 -1.1493 -0.3931
  308TMC3    H1 4692   3.017   2.798   0.295  0.2776 -0.8206  0.7793
  308TMC3    H2 4693   3.225   3.163   0.361 -1.6537 -0.2895 -0.7967
  308TMC3    C7 4694   3.201   2.954   0.179 -0.2147  0.5526  0.0755
  308TMC3    C8 4695   3.138   3.153   0.625 -0.2866 -0.1902  0.5713
  308TMC3    O1 4696   3.216   2.837   0.146 -0.0364  0.5650 -0.4624
  308TMC3    O2 4697   3.158   3.138   0.748  0.5521  0.1890 -0.7314
  309MPD2     C 4698   2.287   2.966  16.941  0.8005  0.2612  0.5470
  309MPD2    C1 4699   2.219   3.045  16.849  0.0721  0.7234  0.2383
  309MPD2    C2 4700   2.081   3.068  16.867  0.1707 -0.1738 -0.0803
  309MPD2    C3 4701   2.015   3.019  16.976  0.2012  0.0497 -0.1168
  309MPD2    C4 4702   2.087   2.950  17.073  0.6274 -0.2647 -0.5799
  309MPD2    C5 4703   2.213   2.923  17.047 -0.7999 -0.6429  0.2436
  309MPD2     H 4704   2.023   3.123  16.794 -0.0327  0.1925  0.3612
  309MPD2    H1 4705   2.046   2.893  17.156 -0.4164 -0.6875 -1.3804
  309MPD2    H2 4706   2.392   2.941  16.933  0.5767  0.0480 -1.7027
  309MPD2    H3 4707   2.259   2.871  17.131 -1.3287  0.4213  1.1939
  309MPD2     N 4708   1.884   3.040  17.003  0.0903  0.0841 -0.1414
  309MPD2    H5 4709   1.848   2.981  17.077  1.2925  2.2621  2.1856
  309MPD2    N1 4710   2.279   3.107  16.728 -0.2247  0.0628 -0.2373
  309MPD2    H7 4711   2.213   3.138  16.657 -2.2421  2.7920  2.8031
  310TMC3    C1 4712   2.446   3.142  16.560  0.6164  1.1602  1.0096
  310TMC3    C2 4713   2.353   3.201  16.474 -0.1622  0.5987 -1.3385
  310TMC3    C3 4714   2.398   3.223  16.351 -0.5174  0.0806  0.1915
  310TMC3    C4 4715   2.565   3.092  16.520 -0.4927  0.3980  0.0675
  310TMC3    C5 4716   2.607   3.122  16.392 -0.3148  0.1514 -0.3689
  310TMC3    C6 4717   2.526   3.190  16.307  0.2358 -0.1778  0.0438
  310TMC3     C 4718   2.409   3.107  16.698 -0.5790  0.1825 -0.1923
  310TMC3     O 4719   2.504   3.083  16.768 -0.3008 -0.1840  0.3673
  310TMC3     H 4720   2.261   3.252  16.500 -0.7226 -2.1404  2.0713
  310TMC3    H1 4721   2.621   3.019  16.577 -3.1699  1.1539  3.6370
  310TMC3    H2 4722   2.564   3.216  16.210 -1.2101 -1.5191 -0.8823
  310TMC3    C7 4723   2.718   3.039  16.342  0.2213 -0.0572  0.4010
  310TMC3    C8 4724   2.301   3.260  16.249  0.1921 -0.3509  0.0407
  310TMC3    O1 4725   2.709   3.009  16.226 -0.2011  0.7994 -0.4996
  310TMC3    O2 4726   2.185   3.278  16.292  0.1484  0.3976  0.6350
  311MPD2     C 4727   4.497   4.184  12.356 -0.1089 -0.6298 -0.1172
  311MPD2    C1 4728   4.529   4.243  12.479  0.2159 -0.3334  0.1334
  311MPD2    C2 4729   4.495   4.184  12.604 -0.6993  0.0857 -0.4981
  311MPD2    C3 4730   4.417   4.074  12.603 -0.1804 -0.2697  0.2572
  311MPD2    C4 4731   4.363   4.025  12.482 -0.3015  0.1939  0.2180
  311MPD2    C5 4732   4.408   4.081  12.367  0.7417  0.1868 -0.1515
  311MPD2     H 4733   4.524   4.221  12.701 -1.6273 -0.4400 -0.0155
  311MPD2    H1 4734   4.295   3.941  12.477 -3.1329  2.5845 -1.1310
  311MPD2    H2 4735   4.530   4.227  12.262  1.2590 -0.2905  0.5146
  311MPD2    H3 4736   4.369   4.044  12.272 -1.7262  0.9220  0.5822
  311MPD2     N 4737   4.378   4.024  12.731  0.2441 -0.1434 -0.1213
  311MPD2    H5 4738   4.388   4.077  12.817 -2.3494  0.4272 -0.1874
  311MPD2    N1 4739   4.601   4.360  12.469  0.4803 -0.0408  0.3819
  311MPD2    H7 4740   4.650   4.385  12.384  3.3814  0.4059  2.1776
  312TMC3    C1 4741   4.306   3.859  12.894 -0.5593 -0.4997  0.3224
  312TMC3    C2 4742   4.201   3.776  12.915 -0.3175 -0.1931 -0.3344
  312TMC3    C3 4743   4.124   3.795  13.025  0.2564  0.3342 -0.3675
  312TMC3    C4 4744   4.344   3.953  12.987 -0.5262 -0.4531  0.1309
  312TMC3    C5 4745   4.262   3.968  13.094  0.0633 -0.2518 -0.2012
  312TMC3    C6 4746   4.145   3.894  13.113  0.2343 -0.3511  0.6681
  312TMC3     C 4747   4.320   3.898  12.754  0.7935  0.3661  0.0112
  312TMC3     O 4748   4.295   3.814  12.670 -0.6023  0.4370  0.7087
  312TMC3     H 4749   4.173   3.713  12.831  2.0929 -2.5522  0.6110
  312TMC3    H1 4750   4.428   4.020  12.975 -0.0386 -0.8979  1.0254
  312TMC3    H2 4751   4.078   3.897  13.199  0.3136  3.2591  0.6300
  312TMC3    C7 4752   4.310   4.062  13.192  0.4346 -0.1751 -0.1898
  312TMC3    C8 4753   3.986   3.759  13.001  0.0030  0.2360 -0.2268
  312TMC3    O1 4754   4.401   4.134  13.160 -0.1513  0.0537 -0.2205
  312TMC3    O2 4755   3.952   3.746  12.886 -0.6685  0.5553  0.1099
  313MPD2     C 4756   3.490   3.199  10.943 -0.6895 -0.3464 -0.0740
  313MPD2    C1 4757   3.501   3.332  10.912  0.3246  0.2001 -0.4935
  313MPD2    C2 4758   3.580   3.370  10.808  0.0170 -0.0025 -0.0553
  313MPD2    C3 4759   3.669   3.286  10.743 -0.2176 -0.2331 -0.1369
  313MPD2    C4 4760   3.674   3.154  10.796  0.1244 -0.2401  0.5847
  313MPD2    C5 4761   3.577   3.115  10.883 -0.3121 -0.1439  0.0311
  313MPD2     H 4762   3.588   3.476  10.789 -0.2056 -0.1604 -1.0129
  313MPD2    H1 4763   3.734   3.074  10.754  0.6475 -0.0494  0.9680
  313MPD2    H2 4764   3.428   3.163  11.024 -2.2859  0.3021 -1.0063
  313MPD2    H3 4765   3.575   3.013  10.919 -4.2395  0.2506  0.8908
  313MPD2     N 4766   3.743   3.330  10.629  0.2493  0.0856  0.2734
  313MPD2    H5 4767   3.717   3.419  10.588 -1.1457 -0.4267  0.0421
  313MPD2    N1 4768   3.434   3.434  10.984  0.4160  0.8088 -0.0321
  313MPD2    H7 4769   3.469   3.529  10.971  0.6160  0.6765 -0.4936
  314TMC3    C1 4770   3.258   3.525  11.116 -0.8864  0.0051 -0.3844
  314TMC3    C2 4771   3.354   3.610  11.166 -0.1063 -0.4600 -0.4800
  314TMC3    C3 4772   3.310   3.731  11.206 -0.4521 -0.0883  0.6608
  314TMC3    C4 4773   3.128   3.555  11.084 -0.0816 -0.7020  0.5139
  314TMC3    C5 4774   3.097   3.686  11.120  0.6595 -0.2087  0.9828
  314TMC3    C6 4775   3.180   3.774  11.184 -0.2969 -0.0205 -0.4719
  314TMC3     C 4776   3.313   3.410  11.043  0.1695 -0.9314  0.6999
  314TMC3     O 4777   3.229   3.322  11.021  0.5764 -0.0047  1.1198
  314TMC3     H 4778   3.449   3.573  11.203 -1.3191 -1.4106  1.7003
  314TMC3    H1 4779   3.059   3.485  11.040 -0.3423 -1.2620  1.8024
  314TMC3    H2 4780   3.150   3.877  11.198  2.8632  1.1777 -2.5709
  314TMC3    C7 4781   3.001   3.731  11.022 -0.6722  0.0774 -0.1352
  314TMC3    C8 4782   3.406   3.829  11.238  0.4163 -0.1909  0.9134
  314TMC3    O1 4783   2.905   3.657  11.001  0.1849 -0.6136  0.1011
  314TMC3    O2 4784   3.507   3.821  11.172  0.1517 -0.5448 -0.2901
  315MPD2     C 4785   3.518   2.540  17.296  0.1359 -0.2418  0.0551
  315MPD2    C1 4786   3.560   2.548  17.426 -0.0708  1.2646 -0.0502
  315MPD2    C2 4787   3.613   2.668  17.469 -0.1427 -0.2506  0.0894
  315MPD2    C3 4788   3.631   2.778  17.385  0.1108  0.1418 -0.6224
  315MPD2    C4 4789   3.578   2.770  17.253 -0.0219  0.3051 -0.1361
  315MPD2    C5 4790   3.539   2.645  17.207 -0.3056 -0.6053 -0.0428
  315MPD2     H 4791   3.659   2.670  17.567  0.2172 -2.2123 -0.0322
  315MPD2    H1 4792   3.592   2.844  17.175 -1.8316  0.7798 -0.0148
  315MPD2    H2 4793   3.467   2.451  17.262 -1.3329  0.7059 -0.2213
  315MPD2    H3 4794   3.497   2.643  17.108 -1.3326 -0.4491  0.3925
  315MPD2     N 4795   3.700   2.892  17.443 -0.1253 -0.2893  0.1611
  315MPD2    H5 4796   3.742   2.870  17.532 -2.4056  0.3589  1.4019
  315MPD2    N1 4797   3.563   2.442  17.520 -0.5230  0.3324  0.4205
  315MPD2    H7 4798   3.614   2.471  17.603 -2.7185  0.2273  1.7949
  316TMC3    C1 4799   3.789   3.103  17.485 -0.7288  0.0208 -0.4518
  316TMC3    C2 4800   3.842   3.056  17.603  0.7009  0.2264  0.2388
  316TMC3    C3 4801   3.874   3.148  17.702  0.1570  0.1553 -0.0793
  316TMC3    C4 4802   3.773   3.234  17.450 -0.2071 -0.8103 -0.2401
  316TMC3    C5 4803   3.792   3.318  17.554 -0.1851 -0.1709  0.0452
  316TMC3    C6 4804   3.849   3.283  17.680 -0.3955 -0.8930  0.1733
  316TMC3     C 4805   3.717   3.016  17.392 -0.4536  0.6669 -0.5010
  316TMC3     O 4806   3.683   3.059  17.283  0.0143 -0.0448  0.5358
  316TMC3     H 4807   3.872   2.952  17.604 -0.7340 -0.1941 -0.8721
  316TMC3    H1 4808   3.729   3.268  17.357 -1.8678  1.8431  1.5224
  316TMC3    H2 4809   3.889   3.363  17.741 -2.5187  1.3093 -1.2928
  316TMC3    C7 4810   3.777   3.463  17.537 -0.9014  0.0064  0.9076
  316TMC3    C8 4811   3.928   3.108   0.083 -0.3904 -0.2740  0.1960
  316TMC3    O1 4812   3.729   3.529  17.629 -0.5933  0.1418 -0.2057
  316TMC3    O2 4813   3.927   3.206   0.157  0.2405 -0.1973 -0.4272
  317MPD2     C 4814   1.007   1.563  13.387 -0.2126 -0.3395 -0.5355
  317MPD2    C1 4815   1.109   1.478  13.353 -0.8622  0.4354  0.1263
  317MPD2    C2 4816   1.142   1.371  13.437  0.6058  0.5379  0.4355
  317MPD2    C3 4817   1.061   1.336  13.550  0.4682 -0.1413 -0.5559
  317MPD2    C4 4818   0.965   1.428  13.580  0.3142  0.0261  0.4454
  317MPD2    C5 4819   0.947   1.542  13.505 -1.0676 -0.1970 -0.4814
  317MPD2     H 4820   1.230   1.316  13.407 -1.2268 -0.2376 -3.4905
  317MPD2    H1 4821   0.909   1.422  13.672  0.6695 -1.6864  0.5636
  317MPD2    H2 4822   0.980   1.656  13.338 -2.4276 -0.0556  1.1944
  317MPD2    H3 4823   0.872   1.611  13.543 -0.3521 -0.0003  0.5841
  317MPD2     N 4824   1.089   1.219  13.616  0.1638 -0.0810  0.4013
  317MPD2    H5 4825   1.172   1.166  13.594 -0.6179 -0.3580 -1.9458
  317MPD2    N1 4826   1.176   1.497  13.234  0.1363  0.4674  0.0500
  317MPD2    H7 4827   1.238   1.423  13.202 -1.2570 -1.6284  2.1907
  318TMC3    C1 4828   1.055   1.026  13.745  0.6321  0.3216 -0.6189
  318TMC3    C2 4829   0.962   0.924  13.754 -0.6099 -0.0525  0.3684
  318TMC3    C3 4830   1.012   0.798  13.769  0.9620  0.2210 -0.1437
  318TMC3    C4 4831   1.189   0.995  13.758 -0.4109 -0.1801  0.8063
  318TMC3    C5 4832   1.233   0.870  13.785 -1.1367  0.1141  0.6194
  318TMC3    C6 4833   1.146   0.764  13.786  0.9132 -0.0275  0.1781
  318TMC3     C 4834   1.007   1.157  13.705 -0.7275  0.1454 -0.0277
  318TMC3     O 4835   0.891   1.183  13.725 -0.4842 -0.5019 -0.5911
  318TMC3     H 4836   0.856   0.942  13.738 -0.9132 -1.0937  1.1892
  318TMC3    H1 4837   1.258   1.077  13.772  0.9904 -1.3142  0.5281
  318TMC3    H2 4838   1.175   0.661  13.797  0.3680 -0.2935 -0.8480
  318TMC3    C7 4839   1.373   0.851  13.812 -0.0027  0.0680 -0.0345
  318TMC3    C8 4840   0.930   0.690  13.721 -0.3486  1.1497 -1.0977
  318TMC3    O1 4841   1.442   0.947  13.844 -0.4206  0.3649  0.0659
  318TMC3    O2 4842   0.954   0.576  13.768  0.3161 -1.0051  0.7969
  319MPD2     C 4843   2.021   2.655  16.048 -0.1597 -0.2298  0.0575
  319MPD2    C1 4844   1.967   2.688  16.171  0.0826  0.2299  0.1416
  319MPD2    C2 4845   1.831   2.683  16.193 -0.2570  0.4273 -0.0479
  319MPD2    C3 4846   1.746   2.646  16.094 -0.0943 -0.0395 -0.0335
  319MPD2    C4 4847   1.802   2.620  15.967  0.1190  0.2301  0.2015
  319MPD2    C5 4848   1.941   2.625  15.943  0.4820  1.2341  0.0576
  319MPD2     H 4849   1.794   2.696  16.293 -2.2508 -1.6276 -0.5226
  319MPD2    H1 4850   1.744   2.600  15.878 -0.1024  0.6203  0.2573
  319MPD2    H2 4851   2.125   2.652  16.019  0.3720 -5.1452  2.4311
  319MPD2    H3 4852   1.994   2.601  15.851  2.0842 -0.3248  1.3853
  319MPD2     N 4853   1.612   2.619  16.111  0.6428 -0.8014  0.2149
  319MPD2    H5 4854   1.557   2.602  16.027  3.3258 -0.6778 -1.5636
  319MPD2    N1 4855   2.047   2.702  16.286 -0.7960  0.5015 -0.4196
  319MPD2    H7 4856   1.997   2.723  16.372 -2.7756  1.7205 -1.8524
  320TMC3    C1 4857   1.404   2.562  16.203  0.4343 -0.3841 -0.8289
  320TMC3    C2 4858   1.343   2.653  16.121 -0.7482  0.0240  0.0076
  320TMC3    C3 4859   1.222   2.624  16.062 -0.7338 -0.0806  0.1992
  320TMC3    C4 4860   1.337   2.455  16.246  0.0670  0.5900  0.7022
  320TMC3    C5 4861   1.210   2.437  16.193 -0.2160 -0.4949  0.2183
  320TMC3    C6 4862   1.153   2.512  16.089  0.5215  1.0770  0.1631
  320TMC3     C 4863   1.544   2.593  16.229  0.1290  0.6362 -0.0820
  320TMC3     O 4864   1.586   2.594  16.343 -0.8061  0.0837  0.1529
  320TMC3     H 4865   1.386   2.749  16.094  0.8305 -1.6505 -3.5355
  320TMC3    H1 4866   1.382   2.379  16.310  2.0507  2.0407  1.0340
  320TMC3    H2 4867   1.050   2.490  16.063  1.7665 -3.9651 -0.5085
  320TMC3    C7 4868   1.154   2.307  16.223  0.0066  0.2238  0.8851
  320TMC3    C8 4869   1.168   2.721  15.964 -0.4835  0.5202 -0.1737
  320TMC3    O1 4870   1.191   2.254  16.328  0.1626  1.0212 -0.6632
  320TMC3    O2 4871   1.192   2.838  15.974  0.0090 -0.3786  0.1965
  321TMC3    C1 4872   2.264   2.712  16.401  0.9028  0.4349  0.5695
  321TMC3    C2 4873   2.209   2.715  16.527 -1.0773  0.4585  0.6783
  321TMC3    C3 4874   2.290   2.710  16.637  0.4966 -0.5207 -0.3688
  321TMC3    C4 4875   2.403   2.697  16.386  0.2213  0.8188 -0.0110
  321TMC3    C5 4876   2.478   2.689  16.505 -0.0195  0.4297 -0.4145
  321TMC3    C6 4877   2.427   2.720  16.628  0.8703 -0.0724 -0.4857
  321TMC3     C 4878   2.183   2.723  16.281 -0.2275 -0.9596 -0.9658
  321TMC3     O 4879   2.254   2.748  16.185  0.1236  0.0546 -0.1827
  321TMC3     H 4880   2.109   2.757  16.532 -1.0604  0.4913  0.7471
  321TMC3    H1 4881   2.452   2.695  16.289  0.7221 -1.3405  0.2891
  321TMC3    H2 4882   2.485   2.721  16.719  0.7634  0.6028 -0.4281
  321TMC3    C7 4883   2.570   2.586  16.519  1.1230  0.2569 -0.1921
  321TMC3    C8 4884   2.242   2.621  16.744 -0.3291 -0.6578 -0.5977
  321TMC3    O1 4885   2.592   2.550  16.637 -0.1504  0.0047  0.3783
  321TMC3    O2 4886   2.120   2.626  16.762  0.1954 -0.4138 -0.2229
  322MPD2     C 4887   0.976   3.928  12.861 -0.3906  0.2108 -0.4306
  322MPD2    C1 4888   0.946   3.845  12.966  0.3794  0.6480  0.1864
  322MPD2    C2 4889   0.971   3.705  12.965 -0.3252  0.2391  0.4603
  322MPD2    C3 4890   1.027   3.649  12.854 -0.1122 -0.0104  0.3211
  322MPD2    C4 4891   1.077   3.736  12.756  0.1514  0.1038  0.3886
  322MPD2    C5 4892   1.047   3.873  12.761  0.6729 -0.6482  0.3900
  322MPD2     H 4893   0.940   3.637  13.044 -1.5446  1.9022  1.4069
  322MPD2    H1 4894   1.116   3.705  12.660  1.0137  2.7194 -0.1105
  322MPD2    H2 4895   0.943   4.031  12.868 -2.9448 -0.5550 -1.3125
  322MPD2    H3 4896   1.091   3.935  12.684 -0.8688  1.9786  1.5925
  322MPD2     N 4897   1.058   3.510  12.870 -0.1873 -1.0595  0.1160
  322MPD2    H5 4898   1.021   3.467  12.954 -0.5243 -0.8828  0.0571
  322MPD2    N1 4899   0.898   3.908  13.078 -0.1439  0.1877  0.4081
  322MPD2    H7 4900   0.888   4.009  13.071  0.1140  0.0418 -1.9906
  323TMC3    C1 4901   0.877   3.935  13.314  0.1245 -0.1232  0.2329
  323TMC3    C2 4902   0.989   4.011  13.304 -0.0850  0.0381 -0.3655
  323TMC3    C3 4903   1.081   4.019  13.405 -0.1425 -0.5365 -0.2230
  323TMC3    C4 4904   0.842   3.876  13.427  0.8359  0.2075 -0.0126
  323TMC3    C5 4905   0.926   3.893  13.527  0.3758 -0.4358 -0.1469
  323TMC3    C6 4906   1.045   3.960  13.522  0.1339  0.1772  0.4005
  323TMC3     C 4907   0.861   3.846  13.199  0.1336 -0.3661 -0.1966
  323TMC3     O 4908   0.853   3.726  13.226  0.1759  0.2147 -0.0917
  323TMC3     H 4909   1.019   4.059  13.211  1.2079 -0.7421 -0.3562
  323TMC3    H1 4910   0.759   3.807  13.441  0.1752  1.1774  0.8887
  323TMC3    H2 4911   1.117   3.950  13.603  1.3618 -2.0058 -0.9345
  323TMC3    C7 4912   0.893   3.828  13.654  0.5291  0.2339  0.3992
  323TMC3    C8 4913   1.220   4.019  13.380  0.1634 -0.4100 -0.1163
  323TMC3    O1 4914   0.827   3.726  13.645 -0.2387 -0.3872  0.1343
  323TMC3    O2 4915   1.307   4.054  13.462 -0.0625  0.4204 -0.1969
  324MPD2     C 4916   1.965   4.645  14.582  0.2244 -0.2903 -0.0904
  324MPD2    C1 4917   2.007   4.659  14.453 -0.4728  0.3787 -0.2051
  324MPD2    C2 4918   1.918   4.643  14.352 -0.4777 -0.1593  0.1985
  324MPD2    C3 4919   1.783   4.627  14.377  0.8028 -0.5975 -0.2644
  324MPD2    C4 4920   1.733   4.630  14.503 -0.0276 -0.0187 -0.4450
  324MPD2    C5 4921   1.831   4.633  14.606  0.1192  0.4602 -0.3665
  324MPD2     H 4922   1.954   4.642  14.250 -0.7030 -0.3390  0.1199
  324MPD2    H1 4923   1.627   4.633  14.526  0.6034 -1.1164  2.5498
  324MPD2    H2 4924   2.026   4.639  14.671  0.1970  1.9382  0.0637
  324MPD2    H3 4925   1.790   4.625  14.706  2.1896 -3.9452  0.1282
  324MPD2     N 4926   1.680   4.624  14.272  0.3587 -0.5646  0.8127
  324MPD2    H5 4927   1.585   4.638  14.304  1.2749  1.0746  2.7873
  324MPD2    N1 4928   2.141   4.679  14.421  0.3693 -0.0184  0.2724
  324MPD2    H7 4929   2.165   4.695  14.323  1.5987 -1.3687  0.3439
  325TMC3    C1 4930   1.597   4.607  14.062 -0.0668  0.0910 -0.3970
  325TMC3    C2 4931   1.561   4.533  13.953 -0.3836  0.0043 -0.9143
  325TMC3    C3 4932   1.468   4.579  13.864 -0.5643 -0.1237 -0.4057
  325TMC3    C4 4933   1.548   4.735  14.090  0.2879 -0.0547  0.5180
  325TMC3    C5 4934   1.453   0.047  14.000 -0.4201 -0.5778  0.2927
  325TMC3    C6 4935   1.424   4.704  13.889 -0.2138  1.1976 -0.7305
  325TMC3     C 4936   1.710   4.575  14.146 -0.6705  0.1661 -0.1054
  325TMC3     O 4937   1.820   4.551  14.095 -0.4190 -0.2111  0.0279
  325TMC3     H 4938   1.604   4.436  13.931  0.5488 -0.0029  0.9935
  325TMC3    H1 4939   1.578   0.060  14.175  1.8120 -0.8708  0.5700
  325TMC3    H2 4940   1.358   0.010  13.814 -0.5477 -0.9163 -1.6450
  325TMC3    C7 4941   1.392   0.175  14.010 -1.0618 -0.4267 -0.0511
  325TMC3    C8 4942   1.408   4.499  13.760 -0.1101 -0.7772 -0.3994
  325TMC3    O1 4943   1.356   0.229  13.907  0.1051  0.1470  0.4566
  325TMC3    O2 4944   1.471   4.407  13.715 -0.1260  0.3483 -0.3345
  326MPD2     C 4945   3.128   1.754  10.801 -0.8742 -0.0789  0.5062
  326MPD2    C1 4946   3.199   1.643  10.770 -0.8610  0.2086 -0.5096
  326MPD2    C2 4947   3.330   1.623  10.820  0.4280 -0.0858 -1.0598
  326MPD2    C3 4948   3.386   1.723  10.893 -0.3897 -0.5445  1.0497
  326MPD2    C4 4949   3.315   1.834  10.922 -0.0994 -0.1161  0.1105
  326MPD2    C5 4950   3.184   1.846  10.885  0.5438  0.6279  0.5503
  326MPD2     H 4951   3.385   1.535  10.791  0.1945 -0.3708 -0.6279
  326MPD2    H1 4952   3.355   1.909  10.989  0.7664 -1.4082  1.0399
  326MPD2    H2 4953   3.028   1.773  10.763 -0.9963 -2.9661 -0.6102
  326MPD2    H3 4954   3.140   1.943  10.906 -1.4059  0.1474 -1.3234
  326MPD2     N 4955   3.524   1.714  10.932  0.4105 -0.1871  0.0778
  326MPD2    H5 4956   3.561   1.804  10.961 -1.7729  0.6928  0.1609
  326MPD2    N1 4957   3.154   1.540  10.687  0.1157 -0.5764  0.4492
  326MPD2    H7 4958   3.213   1.457  10.683 -0.6545 -1.0971 -0.2896
  327TMC3    C1 4959   3.031   1.429  10.524  0.4738 -0.2196 -0.6094
  327TMC3    C2 4960   2.943   1.465  10.427  0.2109  0.1286 -0.4614
  327TMC3    C3 4961   2.993   1.453  10.297 -0.1934 -1.2841  0.7885
  327TMC3    C4 4962   3.152   1.366  10.496  0.0737 -0.4335 -0.0179
  327TMC3    C5 4963   3.199   1.355  10.368  0.1353  1.0882  0.1361
  327TMC3    C6 4964   3.125   1.411  10.274  0.4505 -0.0819  0.6816
  327TMC3     C 4965   3.044   1.547  10.605  0.5837  0.3199 -0.6479
  327TMC3     O 4966   2.970   1.643  10.585 -0.1872  0.0853 -0.1035
  327TMC3     H 4967   2.853   1.519  10.453  0.7412  0.5854  0.4144
  327TMC3    H1 4968   3.195   1.306  10.575 -2.2929 -0.0993  1.5182
  327TMC3    H2 4969   3.165   1.400  10.173 -1.6673  1.0216 -0.2868
  327TMC3    C7 4970   3.344   1.364  10.356  0.1556 -0.4734  0.6173
  327TMC3    C8 4971   2.947   1.549  10.199 -0.5681  0.1723 -0.2772
  327TMC3    O1 4972   3.391   1.448  10.281 -0.2605  0.1511 -0.2053
  327TMC3    O2 4973   3.029   1.572  10.108  0.3492  0.1238 -0.1350
  328MPD2     C 4974   1.166   1.220  16.830 -0.1865  0.0355  0.1523
  328MPD2    C1 4975   1.080   1.136  16.762  0.1362  0.5040 -0.1522
  328MPD2    C2 4976   1.033   1.178  16.634  0.3021  0.3534 -0.6600
  328MPD2    C3 4977   1.057   1.315  16.593  0.4478  0.6907 -0.1726
  328MPD2    C4 4978   1.124   1.405  16.672  0.8279  0.4135  0.4633
  328MPD2    C5 4979   1.185   1.352  16.788  0.2155  0.1988  0.1414
  328MPD2     H 4980   0.966   1.118  16.573 -1.0869  0.1715  1.0443
  328MPD2    H1 4981   1.146   1.510  16.652  2.2094  0.2373  1.0569
  328MPD2    H2 4982   1.220   1.176  16.913 -1.3212  0.5715  1.1840
  328MPD2    H3 4983   1.265   1.414  16.829  0.1755 -0.7980  1.7243
  328MPD2     N 4984   0.985   1.382  16.488  0.5699 -0.3152  0.1274
  328MPD2    H5 4985   0.997   1.482  16.479  1.7249 -0.4466  0.1414
  328MPD2    N1 4986   1.046   1.018  16.830 -0.4824  0.1479 -0.1290
  328MPD2    H7 4987   1.069   1.018  16.929 -0.8232  2.3514 -0.0500
  329TMC3    C1 4988   0.929   0.809  16.874  0.7246 -0.2219  0.7757
  329TMC3    C2 4989   0.848   0.850  16.978  0.2743 -0.1261  0.1581
  329TMC3    C3 4990   0.774   0.752  17.030 -0.3170  0.3588 -0.2644
  329TMC3    C4 4991   0.934   0.682  16.817 -0.2011 -0.1965 -0.0642
  329TMC3    C5 4992   0.878   0.589  16.896 -0.2760 -0.4639  0.0505
  329TMC3    C6 4993   0.797   0.619  17.000 -0.2461  0.2184  0.3233
  329TMC3     C 4994   0.968   0.912  16.777 -0.2827  0.6309  0.0586
  329TMC3     O 4995   0.926   0.910  16.662 -0.4175  0.3797  0.0862
  329TMC3     H 4996   0.820   0.952  17.000 -4.2629 -1.0824 -1.3235
  329TMC3    H1 4997   0.994   0.665  16.728 -0.6948 -0.4346 -0.3490
  329TMC3    H2 4998   0.731   0.547  17.046 -0.7266  0.1253 -0.5168
  329TMC3    C7 4999   0.897   0.451  16.850 -0.7280  0.7623 -0.0833
  329TMC3    C8 5000   0.628   0.775  17.024  0.4734 -0.5591 -0.1453
  329TMC3    O1 5001   0.923   0.437  16.730 -0.2172  0.3275 -0.1494
  329TMC3    O2 5002   0.555   0.677  17.009  0.3570 -0.1634 -0.2055
  330TMC3    C1 5003   3.395   0.746   9.604  0.6082  0.1925 -0.1568
  330TMC3    C2 5004   3.384   0.610   9.622  0.1323 -0.1999 -0.5324
  330TMC3    C3 5005   3.478   0.550   9.702 -0.2445 -0.2489  0.4986
  330TMC3    C4 5006   3.478   0.826   9.661 -0.1751  0.4366  0.0979
  330TMC3    C5 5007   3.575   0.755   9.731  0.6831 -0.3162  0.4180
  330TMC3    C6 5008   3.578   0.620   9.757  0.3208  0.1123  0.1665
  330TMC3     C 5009   3.296   0.812   9.517 -0.0557  1.0785  0.0900
  330TMC3     O 5010   3.277   0.762   9.407 -0.1516  0.0678 -0.1773
  330TMC3     H 5011   3.303   0.563   9.568  0.2849 -0.2897 -0.6803
  330TMC3    H1 5012   3.473   0.934   9.656  0.5026  0.3536 -2.4000
  330TMC3    H2 5013   3.656   0.572   9.815 -1.5745  0.3452  2.9044
  330TMC3    C7 5014   3.679   0.822   9.795  0.1340  0.5886  0.5618
  330TMC3    C8 5015   3.472   0.415   9.747  0.0578  0.3082  0.4015
  330TMC3    O1 5016   3.701   0.795   9.911  0.3058 -0.0716 -0.1877
  330TMC3    O2 5017   3.576   0.372   9.800 -0.1869  0.2128  0.1074
  331MPD2     C 5018   2.579   4.669  12.449  0.5880  0.1594  0.5290
  331MPD2    C1 5019   2.445   4.659  12.475 -0.1157  0.6289 -0.5478
  331MPD2    C2 5020   2.380   4.530  12.471  0.5360 -0.1219  0.3132
  331MPD2    C3 5021   2.456   4.416  12.443  0.4322  0.2558 -1.0123
  331MPD2    C4 5022   2.592   4.431  12.433 -0.5566 -0.0031 -0.1485
  331MPD2    C5 5023   2.653   4.553  12.438  0.0788  0.7534 -0.0548
  331MPD2     H 5024   2.276   4.514  12.496  0.4235 -0.2333 -0.2301
  331MPD2    H1 5025   2.660   4.347  12.425  2.2003  2.0161  1.9174
  331MPD2    H2 5026   2.624   0.030  12.448 -2.6987  1.6866  1.1926
  331MPD2    H3 5027   2.761   4.563  12.435  0.1626  0.2128  0.8627
  331MPD2     N 5028   2.396   4.297  12.419 -0.2242 -0.0294 -0.3710
  331MPD2    H5 5029   2.296   4.297  12.437 -0.6131 -1.3813 -2.4656
  331MPD2    N1 5030   2.375   0.039  12.484  1.1988 -0.0119 -0.2724
  331MPD2    H7 5031   2.433   0.121  12.465 -0.6789  1.5558  0.7587
  332TMC3    C1 5032   2.359   4.084  12.333 -0.3234  0.1054 -0.3820
  332TMC3    C2 5033   2.293   4.114  12.213  0.1485  0.0702 -0.3334
  332TMC3    C3 5034   2.251   4.007  12.130  0.2072 -0.0369  0.1929
  332TMC3    C4 5035   2.401   3.957  12.353 -0.7605 -0.2974 -0.6237
  332TMC3    C5 5036   2.363   3.859  12.265 -0.0656 -0.5894 -0.1806
  332TMC3    C6 5037   2.293   3.878  12.158  0.5030  0.4003 -0.1411
  332TMC3     C 5038   2.454   4.177  12.375 -0.6403  0.7181  1.1174
  332TMC3     O 5039   2.571   4.145  12.364 -0.2437  0.5479  0.0112
  332TMC3     H 5040   2.262   4.214  12.186  1.5430  1.1526  2.0946
  332TMC3    H1 5041   2.461   3.945  12.443 -0.3806  2.1791 -0.5326
  332TMC3    H2 5042   2.271   3.793  12.095  1.0266 -0.0478  0.2757
  332TMC3    C7 5043   2.418   3.724  12.284  0.5556 -0.5495  0.0533
  332TMC3    C8 5044   2.191   4.042  12.004  0.5162 -0.0743 -1.0945
  332TMC3    O1 5045   2.375   3.629  12.221 -0.3783 -0.4996 -0.2407
  332TMC3    O2 5046   2.194   4.165  11.999  0.4142 -0.1210  0.5664
  333MPD2     C 5047   1.703   4.405  10.718  0.1002  0.2296  0.3335
  333MPD2    C1 5048   1.786   4.303  10.692  0.9429 -0.5080  0.1033
  333MPD2    C2 5049   1.806   4.206  10.787  1.8715  0.0121  0.2352
  333MPD2    C3 5050   1.753   4.217  10.910 -0.3960  0.2129  0.4707
  333MPD2    C4 5051   1.676   4.327  10.938  0.1104  0.9879  0.0246
  333MPD2    C5 5052   1.648   4.419  10.841 -0.8350 -0.4250  0.1153
  333MPD2     H 5053   1.879   4.128  10.767  2.2746  0.1576  1.1472
  333MPD2    H1 5054   1.631   4.339  11.036 -3.0338  1.2046 -1.4459
  333MPD2    H2 5055   1.698   4.491  10.652  1.8418  1.2480  1.5128
  333MPD2    H3 5056   1.586   4.507  10.859 -0.3740 -0.3685  1.4253
  333MPD2     N 5057   1.762   4.101  10.996 -0.5211 -0.0189  0.4033
  333MPD2    H5 5058   1.817   4.031  10.947 -1.1519 -0.4383  0.2976
  333MPD2    N1 5059   1.835   4.312  10.555  0.0797 -0.0421  0.5144
  333MPD2    H7 5060   1.811   4.394  10.499 -1.7012 -0.3152  0.8749
  334TMC3    C1 5061   1.934   4.237  10.358 -0.2947  0.4245 -0.8289
  334TMC3    C2 5062   2.012   4.139  10.301 -0.7013 -0.5855  0.2095
  334TMC3    C3 5063   2.089   4.179  10.198  0.5803  0.7961  0.7536
  334TMC3    C4 5064   1.943   4.369  10.311 -0.2341  0.0203  0.4594
  334TMC3    C5 5065   2.023   4.399  10.206 -0.3487 -0.3455 -0.0606
  334TMC3    C6 5066   2.105   4.303  10.145 -0.0965  0.0576  0.3483
  334TMC3     C 5067   1.907   4.210  10.497 -0.4942  0.1458 -0.2057
  334TMC3     O 5068   1.936   4.105  10.555  0.4327  0.9133 -0.0643
  334TMC3     H 5069   2.015   4.038  10.340 -0.0122 -0.6278  0.0429
  334TMC3    H1 5070   1.881   4.446  10.354  3.3501  1.6669  2.6501
  334TMC3    H2 5071   2.168   4.325  10.060  0.2624  2.8739  1.3407
  334TMC3    C7 5072   2.077   4.535  10.202 -0.0758  0.4248 -0.0496
  334TMC3    C8 5073   2.202   4.101  10.184  0.6219  0.0689  0.3713
  334TMC3    O1 5074   2.057   4.613  10.294  0.3503  0.3686 -0.0101
  334TMC3    O2 5075   2.189   3.981  10.192 -0.0683  0.3576  0.2491
  335TMC3    C1 5076   1.664   1.436  17.092 -0.3775  0.3166 -0.9511
  335TMC3    C2 5077   1.601   1.319  17.068 -0.6532 -0.6156 -0.5181
  335TMC3    C3 5078   1.600   1.288  16.939 -0.6897  0.2995 -0.9876
  335TMC3    C4 5079   1.715   1.522  16.999 -0.5614 -0.1141  0.1896
  335TMC3    C5 5080   1.708   1.481  16.871  0.0338 -0.6498 -0.2117
  335TMC3    C6 5081   1.655   1.362  16.841 -0.2646 -0.0976 -0.0062
  335TMC3     C 5082   1.702   1.472  17.230  0.2496  0.5980  0.2384
  335TMC3     O 5083   1.721   1.591  17.250  0.5662 -0.1130 -0.6991
  335TMC3     H 5084   1.548   1.257  17.140  2.1557  1.1317  3.0573
  335TMC3    H1 5085   1.781   1.601  17.033  1.9625 -2.4662  0.8136
  335TMC3    H2 5086   1.667   1.328  16.739  1.3983  0.4469  0.0075
  335TMC3    C7 5087   1.788   1.537  16.765  0.3930  0.8734 -0.1673
  335TMC3    C8 5088   1.531   1.163  16.911 -0.2354  0.1632  0.3305
  335TMC3    O1 5089   1.804   1.478  16.657 -0.0663  0.5037  0.1166
  335TMC3    O2 5090   1.507   1.081  17.001  1.2208 -0.3967 -0.0843
  336MPD2     C 5091   1.413   3.838  15.799 -0.2024  0.6587  0.2389
  336MPD2    C1 5092   1.343   3.751  15.715 -0.0280 -0.1418 -0.0470
  336MPD2    C2 5093   1.338   3.612  15.750  0.0271  0.2585  1.5511
  336MPD2    C3 5094   1.405   3.566  15.860 -0.4191 -0.3393  0.5318
  336MPD2    C4 5095   1.462   3.657  15.945 -0.3122  0.6432  0.5716
  336MPD2    C5 5096   1.473   3.795  15.917 -0.0403  0.7456  0.2444
  336MPD2     H 5097   1.284   3.539  15.691 -0.9515 -0.0135  2.7950
  336MPD2    H1 5098   1.511   3.631  16.038  0.3673  2.7630  0.8166
  336MPD2    H2 5099   1.428   3.941  15.769  0.4684  0.7505  0.8805
  336MPD2    H3 5100   1.524   3.869  15.977  0.9950  1.1596 -1.1527
  336MPD2     N 5101   1.410   3.431  15.900  0.5563 -0.3909 -0.1173
  336MPD2    H5 5102   1.450   3.420  15.993 -1.7112 -0.8518  0.8139
  336MPD2    N1 5103   1.295   3.791  15.591  0.9121  0.2901  0.5648
  336MPD2    H7 5104   1.253   3.713  15.541  0.1900 -0.4854  2.3592
  337TMC3    C1 5105   1.196   3.923  15.421  1.1232 -0.1037  0.4174
  337TMC3    C2 5106   1.114   3.818  15.391  0.5565 -0.7541  0.2643
  337TMC3    C3 5107   1.033   3.828  15.279 -0.7094 -0.1260 -0.0998
  337TMC3    C4 5108   1.202   4.036  15.347 -0.1207  0.1580 -0.6063
  337TMC3    C5 5109   1.135   4.038  15.225  0.0944  0.9681 -0.3293
  337TMC3    C6 5110   1.044   3.938  15.193  0.0511 -0.1370 -0.5300
  337TMC3     C 5111   1.281   3.919  15.538  0.4651 -0.1905 -0.0014
  337TMC3     O 5112   1.337   4.024  15.566 -0.0254 -1.0274 -0.3772
  337TMC3     H 5113   1.079   3.737  15.454 -0.2030 -1.7587 -1.4247
  337TMC3    H1 5114   1.274   4.113  15.372 -0.1008 -0.5453  1.4996
  337TMC3    H2 5115   0.983   3.962  15.106 -0.4253 -1.7888 -0.6468
  337TMC3    C7 5116   1.163   4.135  15.125  0.7544  0.5650 -0.6215
  337TMC3    C8 5117   0.913   3.751  15.287  0.5795  0.0840  0.3390
  337TMC3    O1 5118   1.223   4.233  15.167 -0.0814 -0.1738  0.1346
  337TMC3    O2 5119   0.914   3.656  15.365 -0.2574 -0.1364 -0.0891
  338MPD2     C 5120   1.707   2.571   0.594  0.2701  0.3426  0.3063
  338MPD2    C1 5121   1.661   2.688   0.543 -0.4643 -0.2094  0.5091
  338MPD2    C2 5122   1.524   2.696   0.516 -0.4033  0.3475 -0.5321
  338MPD2    C3 5123   1.434   2.591   0.537  0.3358  0.3075 -0.7727
  338MPD2    C4 5124   1.490   2.475   0.588  0.4996  0.0580 -1.1673
  338MPD2    C5 5125   1.622   2.467   0.611  0.0485 -0.2649 -0.5916
  338MPD2     H 5126   1.481   2.792   0.489  1.3379  1.7182  1.6144
  338MPD2    H1 5127   1.432   2.389   0.621 -0.9472 -0.0957 -4.1088
  338MPD2    H2 5128   1.808   2.556   0.630  0.6950  0.7696 -0.7278
  338MPD2    H3 5129   1.650   2.367   0.643  1.4897  0.0907 -0.7373
  338MPD2     N 5130   1.299   2.605   0.516  0.3429  0.0412  0.1842
  338MPD2    H5 5131   1.271   2.700   0.491  1.6171  0.1768 -0.7275
  338MPD2    N1 5132   1.743   2.800   0.497  0.2839  0.2281  0.0359
  338MPD2    H7 5133   1.688   2.876   0.460 -0.2569  0.6048  1.6163
  339TMC3    C1 5134   1.065   2.565   0.529  0.3409 -0.0427 -0.7302
  339TMC3    C2 5135   0.989   2.525   0.635  0.1400 -0.3083  0.2867
  339TMC3    C3 5136   0.886   2.610   0.666  0.6352  0.2213  0.6371
  339TMC3    C4 5137   1.036   2.665   0.439  0.6487 -0.4149 -0.7138
  339TMC3    C5 5138   0.921   2.741   0.470 -0.1335 -0.8147  0.5852
  339TMC3    C6 5139   0.846   2.708   0.580 -0.0161  0.2032 -0.4660
  339TMC3     C 5140   1.203   2.510   0.537  0.6342  0.4409 -0.8044
  339TMC3     O 5141   1.221   2.394   0.577  0.2044 -0.3087  0.1335
  339TMC3     H 5142   1.034   2.452   0.702  0.5265  0.8706  1.3201
  339TMC3    H1 5143   1.093   2.692   0.351  0.5653  1.3844 -0.2185
  339TMC3    H2 5144   0.762   2.767   0.614 -0.7331 -0.6611 -0.7670
  339TMC3    C7 5145   0.867   2.825   0.369  0.0980 -0.8486 -0.5534
  339TMC3    C8 5146   0.799   2.579   0.777  0.3935  0.1224  0.5641
  339TMC3    O1 5147   0.944   2.849   0.278  0.7978 -0.1362 -0.3307
  339TMC3    O2 5148   0.710   2.658   0.801  0.3544 -0.0982  0.6663
  340MPD2     C 5149   1.246   2.190   9.715 -0.3780  0.9851 -0.4868
  340MPD2    C1 5150   1.308   2.077   9.764 -0.4003 -0.1516 -0.1807
  340MPD2    C2 5151   1.368   2.080   9.890 -0.0390  0.3430  0.2667
  340MPD2    C3 5152   1.386   2.202   9.953  0.3731  0.1944  0.3632
  340MPD2    C4 5153   1.326   2.315   9.900  0.4786  0.4323 -0.1783
  340MPD2    C5 5154   1.262   2.305   9.780 -0.3038 -0.2712 -0.0662
  340MPD2     H 5155   1.407   1.985   9.926  1.2314  1.2631  1.3234
  340MPD2    H1 5156   1.348   2.412   9.941  2.8062 -0.2198  0.1113
  340MPD2    H2 5157   1.192   2.192   9.621 -1.9187  1.5258  0.4217
  340MPD2    H3 5158   1.198   2.387   9.750 -0.9737 -0.7102  0.1441
  340MPD2     N 5159   1.452   2.220  10.076  0.8116 -0.3067  0.6928
  340MPD2    H5 5160   1.425   2.304  10.126 -2.1486 -0.6138 -0.4118
  340MPD2    N1 5161   1.299   1.961   9.688  0.0757  0.0890  0.3669
  340MPD2    H7 5162   1.255   1.967   9.597  2.4385 -0.3061 -0.7889
  341TMC3    C1 5163   1.305   1.749   9.605 -0.4501  0.7551  0.5695
  341TMC3    C2 5164   1.223   1.637   9.629 -0.0459  0.1052  0.1902
  341TMC3    C3 5165   1.161   1.585   9.514  0.2498  0.4609  0.2612
  341TMC3    C4 5166   1.318   1.798   9.479 -0.2936 -0.2557 -0.3432
  341TMC3    C5 5167   1.259   1.743   9.370 -0.1740  0.4688 -0.1311
  341TMC3    C6 5168   1.183   1.625   9.384  0.3316  0.1652 -0.1981
  341TMC3     C 5169   1.353   1.835   9.713  0.7762  0.2567 -0.4554
  341TMC3     O 5170   1.386   1.787   9.815 -0.0299  0.6504 -0.2302
  341TMC3     H 5171   1.189   1.606   9.727 -1.5583  2.7802  0.5085
  341TMC3    H1 5172   1.368   1.893   9.468  2.2778 -1.4103  1.2428
  341TMC3    H2 5173   1.155   1.562   9.300  1.3094 -1.0333  0.3827
  341TMC3    C7 5174   1.317   1.762   9.237 -0.2434  0.3614 -1.2733
  341TMC3    C8 5175   1.115   1.451   9.539  0.2249  0.6583  0.3027
  341TMC3    O1 5176   1.428   1.815   9.237  0.3739 -0.0964 -0.1840
  341TMC3    O2 5177   1.167   1.380   9.624 -0.2288  0.5374 -0.3274
  342MPD2     C 5178   4.469   4.135  17.521 -0.4380  0.4640  0.6079
  342MPD2    C1 5179   4.510   4.191  17.404 -0.3040 -0.1799 -0.0821
  342MPD2    C2 5180   4.545   4.327  17.410 -0.8162  0.4362  0.2663
  342MPD2    C3 5181   4.548   4.396  17.528 -0.2537  0.2588  0.0593
  342MPD2    C4 5182   4.503   4.339  17.642  0.8272  0.0239  0.4428
  342MPD2    C5 5183   4.476   4.206  17.634  0.0420  0.0804  0.0339
  342MPD2     H 5184   4.562   4.385  17.320  1.0814 -1.2247 -0.4451
  342MPD2    H1 5185   4.491   4.392  17.736 -0.5697  2.5833 -1.1780
  342MPD2    H2 5186   4.448   4.028  17.530  2.7133 -0.2478 -0.6316
  342MPD2    H3 5187   4.462   4.157  17.730 -0.5396 -0.2542 -0.2227
  342MPD2     N 5188   4.583   4.536  17.528  0.0238 -0.0983  0.2836
  342MPD2    H5 5189   4.563   4.585  17.615  1.0864 -0.8548  0.9517
  342MPD2    N1 5190   4.526   4.125  17.282  0.0162 -0.2440 -0.6061
  342MPD2    H7 5191   4.565   4.180  17.207 -2.5205  0.1619 -1.6131
  343TMC3    C1 5192   4.506   3.944  17.134 -0.1242 -0.6028 -0.3730
  343TMC3    C2 5193   4.624   3.980  17.071 -0.0087  0.2400 -0.4341
  343TMC3    C3 5194   4.674   3.884  16.984 -0.0197 -0.3157 -0.2940
  343TMC3    C4 5195   4.442   3.826  17.113 -0.2040 -0.2712 -0.3864
  343TMC3    C5 5196   4.511   3.728  17.046  0.1246 -0.4611 -0.2440
  343TMC3    C6 5197   4.619   3.758  16.972 -0.1566 -1.0211  0.7190
  343TMC3     C 5198   4.473   4.000  17.257 -0.4883 -0.3459 -0.0520
  343TMC3     O 5199   4.434   3.922  17.342  0.2655 -0.2302 -0.3965
  343TMC3     H 5200   4.682   4.070  17.092 -0.1373  0.5260 -1.3060
  343TMC3    H1 5201   4.347   3.807  17.161 -0.0260  0.5114  0.2913
  343TMC3    H2 5202   4.656   3.702  16.886 -1.6770 -1.0155  0.0717
  343TMC3    C7 5203   4.458   3.594  17.068  0.4976 -0.6678 -0.4800
  343TMC3    C8 5204   0.055   3.920  16.901  0.2710 -0.0374  0.3884
  343TMC3    O1 5205   4.349   3.587  17.124 -0.0347 -0.4657  0.3039
  343TMC3    O2 5206   0.083   4.040  16.890 -0.5148 -0.5718 -0.1427
  344MPD2     C 5207   0.735   2.948  10.732  0.4368 -0.0817 -0.0878
  344MPD2    C1 5208   0.673   2.990  10.846  0.5140  1.1381  0.1730
  344MPD2    C2 5209   0.732   3.100  10.911 -0.1547  0.2880  0.3948
  344MPD2    C3 5210   0.841   3.165  10.864 -0.9715  0.5913  0.4226
  344MPD2    C4 5211   0.898   3.124  10.749  0.5414  0.0156  0.4105
  344MPD2    C5 5212   0.845   3.016  10.683  0.2254  0.4359 -0.6893
  344MPD2     H 5213   0.681   3.128  11.002 -0.6452 -1.6465  0.7012
  344MPD2    H1 5214   0.981   3.172  10.700  2.3710  0.1152  3.6202
  344MPD2    H2 5215   0.704   2.865  10.669  0.4516 -2.1356  2.6257
  344MPD2    H3 5216   0.890   2.989  10.587 -0.4896  0.4003 -1.0143
  344MPD2     N 5217   0.888   3.274  10.943  0.9771  0.2378 -0.1611
  344MPD2    H5 5218   0.838   3.303  11.027  0.0819 -0.3817 -0.4845
  344MPD2    N1 5219   0.548   2.927  10.891  0.2407 -0.4178  0.5046
  344MPD2    H7 5220   0.516   2.963  10.981 -2.2328  0.7196 -0.8588
  345TMC3    C1 5221   1.005   3.483  10.975  0.5137 -0.2807  0.7482
  345TMC3    C2 5222   0.883   3.543  11.006  0.0415 -0.4956  0.4033
  345TMC3    C3 5223   0.869   3.673  10.987 -0.2404 -1.1656 -0.3623
  345TMC3    C4 5224   1.106   3.556  10.933 -0.8871  0.2810  0.1460
  345TMC3    C5 5225   1.094   3.696  10.917  0.3105 -0.0365 -1.0696
  345TMC3    C6 5226   0.973   3.750  10.946 -0.0045  0.2607  0.2933
  345TMC3     C 5227   0.996   3.347  10.910  0.0822  0.4438  0.6851
  345TMC3     O 5228   1.092   3.316  10.841  0.2897  0.9073  0.0974
  345TMC3     H 5229   0.797   3.481  11.028  0.8157 -1.2557  1.2896
  345TMC3    H1 5230   1.198   3.499  10.922 -0.6412  0.9623 -1.3160
  345TMC3    H2 5231   0.953   3.856  10.936 -0.6974  0.0993 -0.0154
  345TMC3    C7 5232   1.181   3.766  10.818  0.0267 -0.1726 -0.9177
  345TMC3    C8 5233   0.739   3.735  11.000  1.0163  0.0982 -0.3703
  345TMC3    O1 5234   1.170   3.890  10.811  0.3006  0.5738 -0.3052
  345TMC3    O2 5235   0.669   3.692  11.087 -0.2163 -0.2867 -0.6683
  346MPD2     C 5236   0.475   0.238  14.456 -0.3688  0.0057  0.3849
  346MPD2    C1 5237   0.591   0.255  14.383  0.6102  0.4877  0.1984
  346MPD2    C2 5238   0.707   0.312  14.448 -0.6411 -0.1889  0.1070
  346MPD2    C3 5239   0.703   0.336  14.583 -0.2779  0.1231 -0.7258
  346MPD2    C4 5240   0.582   0.313  14.652  0.6175  0.5655  0.5231
  346MPD2    C5 5241   0.470   0.267  14.587  0.3036  0.3838 -0.0295
  346MPD2     H 5242   0.795   0.345  14.395 -1.6760 -0.3978 -1.7301
  346MPD2    H1 5243   0.566   0.350  14.753  1.8401 -1.9423  1.6246
  346MPD2    H2 5244   0.389   0.187  14.414 -0.9135 -1.4793  3.3161
  346MPD2    H3 5245   0.379   0.260  14.646  1.5156  0.8623  1.8847
  346MPD2     N 5246   0.817   0.386  14.646 -0.3147 -0.2976 -0.3634
  346MPD2    H5 5247   0.895   0.394  14.581  2.0193  0.0614  2.4762
  346MPD2    N1 5248   0.606   0.224  14.248  0.2218  0.0179  0.4736
  346MPD2    H7 5249   0.697   0.220  14.204 -0.3403 -1.9525 -0.5184
  347TMC3    C1 5250   0.984   0.407  14.812  1.0926 -0.1247  0.6446
  347TMC3    C2 5251   1.069   0.457  14.716  0.6423  0.3045  0.1456
  347TMC3    C3 5252   1.201   0.440  14.728  0.0193 -1.0423  0.5591
  347TMC3    C4 5253   1.035   0.342  14.925 -0.2020  0.1298 -0.1434
  347TMC3    C5 5254   1.169   0.326  14.937  0.1148 -0.3954 -0.0607
  347TMC3    C6 5255   1.249   0.361  14.828  0.0144 -0.1723 -0.6913
  347TMC3     C 5256   0.840   0.397  14.784  0.5495  0.3604  0.8911
  347TMC3     O 5257   0.769   0.390  14.882  0.1454 -0.0019 -0.7659
  347TMC3     H 5258   1.021   0.520  14.642 -1.3643 -2.0095 -0.5062
  347TMC3    H1 5259   0.963   0.329  15.005 -0.7143 -3.4795 -1.1899
  347TMC3    H2 5260   1.355   0.338  14.828 -0.7694 -3.6731  0.4470
  347TMC3    C7 5261   1.222   0.261  15.057  0.2649  0.2837  0.0973
  347TMC3    C8 5262   1.277   0.418  14.603 -0.3362 -0.1873  0.6474
  347TMC3    O1 5263   1.143   0.196  15.116  0.4509  0.1756  0.4829
  347TMC3    O2 5264   1.331   0.306  14.605 -0.1150 -0.3852 -0.4299
  348MPD2     C 5265   4.228   0.089  12.112 -0.0925  0.3751 -0.1391
  348MPD2    C1 5266   4.294   0.204  12.067 -0.3397  0.1413  0.7927
  348MPD2    C2 5267   4.220   0.299  11.995  0.0448  0.2092 -0.4273
  348MPD2    C3 5268   4.100   0.257  11.938  0.0162  0.8780  0.1329
  348MPD2    C4 5269   4.039   0.140  11.986  0.7269 -0.7836  0.1014
  348MPD2    C5 5270   4.101   0.060  12.076 -0.0060 -0.3807  0.2641
  348MPD2     H 5271   4.270   0.384  11.951 -0.4743  1.5996  1.6684
  348MPD2    H1 5272   3.942   0.098  11.964  1.0790 -1.3539 -0.3840
  348MPD2    H2 5273   4.277   0.022  12.182 -0.2523  0.5023  0.0951
  348MPD2    H3 5274   4.054   4.711  12.124 -0.7469 -0.3599 -0.4192
  348MPD2     N 5275   4.041   0.332  11.840  0.2190  0.0953 -0.0786
  348MPD2    H5 5276   4.076   0.426  11.824 -0.9439  0.3902 -0.9026
  348MPD2    N1 5277   4.429   0.232  12.107  0.0862 -0.1218 -0.0951
  348MPD2    H7 5278   4.476   0.310  12.063 -0.8986  0.3677 -0.2760
  349TMC3    C1 5279   4.645   0.134  12.139 -0.0838 -0.1792  0.4150
  349TMC3    C2 5280   4.689   0.011  12.178  0.1796  0.5449  0.5004
  349TMC3    C3 5281   4.715   4.652  12.086  0.4909 -0.3606 -0.3007
  349TMC3    C4 5282   4.659   0.175  12.012 -0.0382  0.7415  0.6081
  349TMC3    C5 5283   4.664   0.077  11.921 -0.4902  0.4051  0.0404
  349TMC3    C6 5284   4.692   4.681  11.952  0.1778 -1.0633  0.6270
  349TMC3     C 5285   4.508   0.149  12.190  1.0656 -0.3570 -0.0894
  349TMC3     O 5286   4.481   0.058  12.269 -0.2607 -0.1872 -0.1388
  349TMC3     H 5287   4.715   4.732  12.282 -0.6300 -0.6270  0.5208
  349TMC3    H1 5288   4.644   0.278  11.983 -1.9062  0.4598  0.5766
  349TMC3    H2 5289   4.688   4.602  11.878 -1.4201 -0.6269  0.2444
  349TMC3    C7 5290   4.585   0.105  11.801  0.0675  0.5232 -0.2785
  349TMC3    C8 5291   0.023   4.518  12.120 -0.1869  0.2587 -0.1261
  349TMC3    O1 5292   4.522   0.012  11.750  0.4857  0.5581  0.1588
  349TMC3    O2 5293   4.716   4.465  12.223 -0.2315 -0.4517 -0.3772
  350MPD2     C 5294   3.115   3.290  10.266 -0.1122  0.1436 -0.2376
  350MPD2    C1 5295   3.185   3.172  10.250  0.3041 -0.4689  0.2921
  350MPD2    C2 5296   3.323   3.190  10.219  0.3100  0.4104  0.2618
  350MPD2    C3 5297   3.383   3.314  10.208  0.8974 -0.2338  0.0359
  350MPD2    C4 5298   3.304   3.425  10.214  0.3061  0.0233  0.3313
  350MPD2    C5 5299   3.175   3.411  10.232 -0.4487 -0.0525 -0.1633
  350MPD2     H 5300   3.381   3.098  10.226 -0.4525 -0.3558 -3.3029
  350MPD2    H1 5301   3.343   3.522  10.185  0.4220  0.1900  1.0522
  350MPD2    H2 5302   3.010   3.288  10.291  0.0205  1.8867  0.4846
  350MPD2    H3 5303   3.108   3.495  10.228 -0.3467  0.0238 -0.2531
  350MPD2     N 5304   3.525   3.311  10.199  1.0593  0.5364  0.3779
  350MPD2    H5 5305   3.573   3.222  10.187  0.4120 -0.0448  2.2028
  350MPD2    N1 5306   3.128   3.050  10.290  0.1991  0.4335 -0.3047
  350MPD2    H7 5307   3.177   2.966  10.261 -2.6413 -0.7532 -1.6610
  351TMC3    C1 5308   2.963   2.895  10.330 -0.1289  0.1269  0.4830
  351TMC3    C2 5309   3.012   2.824  10.225 -0.0691  0.2790  0.3165
  351TMC3    C3 5310   2.945   2.705  10.199  0.1017  0.0574  0.4302
  351TMC3    C4 5311   2.856   2.859  10.411  0.8225 -0.8494 -0.6671
  351TMC3    C5 5312   2.810   2.734  10.393 -0.4141 -0.1213 -0.2386
  351TMC3    C6 5313   2.860   2.655  10.287 -0.3075  0.9108 -0.1982
  351TMC3     C 5314   3.000   3.032  10.342  0.2367  0.3789 -1.1110
  351TMC3     O 5315   2.927   3.119  10.392 -0.4538 -0.3188 -0.6432
  351TMC3     H 5316   3.074   2.867  10.147 -0.3175  1.0398  0.5424
  351TMC3    H1 5317   2.836   2.917  10.501 -1.4326  1.1651 -2.4605
  351TMC3    H2 5318   2.811   2.562  10.261 -1.7475  0.8021  2.9265
  351TMC3    C7 5319   2.737   2.680  10.504  0.4127 -0.6454  0.6672
  351TMC3    C8 5320   2.981   2.610  10.094  0.0065 -0.8654 -0.3487
  351TMC3    O1 5321   2.686   2.759  10.582 -0.2034  0.0707  0.1388
  351TMC3    O2 5322   2.903   2.525  10.062 -0.6423 -0.2932  0.0150
  352MPD2     C 5323   1.623   0.288   0.698  1.0628  0.9115  0.6627
  352MPD2    C1 5324   1.615   0.159   0.740  0.0462  0.4864 -0.3136
  352MPD2    C2 5325   1.734   0.094   0.760 -0.2896 -0.3545 -0.6585
  352MPD2    C3 5326   1.849   0.155   0.723 -0.7565  0.1239 -0.5328
  352MPD2    C4 5327   1.849   0.278   0.662  0.2805 -0.0272 -0.0317
  352MPD2    C5 5328   1.735   0.345   0.656 -0.7998 -0.1501  0.4203
  352MPD2     H 5329   1.723   4.731   0.802 -1.4086 -0.0242 -0.1867
  352MPD2    H1 5330   1.943   0.309   0.618 -0.2624  0.9366 -0.5064
  352MPD2    H2 5331   1.534   0.347   0.679  1.9883  2.5407  1.3907
  352MPD2    H3 5332   1.733   0.445   0.614 -1.6131 -0.5252 -0.4134
  352MPD2     N 5333   1.983   0.095   0.727 -0.3196  0.1186  0.4722
  352MPD2    H5 5334   2.065   0.139   0.688 -0.4075 -0.1503 -0.0215
  352MPD2    N1 5335   1.485   0.109   0.770  0.4637 -0.0428  0.5010
  352MPD2    H7 5336   1.411   0.175   0.748 -0.3509 -0.7548  1.1105
  353TMC3    C1 5337   2.148   4.659   0.762 -0.0656 -0.4495  0.0200
  353TMC3    C2 5338   2.206   4.590   0.861 -0.3137 -0.7679  0.4191
  353TMC3    C3 5339   2.290   4.493   0.828  0.4567  0.4921  0.0708
  353TMC3    C4 5340   2.170   4.632   0.629 -0.3172  0.3329  0.3624
  353TMC3    C5 5341   2.245   4.520   0.600 -0.0154  0.3571 -0.8008
  353TMC3    C6 5342   2.315   4.452   0.698  0.2501 -0.1009 -0.0782
  353TMC3     C 5343   2.011   4.710   0.788  0.9250  0.5988  0.5746
  353TMC3     O 5344   1.946   4.652   0.871 -0.2662 -0.5548 -0.0612
  353TMC3     H 5345   2.187   4.621   0.963 -0.4850 -0.0563  0.1694
  353TMC3    H1 5346   2.123   4.684   0.547  1.2595 -2.1598 -2.1308
  353TMC3    H2 5347   2.387   4.382   0.657  1.8084  2.4149 -1.6599
  353TMC3    C7 5348   2.184   4.425   0.513 -0.1023  0.1918  0.4083
  353TMC3    C8 5349   2.323   4.405   0.931 -0.1491 -0.4169 -0.1963
  353TMC3    O1 5350   2.188   4.308   0.549 -0.2757  0.2428 -0.3064
  353TMC3    O2 5351   2.300   4.436   1.051  0.4910  0.1932  0.0105
  354TMC3    C1 5352   3.515   0.903  13.338  0.4718 -0.0283 -0.0911
  354TMC3    C2 5353   3.422   0.988  13.292  0.3279  0.5029 -0.1952
  354TMC3    C3 5354   3.448   1.054  13.173  0.3367 -0.2442  0.1058
  354TMC3    C4 5355   3.620   0.871  13.250 -0.7470 -0.0389  0.8735
  354TMC3    C5 5356   3.634   0.932  13.129  0.4612  0.0145 -0.3274
  354TMC3    C6 5357   3.550   1.024  13.085 -0.7433 -0.1893  0.1789
  354TMC3     C 5358   3.488   0.845  13.471  1.2329 -0.1971 -1.4476
  354TMC3     O 5359   3.373   0.859  13.516  0.5207 -0.2005 -0.6126
  354TMC3     H 5360   3.336   1.016  13.352 -0.2338  0.1303 -0.8378
  354TMC3    H1 5361   3.693   0.798  13.281  1.7448  1.7169 -0.8328
  354TMC3    H2 5362   3.556   1.063  12.984  0.5913  0.9055  0.6862
  354TMC3    C7 5363   3.756   0.903  13.053  0.5199  0.1194 -0.5067
  354TMC3    C8 5364   3.346   1.152  13.143 -0.3036  0.1855  0.0395
  354TMC3    O1 5365   3.816   0.800  13.075 -0.1265 -0.2880  0.2755
  354TMC3    O2 5366   3.246   1.151  13.210 -0.1970  0.3413 -0.2463
  355MPD2     C 5367   3.665   2.574  11.857  0.5804 -0.0841  0.6210
  355MPD2    C1 5368   3.740   2.503  11.771  0.0508 -0.0401 -0.2946
  355MPD2    C2 5369   3.760   2.367  11.802 -0.2794 -0.1567 -0.1768
  355MPD2    C3 5370   3.711   2.315  11.922  0.9585 -0.4105  0.3577
  355MPD2    C4 5371   3.629   2.392  12.001  0.9335 -0.3222 -0.1653
  355MPD2    C5 5372   3.609   2.526  11.970  0.9050 -0.4746  0.0775
  355MPD2     H 5373   3.838   2.319  11.744 -1.1180 -1.0317 -0.5885
  355MPD2    H1 5374   3.579   2.353  12.089  1.3547 -0.6083 -0.0532
  355MPD2    H2 5375   3.647   2.678  11.832 -0.3748 -0.0541  1.4281
  355MPD2    H3 5376   3.546   2.581  12.040 -0.7768 -1.2431 -0.8221
  355MPD2     N 5377   3.744   2.184  11.965  0.0249  0.3501  0.8932
  355MPD2    H5 5378   3.721   2.167  12.063  0.0502  1.5365  1.1009
  355MPD2    N1 5379   3.807   2.575  11.662 -0.2232 -0.0357 -0.1372
  355MPD2    H7 5380   3.813   2.677  11.658  1.2564 -0.0208  1.9836
  356TMC3    C1 5381   3.855   1.978  11.977  0.0536 -0.1197 -0.3045
  356TMC3    C2 5382   3.972   1.938  11.912  0.4336 -0.9453 -0.0532
  356TMC3    C3 5383   4.091   1.942  11.981  0.1824 -0.0396  0.3682
  356TMC3    C4 5384   3.859   2.008  12.112  0.6457  0.4928 -0.0034
  356TMC3    C5 5385   3.981   1.999  12.176 -0.2007 -0.5348 -0.8659
  356TMC3    C6 5386   4.099   1.984  12.109 -0.0947 -0.2647  0.0884
  356TMC3     C 5387   3.797   2.082  11.887 -0.1469 -0.0937 -0.0036
  356TMC3     O 5388   3.822   2.082  11.767  0.2296 -0.0881  0.0657
  356TMC3     H 5389   3.965   1.910  11.808  2.0742 -0.0846 -0.4029
  356TMC3    H1 5390   3.769   2.025  12.169  1.1669 -0.1557  1.0060
  356TMC3    H2 5391   4.197   1.985  12.157  1.2553 -1.7633 -2.6420
  356TMC3    C7 5392   3.978   2.017  12.321  0.1261  0.0108  0.1425
  356TMC3    C8 5393   4.199   1.964  11.888 -0.3151  0.6736 -0.1510
  356TMC3    O1 5394   3.878   1.994  12.382 -0.0745 -0.4023  0.1827
  356TMC3    O2 5395   4.218   1.873  11.808  0.2594 -0.3542 -0.0778
  357MPD2     C 5396   2.984   2.256   0.182 -0.1990  0.6026  0.3891
  357MPD2    C1 5397   2.925   2.134   0.194 -0.4965  0.0453 -0.0511
  357MPD2    C2 5398   2.817   2.097   0.114 -0.4121  0.7556 -0.3781
  357MPD2    C3 5399   2.771   2.179   0.014  0.6588 -0.3279  0.6330
  357MPD2    C4 5400   2.836   2.300  17.741  0.1076  0.9742 -0.2252
  357MPD2    C5 5401   2.945   2.333   0.076 -0.4633 -0.3634 -0.1728
  357MPD2     H 5402   2.752   2.017   0.146  0.9002 -1.0200 -2.1110
  357MPD2    H1 5403   2.813   2.370  17.662  1.8245  0.5645 -1.0744
  357MPD2    H2 5404   3.059   2.287   0.254  0.6808 -2.9910  1.0214
  357MPD2    H3 5405   2.989   2.432   0.071  0.8553 -0.8320  2.0351
  357MPD2     N 5406   2.658   2.129  17.685  0.1664 -1.3236 -0.0596
  357MPD2    H5 5407   2.622   2.040  17.719 -0.6014 -0.1653  2.1404
  357MPD2    N1 5408   2.954   2.050   0.300  0.3652 -0.0041 -0.8872
  357MPD2    H7 5409   2.908   1.959   0.306 -0.7940  0.6292 -0.1830
  358TMC3    C1 5410   3.063   1.946   0.487 -0.0505  0.1288  0.2500
  358TMC3    C2 5411   3.013   1.830   0.439 -0.6513  0.2690 -0.0612
  358TMC3    C3 5412   3.062   1.712   0.490  0.1079 -0.1681  0.3224
  358TMC3    C4 5413   3.150   1.947   0.588 -0.1097 -0.1770 -0.1585
  358TMC3    C5 5414   3.202   1.830   0.633  0.6742 -0.0120  0.6619
  358TMC3    C6 5415   3.164   1.711   0.579 -0.7099 -0.0693 -0.1378
  358TMC3     C 5416   3.053   2.066   0.397 -0.8189 -0.0598  0.0998
  358TMC3     O 5417   3.145   2.150   0.410 -0.3548  0.0130  0.0456
  358TMC3     H 5418   2.932   1.819   0.367 -0.9737  0.0947  0.3276
  358TMC3    H1 5419   3.191   2.045   0.612  3.0768 -1.0491 -1.9578
  358TMC3    H2 5420   3.187   1.626   0.642  0.1047 -0.0477 -0.4070
  358TMC3    C7 5421   3.291   1.826   0.747  0.9696 -0.1947 -0.3876
  358TMC3    C8 5422   3.021   1.591   0.423  0.1936  0.0730  0.0134
  358TMC3    O1 5423   3.354   1.722   0.771 -0.3686 -0.5827 -0.5661
  358TMC3    O2 5424   2.916   1.603   0.356 -0.5614 -0.1135 -0.3035
  359MPD2     C 5425   4.293   0.867  12.323 -0.4270  0.0755 -0.3422
  359MPD2    C1 5426   4.210   0.866  12.214  0.1331 -0.5824 -0.6828
  359MPD2    C2 5427   4.111   0.771  12.202  0.4228  0.0313 -0.8342
  359MPD2    C3 5428   4.118   0.660  12.286 -0.3181  0.4718 -0.1011
  359MPD2    C4 5429   4.210   0.657  12.392 -0.7604 -0.0905 -0.2408
  359MPD2    C5 5430   4.288   0.765  12.414  0.1436  0.0353  0.0956
  359MPD2     H 5431   4.036   0.783  12.124  0.3367 -1.9404 -1.0400
  359MPD2    H1 5432   4.199   0.581  12.469  1.3565  0.3835  0.5350
  359MPD2    H2 5433   4.364   0.944  12.351 -1.3376  1.2842 -1.3210
  359MPD2    H3 5434   4.350   0.770  12.502  0.9422  0.1106 -0.4694
  359MPD2     N 5435   4.031   0.551  12.271 -0.6552  1.0195 -0.1934
  359MPD2    H5 5436   4.041   0.483  12.346 -2.3884  0.1451 -0.7512
  359MPD2    N1 5437   4.229   0.970  12.119 -0.1433 -0.3841  0.6027
  359MPD2    H7 5438   4.162   0.970  12.043  0.4490  0.7438  0.0897
  360TMC3    C1 5439   4.319   1.159  12.008 -0.4662 -0.1868  0.1485
  360TMC3    C2 5440   4.430   1.218  11.965  0.0206 -0.1153 -1.3541
  360TMC3    C3 5441   4.420   1.327  11.887 -0.8362 -0.7867 -0.4136
  360TMC3    C4 5442   4.197   1.183  11.952  0.2771 -0.1939 -0.1600
  360TMC3    C5 5443   4.181   1.297  11.872 -0.1619 -0.7659  0.6002
  360TMC3    C6 5444   4.298   1.371  11.842 -0.1142  0.0372  0.2821
  360TMC3     C 5445   4.333   1.055  12.105 -0.3127 -0.0803  0.3033
  360TMC3     O 5446   4.446   1.029  12.137 -0.2883 -0.1105 -0.2016
  360TMC3     H 5447   4.528   1.198  12.008  0.5182  0.1429 -2.3659
  360TMC3    H1 5448   4.109   1.133  11.991  0.8945 -0.0830  1.3555
  360TMC3    H2 5449   4.295   1.440  11.759 -0.0170  2.1896  2.0406
  360TMC3    C7 5450   4.082   1.294  11.768  0.1471  0.1573  0.4914
  360TMC3    C8 5451   4.523   1.355  11.787 -0.5010 -0.2333 -0.4333
  360TMC3    O1 5452   4.127   1.328  11.663 -0.0212 -0.3743  0.0140
  360TMC3    O2 5453   4.527   1.473  11.759 -0.2535  0.2632  0.1426
  361MPD2     C 5454   0.815   4.376  16.643 -0.7995 -0.7107 -0.2541
  361MPD2    C1 5455   0.744   4.417  16.753 -0.0903 -0.1840  0.0721
  361MPD2    C2 5456   0.737   4.334  16.865  0.2773  0.0562  0.5723
  361MPD2    C3 5457   0.813   4.213  16.865  0.0058  0.1267 -0.3217
  361MPD2    C4 5458   0.878   4.171  16.754  0.5267  0.1875 -0.4582
  361MPD2    C5 5459   0.880   4.255  16.651 -0.2161 -0.4485  0.2288
  361MPD2     H 5460   0.697   4.369  16.959 -0.3803  0.5396  0.1126
  361MPD2    H1 5461   0.930   4.076  16.754 -2.8270 -1.6400  1.5514
  361MPD2    H2 5462   0.844   4.439  16.559 -0.2967  1.7152  1.7389
  361MPD2    H3 5463   0.949   4.243  16.569 -0.6952  2.2455 -0.5497
  361MPD2     N 5464   0.831   4.122  16.977  0.5874 -0.2492 -0.4684
  361MPD2    H5 5465   0.869   4.029  16.966  1.2052  0.0377 -0.7988
  361MPD2    N1 5466   0.690   4.548  16.752  0.1642  0.0541 -0.2277
  361MPD2    H7 5467   0.721   4.611  16.679 -0.2751 -0.2299 -0.6593
  362TMC3    C1 5468   0.548   4.731  16.822  0.2042  0.0179 -0.2554
  362TMC3    C2 5469   0.516   0.059  16.937 -0.1711 -0.4004 -0.3345
  362TMC3    C3 5470   0.539   0.189  16.937 -0.7387  0.1758 -0.4285
  362TMC3    C4 5471   0.583   0.061  16.705 -0.0709 -0.0144 -0.0031
  362TMC3    C5 5472   0.593   0.202  16.714  0.0164  0.5026  0.7082
  362TMC3    C6 5473   0.571   0.267  16.831  0.5046  0.3445  0.1323
  362TMC3     C 5474   0.592   4.597  16.843 -0.3306 -0.1816 -0.2688
  362TMC3     O 5475   0.535   4.527  16.925 -0.0266  0.0766 -0.1047
  362TMC3     H 5476   0.497   0.006  17.030  0.1793 -0.4380 -0.2829
  362TMC3    H1 5477   0.589   0.009  16.610  0.7441 -0.1453  0.1180
  362TMC3    H2 5478   0.570   0.375  16.837  2.2310  0.3456  0.5570
  362TMC3    C7 5479   0.598   0.270  16.589  0.0777  0.9345  0.1859
  362TMC3    C8 5480   0.531   0.250  17.065 -0.2317  0.1210 -0.2874
  362TMC3    O1 5481   0.538   0.376  16.582  0.2241 -0.5770  0.5493
  362TMC3    O2 5482   0.603   0.344  17.085  0.1501 -0.0044  0.5280
  363TMC3    C1 5483   3.278   1.098   8.762 -0.1038  0.4666  0.4587
  363TMC3    C2 5484   3.411   1.114   8.778  0.4356  0.2529  0.2895
  363TMC3    C3 5485   3.461   1.239   8.805  0.8121 -0.4751 -0.2782
  363TMC3    C4 5486   3.187   1.201   8.766  0.0556 -0.1418  0.4953
  363TMC3    C5 5487   3.243   1.330   8.782  0.2468  0.5476 -0.2302
  363TMC3    C6 5488   3.379   1.351   8.804  0.0420  0.4633  0.3487
  363TMC3     C 5489   3.240   0.963   8.733 -0.8421 -0.1156  0.0476
  363TMC3     O 5490   3.319   0.872   8.739  0.5685 -0.1766 -0.7231
  363TMC3     H 5491   3.480   1.030   8.775 -0.8848 -0.8009 -0.6694
  363TMC3    H1 5492   3.080   1.187   8.780 -0.2506  1.3211 -0.4021
  363TMC3    H2 5493   3.427   1.447   8.818  0.7445  0.1206  0.3125
  363TMC3    C7 5494   3.162   1.447   8.757  0.2136 -0.4254  0.0853
  363TMC3    C8 5495   3.598   1.260   8.850 -0.0092  0.6114  0.4613
  363TMC3    O1 5496   3.219   1.556   8.773  0.4864 -0.0027 -0.1860
  363TMC3    O2 5497   3.653   1.366   8.824  0.1581  0.2287 -0.3614
  364MPD2     C 5498   2.715   1.996  10.126 -0.0756 -0.5341 -0.6089
  364MPD2    C1 5499   2.850   1.963  10.104  0.6008 -0.3243  0.0751
  364MPD2    C2 5500   2.888   1.831  10.128  0.2654 -0.1257 -0.0860
  364MPD2    C3 5501   2.796   1.743  10.185  0.1914 -0.2629 -0.4949
  364MPD2    C4 5502   2.665   1.780  10.223 -0.3542  0.6043 -0.0268
  364MPD2    C5 5503   2.628   1.909  10.187  0.5279  0.1934  0.6843
  364MPD2     H 5504   2.991   1.800  10.113  0.1080 -0.6197 -0.1362
  364MPD2    H1 5505   2.596   1.712  10.271  1.0347 -1.3924 -0.8673
  364MPD2    H2 5506   2.676   2.094  10.101  0.5598 -0.0194  0.3983
  364MPD2    H3 5507   2.525   1.939  10.197  1.1240  1.4224  3.3296
  364MPD2     N 5508   2.834   1.616  10.230 -0.6353 -0.0909  0.1545
  364MPD2    H5 5509   2.771   1.565  10.292 -0.8825 -2.3866 -2.0116
  364MPD2    N1 5510   2.939   2.065  10.065  0.4417 -0.2612  0.1419
  364MPD2    H7 5511   2.902   2.157  10.042  1.8776  0.4874  0.8021
  365TMC3    C1 5512   3.151   2.178  10.069 -0.1764  0.6123 -0.1801
  365TMC3    C2 5513   3.281   2.165  10.028  0.1994 -0.7986 -0.5605
  365TMC3    C3 5514   3.377   2.244  10.079  0.3376  0.1024  0.0481
  365TMC3    C4 5515   3.121   2.263  10.168  0.9163  0.3052  0.2148
  365TMC3    C5 5516   3.225   2.342  10.216 -0.3309 -0.2854  0.0527
  365TMC3    C6 5517   3.348   2.345  10.165  0.3230  0.4194  0.1467
  365TMC3     C 5518   3.079   2.052  10.059  0.2651  0.1546  0.6650
  365TMC3     O 5519   3.152   1.959  10.056  1.1166 -0.0432 -0.2037
  365TMC3     H 5520   3.305   2.108   9.939 -0.2407 -1.2908 -0.3617
  365TMC3    H1 5521   3.022   2.268  10.211  1.0505  1.9697  0.3097
  365TMC3    H2 5522   3.423   2.409  10.208  2.2825 -1.8901  0.1523
  365TMC3    C7 5523   3.187   2.443  10.313  0.2387  0.6485  0.2266
  365TMC3    C8 5524   3.513   2.233  10.030  0.0653  0.2578 -0.2694
  365TMC3    O1 5525   3.233   2.559  10.307  0.1823 -0.4778 -0.3400
  365TMC3    O2 5526   3.577   2.332  10.003  0.6373 -0.5661 -0.3602
  366MPD2     C 5527   0.761   2.763  15.205  0.0950 -0.0852 -0.5397
  366MPD2    C1 5528   0.852   2.843  15.130  0.2480  0.0473 -0.4823
  366MPD2    C2 5529   0.968   2.778  15.078 -0.4617 -0.0217 -0.9330
  366MPD2    C3 5530   0.986   2.650  15.101 -0.2815  0.3675 -0.8325
  366MPD2    C4 5531   0.891   2.576  15.179  0.2332 -0.7142 -0.5361
  366MPD2    C5 5532   0.780   2.632  15.229  1.0710 -0.3178  0.0186
  366MPD2     H 5533   1.045   2.836  15.029  1.4468 -1.6549  0.1253
  366MPD2    H1 5534   0.900   2.471  15.205  0.0750 -0.3717  0.9219
  366MPD2    H2 5535   0.667   2.804  15.240  0.6865 -0.5640  1.6286
  366MPD2    H3 5536   0.710   2.576  15.289  1.8307  2.6837  3.6947
  366MPD2     N 5537   1.112   2.602  15.052 -0.0146 -0.0435 -0.0156
  366MPD2    H5 5538   1.171   2.668  15.002  1.3313  0.8795  2.8016
  366MPD2    N1 5539   0.850   2.984  15.127  0.0311 -0.0922 -0.3081
  366MPD2    H7 5540   0.919   3.043  15.082  0.7752  1.3638  2.7599
  367TMC3    C1 5541   0.753   3.186  15.143 -0.5332  0.8036 -0.5922
  367TMC3    C2 5542   0.875   3.219  15.193 -0.0243  0.4074 -0.3099
  367TMC3    C3 5543   0.940   3.330  15.152  0.1833 -0.6194  0.3860
  367TMC3    C4 5544   0.694   3.254  15.038  0.4463 -0.6982 -0.1815
  367TMC3    C5 5545   0.769   3.366  14.995 -0.5839 -0.3089 -0.4048
  367TMC3    C6 5546   0.890   3.406  15.047  0.2219  0.5422  0.0063
  367TMC3     C 5547   0.727   3.044  15.145  0.0324  0.4491 -0.2818
  367TMC3     O 5548   0.613   3.007  15.133 -0.3210 -0.0413  0.4985
  367TMC3     H 5549   0.917   3.162  15.275  0.5891  0.4922 -0.5623
  367TMC3    H1 5550   0.599   3.231  14.990 -0.1174  2.3334 -0.5098
  367TMC3    H2 5551   0.943   3.493  15.010  0.0294 -0.5894 -2.9243
  367TMC3    C7 5552   0.713   3.457  14.894  0.1161 -0.0604  0.6701
  367TMC3    C8 5553   1.060   3.362  15.228 -0.0088 -0.1653  0.3579
  367TMC3    O1 5554   0.722   3.578  14.903  0.0078  0.0569  0.4020
  367TMC3    O2 5555   1.099   3.291  15.318  0.1476  0.1589 -0.6907
  368MPD2     C 5556   2.359   4.401  12.812  0.2463 -0.2455 -0.2253
  368MPD2    C1 5557   2.406   4.531  12.819  0.3588 -0.3383 -0.3462
  368MPD2    C2 5558   2.541   4.550  12.805  0.1417 -0.3611  0.0136
  368MPD2    C3 5559   2.621   4.434  12.788 -0.3039  0.0796 -0.0827
  368MPD2    C4 5560   2.569   4.311  12.783  0.4882  0.1665  0.4019
  368MPD2    C5 5561   2.433   4.293  12.782 -0.0471 -0.0977  0.2186
  368MPD2     H 5562   2.572   4.650  12.830  3.0378 -0.7722 -1.9747
  368MPD2    H1 5563   2.627   4.222  12.763 -1.3102 -1.2574  1.5586
  368MPD2    H2 5564   2.253   4.388  12.832 -0.4854  3.2420 -1.7781
  368MPD2    H3 5565   2.387   4.196  12.769 -2.2589  0.9847 -0.1456
  368MPD2     N 5566   2.762   4.442  12.767  0.1908  0.2273 -0.4981
  368MPD2    H5 5567   2.804   4.363  12.719 -0.1648  0.6877 -1.5598
  368MPD2    N1 5568   2.311   4.637  12.820  0.2192  0.1642 -0.3929
  368MPD2    H7 5569   2.216   4.607  12.801  0.2343 -2.0075  2.8928
  369TMC3    C1 5570   2.211   0.109  12.821 -0.5272  0.2228 -0.5163
  369TMC3    C2 5571   2.233   0.246  12.808  0.9330  0.8165 -0.1006
  369TMC3    C3 5572   2.126   0.322  12.792 -0.0170 -0.0432  0.0323
  369TMC3    C4 5573   2.095   0.055  12.859 -0.4115 -0.7132 -0.8530
  369TMC3    C5 5574   1.990   0.141  12.843  0.2226 -0.0495 -0.1331
  369TMC3    C6 5575   2.000   0.272  12.805 -0.2768  0.2990  0.1706
  369TMC3     C 5576   2.333   0.028  12.826 -0.3531  0.0524 -0.2953
  369TMC3     O 5577   2.435   0.087  12.844 -0.4191  0.4937  0.1831
  369TMC3     H 5578   2.329   0.293  12.787  0.4069  0.8895 -2.2983
  369TMC3    H1 5579   2.083   4.684  12.865  0.4036 -0.8049 -0.8509
  369TMC3    H2 5580   1.914   0.334  12.784  0.5004  1.3017 -0.1001
  369TMC3    C7 5581   1.859   0.076  12.842 -0.5273 -0.0305 -0.1452
  369TMC3    C8 5582   2.144   0.439  12.715  0.5412 -0.1939  0.0051
  369TMC3    O1 5583   1.856   4.714  12.916 -0.3275 -0.5743  0.2439
  369TMC3    O2 5584   2.242   0.449  12.637  0.8588  0.1549 -0.5058
  370TMC3    C1 5585   1.963   0.596  16.036  0.6845  0.0174  0.1064
  370TMC3    C2 5586   1.873   0.564  16.137 -0.2230 -0.0904  0.2561
  370TMC3    C3 5587   1.781   0.462  16.102 -0.7002 -0.5982 -0.1997
  370TMC3    C4 5588   1.967   0.515  15.921 -0.1716 -0.1066 -0.9436
  370TMC3    C5 5589   1.885   0.410  15.901 -0.1338  0.0865  0.4303
  370TMC3    C6 5590   1.795   0.381  15.996  0.4063 -0.6383  0.4860
  370TMC3     C 5591   2.064   0.696  16.075 -0.3443 -0.0348 -0.3642
  370TMC3     O 5592   2.084   0.726  16.195 -0.4511 -0.6325 -0.1943
  370TMC3     H 5593   1.877   0.612  16.234 -1.9625 -2.4601  1.4995
  370TMC3    H1 5594   2.049   0.535  15.853 -0.1894  1.0743 -0.6131
  370TMC3    H2 5595   1.730   0.295  15.986 -0.8373  0.5380 -1.6640
  370TMC3    C7 5596   1.904   0.342  15.771 -0.5831 -0.2231  0.2868
  370TMC3    C8 5597   1.699   0.411  16.203  0.4833 -0.2608  0.5031
  370TMC3    O1 5598   1.956   0.413  15.686 -0.2530 -0.1661 -0.3276
  370TMC3    O2 5599   1.665   0.294  16.199 -0.0903 -0.4670  0.4469
  371TMC3    C1 5600   3.073   3.308  15.489  0.7015 -0.1523  0.0611
  371TMC3    C2 5601   2.938   3.323  15.510  0.4847  0.0034  0.0489
  371TMC3    C3 5602   2.885   3.437  15.458  0.9079 -0.0087 -0.1169
  371TMC3    C4 5603   3.148   3.405  15.428 -0.0164 -0.0306  1.2083
  371TMC3    C5 5604   3.086   3.513  15.380 -0.0430 -0.4297  0.2446
  371TMC3    C6 5605   2.954   3.536  15.397 -0.7106  0.2299  0.1511
  371TMC3     C 5606   3.130   3.175  15.488  0.9026  0.6124  0.5854
  371TMC3     O 5607   3.238   3.164  15.538 -0.2773 -0.7529  0.1154
  371TMC3     H 5608   2.876   3.250  15.561 -0.0234  0.2616 -0.2016
  371TMC3    H1 5609   3.250   3.374  15.407  0.3651  1.2977  1.0287
  371TMC3    H2 5610   2.901   3.615  15.346 -0.6072 -0.6273 -1.2958
  371TMC3    C7 5611   3.148   3.596  15.274 -0.2176  0.0476  0.2245
  371TMC3    C8 5612   2.751   3.467  15.488  0.1434  0.2933  0.5991
  371TMC3    O1 5613   3.098   3.707  15.250 -0.3012  0.1870  0.0749
  371TMC3    O2 5614   2.679   3.369  15.500 -0.2291  0.2175  0.2099
  372MPD2     C 5615   3.203   4.234  12.898 -0.4072  0.3802  0.7487
  372MPD2    C1 5616   3.252   4.208  13.026 -0.1970 -0.3141  0.3838
  372MPD2    C2 5617   3.159   4.193  13.134 -0.0938 -0.5668  0.3691
  372MPD2    C3 5618   3.022   4.195  13.109 -0.2179  0.1201 -0.0158
  372MPD2    C4 5619   2.984   4.235  12.984 -0.4479  0.1342 -0.1332
  372MPD2    C5 5620   3.071   4.254  12.882 -0.3766 -0.4795 -0.1917
  372MPD2     H 5621   3.190   4.176  13.236  1.2226 -0.2994  0.0136
  372MPD2    H1 5622   2.881   4.264  12.964 -0.9758 -2.2964 -0.9141
  372MPD2    H2 5623   3.275   4.255  12.820  1.1372 -0.5073  1.9425
  372MPD2    H3 5624   3.034   4.282  12.784 -0.1476  1.2531  0.2078
  372MPD2     N 5625   2.929   4.157  13.215  0.0653 -0.5807 -0.4389
  372MPD2    H5 5626   2.970   4.129  13.304 -1.0036  2.7025  1.0906
  372MPD2    N1 5627   3.392   4.187  13.057  0.0377 -0.0512  0.3453
  372MPD2    H7 5628   3.417   4.156  13.151  0.1728 -1.5904 -0.1954
  373TMC3    C1 5629   2.731   4.091  13.322 -0.6216  0.2003 -0.3884
  373TMC3    C2 5630   2.636   4.160  13.387  0.3104  0.3963 -0.3582
  373TMC3    C3 5631   2.570   4.109  13.497 -0.6811  0.0425  0.0843
  373TMC3    C4 5632   2.772   3.969  13.356 -0.1310 -0.1087  0.1491
  373TMC3    C5 5633   2.702   3.913  13.461 -0.0633  0.0566 -0.6540
  373TMC3    C6 5634   2.617   3.987  13.540 -0.5009  0.3254 -0.0067
  373TMC3     C 5635   2.794   4.154  13.205  0.0099 -0.0935  0.0090
  373TMC3     O 5636   2.722   4.197  13.118 -0.2301  0.6707 -0.7698
  373TMC3     H 5637   2.617   4.256  13.339  0.9624  0.2298 -0.9424
  373TMC3    H1 5638   2.848   3.921  13.295 -0.1499 -0.9983  0.8091
  373TMC3    H2 5639   2.593   3.947  13.638 -1.9350 -0.4659 -0.6766
  373TMC3    C7 5640   2.746   3.783  13.514 -0.2990  0.0708  0.3433
  373TMC3    C8 5641   2.570   4.216  13.593 -0.5079 -0.3225 -0.3417
  373TMC3    O1 5642   2.767   3.780  13.631  0.0261 -0.2821  0.1596
  373TMC3    O2 5643   2.662   4.298  13.586  0.1110  0.4710 -0.2918
  374TMC3    C1 5644   2.762   0.441   9.622  0.0753  0.0438 -0.4014
  374TMC3    C2 5645   2.870   0.514   9.669 -0.2520 -0.2836 -0.7253
  374TMC3    C3 5646   2.933   0.463   9.787 -0.1481  0.6245 -0.3127
  374TMC3    C4 5647   2.729   0.318   9.678 -0.3849 -0.1001  0.6010
  374TMC3    C5 5648   2.802   0.269   9.783 -0.3253  0.0927 -0.0211
  374TMC3    C6 5649   2.900   0.342   9.842  0.2327  0.5661  0.0733
  374TMC3     C 5650   2.707   0.468   9.490 -0.9858  0.2750  0.2109
  374TMC3     O 5651   2.602   0.418   9.465 -0.2398 -0.0322 -0.3084
  374TMC3     H 5652   2.893   0.610   9.625  0.0248 -0.6620 -1.3963
  374TMC3    H1 5653   2.650   0.263   9.629  1.8211 -1.9481 -0.8871
  374TMC3    H2 5654   2.938   0.310   9.939 -1.2121 -1.9538 -0.1911
  374TMC3    C7 5655   2.759   0.134   9.821 -0.0861 -0.6828 -0.1317
  374TMC3    C8 5656   3.038   0.549   9.843  0.3825 -0.1172  0.3153
  374TMC3    O1 5657   2.656   0.090   9.772  0.1855  0.5329 -1.0872
  374TMC3    O2 5658   3.061   0.647   9.775 -0.5245 -0.0513 -0.2820
  375MPD2     C 5659   2.978   1.641  16.215 -0.4613  0.0452 -0.1737
  375MPD2    C1 5660   2.894   1.545  16.153 -0.5731 -0.9711  0.3575
  375MPD2    C2 5661   2.947   1.425  16.112  0.0652 -0.2065 -0.0995
  375MPD2    C3 5662   3.084   1.402  16.123  0.2518 -0.0085 -0.3159
  375MPD2    C4 5663   3.165   1.491  16.178 -1.0069  0.2057  0.5415
  375MPD2    C5 5664   3.111   1.612  16.224  0.2300  0.0117  0.8389
  375MPD2     H 5665   2.874   1.353  16.078 -0.8331  0.6822 -0.0600
  375MPD2    H1 5666   3.269   1.483  16.208  0.2197  0.9941 -3.5471
  375MPD2    H2 5667   2.941   1.730  16.265 -0.5325  0.1180 -0.3542
  375MPD2    H3 5668   3.178   1.682  16.273  0.5131 -0.1412  0.6727
  375MPD2     N 5669   3.142   1.279  16.084 -0.0700  0.7586  0.9257
  375MPD2    H5 5670   3.243   1.269  16.092 -0.3572 -2.1297  1.0597
  375MPD2    N1 5671   2.756   1.554  16.126 -0.7836 -0.0344 -0.1303
  375MPD2    H7 5672   2.707   1.479  16.080 -0.1409  0.7023 -2.0151
  376TMC3    C1 5673   3.162   1.054  16.030 -0.4826 -0.8017 -0.9108
  376TMC3    C2 5674   3.269   1.049  16.111 -0.7188 -0.0465  0.8913
  376TMC3    C3 5675   3.363   0.945  16.088  0.3445 -0.2220 -0.7905
  376TMC3    C4 5676   3.140   0.960  15.928  0.4552  0.0553  0.3491
  376TMC3    C5 5677   3.238   0.864  15.908 -0.4342 -0.2476 -0.1851
  376TMC3    C6 5678   3.341   0.849  15.993  0.0591 -0.7418 -0.8070
  376TMC3     C 5679   3.077   1.170  16.025 -0.1002 -0.3216 -0.6806
  376TMC3     O 5680   2.964   1.160  15.981  0.4514 -0.1617  0.1785
  376TMC3     H 5681   3.282   1.117  16.195  3.3997 -1.7902  1.6510
  376TMC3    H1 5682   3.051   0.954  15.866  0.9219 -1.0042 -0.2250
  376TMC3    H2 5683   3.405   0.763  15.976  2.3993  0.5545  1.3836
  376TMC3    C7 5684   3.234   0.767  15.795  0.2017 -0.3985  0.2806
  376TMC3    C8 5685   3.482   0.948  16.169  0.4732 -0.2919  0.0138
  376TMC3    O1 5686   3.345   0.736  15.752  0.1116 -0.2819  0.2665
  376TMC3    O2 5687   3.511   1.052  16.227 -0.3381  0.5206  0.2163
  377MPD2     C 5688   1.271   0.972  12.531 -0.5973  0.3798 -0.1136
  377MPD2    C1 5689   1.349   0.866  12.558 -0.2897  0.5193 -0.6859
  377MPD2    C2 5690   1.337   0.796  12.681 -0.7687  0.0514  0.1583
  377MPD2    C3 5691   1.230   0.833  12.766 -0.3181  0.2717  0.7240
  377MPD2    C4 5692   1.170   0.951  12.744 -0.3865 -0.4122 -0.9498
  377MPD2    C5 5693   1.190   1.022  12.622  0.3126  0.1122 -0.7997
  377MPD2     H 5694   1.396   0.708  12.705 -1.6799 -1.1909 -2.1013
  377MPD2    H1 5695   1.104   0.996  12.817  2.7542  0.3586  1.4426
  377MPD2    H2 5696   1.287   1.028  12.440 -0.9633 -0.6051 -0.7905
  377MPD2    H3 5697   1.147   1.121  12.610  0.6781  0.6502  2.3334
  377MPD2     N 5698   1.211   0.768  12.891 -0.4045  0.2388 -0.0422
  377MPD2    H5 5699   1.145   0.822  12.946  0.1015  1.0131 -0.2022
  377MPD2    N1 5700   1.428   0.824  12.446 -0.0079 -0.3873 -0.0050
  377MPD2    H7 5701   1.413   0.875  12.359  3.2930  1.3880  0.4745
  378TMC3    C1 5702   1.569   0.617  12.114  0.2761 -0.4794  0.8671
  378TMC3    C2 5703   1.532   0.702  12.210  0.0616  0.1449  0.9107
  378TMC3    C3 5704   1.605   0.719  12.326 -0.3005 -0.2320 -0.1982
  378TMC3    C4 5705   1.689   0.551  12.113  0.4020 -0.4432  0.1992
  378TMC3    C5 5706   1.768   0.574  12.225 -0.3486  0.1840  0.2823
  378TMC3    C6 5707   1.727   0.650  12.329  0.7221  0.1805 -0.5427
  378TMC3     C 5708   1.474   0.598  12.004  0.5224  0.5400 -0.5064
  378TMC3     O 5709   1.356   0.614  12.035 -0.7617  0.1267  0.0643
  378TMC3     H 5710   1.439   0.758  12.208  0.9684  1.6081  0.0759
  378TMC3    H1 5711   1.693   0.461  12.053 -1.5398 -2.4291  3.0081
  378TMC3    H2 5712   1.784   0.652  12.421  1.1112 -0.7102 -0.7616
  378TMC3    C7 5713   1.903   0.520  12.236  0.6193  0.1082 -0.4343
  378TMC3    C8 5714   1.527   0.732  12.452  0.3840 -0.1533  0.0944
  378TMC3    O1 5715   1.946   0.506  12.348  0.5422  0.1722  0.0276
  378TMC3    O2 5716   1.562   0.669  12.551 -0.6308  0.3001  0.6176
  379MPD2     C 5717   2.207   3.466  15.792  0.8284 -0.8630  0.2212
  379MPD2    C1 5718   2.119   3.418  15.881 -0.6118 -0.2479  0.2323
  379MPD2    C2 5719   2.166   3.364  16.004  0.3157 -0.7968  0.7063
  379MPD2    C3 5720   2.302   3.351  16.016 -0.0222 -0.1046  0.6508
  379MPD2    C4 5721   2.392   3.406  15.926  0.4151 -0.4095 -0.4536
  379MPD2    C5 5722   2.345   3.465  15.812  0.5759  0.0215  0.3003
  379MPD2     H 5723   2.100   3.322  16.079 -0.8914 -1.5832 -0.7810
  379MPD2    H1 5724   2.498   3.398  15.947  0.2508  1.4271  1.0445
  379MPD2    H2 5725   2.180   3.498  15.692 -0.0249  2.4921  1.5148
  379MPD2    H3 5726   2.413   3.490  15.731  0.6697 -1.0809  0.0359
  379MPD2     N 5727   2.362   3.298  16.131 -0.1982  0.4961  0.5915
  379MPD2    H5 5728   2.463   3.295  16.130 -0.2184 -0.7856  1.8536
  379MPD2    N1 5729   1.986   3.408  15.844 -0.2944 -0.1235 -0.5444
  379MPD2    H7 5730   1.965   3.409  15.744 -1.1319  1.2468 -0.3508
  380TMC3    C1 5731   1.775   3.345  15.835  0.3275 -0.6365  0.4299
  380TMC3    C2 5732   1.809   3.226  15.771 -0.0385  0.3262 -0.6677
  380TMC3    C3 5733   1.783   3.209  15.639 -0.5371 -0.2213 -0.5670
  380TMC3    C4 5734   1.703   3.439  15.763 -0.2647 -0.3399  0.1244
  380TMC3    C5 5735   1.673   3.418  15.631 -0.1655 -0.1945  0.5741
  380TMC3    C6 5736   1.699   3.294  15.571  0.5459  0.3448 -0.2325
  380TMC3     C 5737   1.878   3.390  15.923 -0.2282  0.0471 -1.1924
  380TMC3     O 5738   1.860   3.405  16.043 -0.0239  0.0705 -0.1952
  380TMC3     H 5739   1.885   3.171  15.824 -0.7800 -1.3991 -1.3866
  380TMC3    H1 5740   1.689   3.541  15.798  1.3122  0.1579 -0.7297
  380TMC3    H2 5741   1.679   3.276  15.466  2.3147  1.3434 -0.7383
  380TMC3    C7 5742   1.620   3.517  15.545 -0.1697  0.5935  0.6383
  380TMC3    C8 5743   1.902   3.184  15.560  0.5526 -0.3142  0.0177
  380TMC3    O1 5744   1.646   3.638  15.564 -0.0102 -0.3678  0.5965
  380TMC3    O2 5745   1.909   3.251  15.456  0.0849  0.7820 -0.2464
  381TMC3    C1 5746   1.647   4.417  16.008 -0.3754 -0.1898  0.0516
  381TMC3    C2 5747   1.694   4.541  15.990  0.1007 -0.1734  0.6618
  381TMC3    C3 5748   1.708   4.615  16.102 -0.0594 -0.0608  0.4858
  381TMC3    C4 5749   1.605   4.373  16.131  0.4428 -0.0729 -0.0710
  381TMC3    C5 5750   1.607   4.462  16.237  0.5562  0.6044  0.4844
  381TMC3    C6 5751   1.649   4.590  16.221  0.0353  1.4085 -0.0471
  381TMC3     C 5752   1.678   4.315  15.907 -1.0220  0.2787  1.0514
  381TMC3     O 5753   1.729   4.344  15.799 -0.1724  0.0852 -0.3014
  381TMC3     H 5754   1.734   4.573  15.894 -0.1941  1.7133  1.1706
  381TMC3    H1 5755   1.552   4.280  16.146  0.8257 -0.3426 -0.4025
  381TMC3    H2 5756   1.652   4.662  16.303  3.1318  0.6335  0.5107
  381TMC3    C7 5757   1.543   4.429  16.363 -0.0746  0.2157  0.1239
  381TMC3    C8 5758   1.795   4.729  16.085  0.1955  0.0502  0.6555
  381TMC3    O1 5759   1.533   4.308  16.387  0.1540 -0.1372  0.2783
  381TMC3    O2 5760   1.820   0.020  15.969 -0.2267 -0.1004 -0.7500
  382MPD2     C 5761   0.997   2.414  16.647 -0.5177 -0.1071  0.4166
  382MPD2    C1 5762   0.998   2.416  16.782  0.2767  0.5137  0.4958
  382MPD2    C2 5763   1.018   2.300  16.848 -0.2071 -0.4660 -0.3767
  382MPD2    C3 5764   1.013   2.179  16.778  0.2533  0.2938 -0.3024
  382MPD2    C4 5765   1.000   2.182  16.643  1.0810 -0.3001  0.7500
  382MPD2    C5 5766   0.983   2.300  16.578 -0.3880  0.0598  0.6628
  382MPD2     H 5767   1.045   2.301  16.953  0.3594  1.3848 -0.5425
  382MPD2    H1 5768   0.993   2.091  16.584  0.1059  0.7845 -0.8240
  382MPD2    H2 5769   0.988   2.502  16.583  1.2986 -0.8034 -0.7949
  382MPD2    H3 5770   0.965   2.299  16.471 -1.9086  0.8808  0.9174
  382MPD2     N 5771   1.007   2.053  16.833 -0.7364  0.2160  0.0776
  382MPD2    H5 5772   1.017   1.973  16.771 -0.9382  0.2083  0.0541
  382MPD2    N1 5773   0.983   2.538  16.852  0.9839  0.0866  0.2574
  382MPD2    H7 5774   0.988   2.531  16.953  0.3923  3.8560  0.5212
  383TMC3    C1 5775   0.977   1.891  17.006 -0.4379  0.3335  0.2662
  383TMC3    C2 5776   0.914   1.817  16.907 -0.2268 -0.8111  0.6866
  383TMC3    C3 5777   0.901   1.680  16.925 -0.0132  0.2081 -0.6307
  383TMC3    C4 5778   1.029   1.830  17.116 -0.4662 -0.1261  0.2424
  383TMC3    C5 5779   1.022   1.692  17.132  0.3973  0.2097  0.0923
  383TMC3    C6 5780   0.941   1.622  17.043  0.1526 -0.7499  0.2971
  383TMC3     C 5781   0.995   2.032  16.971  0.4375 -0.8303 -0.2831
  383TMC3     O 5782   1.000   2.106  17.067  0.4423 -0.0489  0.0859
  383TMC3     H 5783   0.849   1.858  16.830  2.7803 -2.5890 -2.7884
  383TMC3    H1 5784   1.085   1.893  17.185 -1.7225  2.7426 -1.3869
  383TMC3    H2 5785   0.928   1.518  17.070 -0.0062 -1.5877 -3.0502
  383TMC3    C7 5786   1.038   1.625  17.261 -0.4998 -0.3940 -0.1341
  383TMC3    C8 5787   0.796   1.611  16.854 -0.6760 -0.6275 -0.3169
  383TMC3    O1 5788   1.027   1.505  17.266  0.1072 -0.6580 -0.3415
  383TMC3    O2 5789   0.706   1.686  16.810  0.4533  0.0932 -0.8161
  384MPD2     C 5790   2.835   2.963  12.161 -0.2062  0.3250  0.7100
  384MPD2    C1 5791   2.743   2.877  12.229  0.1541  0.2224 -0.4008
  384MPD2    C2 5792   2.784   2.751  12.259  1.1743  0.3475  0.2792
  384MPD2    C3 5793   2.883   2.695  12.174  0.2487  0.5557  0.2566
  384MPD2    C4 5794   2.966   2.775  12.108 -0.1659 -0.6105 -0.1508
  384MPD2    C5 5795   2.944   2.910  12.107 -0.3537 -0.1737  0.4355
  384MPD2     H 5796   2.722   2.693  12.326  0.7518 -0.4740 -0.8203
  384MPD2    H1 5797   3.050   2.739  12.048 -0.7584 -0.8318 -0.8504
  384MPD2    H2 5798   2.812   3.067  12.138 -0.2224  0.7780  2.8226
  384MPD2    H3 5799   3.009   2.973  12.048 -1.0811  0.4395  0.2873
  384MPD2     N 5800   2.891   2.551  12.170 -0.1013  0.1575  0.2084
  384MPD2    H5 5801   2.838   2.508  12.245  0.8814  2.3425  2.1845
  384MPD2    N1 5802   2.619   2.925  12.280 -0.1848 -0.4334 -0.2349
  384MPD2    H7 5803   2.582   2.856  12.345  0.2401  0.9599  1.4809
  385TMC3    C1 5804   2.951   2.333  12.125 -0.2719  0.5942 -0.2049
  385TMC3    C2 5805   2.908   2.263  12.017 -0.5532 -0.5631  0.0805
  385TMC3    C3 5806   2.815   2.159  12.035  0.3371  0.8435 -0.2998
  385TMC3    C4 5807   2.912   2.304  12.247 -1.1309  0.1876 -0.2225
  385TMC3    C5 5808   2.805   2.219  12.256 -0.1241  0.8792 -1.6186
  385TMC3    C6 5809   2.762   2.137  12.161  0.0319  0.1888 -0.6026
  385TMC3     C 5810   2.973   2.471  12.096  0.1580  0.7088 -0.4747
  385TMC3     O 5811   3.059   2.506  12.019  0.5518 -0.6147  0.2832
  385TMC3     H 5812   2.945   2.302  11.923 -1.3879  0.3602  0.1448
  385TMC3    H1 5813   2.943   2.372  12.326 -0.6225 -1.2913  0.8450
  385TMC3    H2 5814   2.682   2.065  12.172 -0.7776  1.4745  2.0429
  385TMC3    C7 5815   2.692   2.294  12.311 -0.3698 -0.2407  0.3796
  385TMC3    C8 5816   2.708   2.151  11.933 -0.2562  0.5951 -0.7774
  385TMC3    O1 5817   2.725   2.407  12.337  0.0035  0.3395  0.1068
  385TMC3    O2 5818   2.593   2.136  11.975 -0.4764 -0.3514  0.4046
  386TMC3    C1 5819   3.123   0.383  11.540 -0.3211  0.3262  0.1021
  386TMC3    C2 5820   3.111   0.344  11.411 -0.0405 -0.5384 -0.6384
  386TMC3    C3 5821   3.042   0.423  11.323  0.3008  0.1233 -0.0938
  386TMC3    C4 5822   3.053   0.497  11.591  0.4755  0.3678 -0.4666
  386TMC3    C5 5823   2.977   0.562  11.497 -0.0649 -0.5251  0.4143
  386TMC3    C6 5824   2.975   0.539  11.362  0.2973 -0.3769  0.1371
  386TMC3     C 5825   3.135   0.285  11.635 -0.5560 -0.4574 -1.1839
  386TMC3     O 5826   3.062   0.280  11.730  0.2384  0.4990  0.2959
  386TMC3     H 5827   3.140   0.243  11.385  1.9441 -0.0028 -0.5426
  386TMC3    H1 5828   3.046   0.513  11.698  1.2018 -0.1980 -0.3328
  386TMC3    H2 5829   2.919   0.597  11.290  0.6833 -0.2178 -0.0345
  386TMC3    C7 5830   2.852   0.606  11.550 -0.3871 -0.3899 -0.1999
  386TMC3    C8 5831   3.000   0.377  11.196 -0.1247 -0.2680 -0.1833
  386TMC3    O1 5832   2.849   0.651  11.665  0.0808 -0.0020  0.8792
  386TMC3    O2 5833   2.944   0.462  11.125 -0.2438 -0.3350 -0.1969
  387MPD2     C 5834   0.655   4.446   9.728 -0.3785  0.5370  0.1241
  387MPD2    C1 5835   0.738   4.548   9.769  0.4830 -0.2397  0.2230
  387MPD2    C2 5836   0.873   4.521   9.786  0.4115 -0.0938 -0.0393
  387MPD2    C3 5837   0.922   4.395   9.778 -0.4219  0.1429  0.1233
  387MPD2    C4 5838   0.840   4.299   9.722 -0.1071  0.6613 -0.2774
  387MPD2    C5 5839   0.711   4.333   9.686 -0.3368 -0.8721 -0.5004
  387MPD2     H 5840   0.930   4.596   9.839 -0.0599  1.8527 -2.3010
  387MPD2    H1 5841   0.880   4.201   9.699 -0.9182 -0.3717  2.7785
  387MPD2    H2 5842   0.547   4.439   9.731 -0.1970 -1.8900  1.3905
  387MPD2    H3 5843   0.651   4.253   9.645 -0.5848 -1.3616  0.7920
  387MPD2     N 5844   1.046   4.354   9.840  0.4973 -0.7105  0.2491
  387MPD2    H5 5845   1.092   4.433   9.884  2.4603 -1.3569 -0.6291
  387MPD2    N1 5846   0.698   4.677   9.802  0.0359  0.2821 -0.2597
  387MPD2    H7 5847   0.769   4.729   9.854 -1.3486  0.9557  0.9468
  388TMC3    C1 5848   0.567   0.113   9.879 -0.0330  0.5394  0.5956
  388TMC3    C2 5849   0.473   0.212   9.851 -0.3416 -0.1621 -0.2884
  388TMC3    C3 5850   0.474   0.321   9.939  0.6571  0.4271 -1.2072
  388TMC3    C4 5851   0.632   0.109  10.000  0.4984 -0.4100  0.2559
  388TMC3    C5 5852   0.628   0.217  10.080  0.3609 -0.0109 -0.8771
  388TMC3    C6 5853   0.549   0.333  10.054  0.7620  0.0713  0.5540
  388TMC3     C 5854   0.572   4.729   9.795 -0.9657 -0.6601  0.5537
  388TMC3     O 5855   0.469   4.688   9.741 -0.2636  0.0186 -0.4448
  388TMC3     H 5856   0.403   0.200   9.768  1.4954  1.3113 -2.0494
  388TMC3    H1 5857   0.678   0.013  10.021  1.7172  0.1984  0.3386
  388TMC3    H2 5858   0.539   0.410  10.129  2.1781  0.1976  0.6107
  388TMC3    C7 5859   0.711   0.222  10.198  0.2288  0.4919 -0.6746
  388TMC3    C8 5860   0.390   0.433   9.908  0.2188 -0.0163  0.3144
  388TMC3    O1 5861   0.664   0.271  10.298 -0.2384  0.1074 -0.4812
  388TMC3    O2 5862   0.292   0.422   9.837 -0.5302  0.2704  0.0821
  389MPD2     C 5863   4.709   3.355  10.239  0.3747 -0.7847  0.2648
  389MPD2    C1 5864   4.580   3.394  10.268 -0.7144  0.4094  0.0501
  389MPD2    C2 5865   4.543   3.401  10.404 -0.5357 -0.5258 -0.0661
  389MPD2    C3 5866   4.637   3.392  10.500  0.5620  0.1442  0.3343
  389MPD2    C4 5867   0.030   3.357  10.467  0.9669 -0.2629  0.0951
  389MPD2    C5 5868   0.067   3.337  10.333  0.3664 -0.6801 -0.0313
  389MPD2     H 5869   4.447   3.448  10.426  0.3360  0.6520  1.2026
  389MPD2    H1 5870   0.112   3.339  10.536 -0.3999  1.5288  2.1714
  389MPD2    H2 5871   0.006   3.359  10.136 -0.2852 -1.8378  0.0093
  389MPD2    H3 5872   0.170   3.316  10.309  0.3756 -0.8003  0.1154
  389MPD2     N 5873   4.627   3.393  10.639 -0.4456  0.2544  0.2428
  389MPD2    H5 5874   4.709   3.387  10.698  0.5473 -2.7104 -1.4681
  389MPD2    N1 5875   4.497   3.409  10.156  0.7619  0.2334  0.1158
  389MPD2    H7 5876   4.547   3.394  10.069  0.5142 -0.3424  0.0717
  390TMC3    C1 5877   4.536   3.434  10.846  0.6497  0.8305 -0.1617
  390TMC3    C2 5878   4.589   3.329  10.915  0.2378  0.3370 -0.3138
  390TMC3    C3 5879   4.629   3.336  11.047 -0.2772  0.1168 -0.0983
  390TMC3    C4 5880   4.521   3.554  10.906  0.8192  0.6512 -0.1302
  390TMC3    C5 5881   4.543   3.560  11.038  0.1849 -0.0344 -0.3926
  390TMC3    C6 5882   4.605   3.456  11.111 -0.2765 -0.4663  0.4747
  390TMC3     C 5883   4.511   3.424  10.702 -0.2475  0.5780  0.1951
  390TMC3     O 5884   4.399   3.449  10.660 -0.2184 -0.9164  0.4249
  390TMC3     H 5885   4.606   3.237  10.860 -0.3717 -0.2585  0.5089
  390TMC3    H1 5886   4.485   3.637  10.846 -0.2451  1.1830  1.2380
  390TMC3    H2 5887   4.633   3.466  11.216  0.1468  1.9401  0.1379
  390TMC3    C7 5888   4.417   3.600  11.103 -0.0384  0.5813  0.3685
  390TMC3    C8 5889   4.576   3.228  11.130 -0.0944  0.4793 -0.2174
  390TMC3    O1 5890   4.328   3.651  11.039 -0.7701  0.4024 -0.0278
  390TMC3    O2 5891   4.486   3.175  11.072  0.2076  0.4889  0.0618
  391MPD2     C 5892   3.419   0.191  11.262 -0.7105 -0.4185 -0.7457
  391MPD2    C1 5893   3.516   0.277  11.222 -0.1195  0.8892  0.1920
  391MPD2    C2 5894   3.546   0.289  11.079 -0.3029 -0.2756 -0.0548
  391MPD2    C3 5895   3.476   0.209  10.990 -0.6426 -0.4576 -0.0162
  391MPD2    C4 5896   3.375   0.123  11.034  0.8307 -0.7544  0.3829
  391MPD2    C5 5897   3.353   0.123  11.163 -0.3095  0.0300  0.3040
  391MPD2     H 5898   3.633   0.341  11.039 -0.6872  0.3176 -0.1263
  391MPD2    H1 5899   3.321   0.055  10.968 -0.1120  0.1489  0.2219
  391MPD2    H2 5900   3.401   0.156  11.363  0.3125  1.4350  0.0849
  391MPD2    H3 5901   3.271   0.059  11.194 -0.4791 -0.9855 -2.2321
  391MPD2     N 5902   3.520   0.213  10.854  0.6673  0.3024 -0.1147
  391MPD2    H5 5903   3.598   0.271  10.824  2.9640 -2.7398 -0.0527
  391MPD2    N1 5904   3.609   0.339  11.308  0.0785 -0.6354  0.2783
  391MPD2    H7 5905   3.679   0.404  11.274 -0.5233  1.3792  2.9466
  392TMC3    C1 5906   3.512   0.158  10.619  0.4720 -0.7448  0.6074
  392TMC3    C2 5907   3.436   0.176  10.504  0.4269  0.0909 -0.9898
  392TMC3    C3 5908   3.497   0.206  10.385 -0.1532 -0.5309  0.4018
  392TMC3    C4 5909   3.650   0.171  10.618  0.6546  0.1422  0.3110
  392TMC3    C5 5910   3.704   0.209  10.496 -0.2292  1.3540  0.1670
  392TMC3    C6 5911   3.636   0.228  10.376 -0.0289  0.2149 -0.2897
  392TMC3     C 5912   3.444   0.163  10.744  0.3999 -1.0939  0.4777
  392TMC3     O 5913   3.327   0.134  10.740 -0.5072 -0.6762  0.1400
  392TMC3     H 5914   3.328   0.185  10.512  0.2494 -3.0553 -0.0282
  392TMC3    H1 5915   3.705   0.150  10.709 -0.8733  2.0249  1.6465
  392TMC3    H2 5916   3.676   0.264  10.282  0.6093  0.9438  0.2610
  392TMC3    C7 5917   3.847   0.252  10.500 -0.0629 -0.4559  0.4610
  392TMC3    C8 5918   3.412   0.267  10.283 -0.3783  0.3899 -0.0752
  392TMC3    O1 5919   3.876   0.290  10.614 -0.2348 -0.5451  0.0037
  392TMC3    O2 5920   3.310   0.207  10.260  0.2644 -0.3145  0.0610
  393TMC3    C1 5921   3.160   3.397  10.664  0.0484 -1.1808  0.1201
  393TMC3    C2 5922   3.029   3.389  10.691 -0.0385  0.5588  0.1151
  393TMC3    C3 5923   2.969   3.267  10.717 -0.7623  0.1919  0.1550
  393TMC3    C4 5924   3.240   3.286  10.643  0.1692  0.0400 -0.8416
  393TMC3    C5 5925   3.171   3.164  10.643  0.2507  0.3037 -0.5542
  393TMC3    C6 5926   3.041   3.156  10.687  0.0364 -0.2110  0.0269
  393TMC3     C 5927   3.198   3.507  10.580 -0.0580  0.1746 -0.2601
  393TMC3     O 5928   3.317   3.520  10.564  0.3760 -0.1525  0.6768
  393TMC3     H 5929   2.981   3.483  10.718  0.4427  1.0943 -0.8587
  393TMC3    H1 5930   3.343   3.291  10.611  0.4321 -1.0887 -0.1701
  393TMC3    H2 5931   2.991   3.060  10.698 -0.7689  0.1473 -0.4671
  393TMC3    C7 5932   3.246   3.041  10.642  0.1946  0.5328  0.4271
  393TMC3    C8 5933   2.832   3.270  10.741 -0.2706 -0.8734 -0.8223
  393TMC3    O1 5934   3.206   2.956  10.720  0.1916 -0.2526  0.8744
  393TMC3    O2 5935   2.791   3.358  10.814  0.5513 -0.4596 -0.3974
  394TMC3    C1 5936   4.302   3.430  10.031 -0.0337 -0.3346 -0.4074
  394TMC3    C2 5937   4.180   3.371  10.017  0.2541  0.2682 -0.6050
  394TMC3    C3 5938   4.128   3.355   9.890 -0.1217  0.0723  0.3572
  394TMC3    C4 5939   4.377   3.462   9.924 -0.0340  0.9489  0.0107
  394TMC3    C5 5940   4.322   3.451   9.802 -0.4168 -0.2294  0.0627
  394TMC3    C6 5941   4.197   3.400   9.785  0.0555  0.2648  0.7754
  394TMC3     C 5942   4.363   3.421  10.158 -0.1433 -0.1588  0.5672
  394TMC3     O 5943   4.287   3.406  10.252 -0.1395 -0.7441  0.8112
  394TMC3     H 5944   4.129   3.347  10.110 -1.6179 -3.4002 -2.5819
  394TMC3    H1 5945   4.466   3.525   9.931  1.9262 -1.9375  1.1972
  394TMC3    H2 5946   4.150   3.396   9.688  1.7767 -2.9461  0.0828
  394TMC3    C7 5947   4.386   3.522   9.691  0.0105 -0.3388 -0.4565
  394TMC3    C8 5948   4.033   3.247   9.879  0.0487  0.3232 -0.5391
  394TMC3    O1 5949   4.454   3.620   9.724  0.1884 -0.1035  0.5718
  394TMC3    O2 5950   3.957   3.251   9.780  0.1153  0.5857  0.1541
  395TMC3    C1 5951   4.192   0.511  15.054  0.1924  0.5192 -0.1721
  395TMC3    C2 5952   4.079   0.545  14.991  0.6571 -0.5598 -0.6060
  395TMC3    C3 5953   4.094   0.627  14.882 -0.2719  0.1603 -0.7011
  395TMC3    C4 5954   4.318   0.537  15.005 -0.8366 -0.4023  0.4913
  395TMC3    C5 5955   4.332   0.619  14.900  0.6118  1.2234  0.1885
  395TMC3    C6 5956   4.220   0.666  14.837 -0.0130  0.0209 -0.4827
  395TMC3     C 5957   4.177   0.460  15.181  0.1685 -0.3525 -0.2375
  395TMC3     O 5958   4.079   0.504  15.241 -0.1535  0.6174 -0.3199
  395TMC3     H 5959   3.983   0.518  15.034  0.5075  2.4516  0.9347
  395TMC3    H1 5960   4.407   0.526  15.064 -0.4284  0.4807  0.0516
  395TMC3    H2 5961   4.223   0.739  14.757  0.5428  0.2938 -0.2139
  395TMC3    C7 5962   4.455   0.700  14.888 -0.1010  0.6411 -0.1925
  395TMC3    C8 5963   3.985   0.701  14.836 -0.6417 -0.7235 -0.3202
  395TMC3    O1 5964   4.512   0.715  14.995 -0.5792 -0.3329  0.4836
  395TMC3    O2 5965   4.015   0.797  14.773 -0.0912 -1.0678 -0.0488
  396MPD2     C 5966   3.738   1.407  16.806 -0.8862  0.2065  0.7545
  396MPD2    C1 5967   3.839   1.417  16.891 -0.2895  0.3573 -0.0864
  396MPD2    C2 5968   3.918   1.534  16.899  0.3370 -0.2257  0.0327
  396MPD2    C3 5969   3.884   1.636  16.814 -0.0741  0.4118  0.2779
  396MPD2    C4 5970   3.779   1.623  16.726 -0.1425  0.0777 -0.3472
  396MPD2    C5 5971   3.707   1.512  16.728 -0.1987 -0.2318  0.6074
  396MPD2     H 5972   4.006   1.551  16.960  0.3909  0.4162 -0.2223
  396MPD2    H1 5973   3.751   1.702  16.657  1.0701 -0.0189 -0.9383
  396MPD2    H2 5974   3.676   1.322  16.777 -1.4227 -0.0499  2.6114
  396MPD2    H3 5975   3.624   1.498  16.660  0.0051 -1.7067  0.6605
  396MPD2     N 5976   3.968   1.750  16.807  0.5755  0.1279  0.6536
  396MPD2    H5 5977   4.049   1.750  16.868 -0.0189 -1.2360  1.4202
  396MPD2    N1 5978   3.864   1.307  16.966 -0.1708  0.3353  0.5261
  396MPD2    H7 5979   3.821   1.218  16.942 -0.3583  0.7931 -0.8262
  397TMC3    C1 5980   3.992   1.156  17.070  0.1032  0.2469 -0.2168
  397TMC3    C2 5981   4.101   1.152  16.991  0.1070  0.1406 -0.7084
  397TMC3    C3 5982   4.089   1.085  16.874 -0.2105  0.3108  0.3654
  397TMC3    C4 5983   3.903   1.056  17.063  0.0319 -0.5058  0.6572
  397TMC3    C5 5984   3.901   0.975  16.948  0.0994 -0.6132 -0.5779
  397TMC3    C6 5985   3.990   0.998  16.843  1.1965  0.2961  0.5423
  397TMC3     C 5986   3.948   1.296  17.073 -0.1901 -0.4849  0.1188
  397TMC3     O 5987   4.025   1.383  17.114  0.5147  0.1619 -0.0248
  397TMC3     H 5988   4.172   1.232  17.004  2.9776 -2.2554 -1.6159
  397TMC3    H1 5989   3.809   1.081  17.111  0.1389  1.5577 -0.1791
  397TMC3    H2 5990   3.985   0.931  16.758 -1.6398  1.3804 -0.1712
  397TMC3    C7 5991   3.889   0.836  16.983  0.3648 -0.4000  0.3655
  397TMC3    C8 5992   4.131   1.160  16.756 -0.2782 -0.5469  0.0432
  397TMC3    O1 5993   3.931   0.749  16.909 -0.2373  0.7211  0.1435
  397TMC3    O2 5994   4.046   1.188  16.670 -0.4107  0.1181  0.3338
  398MPD2     C 5995   2.003   3.552  17.625  0.7402 -0.7521  0.2150
  398MPD2    C1 5996   2.110   3.469  17.646  0.5431  0.0953 -0.3194
  398MPD2    C2 5997   2.212   3.509  17.734  0.0262 -0.4432  0.4219
  398MPD2    C3 5998   2.200   3.628   0.060  0.2514 -0.6504 -0.2268
  398MPD2    C4 5999   2.092   3.709   0.043 -0.2336  0.3792  0.2180
  398MPD2    C5 6000   1.993   3.658  17.708 -0.1868  0.2215  0.6035
  398MPD2     H 6001   2.305   3.455  17.743 -0.2441 -0.9615  0.0921
  398MPD2    H1 6002   2.069   3.800   0.097 -4.9114 -0.3833 -0.4326
  398MPD2    H2 6003   1.914   3.529  17.568  0.5597  1.3581 -0.3343
  398MPD2    H3 6004   1.903   3.717  17.692 -1.4894 -2.2445 -1.0317
  398MPD2     N 6005   2.308   3.664   0.153 -0.2006 -0.0441  0.2359
  398MPD2    H5 6006   2.381   3.594   0.155  0.2820  0.4528  0.0168
  398MPD2    N1 6007   2.129   3.345  17.579 -0.5784  0.5746 -0.0721
  398MPD2    H7 6008   2.193   3.282  17.625  0.1404  0.8731 -0.6557
  399TMC3    C1 6009   2.079   3.153  17.455  0.0832  0.5561  0.4551
  399TMC3    C2 6010   2.204   3.101  17.475  0.5871  0.1483  0.0373
  399TMC3    C3 6011   2.228   2.968  17.470 -0.0475 -0.7629 -0.4408
  399TMC3    C4 6012   1.984   3.081  17.407  0.6296  0.1367 -0.3874
  399TMC3    C5 6013   2.003   2.946  17.413 -0.7280 -0.3405  0.1042
  399TMC3    C6 6014   2.123   2.886  17.448  0.2954  0.0481  0.2366
  399TMC3     C 6015   2.054   3.294  17.482 -0.3650  0.4822  1.0102
  399TMC3     O 6016   1.956   3.341  17.426 -0.1181  0.3155 -0.7932
  399TMC3     H 6017   2.287   3.167  17.497  0.4421  0.4788 -0.3890
  399TMC3    H1 6018   1.882   3.116  17.398  0.4587 -0.3118 -0.1683
  399TMC3    H2 6019   2.129   2.778  17.440  2.0977  0.0362  1.6529
  399TMC3    C7 6020   1.892   2.867  17.377 -0.6816 -0.3237  0.0709
  399TMC3    C8 6021   2.345   2.936  17.384  0.4920  0.0611 -0.8657
  399TMC3    O1 6022   1.835   2.908  17.277 -0.3563 -0.7452 -0.8243
  399TMC3    O2 6023   2.369   3.020  17.298  0.4305 -0.2608 -0.1731
  400TMC3    C1 6024   0.796   1.423  16.368  0.7202 -0.4555  0.1204
  400TMC3    C2 6025   0.678   1.373  16.325  0.5339  0.0322 -0.3552
  400TMC3    C3 6026   0.556   1.441  16.341  0.6972 -0.1567 -0.1269
  400TMC3    C4 6027   0.795   1.545  16.434 -0.0801 -0.7082  0.2881
  400TMC3    C5 6028   0.676   1.609  16.458  0.7779 -0.9793  0.7525
  400TMC3    C6 6029   0.559   1.562  16.401  0.5849 -0.6686  0.5084
  400TMC3     C 6030   0.887   1.325  16.413  0.8420  0.0615 -0.8910
  400TMC3     O 6031   0.850   1.210  16.399 -0.3058  0.2266  0.3673
  400TMC3     H 6032   0.676   1.282  16.265 -0.7719  0.9608 -1.7193
  400TMC3    H1 6033   0.885   1.603  16.448  0.2478 -1.4713  1.3536
  400TMC3    H2 6034   0.470   1.624  16.405 -1.7209 -3.9127 -1.3430
  400TMC3    C7 6035   0.690   1.747  16.491 -0.3479  0.0063 -0.4259
  400TMC3    C8 6036   0.425   1.402  16.293 -0.6652  0.2018  1.0800
  400TMC3    O1 6037   0.791   1.778  16.556  0.0809 -0.6172  0.2588
  400TMC3    O2 6038   0.342   1.490  16.275 -1.0951 -1.2886  0.3623
  401MPD2     C 6039   3.614   0.264   0.338  0.5035  0.2318  0.0808
  401MPD2    C1 6040   3.665   0.195   0.446 -0.1565 -0.4302  0.2335
  401MPD2    C2 6041   3.674   0.058   0.449 -0.3672  0.4103 -0.7878
  401MPD2    C3 6042   3.623   4.724   0.339  0.3200  0.4251  0.3706
  401MPD2    C4 6043   3.564   0.053   0.231  0.4394  0.2919  0.0488
  401MPD2    C5 6044   3.571   0.194   0.229  0.2060  0.2393 -0.5859
  401MPD2     H 6045   3.706   0.001   0.535 -0.3138  0.5805 -0.6935
  401MPD2    H1 6046   3.507   0.008   0.150  1.0067  1.9603 -1.2727
  401MPD2    H2 6047   3.601   0.372   0.340  2.4663  0.5265 -1.7362
  401MPD2    H3 6048   3.530   0.246   0.144 -1.2939 -0.9804 -0.6233
  401MPD2     N 6049   3.626   4.582   0.351  0.7962 -0.0193 -0.5164
  401MPD2    H5 6050   3.670   4.555   0.439  1.1015 -1.1025 -0.9911
  401MPD2    N1 6051   3.718   0.261   0.560 -0.0220 -0.0701  0.2883
  401MPD2    H7 6052   3.712   0.213   0.650  0.8067 -2.6286 -1.0251
  402TMC3    C1 6053   3.620   4.341   0.315 -0.9419  0.1792 -0.3688
  402TMC3    C2 6054   3.598   4.313   0.444  0.2112 -0.2217  0.3463
  402TMC3    C3 6055   3.619   4.181   0.489 -0.1043 -0.3996 -0.1661
  402TMC3    C4 6056   3.662   4.243   0.225  0.1425  0.3944  0.5456
  402TMC3    C5 6057   3.685   4.119   0.277 -0.3662 -0.0939  0.2276
  402TMC3    C6 6058   3.681   4.089   0.413  0.5513  0.0612 -0.7708
  402TMC3     C 6059   3.589   4.484   0.266 -0.0773 -0.2564  0.3187
  402TMC3     O 6060   3.562   4.503   0.148  0.3772  0.0371 -0.2636
  402TMC3     H 6061   3.543   4.387   0.501  0.6687  0.3146  0.0952
  402TMC3    H1 6062   3.682   4.270   0.122  1.5024  0.1382  0.7373
  402TMC3    H2 6063   3.692   3.988   0.450 -2.1438 -0.2677 -0.8430
  402TMC3    C7 6064   3.740   4.022   0.189  0.1133 -0.4774  0.3086
  402TMC3    C8 6065   3.592   4.151   0.623  0.0710 -0.0660  0.2310
  402TMC3    O1 6066   3.712   4.016   0.068 -0.0991 -0.1981 -0.2328
  402TMC3    O2 6067   3.545   4.039   0.650 -0.5057 -0.1347 -0.1127
  403MPD2     C 6068   2.222   2.149  13.163 -0.1484  0.8396 -0.0727
  403MPD2    C1 6069   2.184   2.259  13.235  0.4069  0.1318  0.0607
  403MPD2    C2 6070   2.268   2.300  13.336 -0.7300 -0.1212 -0.0321
  403MPD2    C3 6071   2.371   2.224  13.379 -0.1307 -0.6611 -0.4302
  403MPD2    C4 6072   2.406   2.106  13.311 -0.6312 -0.0996  0.5023
  403MPD2    C5 6073   2.331   2.074  13.204  0.2776  0.1050  0.0780
  403MPD2     H 6074   2.246   2.395  13.384 -0.5011 -0.8173  1.4438
  403MPD2    H1 6075   2.487   2.041  13.339 -0.9135 -0.9052 -0.5507
  403MPD2    H2 6076   2.167   2.125  13.073  1.9304 -1.6157 -0.6979
  403MPD2    H3 6077   2.353   1.991  13.139 -1.4353 -0.0205 -0.3458
  403MPD2     N 6078   2.442   2.271  13.496  0.4238 -0.0312 -0.2719
  403MPD2    H5 6079   2.402   2.344  13.554 -0.7884  0.6897 -2.0215
  403MPD2    N1 6080   2.072   2.330  13.188  0.1181 -0.1714 -0.4619
  403MPD2    H7 6081   2.025   2.298  13.104  0.7946 -0.0287 -0.8882
  404TMC3    C1 6082   1.901   2.498  13.191  0.1238  0.3296  0.5812
  404TMC3    C2 6083   1.807   2.566  13.270  0.0670 -0.2554 -0.3242
  404TMC3    C3 6084   1.704   2.618  13.206  0.3626 -0.1147  0.1163
  404TMC3    C4 6085   1.896   2.497  13.054 -0.4003 -0.2262  0.1909
  404TMC3    C5 6086   1.796   2.570  12.991  0.1844 -0.5062 -0.4309
  404TMC3    C6 6087   1.699   2.631  13.066  0.2348 -0.1149 -0.3770
  404TMC3     C 6088   2.014   2.438  13.255  0.0634  0.1516 -0.0020
  404TMC3     O 6089   2.042   2.467  13.370  0.0823 -0.5292 -0.5255
  404TMC3     H 6090   1.815   2.555  13.378  0.6204 -0.6698 -0.4085
  404TMC3    H1 6091   1.983   2.466  12.997  1.2828  1.4132  1.8758
  404TMC3    H2 6092   1.628   2.695  13.014 -0.3303 -3.2624 -3.5432
  404TMC3    C7 6093   1.788   2.574  12.845 -0.0091 -0.1520 -0.2342
  404TMC3    C8 6094   1.605   2.706  13.272  0.4863 -0.3414  0.0133
  404TMC3    O1 6095   1.708   2.654  12.801 -0.1125 -0.2302 -0.1266
  404TMC3    O2 6096   1.530   2.767  13.199 -0.0863 -0.1821  0.1643
  405MPD2     C 6097   2.468   3.901  14.612  0.0311 -0.7163 -0.0961
  405MPD2    C1 6098   2.552   3.856  14.513  0.3058 -0.0413 -0.3958
  405MPD2    C2 6099   2.512   3.849  14.381 -0.0824 -0.2324  0.1198
  405MPD2    C3 6100   2.381   3.871  14.346 -0.7361  0.4862  0.9665
  405MPD2    C4 6101   2.295   3.916  14.446 -0.1251  0.7533 -0.3393
  405MPD2    C5 6102   2.340   3.930  14.576 -0.1231  0.4296 -0.2976
  405MPD2     H 6103   2.571   3.792  14.310 -0.9583 -0.5003 -0.3972
  405MPD2    H1 6104   2.189   3.918  14.424 -0.1503 -1.5569 -0.3935
  405MPD2    H2 6105   2.506   3.907  14.713 -0.7062 -0.3699  0.1565
  405MPD2    H3 6106   2.276   3.941  14.663 -0.5201  1.1192 -0.6819
  405MPD2     N 6107   2.338   3.827  14.216 -0.2439  0.2578 -0.0996
  405MPD2    H5 6108   2.404   3.772  14.161  0.8705  1.4261  0.0927
  405MPD2    N1 6109   2.677   3.814  14.560 -0.1413 -0.9741 -0.5558
  405MPD2    H7 6110   2.687   3.806  14.661 -0.3282  1.3126 -0.3550
  406TMC3    C1 6111   2.004   3.684  13.908  0.0782  0.1418 -0.1793
  406TMC3    C2 6112   2.037   3.560  13.941 -0.5336  0.4433 -0.0069
  406TMC3    C3 6113   2.146   3.522  14.021  0.2521  0.0039 -0.1281
  406TMC3    C4 6114   2.073   3.789  13.974 -0.6771  0.1690 -0.0995
  406TMC3    C5 6115   2.181   3.755  14.055  0.5853 -0.3498 -0.1483
  406TMC3    C6 6116   2.224   3.624  14.069  0.2386  0.0382  0.1982
  406TMC3     C 6117   1.864   3.714  13.907 -0.7632  0.2439  0.3966
  406TMC3     O 6118   1.831   3.813  13.839 -0.1901 -0.3876  0.1980
  406TMC3     H 6119   1.968   3.484  13.906  1.5255 -1.8686  0.8684
  406TMC3    H1 6120   2.038   3.892  13.969 -3.2315 -0.6221  1.6525
  406TMC3    H2 6121   2.297   3.606  14.148  1.3601  0.3494 -0.7632
  406TMC3    C7 6122   2.218   3.860  14.154 -0.7005 -0.1340  0.2028
  406TMC3    C8 6123   2.199   3.389  14.014 -0.5901  0.2500 -0.3163
  406TMC3    O1 6124   2.131   3.944  14.180  0.3382  0.5452  0.2719
  406TMC3    O2 6125   2.135   3.291  13.976  0.1687 -0.1802 -0.4071
  407MPD2     C 6126   4.701   4.510   9.233  0.3386 -0.1922 -0.3600
  407MPD2    C1 6127   0.049   4.572   9.328  0.3330 -0.4014 -0.8468
  407MPD2    C2 6128   0.012   4.561   9.462 -0.6847  0.4144  0.5786
  407MPD2    C3 6129   4.632   4.500   9.505  0.5854 -0.2450 -0.0092
  407MPD2    C4 6130   4.551   4.432   9.413 -0.1740  0.3562  0.1838
  407MPD2    C5 6131   4.591   4.442   9.282 -0.2974 -0.2723 -0.2982
  407MPD2     H 6132   0.078   4.624   9.521  1.0012 -0.2044 -0.6264
  407MPD2    H1 6133   4.477   4.361   9.448  0.9878 -1.0741 -0.2358
  407MPD2    H2 6134   4.723   4.517   9.127 -2.9031  0.3991 -0.9961
  407MPD2    H3 6135   4.532   4.384   9.212  0.7604  0.6590 -1.9425
  407MPD2     N 6136   4.587   4.502   9.643 -0.2207 -0.4148 -0.3806
  407MPD2    H5 6137   4.500   4.455   9.668  0.5213 -2.3964 -1.5788
  407MPD2    N1 6138   0.168   4.638   9.290 -0.0580 -0.1541  0.3607
  407MPD2    H7 6139   0.212   4.684   9.370  2.2682 -1.4664 -0.1790
  408TMC3    C1 6140   0.327   0.016   9.162  0.4229  0.3477  0.6398
  408TMC3    C2 6141   0.408   0.033   9.274  0.7935 -0.1579  0.1886
  408TMC3    C3 6142   0.510   0.124   9.267 -0.5134  0.4187  0.0572
  408TMC3    C4 6143   0.338   0.094   9.050  0.1810 -0.6228 -0.3377
  408TMC3    C5 6144   0.441   0.186   9.051 -0.2632 -0.1026  0.3577
  408TMC3    C6 6145   0.533   0.200   9.155  0.1271 -0.2557 -0.2546
  408TMC3     C 6146   0.210   4.669   9.164  0.4463  0.0987 -0.0354
  408TMC3     O 6147   0.153   4.652   9.057  0.0625 -0.5299  0.3558
  408TMC3     H 6148   0.413   4.702   9.359  1.8821 -0.6360 -0.2659
  408TMC3    H1 6149   0.272   0.077   8.965  0.1995  1.5927 -0.7931
  408TMC3    H2 6150   0.622   0.258   9.140  0.9233 -0.9244  1.8736
  408TMC3    C7 6151   0.466   0.264   8.929  0.1435  0.1826 -0.3072
  408TMC3    C8 6152   0.575   0.155   9.393  0.6323 -0.3455 -0.1084
  408TMC3    O1 6153   0.402   0.228   8.831 -0.2571 -0.5141 -0.2762
  408TMC3    O2 6154   0.594   0.066   9.476 -0.1245  0.2452 -0.1329
  409MPD2     C 6155   4.462   0.669  16.511  0.6408 -0.3098  0.2455
  409MPD2    C1 6156   4.486   0.743  16.630 -0.6323 -1.1203 -0.3163
  409MPD2    C2 6157   4.544   0.872  16.628  0.1397  0.9020  0.3242
  409MPD2    C3 6158   4.595   0.928  16.510 -0.1133 -0.1914 -0.0436
  409MPD2    C4 6159   4.566   0.860  16.396  0.1566 -0.3399 -0.0218
  409MPD2    C5 6160   4.508   0.727  16.395  0.2718  0.5790 -0.5439
  409MPD2     H 6161   4.560   0.925  16.722  1.0283 -0.8204  1.1364
  409MPD2    H1 6162   4.593   0.905  16.301 -0.3573  0.3617  0.1681
  409MPD2    H2 6163   4.417   0.571  16.524  0.3233 -0.1053  0.6915
  409MPD2    H3 6164   4.490   0.669  16.305  2.0938  0.4989 -0.8699
  409MPD2     N 6165   4.647   1.060  16.503 -0.6595  0.6821  0.6492
  409MPD2    H5 6166   4.661   1.100  16.411 -1.2661 -0.1986  0.1814
  409MPD2    N1 6167   4.439   0.704  16.757 -0.0943 -0.1484 -0.7229
  409MPD2    H7 6168   4.448   0.767  16.836 -2.0144  0.5787 -1.0747
  410TMC3    C1 6169   4.728   1.269  16.562 -0.5413  1.0901 -0.1410
  410TMC3    C2 6170   0.115   1.297  16.618 -0.0327  0.3155 -0.1566
  410TMC3    C3 6171   0.175   1.417  16.585 -0.0515 -0.3244 -0.5656
  410TMC3    C4 6172   4.669   1.347  16.464 -0.0555  0.5318  1.3006
  410TMC3    C5 6173   0.002   1.462  16.426 -0.2395 -0.0074  0.5767
  410TMC3    C6 6174   0.118   1.501  16.489  0.3982  0.1788 -0.9714
  410TMC3     C 6175   4.660   1.148  16.614  0.4934 -0.9244  0.7249
  410TMC3     O 6176   4.643   1.140  16.731  0.3177 -0.5207 -0.1432
  410TMC3     H 6177   0.145   1.222  16.691  0.1482  0.8030  0.2655
  410TMC3    H1 6178   4.574   1.323  16.418  1.4198 -1.3983 -0.7242
  410TMC3    H2 6179   0.183   1.576  16.445 -0.0157  0.7427 -0.6335
  410TMC3    C7 6180   4.678   1.522  16.312  0.3478 -0.8351 -0.3065
  410TMC3    C8 6181   0.309   1.442  16.631  0.4415  0.4145  0.4496
  410TMC3    O1 6182   4.598   1.452  16.251 -0.3849 -0.2479  0.6384
  410TMC3    O2 6183   0.355   1.558  16.624  0.5095  0.3230 -0.5271
  411MPD2     C 6184   0.055   1.312  14.425 -0.3820  0.6450  0.0292
  411MPD2    C1 6185   4.703   1.360  14.512 -0.4099  0.6380 -0.0096
  411MPD2    C2 6186   4.599   1.279  14.544 -0.1048 -0.4545 -0.3586
  411MPD2    C3 6187   4.577   1.159  14.477  0.3369 -0.2745 -0.3517
  411MPD2    C4 6188   4.668   1.113  14.388  1.3383  0.5776 -0.4241
  411MPD2    C5 6189   0.044   1.182  14.365  0.6501 -0.6337  0.3467
  411MPD2     H 6190   4.528   1.305  14.622 -0.2021 -0.3426 -0.4856
  411MPD2    H1 6191   4.653   1.017  14.341 -0.9922  1.4192 -1.3879
  411MPD2    H2 6192   0.131   1.381  14.389 -0.0540  0.6813  0.7995
  411MPD2    H3 6193   0.119   1.155  14.292 -0.2864  1.6015 -1.4495
  411MPD2     N 6194   4.466   1.074  14.498  0.2126  1.1786 -0.7689
  411MPD2    H5 6195   4.466   0.990  14.441 -2.4366  0.6928 -0.0870
  411MPD2    N1 6196   4.720   1.486  14.558 -0.4937 -0.2069  0.0381
  411MPD2    H7 6197   0.056   1.540  14.513  0.1996 -0.3297  1.0036
  412TMC3    C1 6198   4.259   0.989  14.556  0.1070 -0.2657 -0.0677
  412TMC3    C2 6199   4.131   1.030  14.537  0.2261  0.5953 -0.7178
  412TMC3    C3 6200   4.049   0.946  14.457 -0.1182  0.1133 -0.2036
  412TMC3    C4 6201   4.310   0.879  14.490 -0.1310  0.2593  0.5499
  412TMC3    C5 6202   4.232   0.816  14.405 -0.3348  0.1730 -0.6558
  412TMC3    C6 6203   4.101   0.844  14.387 -0.1686  0.9990 -0.4722
  412TMC3     C 6204   4.354   1.087  14.587 -0.7716 -0.4834 -0.1805
  412TMC3     O 6205   4.339   1.179  14.668  0.0988  0.2672  0.1906
  412TMC3     H 6206   4.099   1.117  14.592 -3.2110 -0.6126 -0.8042
  412TMC3    H1 6207   4.412   0.846  14.503 -0.6917 -1.5559  0.3668
  412TMC3    H2 6208   4.044   0.798  14.307  1.8441 -0.4354 -1.0847
  412TMC3    C7 6209   4.308   0.855  14.284 -0.1176  1.3200  0.1668
  412TMC3    C8 6210   3.934   1.003  14.388 -0.5073 -0.1367  0.0632
  412TMC3    O1 6211   4.428   0.863  14.292 -0.3357  0.4751 -0.1543
  412TMC3    O2 6212   3.926   1.123  14.384  0.4341  0.1613  0.4744
  413MPD2     C 6213   1.518   4.501  15.520 -0.4291  0.0610 -0.5541
  413MPD2    C1 6214   1.454   4.455  15.409  0.9618 -0.0735  0.2655
  413MPD2    C2 6215   1.538   4.422  15.298  0.1832  0.7430  0.2517
  413MPD2    C3 6216   1.679   4.420  15.303 -0.6047  0.5767 -0.2408
  413MPD2    C4 6217   1.736   4.450  15.421 -0.1783 -0.3723 -0.2541
  413MPD2    C5 6218   1.652   4.494  15.516  0.2684 -0.3701  0.1689
  413MPD2     H 6219   1.495   4.388  15.204 -2.5452  1.3669  1.2547
  413MPD2    H1 6220   1.842   4.452  15.441 -0.1710 -1.5639 -0.2180
  413MPD2    H2 6221   1.465   4.537  15.607  2.0797  0.2665  0.8815
  413MPD2    H3 6222   1.697   4.518  15.611 -0.4109  1.6585 -0.0167
  413MPD2     N 6223   1.748   4.383  15.185 -0.0976 -0.3192  0.1098
  413MPD2    H5 6224   1.693   4.382  15.100 -0.0925 -1.8757  0.1261
  413MPD2    N1 6225   1.316   4.440  15.392  0.4271 -0.0548 -0.2142
  413MPD2    H7 6226   1.286   4.416  15.297  1.6017  2.0365 -1.1023
  414TMC3    C1 6227   1.916   4.284  15.067 -0.3418  0.3012 -0.0082
  414TMC3    C2 6228   2.003   4.178  15.077  0.3429 -0.1140  0.0097
  414TMC3    C3 6229   2.041   4.124  14.958  0.1640 -0.2455  0.0047
  414TMC3    C4 6230   1.874   4.348  14.956  0.2522  0.1368  0.8416
  414TMC3    C5 6231   1.920   4.285  14.843 -0.1995  0.6223 -0.0381
  414TMC3    C6 6232   1.994   4.167  14.842  0.8760  0.4584 -0.4787
  414TMC3     C 6233   1.878   4.334  15.188 -0.2685 -0.3907  1.3960
  414TMC3     O 6234   1.945   4.311  15.287 -0.7947  0.2254 -0.1990
  414TMC3     H 6235   2.027   4.134  15.173  2.7992  1.7950  0.2861
  414TMC3    H1 6236   1.814   4.438  14.951 -1.8169 -1.1456  2.5758
  414TMC3    H2 6237   2.009   4.105  14.754  0.3907 -3.0590  1.8772
  414TMC3    C7 6238   1.843   4.312  14.732  0.2169 -0.2162 -0.7835
  414TMC3    C8 6239   2.149   4.036  14.964  0.2223 -0.3381 -0.2416
  414TMC3    O1 6240   1.731   4.348  14.766  0.3992 -0.3906  0.3329
  414TMC3    O2 6241   2.172   3.960  14.866 -0.2911 -0.6005  0.1275
  415TMC3    C1 6242   2.314   2.763  10.679 -0.3182 -0.0993  0.6499
  415TMC3    C2 6243   2.372   2.755  10.554 -0.8971  0.4192 -0.0117
  415TMC3    C3 6244   2.332   2.661  10.465 -0.0184 -0.1059 -0.1942
  415TMC3    C4 6245   2.215   2.673  10.713  0.5136  0.0213  0.0338
  415TMC3    C5 6246   2.188   2.576  10.621 -0.6334 -0.5239 -0.5430
  415TMC3    C6 6247   2.240   2.571  10.498  0.6497  0.7039  0.1801
  415TMC3     C 6248   2.367   2.849  10.787  0.1153  0.0684  0.0620
  415TMC3     O 6249   2.291   2.856  10.882  0.5228  0.2639  0.1075
  415TMC3     H 6250   2.459   2.818  10.534 -0.2567 -0.4240  0.1173
  415TMC3    H1 6251   2.164   2.665  10.809 -1.3928 -2.5998 -1.1663
  415TMC3    H2 6252   2.214   2.496  10.425 -1.1529  1.4956  0.0147
  415TMC3    C7 6253   2.064   2.497  10.642 -0.0768  0.6892 -0.5699
  415TMC3    C8 6254   2.390   2.642  10.333  0.4934  0.0785  0.0121
  415TMC3    O1 6255   2.032   2.422  10.555  0.8196 -0.0080  0.4402
  415TMC3    O2 6256   2.388   2.532  10.280 -0.6827  0.0770 -0.0907
  416MPD2     C 6257   4.312   1.349  11.425  0.1929 -0.2566  0.1546
  416MPD2    C1 6258   4.205   1.370  11.342  0.5588  0.3906  0.6030
  416MPD2    C2 6259   4.213   1.322  11.211 -0.3953 -0.0799  0.9463
  416MPD2    C3 6260   4.318   1.237  11.169  0.6806  0.8293 -0.1425
  416MPD2    C4 6261   4.431   1.232  11.253 -0.2765 -0.4528 -0.1263
  416MPD2    C5 6262   4.422   1.282  11.379  0.1185  0.9050 -0.4278
  416MPD2     H 6263   4.121   1.330  11.155 -0.6399  0.3754  1.4126
  416MPD2    H1 6264   4.521   1.178  11.226 -0.2504  0.1388 -1.2226
  416MPD2    H2 6265   4.317   1.390  11.525 -0.4161  1.1822 -0.4013
  416MPD2    H3 6266   4.508   1.284  11.446 -0.2260  1.0340  0.0057
  416MPD2     N 6267   4.330   1.172  11.041 -0.1901 -0.2147 -0.1130
  416MPD2    H5 6268   4.424   1.136  11.027  0.4824  1.2506  0.5551
  416MPD2    N1 6269   4.093   1.443  11.396 -0.1802 -0.5769  0.7813
  416MPD2    H7 6270   4.101   1.470  11.494 -0.2667 -2.4339  1.2944
  417TMC3    C1 6271   3.892   1.548  11.409 -0.1995  0.6950 -0.0301
  417TMC3    C2 6272   3.897   1.535  11.550  0.7323  0.1322 -0.0224
  417TMC3    C3 6273   3.793   1.587  11.621 -0.3878 -0.4664  0.1894
  417TMC3    C4 6274   3.783   1.613  11.352  0.2710 -0.0765 -0.4702
  417TMC3    C5 6275   3.675   1.660  11.431  0.1375 -0.9579  0.7847
  417TMC3    C6 6276   3.681   1.650  11.567  1.1897 -0.0699  0.5115
  417TMC3     C 6277   3.995   1.495  11.323  0.1441 -0.0477  0.5045
  417TMC3     O 6278   3.986   1.512  11.202  0.2632 -0.3852 -0.0773
  417TMC3     H 6279   3.961   1.465  11.603 -1.5080 -0.9235  1.2898
  417TMC3    H1 6280   3.780   1.636  11.246 -1.5657 -1.1554 -0.6538
  417TMC3    H2 6281   3.611   1.704  11.630  2.4865  1.3927  0.7065
  417TMC3    C7 6282   3.587   1.757  11.377  0.0386 -0.2985  0.1217
  417TMC3    C8 6283   3.801   1.613  11.766  0.0187  0.4923  0.4180
  417TMC3    O1 6284   3.620   1.794  11.264 -0.4906  0.1920  0.2403
  417TMC3    O2 6285   3.701   1.649  11.826 -0.0064 -0.0578 -0.1096
  418TMC3    C1 6286   2.653   3.944   0.260  0.7986 -0.0315 -0.3899
  418TMC3    C2 6287   2.531   3.919   0.213 -0.3167  0.4184  0.3137
  418TMC3    C3 6288   2.474   3.798   0.229  0.5803  0.0351  0.2821
  418TMC3    C4 6289   2.723   3.845   0.319 -0.1322  0.1965 -0.8553
  418TMC3    C5 6290   2.655   3.728   0.359 -0.1639  0.2447 -0.6937
  418TMC3    C6 6291   2.529   3.702   0.309  0.1543 -0.2371  0.1688
  418TMC3     C 6292   2.733   4.049   0.185  0.0829  0.1074  0.8229
  418TMC3     O 6293   2.673   4.151   0.165  0.1047 -0.3685 -0.6734
  418TMC3     H 6294   2.475   3.990   0.153 -0.7280 -0.6129 -0.5403
  418TMC3    H1 6295   2.827   3.860   0.348 -0.1743  0.1876 -0.6964
  418TMC3    H2 6296   2.477   3.608   0.327 -1.0973  0.2180 -1.1687
  418TMC3    C7 6297   2.724   3.614   0.412 -1.1759 -0.1847 -0.3860
  418TMC3    C8 6298   2.334   3.789   0.195  0.2049 -0.2383  0.2750
  418TMC3    O1 6299   2.704   3.496   0.381 -0.3392 -0.2468 -0.0325
  418TMC3    O2 6300   2.258   3.885   0.202 -0.0176 -0.2410 -0.3234
  419MPD2     C 6301   1.548   1.573  12.707 -0.1020 -0.3821  0.5931
  419MPD2    C1 6302   1.462   1.667  12.652 -0.2041 -0.1054  0.4300
  419MPD2    C2 6303   1.407   1.759  12.745  0.7497 -0.1993  0.9880
  419MPD2    C3 6304   1.438   1.758  12.888 -0.0319 -0.0121  0.5272
  419MPD2    C4 6305   1.538   1.665  12.921 -0.5812 -0.3122  0.1410
  419MPD2    C5 6306   1.580   1.571  12.838  0.7111  0.0728 -0.1977
  419MPD2     H 6307   1.334   1.827  12.704 -0.2790 -1.9736 -0.1001
  419MPD2    H1 6308   1.564   1.645  13.025  0.4623  0.5902  0.0488
  419MPD2    H2 6309   1.582   1.489  12.646 -1.9314  0.8852 -2.1712
  419MPD2    H3 6310   1.649   1.501  12.883  1.4357  0.2637 -1.0035
  419MPD2     N 6311   1.384   1.861  12.972  0.1632 -0.2679 -0.6984
  419MPD2    H5 6312   1.311   1.917  12.928 -2.2404 -1.9479  1.0945
  419MPD2    N1 6313   1.420   1.665  12.514 -0.3443 -0.1494  0.1147
  419MPD2    H7 6314   1.345   1.728  12.487 -0.4949 -0.3034  0.1754
  420TMC3    C1 6315   1.360   1.987  13.174 -0.3212 -0.4164  0.5707
  420TMC3    C2 6316   1.274   2.062  13.111  0.2181 -1.0780  0.0370
  420TMC3    C3 6317   1.160   2.112  13.180  0.4149  0.5742 -0.3258
  420TMC3    C4 6318   1.350   1.967  13.309 -0.1821  0.3104  0.0927
  420TMC3    C5 6319   1.233   2.013  13.377 -1.1936  0.3655 -0.4013
  420TMC3    C6 6320   1.136   2.079  13.311 -0.2095  0.5760 -0.2246
  420TMC3     C 6321   1.419   1.873  13.102 -0.0081 -0.3206 -0.5545
  420TMC3     O 6322   1.496   1.807  13.175 -0.0921  0.3759  0.4601
  420TMC3     H 6323   1.283   2.066  13.003 -1.2429  1.6509  0.0133
  420TMC3    H1 6324   1.413   1.896  13.360  0.7694  1.2750  0.2586
  420TMC3    H2 6325   1.040   2.096  13.358 -0.9401 -1.2324 -1.0935
  420TMC3    C7 6326   1.196   1.934  13.492  0.1515  0.9214 -0.1135
  420TMC3    C8 6327   1.046   2.162  13.099  0.1271 -0.3339  0.0622
  420TMC3    O1 6328   1.224   1.816  13.487  0.6631  0.0917 -0.0928
  420TMC3    O2 6329   0.930   2.147  13.134  0.1047 -0.4744  0.6663
  421TMC3    C1 6330   2.598   2.262  13.673 -0.8737 -0.0069  0.2727
  421TMC3    C2 6331   2.609   2.395  13.681 -0.1186 -0.0880  0.5335
  421TMC3    C3 6332   2.683   2.450  13.784 -0.2752  0.0550 -0.8027
  421TMC3    C4 6333   2.689   2.180  13.749  0.3893  0.8586  0.7252
  421TMC3    C5 6334   2.760   2.239  13.854  0.2182 -0.5128 -0.6281
  421TMC3    C6 6335   2.756   2.374  13.867 -0.0048  0.0715 -0.1196
  421TMC3     C 6336   2.552   2.199  13.548  0.1440 -0.0708  0.2229
  421TMC3     O 6337   2.600   2.089  13.516  0.2094  0.0415  0.1602
  421TMC3     H 6338   2.566   2.455  13.602  2.3635 -0.2733 -0.9431
  421TMC3    H1 6339   2.690   2.073  13.732  0.1911  0.7869  1.1655
  421TMC3    H2 6340   2.802   2.420  13.953 -0.3427 -0.2607  0.2386
  421TMC3    C7 6341   2.904   2.209  13.861  0.3194  0.5269 -0.0251
  421TMC3    C8 6342   2.715   2.591  13.771 -0.2425  0.2941  0.1471
  421TMC3    O1 6343   2.988   2.296  13.860  0.3968  0.6227 -0.0539
  421TMC3    O2 6344   2.707   2.642  13.656 -0.2110  0.0820  0.1080
  422TMC3    C1 6345   0.214   4.573  12.480  0.0425 -0.4843  0.2912
  422TMC3    C2 6346   0.204   4.703  12.530  0.1108  0.3200 -0.9080
  422TMC3    C3 6347   0.100   0.006  12.606  0.9117  0.0975  0.1584
  422TMC3    C4 6348   0.106   4.499  12.498 -0.9162  0.3281 -0.2143
  422TMC3    C5 6349   4.735   4.536  12.567 -0.0278 -0.1918  0.0723
  422TMC3    C6 6350   4.731   4.659  12.633  1.2755  0.6540 -0.1221
  422TMC3     C 6351   0.330   4.535  12.405 -0.3745  0.4634 -0.4011
  422TMC3     O 6352   0.404   4.631  12.372  0.5045 -0.0001 -0.1337
  422TMC3     H 6353   0.283   0.040  12.525 -0.2508  0.8490  1.3299
  422TMC3    H1 6354   0.128   4.395  12.476  1.3304  0.4416  1.6069
  422TMC3    H2 6355   4.650   4.692  12.697 -0.0313  2.5229 -2.7124
  422TMC3    C7 6356   4.627   4.437  12.580  0.3496  0.5496 -0.2479
  422TMC3    C8 6357   0.100   0.143  12.651  0.3860 -0.9039  0.2474
  422TMC3    O1 6358   4.554   4.459  12.674 -0.7842  0.0268 -0.1527
  422TMC3    O2 6359   0.196   0.216  12.648 -0.0690 -0.0702 -0.2020
  423MPD2     C 6360   0.937   0.162   0.399  0.7020  0.0049  0.1290
  423MPD2    C1 6361   1.041   0.079   0.406 -0.3698 -0.7157  0.6731
  423MPD2    C2 6362   1.134   0.075   0.300 -0.7359 -0.8406 -1.1176
  423MPD2    C3 6363   1.118   0.151   0.185  0.6586  0.2172  0.1649
  423MPD2    C4 6364   1.004   0.231   0.184  0.3955 -0.3112  0.4432
  423MPD2    C5 6365   0.919   0.238   0.291 -0.3769  0.1914  0.4439
  423MPD2     H 6366   1.220   0.009   0.297 -0.5918 -0.7312  0.3921
  423MPD2    H1 6367   0.982   0.294   0.099  1.3115  0.8731  1.0864
  423MPD2    H2 6368   0.861   0.186   0.473  0.6366 -0.0788  0.0892
  423MPD2    H3 6369   0.839   0.311   0.282 -0.9746 -0.6510 -0.9417
  423MPD2     N 6370   1.205   0.126   0.079 -0.2818 -0.8014 -0.4257
  423MPD2    H5 6371   1.279   0.057   0.086 -0.0016 -0.2788  1.9048
  423MPD2    N1 6372   1.066   0.007   0.526  0.1470 -1.0562 -0.1276
  423MPD2    H7 6373   1.152   4.690   0.532  0.6216 -0.3162 -0.2569
  424TMC3    C1 6374   1.096   4.706   0.750 -0.0399  0.0754  0.3922
  424TMC3    C2 6375   1.231   4.729   0.737 -0.1461 -0.5350 -0.0993
  424TMC3    C3 6376   1.312   4.711   0.845  0.1389 -0.0165  0.5370
  424TMC3    C4 6377   1.046   4.705   0.880 -0.2360 -0.1993 -0.3068
  424TMC3    C5 6378   1.132   4.706   0.989  0.2226  1.1045 -0.5241
  424TMC3    C6 6379   1.264   4.689   0.968  0.3981  0.0792  0.4711
  424TMC3     C 6380   1.002   0.014   0.647 -0.2027  0.1543 -0.5551
  424TMC3     O 6381   0.917   0.091   0.681 -0.1576 -0.0945 -0.6451
  424TMC3     H 6382   1.271   0.023   0.641  0.3321 -1.6797 -0.2674
  424TMC3    H1 6383   0.938   4.702   0.890 -0.2966  0.4148 -0.7548
  424TMC3    H2 6384   1.333   4.678   1.051  2.3756 -0.2156 -1.1970
  424TMC3    C7 6385   1.097   0.023   1.106  0.1674  0.0609  0.2575
  424TMC3    C8 6386   1.456   4.731   0.840 -0.1942  0.7222  0.1763
  424TMC3    O1 6387   1.173   0.008   1.200 -0.1041 -0.5390  0.0441
  424TMC3    O2 6388   1.518   4.658   0.914 -0.1425  0.1445 -0.9285
  425MPD2     C 6389   0.630   4.532  17.350 -0.0777 -0.1478  0.3145
  425MPD2    C1 6390   0.508   4.472  17.322 -0.2143  0.3884 -0.5759
  425MPD2    C2 6391   0.391   4.549  17.350  0.2081  0.8976 -0.0543
  425MPD2    C3 6392   0.398   4.672  17.405  0.5665  0.3597 -0.2984
  425MPD2    C4 6393   0.518   4.728  17.440 -0.7056 -0.7113 -0.0072
  425MPD2    C5 6394   0.640   4.658  17.413  0.2727  0.0959 -0.6259
  425MPD2     H 6395   0.293   4.510  17.323 -0.5935  2.8846 -0.0266
  425MPD2    H1 6396   0.535   0.090  17.482  1.3315 -0.0814 -2.2698
  425MPD2    H2 6397   0.718   4.472  17.329  1.6849  3.0144 -1.2018
  425MPD2    H3 6398   0.741   4.694  17.424  0.9661 -1.9751 -0.1821
  425MPD2     N 6399   0.278   0.004  17.431  0.8155 -1.0981  0.2396
  425MPD2    H5 6400   0.197   4.702  17.386  0.2556 -0.5691  0.7923
  425MPD2    N1 6401   0.508   4.347  17.264  0.2153  0.0551  0.3524
  425MPD2    H7 6402   0.596   4.307  17.234  0.5998  2.7139 -2.1098
  426TMC3    C1 6403   0.432   4.158  17.163  0.1051 -0.1987  0.0567
  426TMC3    C2 6404   0.468   4.187  17.032  0.2858  0.2902  0.3452
  426TMC3    C3 6405   0.470   4.075  16.948  0.4269  0.8041  0.5602
  426TMC3    C4 6406   0.378   4.040  17.199  0.0436 -0.3917  0.5070
  426TMC3    C5 6407   0.373   3.939  17.105 -0.3173  0.7009 -0.2895
  426TMC3    C6 6408   0.431   3.949  16.983  0.3824  0.1243 -0.2286
  426TMC3     C 6409   0.397   4.268  17.251  0.3808 -0.1492  0.3684
  426TMC3     O 6410   0.292   4.271  17.309  0.1242 -0.3721 -0.1651
  426TMC3     H 6411   0.504   4.288  17.012 -2.2861  0.9481 -0.8553
  426TMC3    H1 6412   0.334   4.028  17.297  0.2282 -1.4633  0.4541
  426TMC3    H2 6413   0.417   3.863  16.918 -0.8515 -0.7403  1.1810
  426TMC3    C7 6414   0.310   3.814  17.139 -0.0139 -0.4889 -0.6346
  426TMC3    C8 6415   0.485   4.091  16.805  0.4360 -0.0156 -0.2425
  426TMC3    O1 6416   0.372   3.707  17.120 -0.1357  0.1581 -0.4143
  426TMC3    O2 6417   0.563   4.019  16.756 -0.2959 -0.4972  0.6150
  427MPD2     C 6418   3.747   1.981  15.371 -0.7658  0.1261 -0.8898
  427MPD2    C1 6419   3.730   1.843  15.385 -0.1681 -0.4273  0.3908
  427MPD2    C2 6420   3.630   1.787  15.315  0.6593 -0.1224  0.1089
  427MPD2    C3 6421   3.533   1.867  15.257  0.4661  0.0318  0.1516
  427MPD2    C4 6422   3.541   2.003  15.264 -0.7616 -0.0061  0.4997
  427MPD2    C5 6423   3.655   2.055  15.314 -0.3721 -0.1742 -0.1046
  427MPD2     H 6424   3.631   1.678  15.314 -1.0157 -0.1253 -0.3358
  427MPD2    H1 6425   3.470   2.069  15.217  0.3858  0.1311 -1.0206
  427MPD2    H2 6426   3.841   2.026  15.401 -1.3388 -0.8965  2.4996
  427MPD2    H3 6427   3.657   2.163  15.306 -0.0843 -0.2331 -0.8706
  427MPD2     N 6428   3.424   1.817  15.177  0.2986  0.1220  0.1593
  427MPD2    H5 6429   3.367   1.890  15.135 -0.0696  1.0958  2.3373
  427MPD2    N1 6430   3.815   1.763  15.458  0.2939 -0.4268 -0.2362
  427MPD2    H7 6431   3.824   1.669  15.420  0.1105  0.0886 -1.5718
  428TMC3    C1 6432   4.008   1.681  15.560  0.3723  0.1196  0.3821
  428TMC3    C2 6433   3.967   1.602  15.659  0.6004 -0.5009 -0.8627
  428TMC3    C3 6434   4.064   1.523  15.728 -0.5827 -0.3866 -0.9001
  428TMC3    C4 6435   4.137   1.700  15.527 -0.2614 -0.5370  0.5800
  428TMC3    C5 6436   4.230   1.628  15.594 -0.5688 -0.4239 -0.4429
  428TMC3    C6 6437   4.197   1.538  15.693  0.0804 -0.0461  0.4926
  428TMC3     C 6438   3.926   1.798  15.538 -0.0966  0.0149 -0.3116
  428TMC3     O 6439   3.970   1.911  15.567 -0.2800  0.6756 -0.0347
  428TMC3     H 6440   3.863   1.611  15.688  2.0277  0.3057  3.9945
  428TMC3    H1 6441   4.155   1.775  15.450 -3.5478 -0.3147  0.0404
  428TMC3    H2 6442   4.280   1.483  15.735  2.1598  2.3725 -0.4649
  428TMC3    C7 6443   4.374   1.658  15.576 -0.0045  0.5720 -0.1466
  428TMC3    C8 6444   4.035   1.394  15.786  0.1315 -0.7135 -0.4734
  428TMC3    O1 6445   4.447   1.644  15.670  0.0342 -0.7059  0.1136
  428TMC3    O2 6446   4.122   1.334  15.844  0.0027 -0.1526 -0.0476
  429MPD2     C 6447   0.173   1.939  17.469 -0.1777  0.1144 -0.2391
  429MPD2    C1 6448   0.156   1.919  17.336  0.5083  0.5709 -0.0792
  429MPD2    C2 6449   0.229   1.994  17.242 -0.2188 -0.6103  0.6780
  429MPD2    C3 6450   0.322   2.087  17.294 -0.0180 -0.2797  0.0337
  429MPD2    C4 6451   0.347   2.104  17.432  0.6061  0.4580  0.5117
  429MPD2    C5 6452   0.272   2.022  17.513  0.4029 -0.4732 -0.1755
  429MPD2     H 6453   0.222   1.982  17.134 -1.3580  0.4617  0.6363
  429MPD2    H1 6454   0.421   2.168  17.478  2.4093 -1.6477  0.5012
  429MPD2    H2 6455   0.126   1.878  17.546  1.4158 -1.6819 -0.6897
  429MPD2    H3 6456   0.290   2.021  17.620  2.1825  2.2493 -0.4316
  429MPD2     N 6457   0.389   2.165  17.197 -0.1587 -0.3420  0.4347
  429MPD2    H5 6458   0.372   2.147  17.098 -0.6590  0.0142  0.4531
  429MPD2    N1 6459   0.067   1.824  17.295  0.4704  0.4778 -0.6385
  429MPD2    H7 6460   0.045   1.818  17.196  0.6437 -2.1681 -0.5066
  430TMC3    C1 6461   0.537   2.324  17.111  0.4860 -0.1911  0.1352
  430TMC3    C2 6462   0.538   2.457  17.083  0.2631 -0.6438  0.7134
  430TMC3    C3 6463   0.604   2.503  16.971  0.3913 -0.2635 -0.4082
  430TMC3    C4 6464   0.593   2.232  17.028 -0.0713  0.0474 -0.0020
  430TMC3    C5 6465   0.658   2.277  16.911  0.1043  0.5952  0.5585
  430TMC3    C6 6466   0.657   2.412  16.887 -0.1720 -0.0995  0.0279
  430TMC3     C 6467   0.452   2.286  17.226 -0.4827 -1.0385  0.9313
  430TMC3     O 6468   0.473   2.344  17.329 -0.1787 -0.3504 -0.1077
  430TMC3     H 6469   0.470   2.523  17.136 -0.1187 -1.6231  1.4482
  430TMC3    H1 6470   0.591   2.127  17.056 -3.3361 -0.0227 -0.4833
  430TMC3    H2 6471   0.717   2.447  16.804 -1.2219  2.5014  0.3547
  430TMC3    C7 6472   0.658   2.180  16.800  1.0699  0.1739 -0.7221
  430TMC3    C8 6473   0.550   2.621  16.906 -0.2321  0.5987 -0.0022
  430TMC3    O1 6474   0.659   2.060  16.830  0.1382  0.0661  0.5641
  430TMC3    O2 6475   0.594   2.729  16.931  0.0884 -0.1626  0.5459
  431MPD2     C 6476   0.783   2.029  12.533  0.7509  0.1760  0.9281
  431MPD2    C1 6477   0.892   2.053  12.445  0.2569  0.2653 -0.3574
  431MPD2    C2 6478   0.935   1.944  12.373  0.0130 -0.7066  0.0705
  431MPD2    C3 6479   0.891   1.814  12.396  0.0772 -0.2723  0.4953
  431MPD2    C4 6480   0.798   1.796  12.497  0.1305 -0.0821  0.1811
  431MPD2    C5 6481   0.747   1.900  12.563  0.1133  0.3109  0.3951
  431MPD2     H 6482   1.011   1.961  12.298  0.1100  1.4815  0.6789
  431MPD2    H1 6483   0.755   1.698  12.517 -2.4113  1.1329  0.7541
  431MPD2    H2 6484   0.735   2.112  12.583  1.9242  1.1717  0.3943
  431MPD2    H3 6485   0.681   1.879  12.647  0.3951  1.7114  0.9612
  431MPD2     N 6486   0.965   1.706  12.346 -0.3555 -0.0388  0.3449
  431MPD2    H5 6487   0.961   1.619  12.398 -1.5539  0.1105  0.5181
  431MPD2    N1 6488   0.940   2.184  12.443  0.0075  0.5931  0.4544
  431MPD2    H7 6489   0.895   2.267  12.481 -0.2284  0.6974 -0.0436
  432TMC3    C1 6490   1.140   1.595  12.244  0.2469  0.2084 -0.7672
  432TMC3    C2 6491   1.173   1.551  12.122  0.2969  0.5902 -0.1787
  432TMC3    C3 6492   1.300   1.516  12.095  0.6328  0.0671 -0.8497
  432TMC3    C4 6493   1.237   1.592  12.341 -0.2277 -0.0006  0.0943
  432TMC3    C5 6494   1.357   1.552  12.320 -0.4641 -0.1014 -0.2724
  432TMC3    C6 6495   1.396   1.522  12.192 -0.1325  0.6302 -0.6107
  432TMC3     C 6496   1.046   1.707  12.242  0.4199 -0.6193 -0.8397
  432TMC3     O 6497   1.049   1.789  12.150 -0.5289  0.3420  0.4073
  432TMC3     H 6498   1.097   1.548  12.045  0.4605  1.9458 -0.4057
  432TMC3    H1 6499   1.200   1.622  12.438 -0.5689  1.9507 -0.6342
  432TMC3    H2 6500   1.499   1.491  12.178 -0.8597 -1.3749 -1.5344
  432TMC3    C7 6501   1.458   1.564  12.425  0.1683  0.0306 -0.3823
  432TMC3    C8 6502   1.331   1.494  11.959 -0.6277  0.3447  0.6737
  432TMC3    O1 6503   1.553   1.487  12.413 -0.2788  0.6860 -0.1476
  432TMC3    O2 6504   1.252   1.485  11.866  0.3837  0.6628  0.0134
  433MPD2     C 6505   4.672   0.580  10.495 -0.0982 -0.4537 -0.0684
  433MPD2    C1 6506   4.606   0.488  10.587 -0.3498 -0.0018 -0.4267
  433MPD2    C2 6507   4.648   0.497  10.716 -0.1606 -0.4994  0.5820
  433MPD2    C3 6508   4.729   0.597  10.754 -0.0146 -0.8488  0.0952
  433MPD2    C4 6509   0.058   0.681  10.665  0.2017  1.3502 -0.5785
  433MPD2    C5 6510   0.033   0.663  10.534 -0.4154  0.1482 -0.1864
  433MPD2     H 6511   4.611   0.428  10.792 -3.0928  0.7402  0.2754
  433MPD2    H1 6512   0.133   0.753  10.695  3.2417 -0.7920 -3.0199
  433MPD2    H2 6513   4.651   0.575  10.389  0.8230 -0.7702 -0.2330
  433MPD2    H3 6514   0.102   0.715  10.468  0.3325  1.3066  1.4988
  433MPD2     N 6515   0.019   0.600  10.897  0.2040  0.1928  0.5803
  433MPD2    H5 6516   4.705   0.536  10.957 -2.5773  1.0885 -0.8340
  433MPD2    N1 6517   4.526   0.380  10.551 -0.1479  0.6860 -0.5818
  433MPD2    H7 6518   4.541   0.342  10.458  2.5491 -2.3951  1.1271
  434TMC3    C1 6519   4.429   0.166  10.584 -0.3218  0.5108  0.0616
  434TMC3    C2 6520   4.470   0.074  10.677 -0.0398  0.3484  0.3121
  434TMC3    C3 6521   4.520   4.694  10.625 -0.7685  0.2379 -0.3782
  434TMC3    C4 6522   4.429   0.141  10.446 -0.2788 -0.0793  0.4287
  434TMC3    C5 6523   4.459   0.010  10.404 -0.2220  0.4833  0.0388
  434TMC3    C6 6524   4.507   4.655  10.491  0.1911  0.1293 -0.0405
  434TMC3     C 6525   4.451   0.297  10.635  0.2340 -0.5371  0.8869
  434TMC3     O 6526   4.410   0.317  10.748 -0.1392  0.1420 -0.4074
  434TMC3     H 6527   4.493   0.111  10.776 -1.0364  1.3129  0.1842
  434TMC3    H1 6528   4.397   0.218  10.376  1.2878 -0.1250 -0.3266
  434TMC3    H2 6529   4.535   4.553  10.469  1.3327  0.4869 -0.2233
  434TMC3    C7 6530   4.386   4.696  10.285  0.3738 -0.6436  0.1987
  434TMC3    C8 6531   4.594   4.612  10.723  0.2637 -0.9184  0.1365
  434TMC3    O1 6532   4.298   0.029  10.240 -0.1347  0.1029  0.1150
  434TMC3    O2 6533   4.584   4.637  10.841  0.6264 -0.1467 -0.1416
  435MPD2     C 6534   2.123   0.336  15.176 -0.3727 -0.4847  0.1514
  435MPD2    C1 6535   2.089   0.393  15.300  0.2600  0.1993  0.2666
  435MPD2    C2 6536   2.179   0.391  15.410  0.3726 -0.2357  0.0665
  435MPD2    C3 6537   2.290   0.320  15.395  0.8175 -0.1422  0.4995
  435MPD2    C4 6538   2.332   0.279  15.274  0.2810 -0.1786 -0.1207
  435MPD2    C5 6539   2.247   0.285  15.162 -0.2067 -0.2094 -0.7107
  435MPD2     H 6540   2.155   0.425  15.510  1.4337  2.3161 -0.5328
  435MPD2    H1 6541   2.428   0.235  15.251  0.5098 -0.3575  1.1332
  435MPD2    H2 6542   2.056   0.331  15.091  0.3405 -0.2998 -0.4182
  435MPD2    H3 6543   2.271   0.244  15.064  0.3172  1.0969 -1.1298
  435MPD2     N 6544   2.364   0.295  15.512  0.4437 -0.0881  0.3017
  435MPD2    H5 6545   2.340   0.357  15.589  1.2454  1.7669 -0.9493
  435MPD2    N1 6546   1.969   0.465  15.321  0.6225 -0.0676  0.0394
  435MPD2    H7 6547   1.954   0.509  15.412  0.0601 -0.8152  0.3101
  436TMC3    C1 6548   1.666   0.671  15.482  0.1349 -0.2347  0.5864
  436TMC3    C2 6549   1.738   0.573  15.416  0.1022 -0.4042 -0.8745
  436TMC3    C3 6550   1.782   0.595  15.286  0.9863 -0.0934  0.5512
  436TMC3    C4 6551   1.643   0.794  15.419 -0.0348  0.2256  0.4989
  436TMC3    C5 6552   1.684   0.807  15.290  0.1881  0.2465  0.0861
  436TMC3    C6 6553   1.744   0.704  15.215 -1.0390 -0.1416 -0.1480
  436TMC3     C 6554   1.601   0.626  15.601  0.0903 -0.4881 -0.2845
  436TMC3     O 6555   1.591   0.507  15.628  0.1012 -0.1151  0.4040
  436TMC3     H 6556   1.762   0.482  15.470  1.2426  1.1837  1.2624
  436TMC3    H1 6557   1.585   0.874  15.464 -1.3211  0.0271 -0.7924
  436TMC3    H2 6558   1.781   0.701  15.113 -0.3263 -0.1194  0.1117
  436TMC3    C7 6559   1.715   0.944  15.241  0.4938 -0.0429 -0.1391
  436TMC3    C8 6560   1.872   0.498  15.229 -0.1955  0.3044 -0.1121
  436TMC3    O1 6561   1.653   1.038  15.288  0.3045  0.1031  0.2214
  436TMC3    O2 6562   1.863   0.454  15.112  0.1737  0.2911 -0.3094
  437TMC3    C1 6563   0.272   3.021  12.396  0.5786  0.4666  0.0052
  437TMC3    C2 6564   0.194   3.118  12.456 -0.6181  0.3763  0.2328
  437TMC3    C3 6565   0.197   3.246  12.407 -0.4123  0.4177 -0.2301
  437TMC3    C4 6566   0.357   3.058  12.296  0.2827 -0.2686 -0.4786
  437TMC3    C5 6567   0.351   3.189  12.250  0.0868  1.1286  0.6516
  437TMC3    C6 6568   0.286   3.289  12.314  0.3688 -0.4161  0.0302
  437TMC3     C 6569   0.322   2.911  12.476  1.5885 -0.4977 -0.3738
  437TMC3     O 6570   0.420   2.845  12.440  0.2119 -0.2427  0.2113
  437TMC3     H 6571   0.125   3.081  12.532  0.5195  0.9401  1.5427
  437TMC3    H1 6572   0.413   2.983  12.240 -0.6830 -0.9863 -0.4887
  437TMC3    H2 6573   0.285   3.391  12.277  0.1078  0.4113  2.3308
  437TMC3    C7 6574   0.457   3.232  12.164 -1.0820  0.6969 -0.6229
  437TMC3    C8 6575   0.164   3.340  12.513  0.3586  0.1208 -0.2259
  437TMC3    O1 6576   0.435   3.319  12.083  0.1917  0.0531 -0.1735
  437TMC3    O2 6577   0.083   3.305  12.597  0.5437  0.0422 -0.6096
  438MPD2     C 6578   2.956   3.761  16.768  0.0837  0.2181 -0.7462
  438MPD2    C1 6579   3.013   3.643  16.803 -1.1794  0.4732 -0.3141
  438MPD2    C2 6580   3.029   3.617  16.938  0.1020  0.5517  0.0871
  438MPD2    C3 6581   2.979   3.699  17.044 -0.0116  0.2195 -0.2904
  438MPD2    C4 6582   2.914   3.816  17.002 -0.5242  1.4614 -0.2195
  438MPD2    C5 6583   2.903   3.838  16.867 -0.0716 -0.0029 -0.5122
  438MPD2     H 6584   3.076   3.522  16.961 -0.9931  0.4309  1.8618
  438MPD2    H1 6585   2.876   3.889  17.073 -1.4353  0.0061  0.7795
  438MPD2    H2 6586   2.940   3.795  16.666  0.5467  0.1548 -0.8420
  438MPD2    H3 6587   2.849   3.922  16.826  0.0254 -0.7975 -2.2698
  438MPD2     N 6588   2.985   3.674  17.183  0.2761  0.5640 -0.0526
  438MPD2    H5 6589   2.958   3.753  17.241 -0.0331  0.5375 -0.1602
  438MPD2    N1 6590   3.074   3.554  16.716 -0.5372  0.5865  0.3428
  438MPD2    H7 6591   3.108   3.466  16.755  1.0186  1.3057  0.6050
  439TMC3    C1 6592   3.118   3.435  16.529  0.1656 -0.1215  0.5309
  439TMC3    C2 6593   3.078   3.390  16.402  0.0658  0.4457 -0.1021
  439TMC3    C3 6594   3.078   3.258  16.373  0.4180  0.2284  0.3899
  439TMC3    C4 6595   3.181   3.347  16.624  0.4572 -0.3296 -0.6594
  439TMC3    C5 6596   3.183   3.214  16.584 -0.5933  0.7048  0.2278
  439TMC3    C6 6597   3.133   3.172  16.466  0.6618  0.0103  0.3014
  439TMC3     C 6598   3.078   3.566  16.581  0.1283  0.5497 -0.5285
  439TMC3     O 6599   3.045   3.649  16.498  0.2375  0.1677  0.3820
  439TMC3     H 6600   3.030   3.460  16.335 -2.6334 -0.2773  1.0677
  439TMC3    H1 6601   3.229   3.381  16.714 -1.6787 -1.8209  1.0418
  439TMC3    H2 6602   3.119   3.066  16.455  1.9586 -0.1962  0.6146
  439TMC3    C7 6603   3.295   3.145  16.645 -0.2308  0.0366 -0.2198
  439TMC3    C8 6604   3.059   3.223  16.235  0.3070  0.4829  0.5482
  439TMC3    O1 6605   3.336   3.188  16.752  0.4024 -0.2581  0.2601
  439TMC3    O2 6606   2.998   3.292  16.154 -0.5928  0.2476  0.0638
  440MPD2     C 6607   2.029   3.389  14.413  0.1122 -0.1822  0.2297
  440MPD2    C1 6608   2.041   3.502  14.500  0.1895 -0.2508 -0.2088
  440MPD2    C2 6609   2.116   3.481  14.614 -0.4198 -0.3391 -0.4240
  440MPD2    C3 6610   2.190   3.360  14.636 -0.6747 -0.4598 -0.9650
  440MPD2    C4 6611   2.181   3.260  14.544  0.8142 -0.7086 -0.4499
  440MPD2    C5 6612   2.093   3.267  14.440 -0.0624 -0.0681 -0.0130
  440MPD2     H 6613   2.127   3.569  14.676 -2.3353  0.0294 -0.6104
  440MPD2    H1 6614   2.234   3.169  14.568 -0.1723 -0.1929  3.6001
  440MPD2    H2 6615   1.963   3.395  14.327  0.8044  0.2221 -0.2711
  440MPD2    H3 6616   2.069   3.179  14.381  1.1655 -0.2603 -0.2375
  440MPD2     N 6617   2.275   3.337  14.749 -0.5536  0.1628  0.2702
  440MPD2    H5 6618   2.297   3.243  14.779 -0.7355  0.4945  1.4451
  440MPD2    N1 6619   1.968   3.626  14.489  0.3280 -0.3814 -0.3156
  440MPD2    H7 6620   1.971   3.692  14.566  1.2231 -0.4228 -0.3206
  441TMC3    C1 6621   2.407   3.393  14.920  0.5435  0.1096  0.6994
  441TMC3    C2 6622   2.522   3.465  14.948  0.2997  0.6863  0.2035
  441TMC3    C3 6623   2.576   3.451  15.073  0.2170 -0.3560  1.0123
  441TMC3    C4 6624   2.353   3.312  15.008 -0.6286 -0.9515 -0.0582
  441TMC3    C5 6625   2.411   3.297  15.134  0.0118 -0.3697  0.1333
  441TMC3    C6 6626   2.522   3.368  15.167  0.2947  0.1524  0.1999
  441TMC3     C 6627   2.323   3.444  14.824 -0.2870  0.1274 -0.1345
  441TMC3     O 6628   2.324   3.565  14.796 -0.2298  0.1993  0.1085
  441TMC3     H 6629   2.554   3.542  14.879 -1.4332  0.4423 -0.8868
  441TMC3    H1 6630   2.252   3.279  14.990 -1.1276  1.0248 -0.8586
  441TMC3    H2 6631   2.567   3.381  15.264  0.3023 -2.1778  0.5087
  441TMC3    C7 6632   2.349   3.212  15.232 -0.6833  0.3355  0.7091
  441TMC3    C8 6633   2.605   3.579  15.124 -0.9283 -0.8348 -0.5286
  441TMC3    O1 6634   2.260   3.140  15.193  0.2701  0.7456  0.2513
  441TMC3    O2 6635   2.693   3.587  15.209 -0.6598 -0.5226 -0.0572
  442MPD2     C 6636   0.066   4.474  16.389 -0.0397 -0.6131  0.8370
  442MPD2    C1 6637   0.042   4.396  16.496  0.0899  0.8542  0.6144
  442MPD2    C2 6638   0.024   4.256  16.474  0.2979 -0.1891 -0.1183
  442MPD2    C3 6639   0.058   4.195  16.357  0.0346 -0.1114 -0.3638
  442MPD2    C4 6640   0.098   4.284  16.260 -0.5398  0.0441 -0.7607
  442MPD2    C5 6641   0.103   4.413  16.275 -0.3959  0.2649  0.4439
  442MPD2     H 6642   4.729   4.199  16.561  0.0304 -2.2053 -1.5525
  442MPD2    H1 6643   0.118   4.246  16.161  0.4306  1.3065 -1.0434
  442MPD2    H2 6644   0.049   4.581  16.386  0.0366 -0.6237 -0.0699
  442MPD2    H3 6645   0.129   4.471  16.187 -1.1784 -1.1189 -0.6756
  442MPD2     N 6646   0.058   4.061  16.327  0.7306  0.3902  0.6239
  442MPD2    H5 6647   0.108   4.036  16.242  1.8734  3.4082  0.4025
  442MPD2    N1 6648   0.018   4.440  16.627  0.5937  0.6844 -0.1659
  442MPD2    H7 6649   4.711   4.376  16.693  1.0453  1.8132  1.2401
  443TMC3    C1 6650   4.679   4.597  16.773  0.8277 -0.2904  0.4039
  443TMC3    C2 6651   4.624   4.722  16.761  0.4538  0.0366  0.0751
  443TMC3    C3 6652   4.505   0.007  16.818 -0.2700  0.6696  0.1807
  443TMC3    C4 6653   4.619   4.499  16.842 -0.5240 -0.7320 -0.4063
  443TMC3    C5 6654   4.502   4.529  16.914 -0.2415  0.7145  0.0830
  443TMC3    C6 6655   4.436   4.653  16.891 -0.6913 -0.9266 -0.2627
  443TMC3     C 6656   0.035   4.567  16.668 -0.4405  0.4694 -1.0530
  443TMC3     O 6657   0.098   4.656  16.607 -0.0063  0.4485 -0.3137
  443TMC3     H 6658   4.671   0.068  16.710  0.3445 -1.0450 -1.7462
  443TMC3    H1 6659   4.663   4.401  16.861  0.8177 -0.0416  0.0122
  443TMC3    H2 6660   4.338   4.671  16.934 -0.9483 -1.0394 -0.7965
  443TMC3    C7 6661   4.454   4.443  17.019 -0.4898 -0.4067 -0.1552
  443TMC3    C8 6662   4.433   0.133  16.796 -0.1920  0.2048 -0.6073
  443TMC3    O1 6663   4.485   4.324  17.014  0.3972  0.0653 -0.1977
  443TMC3    O2 6664   4.384   0.167  16.907 -0.5539 -0.5418  0.7288
  444MPD2     C 6665   0.233   3.934  16.663 -0.5675  0.3145 -0.0994
  444MPD2    C1 6666   0.206   3.813  16.735 -0.1890 -0.3407 -0.6324
  444MPD2    C2 6667   0.269   3.699  16.692 -0.5049 -0.7658  0.1418
  444MPD2    C3 6668   0.355   3.695  16.586 -0.0436  0.0970 -0.3236
  444MPD2    C4 6669   0.372   3.816  16.513 -0.3759  0.0110  0.6523
  444MPD2    C5 6670   0.309   3.924  16.555  0.6064  0.1466  0.4312
  444MPD2     H 6671   0.247   3.604  16.739  1.5095  0.0255  2.7021
  444MPD2    H1 6672   0.433   3.828  16.425 -1.1559  0.8233  0.2227
  444MPD2    H2 6673   0.192   4.032  16.684  1.3545  0.9012  0.9090
  444MPD2    H3 6674   0.323   4.015  16.498  1.0534 -0.4593 -0.4221
  444MPD2     N 6675   0.418   3.578  16.538 -0.5485 -0.5789 -0.5283
  444MPD2    H5 6676   0.374   3.489  16.560 -1.3783  0.4718  2.0438
  444MPD2    N1 6677   0.123   3.811  16.849 -0.3669  0.2534  0.4925
  444MPD2    H7 6678   0.091   3.717  16.868 -0.4300  0.7320  2.7603
  445TMC3    C1 6679   0.583   3.449  16.442 -0.3919  0.8342  0.6095
  445TMC3    C2 6680   0.487   3.352  16.415  0.7902 -0.4313 -0.5750
  445TMC3    C3 6681   0.529   3.224  16.405 -0.4957 -0.2448 -0.4289
  445TMC3    C4 6682   0.716   3.414  16.462  0.0775 -0.4577 -0.1080
  445TMC3    C5 6683   0.750   3.282  16.469  0.0185 -1.0135  0.0075
  445TMC3    C6 6684   0.660   3.186  16.433 -0.1637  0.4229  0.4137
  445TMC3     C 6685   0.547   3.582  16.476 -1.0450  0.5239 -0.3244
  445TMC3     O 6686   0.625   3.665  16.437 -0.1341  0.1377 -0.3051
  445TMC3     H 6687   0.385   3.382  16.396  0.9342 -0.3095 -1.1620
  445TMC3    H1 6688   0.786   3.496  16.477  0.3561 -1.2145  2.7071
  445TMC3    H2 6689   0.685   3.081  16.420  0.8107  0.5548  1.2453
  445TMC3    C7 6690   0.901   3.265  16.469 -0.7508 -0.0461  0.3554
  445TMC3    C8 6691   0.452   3.141  16.309  0.3062  0.1250  0.4182
  445TMC3    O1 6692   0.970   3.352  16.421 -0.5591 -0.1541  0.1136
  445TMC3    O2 6693   0.345   3.198  16.275  0.1566 -0.4899  0.0690
  446MPD2     C 6694   4.375   4.654  11.348 -0.0757  0.1512 -0.2048
  446MPD2    C1 6695   4.363   4.610  11.219  0.7044 -0.2384 -0.3557
  446MPD2    C2 6696   4.475   4.615  11.137 -0.5160  0.0580 -0.5038
  446MPD2    C3 6697   4.593   4.681  11.178  0.0353  0.1417 -0.0296
  446MPD2    C4 6698   4.605   4.725  11.307 -0.0804  0.1193  0.3110
  446MPD2    C5 6699   4.494   4.714  11.388 -0.1443  0.2487  0.2608
  446MPD2     H 6700   4.468   4.599  11.030  0.0524  0.5213 -0.6126
  446MPD2    H1 6701   4.681   0.057  11.341  0.8576 -1.0849  0.6438
  446MPD2    H2 6702   4.292   4.650  11.417  0.1298 -0.1690  0.0231
  446MPD2    H3 6703   4.487   0.029  11.483 -0.9047  0.4709  0.0854
  446MPD2     N 6704   4.694   4.702  11.085 -0.5404  0.4927  0.2892
  446MPD2    H5 6705   4.674   4.683  10.988 -0.4255  2.8183 -0.1760
  446MPD2    N1 6706   4.237   4.568  11.170 -0.2120 -0.4621  0.1378
  446MPD2    H7 6707   4.236   4.538  11.073  0.4393 -1.8070  0.5355
  447TMC3    C1 6708   0.182   0.009  11.009  0.0311  0.4179 -0.8030
  447TMC3    C2 6709   0.136   0.053  10.889  0.2346  0.3279 -0.7864
  447TMC3    C3 6710   0.225   0.091  10.798  0.3180  0.0734  0.2652
  447TMC3    C4 6711   0.315   0.012  11.041 -0.2076  0.4269  0.3457
  447TMC3    C5 6712   0.405   0.051  10.944  0.3250  0.1676 -0.6555
  447TMC3    C6 6713   0.362   0.106  10.827 -0.1320  0.4504  0.5126
  447TMC3     C 6714   0.093   4.714  11.115  0.7829 -1.2489  0.2737
  447TMC3     O 6715   0.145   4.701  11.224  0.5147  0.1596  0.4676
  447TMC3     H 6716   0.031   0.049  10.861 -0.3792  2.6687  1.1053
  447TMC3    H1 6717   0.352   4.718  11.138  0.1872 -0.0508  0.0410
  447TMC3    H2 6718   0.421   0.145  10.745  0.7295 -0.4297  0.7102
  447TMC3    C7 6719   0.545   0.021  10.938 -0.1430  0.6082  0.2588
  447TMC3    C8 6720   0.201   0.057  10.664 -0.6139  0.1229  0.1846
  447TMC3    O1 6721   0.599   0.011  10.826  0.0169 -0.1628 -0.4937
  447TMC3    O2 6722   0.093   0.076  10.618  0.3517  0.3890 -0.3998
  448TMC3    C1 6723   3.282   0.164  16.439  0.2500  0.3315 -0.8795
  448TMC3    C2 6724   3.356   0.059  16.487 -0.0780  0.0483  1.1831
  448TMC3    C3 6725   3.342   0.007  16.608  0.0546 -0.1896  0.8233
  448TMC3    C4 6726   3.193   0.224  16.524  0.3118 -0.1087 -0.1636
  448TMC3    C5 6727   3.196   0.187  16.656 -0.6127  0.2019  0.6330
  448TMC3    C6 6728   3.263   0.078  16.697  0.3473 -0.4311  0.1008
  448TMC3     C 6729   3.293   0.186  16.299 -0.5465  0.9272 -0.8706
  448TMC3     O 6730   3.381   0.124  16.241 -0.4182 -0.1273 -0.1401
  448TMC3     H 6731   3.423   4.736  16.427 -1.0037  0.9288 -0.7188
  448TMC3    H1 6732   3.159   0.324  16.502  0.7326  0.5272  2.0205
  448TMC3    H2 6733   3.252   0.041  16.799 -2.6652 -2.3820 -0.9384
  448TMC3    C7 6734   3.135   0.273  16.745  0.7275 -0.8884 -0.4998
  448TMC3    C8 6735   3.411   4.629  16.655  0.1697 -0.5540 -0.1448
  448TMC3    O1 6736   3.154   0.391  16.735  1.1366 -0.1576 -0.0085
  448TMC3    O2 6737   3.350   4.553  16.731 -0.1454  0.3486 -0.4397
  449MPD2     C 6738   4.633   3.162  13.757  0.3271 -0.5517 -0.0048
  449MPD2    C1 6739   4.497   3.148  13.741  0.1251  0.4622 -0.2776
  449MPD2    C2 6740   4.433   3.055  13.816  0.2568  0.0497  0.1368
  449MPD2    C3 6741   4.495   2.966  13.897 -0.3105 -0.4456  0.7632
  449MPD2    C4 6742   4.631   2.979  13.913 -0.2553 -0.0036  0.5470
  449MPD2    C5 6743   4.694   3.084  13.848 -0.5831 -0.0030  0.2721
  449MPD2     H 6744   4.324   3.054  13.818  0.2396  0.8910 -0.2862
  449MPD2    H1 6745   4.693   2.916  13.976  0.6143  0.7366  0.4310
  449MPD2    H2 6746   4.698   3.232  13.707  0.7331  0.1595  1.4990
  449MPD2    H3 6747   0.061   3.109  13.864 -0.2696 -2.5037  2.0780
  449MPD2     N 6748   4.410   2.870  13.949 -0.6244 -0.1125  0.2066
  449MPD2    H5 6749   4.310   2.885  13.937 -0.3002  0.9599 -1.2259
  449MPD2    N1 6750   4.421   3.249  13.673  0.8492  0.5944  0.2378
  449MPD2    H7 6751   4.320   3.236  13.669  1.0158 -0.2840 -1.1826
  450TMC3    C1 6752   4.358   3.391  13.510  0.7808 -0.5637 -0.4180
  450TMC3    C2 6753   4.375   3.377  13.374 -1.1011 -0.7050  0.4725
  450TMC3    C3 6754   4.268   3.320  13.311 -0.3258  0.3417  0.5269
  450TMC3    C4 6755   4.242   3.364  13.572  0.2754 -0.1853 -0.2391
  450TMC3    C5 6756   4.140   3.302  13.506  0.3615 -0.1983  0.2165
  450TMC3    C6 6757   4.154   3.275  13.372 -0.0929  0.3089 -0.5542
  450TMC3     C 6758   4.471   3.349  13.589  0.3678  0.0053  0.3589
  450TMC3     O 6759   4.584   3.391  13.559  0.1231 -0.0878  0.0573
  450TMC3     H 6760   4.473   3.386  13.328 -1.0666 -1.3266  0.4290
  450TMC3    H1 6761   4.223   3.401  13.672  1.0550  0.5154 -0.3485
  450TMC3    H2 6762   4.077   3.221  13.319  0.5463 -0.4290 -0.7235
  450TMC3    C7 6763   4.087   3.199  13.588 -0.1176 -0.1224  0.0743
  450TMC3    C8 6764   4.297   3.264  13.184 -0.5041 -1.2293 -0.0352
  450TMC3    O1 6765   4.154   3.170  13.687  0.1186 -0.5008 -0.0758
  450TMC3    O2 6766   4.200   3.236  13.114 -0.5178 -0.2104 -0.7021
  451MPD2     C 6767   1.463   2.061   0.394  0.0112 -0.1851 -0.3988
  451MPD2    C1 6768   1.418   1.930   0.408 -0.1013  0.5658  0.4318
  451MPD2    C2 6769   1.451   1.825   0.321 -0.2300  0.8926  0.1250
  451MPD2    C3 6770   1.509   1.855   0.198  0.9071  0.5180  0.1665
  451MPD2    C4 6771   1.546   1.983   0.178 -0.0904 -0.3390 -0.3950
  451MPD2    C5 6772   1.525   2.082   0.274 -0.1194 -0.5085  0.1315
  451MPD2     H 6773   1.417   1.725   0.349 -0.0844  0.6727 -0.4776
  451MPD2    H1 6774   1.598   2.005   0.086 -1.7805 -0.3887 -1.3545
  451MPD2    H2 6775   1.460   2.142   0.466  1.6779  0.4964 -1.0907
  451MPD2    H3 6776   1.565   2.180   0.253  0.8414 -0.5125  1.9099
  451MPD2     N 6777   1.530   1.760   0.095  0.2378  0.3210  0.3043
  451MPD2    H5 6778   1.569   1.791   0.007  0.1864  1.0822  0.5488
  451MPD2    N1 6779   1.319   1.917   0.508  0.3343 -0.1741 -0.7469
  451MPD2    H7 6780   1.308   2.000   0.566 -1.6634 -1.6218  0.9473
  452TMC3    C1 6781   1.486   1.575  17.707  0.4082  0.1434  0.2196
  452TMC3    C2 6782   1.435   1.448  17.701 -0.3774 -0.6688 -0.2388
  452TMC3    C3 6783   1.386   1.407  17.577 -0.6158 -0.0008 -0.1887
  452TMC3    C4 6784   1.468   1.662  17.597 -0.6605 -0.2898 -0.2254
  452TMC3    C5 6785   1.412   1.619  17.484  0.5686 -0.6464  0.0504
  452TMC3    C6 6786   1.379   1.490  17.467 -0.0850  0.3639  0.1776
  452TMC3     C 6787   1.486   1.629   0.098  0.2145  0.5269 -0.1190
  452TMC3     O 6788   1.446   1.559   0.194  0.2444  0.4226  0.0005
  452TMC3     H 6789   1.446   1.386   0.043 -0.6130 -1.5653 -0.8460
  452TMC3    H1 6790   1.492   1.768  17.603 -1.5535 -0.2055  1.7744
  452TMC3    H2 6791   1.344   1.448  17.373 -1.1372 -1.7595  1.5210
  452TMC3    C7 6792   1.415   1.701  17.363 -1.1119 -0.0110 -0.4648
  452TMC3    C8 6793   1.317   1.281  17.567 -0.2420 -0.6139 -0.4213
  452TMC3    O1 6794   1.470   1.810  17.375 -0.6775 -0.4942  0.3692
  452TMC3    O2 6795   1.246   1.249  17.472  0.5214 -0.1091  0.9578
  453TMC3    C1 6796   2.432   3.669  11.859 -0.5449  0.4628  0.1134
  453TMC3    C2 6797   2.356   3.553  11.885  0.1819 -0.6856  0.3478
  453TMC3    C3 6798   2.269   3.532  11.781  0.2408  0.3601 -0.2584
  453TMC3    C4 6799   2.418   3.760  11.758  0.4168  0.1101  0.1738
  453TMC3    C5 6800   2.335   3.723  11.655 -0.7691 -0.4359  0.2641
  453TMC3    C6 6801   2.258   3.607  11.672 -0.5680 -0.7887 -0.7700
  453TMC3     C 6802   2.551   3.694  11.940 -0.0521 -0.6091  0.1665
  453TMC3     O 6803   2.608   3.800  11.946 -0.5338  0.1746 -0.0654
  453TMC3     H 6804   2.358   3.488  11.971  0.3099 -0.6748  0.3522
  453TMC3    H1 6805   2.491   3.840  11.755  1.1152 -0.5005  0.9268
  453TMC3    H2 6806   2.192   3.574  11.592 -1.1986 -0.3515 -0.4291
  453TMC3    C7 6807   2.332   3.814  11.536 -0.9596  0.6562 -0.1587
  453TMC3    C8 6808   2.165   3.445  11.812 -0.1392 -0.4074  0.9026
  453TMC3    O1 6809   2.277   3.773  11.434 -0.6037 -0.0132 -0.2233
  453TMC3    O2 6810   2.053   3.496  11.800 -0.0807 -0.3223  0.0966
  454MPD2     C 6811   1.069   3.699  15.861  0.3588  0.5602 -0.1925
  454MPD2    C1 6812   0.974   3.735  15.764 -0.0288  0.6122  0.7183
  454MPD2    C2 6813   0.917   3.859  15.764  0.1547  0.4884  0.2369
  454MPD2    C3 6814   0.955   3.950  15.865 -0.1614  0.2284  0.0227
  454MPD2    C4 6815   1.050   3.913  15.960  0.0265 -0.1249 -0.5947
  454MPD2    C5 6816   1.109   3.793  15.953 -0.0670 -0.4075  0.0414
  454MPD2     H 6817   0.838   3.868  15.691  1.9580 -1.6476 -1.9636
  454MPD2    H1 6818   1.079   3.980  16.040 -1.3964 -1.4198  0.9982
  454MPD2    H2 6819   1.116   3.602  15.863 -2.1314 -0.6516 -0.4395
  454MPD2    H3 6820   1.184   3.757  16.023  1.5019  0.6670 -1.0966
  454MPD2     N 6821   0.880   4.066  15.885  0.1471 -0.4868  0.1709
  454MPD2    H5 6822   0.887   4.105  15.979  6.1479 -0.0932 -0.4632
  454MPD2    N1 6823   0.909   3.647  15.677 -0.1638  0.2043 -0.4886
  454MPD2    H7 6824   0.832   3.676  15.618 -0.9548 -1.4764 -0.3092
  455TMC3    C1 6825   0.660   4.041  15.920  1.0609  0.5398  0.3416
  455TMC3    C2 6826   0.686   4.077  16.048 -0.1163 -0.0222  0.2658
  455TMC3    C3 6827   0.653   4.000  16.155 -0.2878  0.2349  0.0127
  455TMC3    C4 6828   0.607   3.921  15.895  0.3099  0.0312  0.5239
  455TMC3    C5 6829   0.577   3.836  16.003 -0.4734  0.2774 -0.6072
  455TMC3    C6 6830   0.605   3.873  16.135 -0.3147  1.2068 -0.2465
  455TMC3     C 6831   0.758   4.084  15.825  0.4485 -1.1055 -0.8098
  455TMC3     O 6832   0.732   4.053  15.708 -0.1689 -0.2127 -0.3660
  455TMC3     H 6833   0.721   4.180  16.046 -0.7531  0.1429 -2.4596
  455TMC3    H1 6834   0.602   3.877  15.796 -1.9804  0.4382  0.4582
  455TMC3    H2 6835   0.588   3.805  16.218  2.5117  0.4882 -0.2496
  455TMC3    C7 6836   0.597   3.693  15.969  0.9530 -0.5823  0.6246
  455TMC3    C8 6837   0.623   4.058  16.287 -0.9113 -0.1004 -0.2783
  455TMC3    O1 6838   0.564   3.649  15.863 -0.2256  0.0492  0.2548
  455TMC3    O2 6839   0.623   3.980  16.381  0.0665 -0.2337 -0.1800
  456MPD2     C 6840   3.427   3.250  16.219 -0.3003 -0.3799  0.3572
  456MPD2    C1 6841   3.526   3.234  16.311  0.2223 -0.6838  0.3951
  456MPD2    C2 6842   3.531   3.321  16.415  0.3072  0.0381  0.1058
  456MPD2    C3 6843   3.470   3.440  16.404 -0.1011 -0.3600  0.1260
  456MPD2    C4 6844   3.373   3.465  16.305  0.1149  0.2670 -0.1158
  456MPD2    C5 6845   3.352   3.360  16.220  0.5573  0.0027 -0.4750
  456MPD2     H 6846   3.602   3.306  16.496 -0.8167 -1.2348  0.8317
  456MPD2    H1 6847   3.316   3.556  16.292  0.0712  0.4193  1.1552
  456MPD2    H2 6848   3.403   3.186  16.135 -1.9312 -0.3311  0.7740
  456MPD2    H3 6849   3.276   3.373  16.143  1.8085 -1.5974 -1.9790
  456MPD2     N 6850   3.510   3.540  16.493  0.6259 -0.6307  0.2694
  456MPD2    H5 6851   3.584   3.511  16.555  0.2066 -0.1018  1.0143
  456MPD2    N1 6852   3.602   3.121  16.309 -0.5749 -0.1967 -0.2497
  456MPD2    H7 6853   3.581   3.045  16.245  1.5926 -1.2856  0.3338
  457TMC3    C1 6854   3.546   3.745  16.597  0.5558 -0.3436 -0.6866
  457TMC3    C2 6855   3.520   3.878  16.598 -0.3573 -0.3457 -0.7889
  457TMC3    C3 6856   3.572   3.961  16.695  0.5227  0.2423 -0.1954
  457TMC3    C4 6857   3.616   3.685  16.703 -0.1665  0.0868 -0.1008
  457TMC3    C5 6858   3.665   3.764  16.794 -0.0734  0.1153 -0.9480
  457TMC3    C6 6859   3.644   3.899  16.796  0.4069  0.6229 -0.7596
  457TMC3     C 6860   3.468   3.673  16.489 -0.4732  0.7015 -0.0286
  457TMC3     O 6861   3.380   3.728  16.433 -0.0312 -0.2518  0.3121
  457TMC3     H 6862   3.474   3.929  16.514 -0.0547  4.6881  2.0996
  457TMC3    H1 6863   3.635   3.579  16.705 -0.2005  0.1040  1.2931
  457TMC3    H2 6864   3.707   3.960  16.859  0.7186 -0.5477  0.0528
  457TMC3    C7 6865   3.707   3.702  16.921  0.0224  1.1227  0.3895
  457TMC3    C8 6866   3.564   4.104  16.678 -0.5590 -0.4975  0.1287
  457TMC3    O1 6867   3.723   3.579  16.922 -0.4078 -0.5190 -0.4341
  457TMC3    O2 6868   3.465   4.140  16.621  0.3206 -0.4313  0.1441
  458MPD2     C 6869   0.960   3.238  12.066  0.6632 -0.0538  0.0874
  458MPD2    C1 6870   0.939   3.163  12.181 -0.1376  1.0057  0.4183
  458MPD2    C2 6871   0.811   3.128  12.211  0.1258  0.0429  0.5281
  458MPD2    C3 6872   0.699   3.179  12.142  0.5080  0.0886 -0.1288
  458MPD2    C4 6873   0.721   3.250  12.031 -0.1897 -0.2014  0.4496
  458MPD2    C5 6874   0.855   3.279  11.993 -0.3343 -0.4241 -0.5789
  458MPD2     H 6875   0.795   3.078  12.306  0.6079 -0.9256  0.1090
  458MPD2    H1 6876   0.635   3.296  11.984 -1.3290 -0.3042  2.4348
  458MPD2    H2 6877   1.061   3.262  12.035  0.8843 -1.1121  0.0163
  458MPD2    H3 6878   0.876   3.332  11.901  2.0438 -0.2170  0.0714
  458MPD2     N 6879   0.574   3.163  12.199  0.0352 -0.1757 -0.0990
  458MPD2    H5 6880   0.564   3.097  12.276 -2.1203  0.3015  0.0365
  458MPD2    N1 6881   1.053   3.109  12.253 -0.1203  0.0249 -0.1004
  458MPD2    H7 6882   1.144   3.146  12.229 -0.4587 -0.3040 -1.8720
  459TMC3    C1 6883   1.175   2.972  12.408  0.1134  0.8162 -0.0370
  459TMC3    C2 6884   1.298   3.022  12.371 -0.1460 -0.1795 -0.6813
  459TMC3    C3 6885   1.411   2.975  12.444  0.1420 -0.1652 -0.9191
  459TMC3    C4 6886   1.163   2.892  12.517  0.2715 -0.0688  0.5467
  459TMC3    C5 6887   1.274   2.860  12.592 -0.1454  0.2275  0.0028
  459TMC3    C6 6888   1.400   2.894  12.551 -0.7258 -0.2968  0.0135
  459TMC3     C 6889   1.046   3.011  12.349 -0.0358  0.4788  0.5384
  459TMC3     O 6890   0.952   2.960  12.411  0.1023  0.2823  0.0045
  459TMC3     H 6891   1.312   3.077  12.279  0.1170  1.0530  0.1032
  459TMC3    H1 6892   1.068   2.861  12.560  0.2861 -0.2664  0.4336
  459TMC3    H2 6893   1.493   2.876  12.604 -0.4804  1.3972  0.1536
  459TMC3    C7 6894   1.255   2.802  12.722  0.1041 -0.1503  0.3263
  459TMC3    C8 6895   1.546   3.016  12.411 -0.1321  0.3246  0.2167
  459TMC3    O1 6896   1.159   2.837  12.796 -0.0280  0.1859  0.1277
  459TMC3    O2 6897   1.638   2.944  12.445 -0.6275 -0.2530 -0.8201
  460MPD2     C 6898   0.466   4.717  10.415 -0.2996 -0.0970  0.3702
  460MPD2    C1 6899   0.335   4.725  10.461  0.1479 -0.4506 -0.3466
  460MPD2    C2 6900   0.225   4.711  10.377  0.2858 -0.4145  0.0451
  460MPD2    C3 6901   0.255   4.688  10.245 -0.0862 -0.6863  0.0261
  460MPD2    C4 6902   0.385   4.669  10.197 -0.4319 -0.1870  0.2987
  460MPD2    C5 6903   0.488   4.690  10.285 -0.3557 -0.8495  0.4882
  460MPD2     H 6904   0.123   4.721  10.414  0.4231 -0.3972  0.4169
  460MPD2    H1 6905   0.412   4.640  10.096 -0.5707 -0.9924  0.4935
  460MPD2    H2 6906   0.553   4.725  10.480 -0.3741 -2.9937  0.8214
  460MPD2    H3 6907   0.588   4.674  10.246 -0.6823  0.1124 -0.7554
  460MPD2     N 6908   0.154   4.677  10.154  0.0678  0.3349  0.4191
  460MPD2    H5 6909   0.177   4.625  10.070 -0.8461 -0.1282  0.4608
  460MPD2    N1 6910   0.317   0.010  10.600 -0.6789  0.1866 -0.0970
  460MPD2    H7 6911   0.394   4.735  10.665 -2.8380  0.8653  2.5450
  461TMC3    C1 6912   4.678   4.709  10.057  0.2356  0.0508  0.3776
  461TMC3    C2 6913   4.681   4.597   9.985 -0.7156 -0.2647  0.0374
  461TMC3    C3 6914   4.599   4.582   9.870 -0.1026  0.4669 -0.2804
  461TMC3    C4 6915   4.591   0.075  10.027 -0.2914 -0.2194  0.2868
  461TMC3    C5 6916   4.498   0.045   9.935  0.1163 -0.2950  0.0682
  461TMC3    C6 6917   4.497   4.666   9.857 -0.3977 -0.6453 -0.2494
  461TMC3     C 6918   0.028   4.737  10.166 -0.3197 -0.0134 -0.7977
  461TMC3     O 6919   0.000   0.082  10.251  0.1792 -0.0623  0.6166
  461TMC3     H 6920   0.022   4.524  10.005 -0.2016  0.7269  1.5890
  461TMC3    H1 6921   4.577   0.158  10.096  1.8122  0.0825  0.3397
  461TMC3    H2 6922   4.428   4.657   9.774 -1.0900  1.2752  0.1127
  461TMC3    C7 6923   4.425   0.157   9.881 -0.3482  0.5562 -0.2020
  461TMC3    C8 6924   4.669   4.549   9.745  0.0598 -0.1745 -0.1175
  461TMC3    O1 6925   4.312   0.150   9.840  0.7176  0.3877 -0.3335
  461TMC3    O2 6926   0.052   4.571   9.748  0.5386  0.3500 -0.1248
  462TMC3    C1 6927   0.251   1.541  17.397 -0.0704  0.6370  0.1878
  462TMC3    C2 6928   0.236   1.469  17.282  0.6423  0.4758 -0.7913
  462TMC3    C3 6929   0.153   1.365  17.293 -0.9847  0.3534  0.3266
  462TMC3    C4 6930   0.182   1.506  17.512 -0.8258  0.5519 -0.3615
  462TMC3    C5 6931   0.107   1.396  17.522 -0.0910  0.6274 -0.0962
  462TMC3    C6 6932   0.085   1.335  17.407  0.1717  0.2879  0.4046
  462TMC3     C 6933   0.351   1.639  17.422 -0.0827 -0.5768  0.0126
  462TMC3     O 6934   0.393   1.628  17.537  0.0952 -0.4153  0.3530
  462TMC3     H 6935   0.292   1.493  17.192  0.4507  0.6130 -0.8743
  462TMC3    H1 6936   0.184   1.575  17.596 -1.6328 -1.5287  1.3668
  462TMC3    H2 6937   0.048   1.233  17.413  1.0299  0.0191  1.1868
  462TMC3    C7 6938   0.139   1.317  17.642  0.4882 -0.3815  1.1186
  462TMC3    C8 6939   0.148   1.269  17.186  0.9285 -0.5001 -0.3534
  462TMC3    O1 6940   0.080   1.211  17.651 -0.2889 -0.1438 -0.4280
  462TMC3    O2 6941   0.037   1.217  17.162 -0.9012 -0.6717  0.1862
  463MPD2     C 6942   1.497   4.461   1.474  0.0662  0.3980 -0.0250
  463MPD2    C1 6943   1.414   4.553   1.412 -0.7194  0.2282 -0.2909
  463MPD2    C2 6944   1.473   4.662   1.354 -0.7590 -0.4116 -0.0192
  463MPD2    C3 6945   1.612   4.681   1.355 -0.1262 -0.3318  0.5929
  463MPD2    C4 6946   1.690   4.580   1.409 -0.4225  0.2369  0.2616
  463MPD2    C5 6947   1.634   4.468   1.463 -0.0238 -0.8168  0.2149
  463MPD2     H 6948   1.405   4.731   1.304 -1.4427 -1.2575 -0.2689
  463MPD2    H1 6949   1.797   4.593   1.407 -0.2448 -1.6080 -2.2478
  463MPD2    H2 6950   1.457   4.377   1.530  1.0444 -1.7627 -2.5786
  463MPD2    H3 6951   1.701   4.400   1.516 -1.3378 -1.6330  0.8379
  463MPD2     N 6952   1.688   0.051   1.295 -0.5168  0.3615 -0.1609
  463MPD2    H5 6953   1.788   0.040   1.303 -0.8051  0.2314  3.0660
  463MPD2    N1 6954   1.274   4.534   1.409 -0.5256  0.3491 -0.2839
  463MPD2    H7 6955   1.218   4.608   1.370 -2.8015 -1.7050 -0.9416
  464TMC3    C1 6956   1.060   4.436   1.431  0.4480 -0.2354 -0.2057
  464TMC3    C2 6957   0.996   4.557   1.402 -0.1341  0.1259  0.4420
  464TMC3    C3 6958   0.859   4.558   1.389  0.0951  0.3449  0.0927
  464TMC3    C4 6959   0.994   4.315   1.438  0.0215 -0.3965  0.3440
  464TMC3    C5 6960   0.858   4.323   1.416 -0.6136 -0.5139 -0.1101
  464TMC3    C6 6961   0.789   4.443   1.395  0.1495 -0.1053 -0.5814
  464TMC3     C 6962   1.201   4.420   1.447 -0.3360 -0.3475  0.1086
  464TMC3     O 6963   1.243   4.318   1.490  0.2367  0.6145 -0.3795
  464TMC3     H 6964   1.043   4.654   1.390  1.3132 -0.6655 -0.2002
  464TMC3    H1 6965   1.039   4.222   1.470 -1.1794 -1.4125 -0.9319
  464TMC3    H2 6966   0.681   4.453   1.390 -0.2622 -3.7597  0.8704
  464TMC3    C7 6967   0.776   4.213   1.451 -0.5823 -0.2761 -0.3955
  464TMC3    C8 6968   0.793   4.673   1.335  0.4140 -0.4282  0.6832
  464TMC3    O1 6969   0.817   4.143   1.546 -0.3096  0.0276  0.1521
  464TMC3    O2 6970   0.700   4.649   1.254  0.3460  0.4704 -0.0415
  465MPD2     C 6971   2.729   3.463  16.531 -0.6639  0.2976 -0.2810
  465MPD2    C1 6972   2.618   3.517  16.600 -0.8295 -0.3755  0.0465
  465MPD2    C2 6973   2.507   3.570  16.535 -0.1302  0.0789  0.2103
  465MPD2    C3 6974   2.498   3.550  16.403 -0.4796 -0.2909 -0.9482
  465MPD2    C4 6975   2.606   3.513  16.331  0.3343  1.1666  0.0792
  465MPD2    C5 6976   2.719   3.467  16.387  0.6419  0.0711 -0.3172
  465MPD2     H 6977   2.416   3.611  16.579 -0.1759 -0.5238  0.6643
  465MPD2    H1 6978   2.604   3.490  16.226 -2.3753 -1.6627  0.7605
  465MPD2    H2 6979   2.821   3.429  16.576  0.0806  0.4838 -1.6584
  465MPD2    H3 6980   2.794   3.433  16.317  1.4505  0.0772  0.5364
  465MPD2     N 6981   2.373   3.584  16.354  0.0981 -0.2409 -0.2536
  465MPD2    H5 6982   2.304   3.607  16.424 -1.4668 -4.2543 -0.4640
  465MPD2    N1 6983   2.620   3.531  16.746 -0.2618  0.1058 -0.4852
  465MPD2    H7 6984   2.539   3.580  16.783 -0.5039 -1.5644  1.1900
  466TMC3    C1 6985   2.009   3.661  16.257 -0.8738 -1.0648 -0.2463
  466TMC3    C2 6986   1.993   3.782  16.191 -0.8761 -0.1752  0.0744
  466TMC3    C3 6987   2.097   3.836  16.117  0.1903 -0.0272 -0.3247
  466TMC3    C4 6988   2.128   3.597  16.260  0.4468 -0.6034  0.2787
  466TMC3    C5 6989   2.223   3.654  16.184 -0.1581 -0.3098 -0.3580
  466TMC3    C6 6990   2.211   3.762  16.096 -0.0798 -0.4403  0.5758
  466TMC3     C 6991   1.893   3.608  16.321  0.2568 -0.4448  1.3256
  466TMC3     O 6992   1.809   3.688  16.363  0.5398 -0.2763  0.1500
  466TMC3     H 6993   1.895   3.826  16.205  0.4133  2.7745 -0.1857
  466TMC3    H1 6994   2.145   3.510  16.322  0.1011  0.3830  1.7535
  466TMC3    H2 6995   2.299   3.800  16.045  0.0458 -0.9798  0.3849
  466TMC3    C7 6996   2.360   3.622  16.217  0.1048 -0.2036  0.1605
  466TMC3    C8 6997   2.096   3.980  16.093 -0.2758  0.3956  0.1088
  466TMC3    O1 6998   2.446   3.632  16.126  0.0305  0.0936 -0.2957
  466TMC3    O2 6999   2.170   4.016  15.996 -0.0779  0.8575  0.8347
  467TMC3    C1 7000   3.567   1.650  14.132 -0.1617  0.2430 -0.3027
  467TMC3    C2 7001   3.580   1.601  14.000 -0.0267  0.0019 -0.1277
  467TMC3    C3 7002   3.464   1.563  13.939 -0.3726  0.3024  0.1865
  467TMC3    C4 7003   3.447   1.681  14.188  0.4383 -0.3754  0.0509
  467TMC3    C5 7004   3.336   1.654  14.118  0.0952 -0.3040  0.4856
  467TMC3    C6 7005   3.339   1.602  13.990  0.6025 -0.0087 -0.1059
  467TMC3     C 7006   3.685   1.695  14.199 -0.7014 -0.3493  0.3958
  467TMC3     O 7007   3.688   1.806  14.248  0.1725  0.2046 -0.2831
  467TMC3     H 7008   3.677   1.587  13.954 -0.4311 -3.4954  0.1090
  467TMC3    H1 7009   3.446   1.729  14.285 -0.0079 -0.7346  0.2266
  467TMC3    H2 7010   3.255   1.578  13.927 -1.0242  0.2266  1.9628
  467TMC3    C7 7011   3.207   1.669  14.184  0.2550 -0.3034  0.0393
  467TMC3    C8 7012   3.469   1.533  13.799  0.2436  0.2929  0.3669
  467TMC3    O1 7013   3.210   1.628  14.294 -0.0114 -0.8138  0.1495
  467TMC3    O2 7014   3.544   1.594  13.723  0.2107 -0.0450  0.2870
  468MPD2     C 7015   2.410   0.151  10.006 -0.2605 -0.7793  1.2115
  468MPD2    C1 7016   2.363   0.128  10.130 -0.8948  0.7989  0.2529
  468MPD2    C2 7017   2.276   0.026  10.152 -0.1548  0.4442 -0.3382
  468MPD2    C3 7018   2.234   4.672  10.054  0.1520 -0.0825  0.8172
  468MPD2    C4 7019   2.294   4.693   9.932 -0.3218 -0.1277  0.0230
  468MPD2    C5 7020   2.377   0.065   9.908  0.5571  0.2682  1.5118
  468MPD2     H 7021   2.237   0.013  10.252  0.1213  0.8481 -0.1833
  468MPD2    H1 7022   2.272   4.629   9.847  0.4904  1.0174 -1.0653
  468MPD2    H2 7023   2.487   0.225   9.989 -0.2499 -0.5211  2.3745
  468MPD2    H3 7024   2.425   0.079   9.812 -1.5531 -1.7737  0.1608
  468MPD2     N 7025   2.139   4.564  10.080  0.0091  0.2159  0.4268
  468MPD2    H5 7026   2.123   4.492  10.011 -3.1329 -0.8818  2.3317
  468MPD2    N1 7027   2.414   0.201  10.239  0.4928 -0.0963 -0.1020
  468MPD2    H7 7028   2.376   0.162  10.325 -0.4881  0.7814 -0.1293
  469TMC3    C1 7029   2.527   0.351  10.373 -0.0780  0.4300 -0.1483
  469TMC3    C2 7030   2.590   0.253  10.451  0.3593 -0.5477  0.6372
  469TMC3    C3 7031   2.648   0.288  10.567  0.1611  0.3874 -0.4378
  469TMC3    C4 7032   2.539   0.479  10.404 -0.1445  0.3990  0.5948
  469TMC3    C5 7033   2.587   0.507  10.529  0.6621  0.1044 -0.0538
  469TMC3    C6 7034   2.639   0.413  10.616  0.2286 -0.3853 -0.2858
  469TMC3     C 7035   2.492   0.314  10.241 -0.7998  0.2721 -0.2120
  469TMC3     O 7036   2.516   0.392  10.152  0.0327  0.5042  0.0630
  469TMC3     H 7037   2.588   0.149  10.419 -3.4867 -1.3806  3.5689
  469TMC3    H1 7038   2.499   0.555  10.338 -4.1006 -1.4674  0.8373
  469TMC3    H2 7039   2.678   0.438  10.714  0.0507 -0.5824 -0.1646
  469TMC3    C7 7040   2.561   0.645  10.578  0.4468 -0.4003  0.8080
  469TMC3    C8 7041   2.721   0.186  10.638  0.6015 -0.2228 -0.3465
  469TMC3    O1 7042   2.535   0.718  10.485  0.1128  0.1887 -0.3364
  469TMC3    O2 7043   2.721   0.071  10.601  0.1878 -0.2431 -0.0149
  470TMC3    C1 7044   3.966   0.739   0.337  0.0780 -0.1017  0.4029
  470TMC3    C2 7045   4.075   0.811   0.371 -0.2555  0.4440 -0.1198
  470TMC3    C3 7046   4.065   0.903   0.472 -0.4078  0.4096 -0.4402
  470TMC3    C4 7047   3.844   0.752   0.395 -0.3409  0.0942  0.2470
  470TMC3    C5 7048   3.836   0.846   0.498 -1.3458  0.2051  0.7614
  470TMC3    C6 7049   3.942   0.927   0.534 -0.2036 -0.1711 -0.3957
  470TMC3     C 7050   3.972   0.665   0.216 -0.2993  0.5693 -0.0751
  470TMC3     O 7051   4.047   0.714   0.128  0.8037 -0.6805  0.2043
  470TMC3     H 7052   4.164   0.793   0.312 -0.2968  0.2993 -0.1396
  470TMC3    H1 7053   3.763   0.698   0.347  0.0059  1.5068 -1.8872
  470TMC3    H2 7054   3.927   0.992   0.620  0.6949 -1.4943  0.7621
  470TMC3    C7 7055   3.705   0.850   0.560  0.7645 -0.4155 -0.4619
  470TMC3    C8 7056   4.171   0.989   0.512  0.3386  0.2666  0.1627
  470TMC3    O1 7057   3.638   0.750   0.543  0.4160 -0.1844 -0.0808
  470TMC3    O2 7058   4.167   1.053   0.617  0.2163 -0.3181 -0.7058
  471MPD2     C 7059   0.245   2.806  16.536 -0.4340 -0.2373 -0.0424
  471MPD2    C1 7060   0.266   2.671  16.515  0.3158 -0.0955 -0.0592
  471MPD2    C2 7061   0.339   2.594  16.608 -0.2812 -0.2107 -0.3052
  471MPD2    C3 7062   0.405   2.660  16.712 -0.2743  0.7510  0.2819
  471MPD2    C4 7063   0.392   2.798  16.721  0.2220  0.1350 -0.2424
  471MPD2    C5 7064   0.312   2.869  16.639  0.1724 -0.5600 -0.6928
  471MPD2     H 7065   0.343   2.486  16.614  1.7565 -0.1327 -0.3339
  471MPD2    H1 7066   0.432   2.856  16.804 -1.4731 -1.8769  1.9600
  471MPD2    H2 7067   0.186   2.872  16.473 -1.5256 -1.8970 -0.7635
  471MPD2    H3 7068   0.304   2.976  16.654  1.2116 -0.9212  2.3976
  471MPD2     N 7069   0.466   2.580  16.803  0.7771 -0.0620 -0.4402
  471MPD2    H5 7070   0.444   2.481  16.796  1.0961 -0.3136  1.9938
  471MPD2    N1 7071   0.209   2.606  16.401  0.5547  0.0141  0.3237
  471MPD2    H7 7072   0.161   2.662  16.331  2.7683 -0.2832 -1.4018
  472TMC3    C1 7073   0.170   2.435  16.249  0.9738 -0.3493 -0.1270
  472TMC3    C2 7074   0.051   2.487  16.200 -0.1154 -0.0632 -0.0053
  472TMC3    C3 7075   4.727   2.422  16.097  0.4257 -0.2359  0.1931
  472TMC3    C4 7076   0.217   2.317  16.203 -0.0724  0.4255 -0.1417
  472TMC3    C5 7077   0.151   2.252  16.097  0.4721 -0.4239 -0.3542
  472TMC3    C6 7078   0.036   2.305  16.040 -0.0516  0.1884  0.5733
  472TMC3     C 7079   0.209   2.468  16.386  0.1041  0.2534  0.1163
  472TMC3     O 7080   0.244   2.374  16.455 -0.1937 -0.1322 -0.1819
  472TMC3     H 7081   0.007   2.578  16.239 -2.5689 -0.6589 -1.4114
  472TMC3    H1 7082   0.301   2.266  16.249  1.4857  0.3757 -3.0608
  472TMC3    H2 7083   4.715   2.263  15.958  1.5063 -1.2490  0.2043
  472TMC3    C7 7084   0.157   2.110  16.113 -0.5805 -0.4976  0.1473
  472TMC3    C8 7085   4.590   2.458  16.066  0.7968 -0.6956 -0.1106
  472TMC3    O1 7086   0.232   2.057  16.192 -0.0952  0.1457  0.1972
  472TMC3    O2 7087   4.575   2.572  16.036  0.1242 -0.0912 -0.4505
  473MPD2     C 7088   4.341   4.352  14.028  0.0513 -0.0530 -0.8755
  473MPD2    C1 7089   4.434   4.389  13.930  0.9142 -0.3919  0.6373
  473MPD2    C2 7090   4.486   4.515  13.938 -0.4105  0.0998  0.2016
  473MPD2    C3 7091   4.442   4.607  14.034  0.5168 -0.7752  0.6168
  473MPD2    C4 7092   4.338   4.567  14.112  0.3530  0.1575  0.4343
  473MPD2    C5 7093   4.295   4.439  14.118 -0.3649  0.2470 -0.1160
  473MPD2     H 7094   4.569   4.547  13.876 -0.3510  0.5123  0.4952
  473MPD2    H1 7095   4.290   4.634  14.183 -0.3420 -1.2359  1.2817
  473MPD2    H2 7096   4.305   4.250  14.032  1.5804 -0.5223  0.7809
  473MPD2    H3 7097   4.215   4.418  14.189  0.4452 -1.3426  0.3352
  473MPD2     N 7098   4.486   0.005  14.049  0.5929 -0.0529  0.0701
  473MPD2    H5 7099   4.452   0.044  14.136  0.0547  1.0533 -0.6274
  473MPD2    N1 7100   4.487   4.301  13.838 -0.1546  0.4696  0.0360
  473MPD2    H7 7101   4.546   4.342  13.767  0.0824 -0.2606 -0.1915
  474TMC3    C1 7102   4.646   0.176  14.043 -0.6933  0.9474 -0.2430
  474TMC3    C2 7103   4.733   0.251  13.967 -0.3764  0.6997  0.9075
  474TMC3    C3 7104   0.054   0.361  14.030 -0.2279  0.7195  0.5420
  474TMC3    C4 7105   4.618   0.212  14.172  0.2628 -0.0800 -0.3176
  474TMC3    C5 7106   4.687   0.313  14.235  0.1638 -0.3780  0.2279
  474TMC3    C6 7107   0.046   0.384  14.165 -0.9787  0.7142  0.2217
  474TMC3     C 7108   4.579   0.068  13.971  0.2241 -0.1575  0.5555
  474TMC3     O 7109   4.631   0.039  13.863 -0.1927  0.1351 -0.0412
  474TMC3     H 7110   0.007   0.234  13.861  0.5617 -1.4983  1.3468
  474TMC3    H1 7111   4.540   0.166  14.232 -0.4419 -0.0746 -1.2348
  474TMC3    H2 7112   0.081   0.474  14.213  1.8065 -1.0111  1.4735
  474TMC3    C7 7113   4.669   0.325  14.379 -0.3979  0.2604 -0.2701
  474TMC3    C8 7114   0.074   0.473  13.931 -0.4849 -0.0148 -0.2724
  474TMC3    O1 7115   4.586   0.243  14.419  0.0898 -0.1846 -0.0019
  474TMC3    O2 7116   0.064   0.442  13.809  0.9712  0.4650  0.3605
  475MPD2     C 7117   3.708   2.832  10.551  0.0559 -0.0856  0.3848
  475MPD2    C1 7118   3.682   2.926  10.453 -0.4836 -0.5942 -0.7763
  475MPD2    C2 7119   3.558   2.987  10.452 -0.1835  0.3599 -0.7342
  475MPD2    C3 7120   3.457   2.957  10.545  0.1092  0.4643  0.4241
  475MPD2    C4 7121   3.483   2.856  10.632 -0.4758  0.2248  0.1702
  475MPD2    C5 7122   3.606   2.790  10.630  0.4970  0.0918  0.5320
  475MPD2     H 7123   3.535   3.070  10.387 -0.0435  0.8800 -0.1206
  475MPD2    H1 7124   3.418   2.841  10.718 -0.5087 -1.4129 -0.1365
  475MPD2    H2 7125   3.800   2.778  10.569  1.7450  2.3861 -0.9022
  475MPD2    H3 7126   3.619   2.715  10.706 -0.1101 -0.1957  0.3529
  475MPD2     N 7127   3.350   3.045  10.552  0.3587  0.0201  0.5590
  475MPD2    H5 7128   3.350   3.126  10.491  1.3059 -0.2677  0.1716
  475MPD2    N1 7129   3.788   2.973  10.365 -0.0692  0.1484 -0.2022
  475MPD2    H7 7130   3.884   2.944  10.381 -0.2390  0.2176  0.9416
  476TMC3    C1 7131   3.859   3.172  10.244  0.0221 -0.1089  0.4929
  476TMC3    C2 7132   3.788   3.276  10.178 -0.4595 -0.1281  0.7706
  476TMC3    C3 7133   3.744   3.382  10.251  0.3127 -0.0538 -0.0166
  476TMC3    C4 7134   3.924   3.203  10.365 -0.0436 -0.7218 -0.2688
  476TMC3    C5 7135   3.870   3.300  10.438 -0.5411  0.3009  0.3607
  476TMC3    C6 7136   3.780   3.391  10.383  0.1507  0.1373  0.3237
  476TMC3     C 7137   3.766   3.064  10.261  0.0896  0.9011 -0.2533
  476TMC3     O 7138   3.664   3.081  10.195  0.0648 -0.2613  0.1113
  476TMC3     H 7139   3.751   3.256  10.078 -0.6886 -0.9578  1.0180
  476TMC3    H1 7140   3.977   3.120  10.410  1.8128  0.5997 -0.0128
  476TMC3    H2 7141   3.734   3.474  10.435  1.7063 -0.1857  2.2144
  476TMC3    C7 7142   3.843   3.256  10.576  0.1626 -0.3312  0.1531
  476TMC3    C8 7143   3.602   3.421  10.231 -0.5346  0.1985 -0.0072
  476TMC3    O1 7144   3.908   3.170  10.628  0.3362 -0.2102  0.2209
  476TMC3    O2 7145   3.572   3.536  10.268 -0.1670 -0.0699  0.5301
  477MPD2     C 7146   0.788   4.383  11.505  0.3036 -0.4695  0.3097
  477MPD2    C1 7147   0.709   4.284  11.555  0.2541  0.4872 -0.0394
  477MPD2    C2 7148   0.749   4.195  11.650 -1.1506 -0.4985 -0.9205
  477MPD2    C3 7149   0.878   4.201  11.691  0.1429 -0.3128 -0.1898
  477MPD2    C4 7150   0.961   4.299  11.633 -0.2462 -0.6911 -0.5829
  477MPD2    C5 7151   0.917   4.391  11.544 -0.0359 -0.0879  0.2910
  477MPD2     H 7152   0.694   4.108  11.684  1.0650 -1.2433  0.7533
  477MPD2    H1 7153   1.067   4.302  11.657 -0.7178  0.2330  1.3320
  477MPD2    H2 7154   0.747   4.453  11.434 -0.1260  0.5257  1.5302
  477MPD2    H3 7155   0.990   4.461  11.505  0.4662  1.0791  3.3066
  477MPD2     N 7156   0.919   4.103  11.777  0.2587  0.4434 -0.0793
  477MPD2    H5 7157   0.847   4.052  11.826  0.1530  0.1122 -0.5782
  477MPD2    N1 7158   0.572   4.280  11.511 -0.4303  0.1509 -0.1647
  477MPD2    H7 7159   0.549   4.344  11.436  1.3695 -0.3807 -1.1753
  478TMC3    C1 7160   0.351   4.238  11.492  0.8751 -0.7486  0.6010
  478TMC3    C2 7161   0.271   4.311  11.570  0.6820 -0.3337 -0.2403
  478TMC3    C3 7162   0.178   4.393  11.509  0.1243 -0.4493 -0.5799
  478TMC3    C4 7163   0.340   4.228  11.358 -0.2873 -0.5146 -0.8216
  478TMC3    C5 7164   0.243   4.310  11.301 -0.6751  0.4784 -0.8728
  478TMC3    C6 7165   0.165   4.400  11.371  0.1448 -0.3037  0.1047
  478TMC3     C 7166   0.472   4.202  11.556 -0.2995  0.1513  0.4965
  478TMC3     O 7167   0.468   4.158  11.667  0.2653 -0.1734 -0.0210
  478TMC3     H 7168   0.297   4.312  11.675 -0.1197  0.5998 -0.0462
  478TMC3    H1 7169   0.421   4.190  11.297  1.3110 -1.0371  1.6180
  478TMC3    H2 7170   0.086   4.457  11.325  0.8590  0.6051  0.0061
  478TMC3    C7 7171   0.260   4.313  11.160  0.2582  0.0570 -0.2243
  478TMC3    C8 7172   0.168   4.522  11.580 -0.3290  0.2675 -0.0003
  478TMC3    O1 7173   0.351   4.244  11.113 -0.2073  0.4523  0.1812
  478TMC3    O2 7174   0.180   4.506  11.701 -0.0931  0.5322  0.0151
  479MPD2     C 7175   4.545   1.805  15.278  0.1169  0.6660  0.3624
  479MPD2    C1 7176   4.513   1.779  15.410 -0.1126 -0.2623  0.0934
  479MPD2    C2 7177   4.575   1.853  15.514 -0.5493 -0.2658  0.3828
  479MPD2    C3 7178   4.664   1.947  15.478 -0.4755  0.8130  0.1722
  479MPD2    C4 7179   4.698   1.967  15.347 -0.1628  0.3641 -0.2060
  479MPD2    C5 7180   4.638   1.896  15.250 -0.6693  0.6866  0.0121
  479MPD2     H 7181   4.564   1.831  15.619  1.8027  1.7855  1.0497
  479MPD2    H1 7182   0.026   2.049  15.321  1.0511 -0.8880 -1.1556
  479MPD2    H2 7183   4.505   1.751  15.193 -2.4171  0.7677  1.4814
  479MPD2    H3 7184   4.670   1.906  15.147  3.2226 -2.6821  0.9068
  479MPD2     N 7185   4.710   2.050  15.566 -0.3360  0.4631  0.0796
  479MPD2    H5 7186   0.065   2.085  15.541 -0.4897  0.9331  0.1766
  479MPD2    N1 7187   4.408   1.689  15.445  0.0928  0.2968  0.1429
  479MPD2    H7 7188   4.331   1.679  15.379  0.4653 -0.2795 -0.2051
  480TMC3    C1 7189   4.291   2.065  15.787  0.2375 -0.2611  0.7264
  480TMC3    C2 7190   4.209   2.094  15.670  0.6293 -0.3961 -0.2886
  480TMC3    C3 7191   4.284   2.128  15.554  0.0337  0.0321 -0.4408
  480TMC3    C4 7192   4.429   2.079  15.785 -1.1587  0.1262 -0.2588
  480TMC3    C5 7193   4.493   2.096  15.666 -0.0355  0.4267 -0.4415
  480TMC3    C6 7194   4.419   2.123  15.551  0.0434  0.2505 -0.1387
  480TMC3     C 7195   4.235   1.972  15.878  0.4225  0.0292  1.0297
  480TMC3     O 7196   4.317   1.913  15.946 -0.0602  0.1000  0.2923
  480TMC3     H 7197   4.102   2.109  15.679  0.8091  0.9291 -0.2510
  480TMC3    H1 7198   4.483   2.074  15.880  1.7451  2.1101 -1.8013
  480TMC3    H2 7199   4.468   2.150  15.458  0.5627 -0.0020  0.0637
  480TMC3    C7 7200   4.637   2.101  15.675  0.0403  0.8204  0.4470
  480TMC3    C8 7201   4.214   2.126  15.431  0.0946  0.6090  0.1827
  480TMC3    O1 7202   4.682   2.161  15.774 -0.1675 -0.2721 -0.6476
  480TMC3    O2 7203   4.095   2.166  15.438  0.2183  0.0074  0.0635
  481MPD2     C 7204   1.505   1.473  14.091  0.7395  0.3823  0.2871
  481MPD2    C1 7205   1.416   1.386  14.153 -0.4215  0.0954  0.5611
  481MPD2    C2 7206   1.457   1.337  14.278  0.1910 -0.6663  0.5388
  481MPD2    C3 7207   1.586   1.365  14.331  0.6439  0.4841 -0.2900
  481MPD2    C4 7208   1.675   1.445  14.261  0.3680 -0.3824  0.2687
  481MPD2    C5 7209   1.624   1.500  14.141  0.3787 -0.9148 -0.5048
  481MPD2     H 7210   1.402   1.256  14.324 -1.0774 -1.1475 -1.8367
  481MPD2    H1 7211   1.779   1.461  14.286 -0.3904  1.5893  2.2014
  481MPD2    H2 7212   1.496   1.515  13.991  1.2667 -0.2192 -0.0168
  481MPD2    H3 7213   1.695   1.551  14.077  0.6069  0.7281  1.0551
  481MPD2     N 7214   1.624   1.310  14.453 -0.3338  0.0393 -0.1114
  481MPD2    H5 7215   1.720   1.285  14.476 -0.0790  1.9767  0.8785
  481MPD2    N1 7216   1.295   1.353  14.089 -0.5761  0.7602  0.2482
  481MPD2    H7 7217   1.276   1.404  14.002  0.6507  2.8336  1.1807
  482TMC3    C1 7218   1.070   1.288  14.069 -0.0575  0.2829  0.0607
  482TMC3    C2 7219   0.980   1.189  14.096 -0.1525  0.2273  0.2623
  482TMC3    C3 7220   0.851   1.204  14.052 -0.5002 -0.2922  0.7805
  482TMC3    C4 7221   1.030   1.412  14.011 -0.8322 -0.1745  0.1044
  482TMC3    C5 7222   0.899   1.422  13.967 -0.1957  0.4270 -0.5761
  482TMC3    C6 7223   0.808   1.320  13.983 -0.0925 -0.3289  0.4915
  482TMC3     C 7224   1.200   1.264  14.130 -0.5270 -0.9153  0.6258
  482TMC3     O 7225   1.198   1.189  14.226 -0.1227 -0.4587  0.6520
  482TMC3     H 7226   1.006   1.092  14.135 -3.2190 -1.3606 -1.6310
  482TMC3    H1 7227   1.104   1.491  14.006 -0.3666 -0.5979  0.2096
  482TMC3    H2 7228   0.707   1.337  13.946  0.3426  0.4860 -0.3123
  482TMC3    C7 7229   0.857   1.552  13.921  0.1112  0.0710 -0.6075
  482TMC3    C8 7230   0.775   1.087  14.023  0.2428 -0.3758 -0.5142
  482TMC3    O1 7231   0.737   1.575  13.904 -0.0075 -0.0982 -0.3690
  482TMC3    O2 7232   0.800   0.987  14.084 -0.0057  0.2342  0.2608
  483TMC3    C1 7233   3.810   0.442   0.679 -0.1398 -0.0972 -0.2247
  483TMC3    C2 7234   3.894   0.548   0.682  0.4892 -0.7217 -0.0312
  483TMC3    C3 7235   3.944   0.612   0.794  0.0906  0.7676 -0.1921
  483TMC3    C4 7236   3.755   0.401   0.796  0.0828  0.3354 -0.7726
  483TMC3    C5 7237   3.814   0.456   0.912  0.4938  0.0525  0.4184
  483TMC3    C6 7238   3.899   0.564   0.917  0.0041 -0.2095  0.6480
  483TMC3     C 7239   3.766   0.389   0.552  0.5025 -1.2171  0.0316
  483TMC3     O 7240   3.784   0.462   0.456 -0.2020 -0.0638  0.3190
  483TMC3     H 7241   3.933   0.579   0.586 -2.6790  0.1112 -1.0411
  483TMC3    H1 7242   3.689   0.315   0.799  1.3325 -0.5934  0.4973
  483TMC3    H2 7243   3.959   0.578   1.006  1.8763  0.8286 -0.7620
  483TMC3    C7 7244   3.822   0.367   1.029 -0.1425 -0.3579 -0.2036
  483TMC3    C8 7245   4.065   0.693   0.788 -0.2310  0.5641  0.2335
  483TMC3    O1 7246   3.848   0.432   1.129  0.2878  0.3036  0.6009
  483TMC3    O2 7247   4.126   0.698   0.684  0.3445 -0.2258  0.5180
  484MPD2     C 7248   1.649   3.313  12.238 -0.6780  0.1783  0.0300
  484MPD2    C1 7249   1.668   3.200  12.314  0.0041 -0.3408 -0.3676
  484MPD2    C2 7250   1.795   3.139  12.320  0.0100  0.2288  0.1376
  484MPD2    C3 7251   1.902   3.198  12.258  0.2185 -0.2095  0.1160
  484MPD2    C4 7252   1.881   3.318  12.202 -0.1979  0.8932 -0.0126
  484MPD2    C5 7253   1.759   3.382  12.193  0.1868 -0.2842 -0.1527
  484MPD2     H 7254   1.809   3.049  12.378 -0.5685 -0.9429 -1.5253
  484MPD2    H1 7255   1.970   3.363  12.159  0.0519 -0.3787 -0.8254
  484MPD2    H2 7256   1.556   3.366  12.222  0.2508  1.1871 -2.1355
  484MPD2    H3 7257   1.744   3.465  12.124 -0.3845 -0.0347  0.2775
  484MPD2     N 7258   2.036   3.151  12.265  0.4300  0.3143  0.7905
  484MPD2    H5 7259   2.110   3.220  12.252  1.1555 -0.1497  2.3238
  484MPD2    N1 7260   1.550   3.150  12.367 -0.6783 -0.2857  0.0415
  484MPD2    H7 7261   1.461   3.198  12.359 -0.4374  0.2763  0.6899
  485TMC3    C1 7262   2.210   2.993  12.333 -0.1263  0.2802  0.3183
  485TMC3    C2 7263   2.226   2.890  12.425 -0.0216 -0.6541  0.0687
  485TMC3    C3 7264   2.345   2.862  12.474 -0.9195  0.0649 -0.5747
  485TMC3    C4 7265   2.306   3.073  12.284  0.2533 -0.2429  0.6375
  485TMC3    C5 7266   2.428   3.045  12.342  0.2004 -0.4362 -0.2219
  485TMC3    C6 7267   2.450   2.947  12.440 -0.0746  0.0852 -0.0119
  485TMC3     C 7268   2.072   3.020  12.307  0.4631  0.0774  0.6769
  485TMC3     O 7269   1.992   2.930  12.324  0.1283  0.6266  0.3058
  485TMC3     H 7270   2.141   2.833  12.461 -2.0645  1.7671 -0.9523
  485TMC3    H1 7271   2.296   3.130  12.193  1.2420 -2.4652 -0.8689
  485TMC3    H2 7272   2.537   2.927  12.502 -0.7771  1.2697  1.3621
  485TMC3    C7 7273   2.546   3.042  12.252 -0.7773 -0.3955  0.2081
  485TMC3    C8 7274   2.383   2.726  12.444  0.5175 -0.0313 -0.2955
  485TMC3    O1 7275   2.563   3.132  12.170 -0.0826 -0.1739 -0.3789
  485TMC3    O2 7276   2.504   2.715  12.421 -0.3758  0.2971 -0.3447
  486MPD2     C 7277   3.680   1.781  12.875  0.2993 -0.2068 -0.0666
  486MPD2    C1 7278   3.766   1.782  12.769 -0.0386  0.0086  0.3265
  486MPD2    C2 7279   3.762   1.885  12.672  0.7666  0.2657 -0.2217
  486MPD2    C3 7280   3.688   1.998  12.702 -0.0706  0.5777 -0.3494
  486MPD2    C4 7281   3.594   1.990  12.802 -0.2212 -0.3204 -0.1263
  486MPD2    C5 7282   3.589   1.879  12.879 -0.7519  0.2399  0.0111
  486MPD2     H 7283   3.832   1.894  12.589 -0.3106 -0.2193 -1.1709
  486MPD2    H1 7284   3.524   2.070  12.824 -1.8300 -1.6167 -0.5435
  486MPD2    H2 7285   3.670   1.693  12.937 -0.5892  0.2164  0.3865
  486MPD2    H3 7286   3.517   1.883  12.960 -2.0705  2.5489 -1.2912
  486MPD2     N 7287   3.713   2.105  12.609 -0.2534  0.1790  0.6917
  486MPD2    H5 7288   3.773   2.093  12.528 -3.6772 -0.5177 -1.7139
  486MPD2    N1 7289   3.863   1.680  12.760  0.5098  0.4890  0.9947
  486MPD2    H7 7290   3.869   1.626  12.845  0.0971 -1.2552 -0.0767
  487TMC3    C1 7291   4.064   1.576  12.686 -0.0928 -0.4232 -0.4718
  487TMC3    C2 7292   4.113   1.485  12.595 -0.1634  0.8712 -0.2945
  487TMC3    C3 7293   4.219   1.404  12.631  0.0347 -0.1096 -0.1692
  487TMC3    C4 7294   4.123   1.592  12.813  0.1562 -0.2557 -0.0513
  487TMC3    C5 7295   4.234   1.519  12.839  0.1412  0.1197  0.0914
  487TMC3    C6 7296   4.282   1.424  12.752 -0.3039 -0.4363  0.0744
  487TMC3     C 7297   3.950   1.656  12.647 -0.1503 -0.1355  0.4334
  487TMC3     O 7298   3.948   1.701  12.535 -0.1313  0.6282 -0.3163
  487TMC3     H 7299   4.062   1.461  12.502  1.6546  0.2524 -1.1621
  487TMC3    H1 7300   4.079   1.669  12.876 -0.7811  1.0408 -2.3012
  487TMC3    H2 7301   4.351   1.350  12.791 -2.4235 -2.9411 -0.8914
  487TMC3    C7 7302   4.216   1.474  12.980  0.0343 -0.7614  0.3630
  487TMC3    C8 7303   4.191   1.259  12.617 -0.0604  0.2182  0.3604
  487TMC3    O1 7304   4.146   1.555  13.050 -0.2785  0.1174 -0.0640
  487TMC3    O2 7305   4.286   1.184  12.606 -0.3626 -0.0276  0.6324
  488MPD2     C 7306   4.424   3.764  16.486 -0.6360  0.4570  0.0650
  488MPD2    C1 7307   4.352   3.880  16.517 -0.4185  0.5955  0.3314
  488MPD2    C2 7308   4.269   3.879  16.629 -0.0447  0.2674 -0.8513
  488MPD2    C3 7309   4.255   3.769  16.711  0.1991  0.6089 -0.1538
  488MPD2    C4 7310   4.321   3.650  16.676  0.9645 -0.3580 -0.3461
  488MPD2    C5 7311   4.410   3.651  16.569  0.3183 -0.8190  0.1289
  488MPD2     H 7312   4.225   3.973  16.658 -2.5203 -1.0482 -0.3507
  488MPD2    H1 7313   4.315   3.562  16.738  0.8174 -0.1639 -0.0805
  488MPD2    H2 7314   4.494   3.765  16.403 -1.7320  3.3700 -0.8143
  488MPD2    H3 7315   4.458   3.558  16.543  1.5014  0.5978 -2.7584
  488MPD2     N 7316   4.163   3.779  16.822  0.5980  0.0583  0.1674
  488MPD2    H5 7317   4.131   3.874  16.835 -1.4298 -0.4626 -1.0267
  488MPD2    N1 7318   4.364   3.996  16.442 -0.0757  0.7640  0.3341
  488MPD2    H7 7319   4.301   4.066  16.480 -1.7223  0.2855 -1.4965
  489TMC3    C1 7320   4.057   3.737  17.029 -0.1785 -0.1736 -0.7949
  489TMC3    C2 7321   4.068   3.875  17.038  0.7644  0.5114 -0.0534
  489TMC3    C3 7322   4.065   3.930  17.165  0.1574 -0.3068 -0.1004
  489TMC3    C4 7323   4.052   3.659  17.141  0.5888  0.0621  0.4482
  489TMC3    C5 7324   4.063   3.718  17.267  0.0502 -0.5497  0.3880
  489TMC3    C6 7325   4.063   3.857  17.280  0.5908  0.0601 -0.8322
  489TMC3     C 7326   4.124   3.679  16.912 -0.2661  0.2172 -0.1354
  489TMC3     O 7327   4.135   3.558  16.911  0.3191  0.4892 -0.2021
  489TMC3     H 7328   4.048   3.940  16.954 -0.3101  0.3924  0.1091
  489TMC3    H1 7329   4.044   3.554  17.116  0.1145  0.6904 -2.0517
  489TMC3    H2 7330   4.079   3.913  17.371  0.3017  0.2981 -0.9270
  489TMC3    C7 7331   4.110   3.642  17.380  0.6076 -0.1489 -0.0899
  489TMC3    C8 7332   4.145   4.040  17.164 -0.0506  0.1015  0.0142
  489TMC3    O1 7333   4.144   3.707  17.477  0.1154  0.3424 -0.0720
  489TMC3    O2 7334   4.226   4.047  17.076  0.1560  0.2865  0.4815
  490MPD2     C 7335   0.423   2.867  17.153 -0.6985 -0.3961 -0.2688
  490MPD2    C1 7336   0.391   2.856  17.287 -0.2925 -0.3135 -0.1478
  490MPD2    C2 7337   0.414   2.960  17.371  0.0562 -0.4205  0.6678
  490MPD2    C3 7338   0.474   3.076  17.327  0.1861 -0.6232 -0.1929
  490MPD2    C4 7339   0.517   3.083  17.196 -0.7433 -0.3614  0.3153
  490MPD2    C5 7340   0.493   2.974  17.110 -0.0404 -0.6731 -0.0710
  490MPD2     H 7341   0.391   2.958  17.477 -1.7155 -0.6454  0.2829
  490MPD2    H1 7342   0.569   3.169  17.154 -1.9995  0.4885  0.4944
  490MPD2    H2 7343   0.408   2.785  17.084  1.8939  0.2205 -1.5473
  490MPD2    H3 7344   0.512   2.986  17.004  0.1375 -3.0418 -0.3036
  490MPD2     N 7345   0.497   3.186  17.417 -0.2938  0.1699 -0.3589
  490MPD2    H5 7346   0.570   3.251  17.391 -0.6098  0.5005 -0.4359
  490MPD2    N1 7347   0.320   2.742  17.336  0.3070 -0.0284 -0.0952
  490MPD2    H7 7348   0.321   2.738  17.438  0.0507 -0.0760 -0.0964
  491TMC3    C1 7349   0.198   2.537  17.340 -0.2811  0.4951 -0.2964
  491TMC3    C2 7350   0.235   2.518  17.473  0.0727  0.4934  0.3040
  491TMC3    C3 7351   0.179   2.402  17.530 -0.0110 -0.0801 -0.4827
  491TMC3    C4 7352   0.133   2.436  17.271  0.4373 -0.0954  0.2469
  491TMC3    C5 7353   0.073   2.333  17.337  0.3460 -0.0052 -0.4242
  491TMC3    C6 7354   0.098   2.312  17.470 -0.6884 -0.0302 -0.1753
  491TMC3     C 7355   0.271   2.638  17.265  0.0561 -0.4193 -0.1768
  491TMC3     O 7356   0.252   2.631  17.143 -0.3356  0.7595 -0.2856
  491TMC3     H 7357   0.278   2.592  17.539 -0.9078 -0.0757  1.5809
  491TMC3    H1 7358   0.119   2.447  17.164  0.0390 -1.6540  0.1311
  491TMC3    H2 7359   0.066   2.221  17.520 -2.4292 -0.2056 -1.5940
  491TMC3    C7 7360   4.730   2.244  17.257  0.7743  0.0862 -0.0293
  491TMC3    C8 7361   0.161   2.399  17.677 -0.4838 -0.8935  0.4071
  491TMC3    O1 7362   4.729   2.262  17.132  0.4425  0.0816 -0.4292
  491TMC3    O2 7363   0.043   2.380  17.714 -0.7327  0.4618 -0.3393
  492MPD2     C 7364   0.453   2.844  11.469 -0.1159 -0.5062  0.2002
  492MPD2    C1 7365   0.356   2.750  11.421  0.6581 -0.2082 -0.1844
  492MPD2    C2 7366   0.296   2.668  11.511  0.9132  0.1670 -0.0508
  492MPD2    C3 7367   0.332   2.667  11.637 -0.0600 -0.3415  0.3201
  492MPD2    C4 7368   0.432   2.749  11.683  1.0081 -0.2406  1.0448
  492MPD2    C5 7369   0.491   2.844  11.603 -0.5521  0.0459 -0.3197
  492MPD2     H 7370   0.227   2.589  11.483  1.2737 -0.8523  2.0057
  492MPD2    H1 7371   0.473   2.736  11.783 -0.7894 -1.1670  1.6554
  492MPD2    H2 7372   0.503   2.910  11.400 -2.7447  0.1274 -1.1260
  492MPD2    H3 7373   0.574   2.906  11.634  1.1779 -2.5115  0.1774
  492MPD2     N 7374   0.282   2.578  11.736 -0.2950 -0.7237  0.7652
  492MPD2    H5 7375   0.336   2.576  11.821  1.1070  0.0266 -0.1020
  492MPD2    N1 7376   0.325   2.754  11.286  0.0722 -0.8673 -0.0045
  492MPD2    H7 7377   0.362   2.830  11.230 -1.2181  1.3912  2.2591
  493TMC3    C1 7378   0.260   2.695  11.077  0.5420 -0.4948  0.7502
  493TMC3    C2 7379   0.355   2.777  11.023  0.1923 -0.3108  0.1581
  493TMC3    C3 7380   0.372   2.774  10.890  0.3723  0.2151  0.5827
  493TMC3    C4 7381   0.178   2.620  10.999 -0.5148  0.1871 -0.2331
  493TMC3    C5 7382   0.189   2.629  10.866 -0.2010  0.0641 -0.4785
  493TMC3    C6 7383   0.286   2.704  10.814  1.0963  0.1089 -0.4202
  493TMC3     C 7384   0.252   2.664  11.219  0.5635 -0.5033  0.4618
  493TMC3     O 7385   0.181   2.571  11.254  0.2097  0.2634 -0.4451
  493TMC3     H 7386   0.442   2.806  11.082  0.0341 -0.9184  0.6821
  493TMC3    H1 7387   0.111   2.552  11.050  0.6531  1.2345  2.7212
  493TMC3    H2 7388   0.304   2.705  10.707 -1.5035  0.3758 -0.8619
  493TMC3    C7 7389   0.101   2.544  10.784 -0.2517 -0.2689 -0.1573
  493TMC3    C8 7390   0.480   2.842  10.818 -0.4160 -0.5204  0.1801
  493TMC3    O1 7391   0.107   2.562  10.661  0.8396  0.4979  0.0564
  493TMC3    O2 7392   0.479   2.832  10.697  0.7251 -0.0590 -0.5511
  494TMC3    C1 7393   0.735   4.633   0.230 -0.0383  0.3371 -0.0004
  494TMC3    C2 7394   0.804   4.517   0.254  0.1517  0.0843 -0.7578
  494TMC3    C3 7395   0.908   4.493   0.172  0.5224 -0.4701  0.3254
  494TMC3    C4 7396   0.771   4.711   0.119  0.3805  0.2295 -0.1262
  494TMC3    C5 7397   0.871   4.670   0.032 -0.2263  0.2715 -0.0069
  494TMC3    C6 7398   0.951   4.564   0.060 -0.0406  0.3197 -0.4179
  494TMC3     C 7399   0.615   4.673   0.307  0.7695 -0.7126 -0.0811
  494TMC3     O 7400   0.597   0.054   0.297  0.2211 -0.3994 -0.0188
  494TMC3     H 7401   0.793   4.453   0.341 -1.5094  0.5491 -0.6222
  494TMC3    H1 7402   0.729   0.073   0.110  0.4137  0.1571 -1.0664
  494TMC3    H2 7403   1.035   4.540  17.741  3.6702  1.8535  3.7974
  494TMC3    C7 7404   0.902   0.002  17.655  0.3092  0.7149 -0.7231
  494TMC3    C8 7405   0.981   4.370   0.206  0.4898  1.1761 -0.7576
  494TMC3    O1 7406   0.985   4.694  17.575  0.1927 -0.0448  0.3740
  494TMC3    O2 7407   1.099   4.379   0.173 -0.0404 -0.1292  0.0600
  495TMC3    C1 7408   4.642   1.680  14.642 -0.6442 -0.2827 -0.5090
  495TMC3    C2 7409   4.605   1.717  14.513  0.6985 -0.1899 -0.0513
  495TMC3    C3 7410   4.506   1.817  14.499 -0.7231  0.0693  0.3735
  495TMC3    C4 7411   4.593   1.741  14.751 -0.0410 -0.0590 -0.3373
  495TMC3    C5 7412   4.503   1.846  14.729 -0.1653  0.4847 -0.2049
  495TMC3    C6 7413   4.456   1.884  14.607  0.0098 -0.4688 -0.2972
  495TMC3     C 7414   4.652   1.542  14.663  0.2251  0.3084 -1.0372
  495TMC3     O 7415   4.601   1.488  14.761  0.3110 -0.2579  0.7840
  495TMC3     H 7416   4.657   1.672  14.429 -1.0211 -1.1572 -0.5957
  495TMC3    H1 7417   4.635   1.722  14.849 -2.7757 -2.4814  0.3560
  495TMC3    H2 7418   4.392   1.971  14.591 -2.1427 -1.6550  1.8769
  495TMC3    C7 7419   4.460   1.907  14.854 -0.2726  0.5751  0.0937
  495TMC3    C8 7420   4.394   1.741  14.441 -0.3200  0.0092  0.4049
  495TMC3    O1 7421   4.546   1.911  14.941  0.2856  0.5276 -0.1507
  495TMC3    O2 7422   4.284   1.789  14.464 -0.2470  0.2589  0.2940
  496MPD2     C 7423   2.074   2.046  15.327 -0.3370 -0.4497  0.3096
  496MPD2    C1 7424   1.987   2.008  15.218 -0.9316 -0.7141  0.1114
  496MPD2    C2 7425   1.859   2.048  15.219 -0.3154  0.3610 -0.4972
  496MPD2    C3 7426   1.804   2.119  15.330  0.1283  0.1898 -0.1424
  496MPD2    C4 7427   1.893   2.159  15.431  0.3272 -0.8471  0.1920
  496MPD2    C5 7428   2.026   2.121  15.422 -0.1030  0.1029  0.3448
  496MPD2     H 7429   1.798   2.014  15.136  1.2503 -1.0580 -1.0873
  496MPD2    H1 7430   1.851   2.206  15.519 -0.4175 -0.8584 -0.1603
  496MPD2    H2 7431   2.180   2.020  15.328  0.2923  2.0797  1.4184
  496MPD2    H3 7432   2.087   2.139  15.511 -1.4428 -0.1914  1.3182
  496MPD2     N 7433   1.671   2.162  15.339  0.0610 -0.8841  1.0791
  496MPD2    H5 7434   1.647   2.238  15.402 -0.2730 -2.3153  2.7002
  496MPD2    N1 7435   2.049   1.927  15.113 -0.0172  0.9552 -0.3578
  496MPD2    H7 7436   2.140   1.884  15.126 -0.3518  1.0435  2.1589
  497TMC3    C1 7437   1.451   2.156  15.328 -1.0466  0.0093  0.1914
  497TMC3    C2 7438   1.336   2.114  15.281  0.2732  0.5593  0.4359
  497TMC3    C3 7439   1.222   2.146  15.349  0.6056  0.4541  0.2514
  497TMC3    C4 7440   1.451   2.208  15.453 -0.2776  0.2648 -0.2701
  497TMC3    C5 7441   1.336   2.245  15.520  0.2958  0.1292  1.0392
  497TMC3    C6 7442   1.215   2.218  15.469  0.4591 -0.6222 -0.4750
  497TMC3     C 7443   1.569   2.109  15.269  0.4014 -0.0307 -0.2875
  497TMC3     O 7444   1.570   2.026  15.180 -0.0201  0.7717 -0.1754
  497TMC3     H 7445   1.343   2.074  15.181  1.5589  1.6734  0.0909
  497TMC3    H1 7446   1.543   2.219  15.510 -0.7128  0.7842  0.3306
  497TMC3    H2 7447   1.118   2.245  15.508  0.6441 -0.6782  0.0149
  497TMC3    C7 7448   1.334   2.221  15.658  0.0580 -0.3410  0.8641
  497TMC3    C8 7449   1.117   2.052  15.334  0.1336  0.3712  0.0167
  497TMC3    O1 7450   1.225   2.191  15.708 -0.6840  0.1511  0.6614
  497TMC3    O2 7451   1.015   2.087  15.386  0.0892 -0.2770 -0.0527
  498MPD2     C 7452   2.712   2.808   9.967  0.0664  0.7644 -0.2867
  498MPD2    C1 7453   2.686   2.914  10.054  0.1562 -0.3318 -0.4590
  498MPD2    C2 7454   2.594   2.891  10.156  0.4947  0.6297  0.1556
  498MPD2    C3 7455   2.542   2.767  10.183  0.0758 -0.1132 -0.0207
  498MPD2    C4 7456   2.576   2.662  10.098 -0.1815 -0.1268  0.2053
  498MPD2    C5 7457   2.647   2.688   9.986 -0.2130 -1.2335 -0.5439
  498MPD2     H 7458   2.570   2.965  10.232  0.6207 -0.1801  0.9771
  498MPD2    H1 7459   2.550   2.558  10.116  2.3389 -0.7992  0.0630
  498MPD2    H2 7460   2.793   2.808   9.895  0.7991  0.2971  0.5173
  498MPD2    H3 7461   2.666   2.608   9.916  0.4035 -3.0864  1.7640
  498MPD2     N 7462   2.461   2.751  10.299 -0.2826  0.0941  0.3919
  498MPD2    H5 7463   2.439   2.835  10.352 -2.3899  0.9674 -1.8134
  498MPD2    N1 7464   2.756   3.037  10.043 -0.0056 -0.1659 -0.4119
  498MPD2    H7 7465   2.715   3.114  10.095  0.0684 -0.3665 -0.0583
  499TMC3    C1 7466   2.932   3.185   9.975  0.7706  0.9749  0.2424
  499TMC3    C2 7467   3.064   3.192   9.956 -0.4429  0.0713 -0.4965
  499TMC3    C3 7468   3.118   3.315   9.919 -0.4203 -0.0047 -0.4107
  499TMC3    C4 7469   2.847   3.297   9.960  0.0032 -0.3563 -0.5934
  499TMC3    C5 7470   2.909   3.415   9.923  0.2590  0.2533  0.3011
  499TMC3    C6 7471   3.042   3.426   9.903  0.4921  0.0242 -0.8275
  499TMC3     C 7472   2.875   3.058   9.975  0.1799 -0.0253 -0.8543
  499TMC3     O 7473   2.949   2.979   9.922  0.1042 -0.7420 -0.1451
  499TMC3     H 7474   3.126   3.103   9.958  1.1139  1.1538 -0.6676
  499TMC3    H1 7475   2.742   3.302   9.987 -0.0626 -0.7417 -0.7714
  499TMC3    H2 7476   3.082   3.507   9.843  2.1142  0.4969  0.8781
  499TMC3    C7 7477   2.832   3.533   9.875 -0.2509  0.5880 -0.0160
  499TMC3    C8 7478   3.253   3.314   9.872 -0.1069  0.1546  0.0040
  499TMC3    O1 7479   2.891   3.641   9.890 -0.4012  0.2477  0.6480
  499TMC3    O2 7480   3.283   3.208   9.817  0.0358  0.5119  0.0584
  500MPD2     C 7481   3.910   3.909  10.783 -0.3258 -0.0856  0.1271
  500MPD2    C1 7482   3.916   3.923  10.644 -0.1944 -0.1768  0.3122
  500MPD2    C2 7483   3.815   3.991  10.575 -0.1100 -0.6312  0.3388
  500MPD2    C3 7484   3.708   4.049  10.637 -0.0271 -0.0157  0.3862
  500MPD2    C4 7485   3.709   4.040  10.776  0.3262  0.0256  0.2822
  500MPD2    C5 7486   3.811   3.971  10.847 -0.6684  0.0553  0.1683
  500MPD2     H 7487   3.812   3.988  10.467  0.8353  0.3496  0.2851
  500MPD2    H1 7488   3.629   4.082  10.836 -0.6148  0.7984 -1.5241
  500MPD2    H2 7489   3.979   3.845  10.837  0.6211  0.6344 -0.2338
  500MPD2    H3 7490   3.797   3.963  10.954  1.8699  1.9480  0.6717
  500MPD2     N 7491   3.607   4.119  10.569  0.2442  0.0976 -0.6303
  500MPD2    H5 7492   3.540   4.163  10.631 -1.2455  1.2487 -3.0538
  500MPD2    N1 7493   4.028   3.890  10.567 -0.5522 -0.2042  0.1049
  500MPD2    H7 7494   4.023   3.908  10.468  1.1599 -2.3327 -0.3663
  501TMC3    C1 7495   4.260   3.850  10.509  0.2634  0.6275  0.4253
  501TMC3    C2 7496   4.255   3.911  10.391  0.0973  0.9747  0.1074
  501TMC3    C3 7497   4.368   3.909  10.316 -0.3083 -0.4997  0.5840
  501TMC3    C4 7498   4.370   3.779  10.557 -0.2940 -0.1413  0.1048
  501TMC3    C5 7499   4.482   3.779  10.476  0.0948 -0.4876 -0.1317
  501TMC3    C6 7500   4.478   3.844  10.358  0.7103 -0.5738 -0.1283
  501TMC3     C 7501   4.156   3.868  10.618 -0.9714 -0.0371 -0.2522
  501TMC3     O 7502   4.195   3.865  10.733 -0.1546 -0.0067  0.1617
  501TMC3     H 7503   4.177   3.984  10.372  0.7389  0.9357 -2.7279
  501TMC3    H1 7504   4.372   3.728  10.653  1.5445  1.8392  1.1096
  501TMC3    H2 7505   4.566   3.846  10.295  1.3655 -2.3708  0.7560
  501TMC3    C7 7506   4.608   3.759  10.546 -0.3823 -0.0260  0.0846
  501TMC3    C8 7507   4.399   4.037  10.257  0.1037 -0.4376  0.3453
  501TMC3    O1 7508   4.607   3.759  10.668  0.1859  0.2128  0.4793
  501TMC3    O2 7509   4.516   4.069  10.267 -0.4813 -0.2515 -0.8617
  502TMC3    C1 7510   4.066   2.938  14.979 -0.1176  0.1748  0.2183
  502TMC3    C2 7511   4.096   3.021  14.875 -0.2073  0.1668 -0.1470
  502TMC3    C3 7512   4.041   3.007  14.749 -0.1045  0.6841  0.3343
  502TMC3    C4 7513   3.983   2.826  14.958  0.7040 -0.4937  1.0667
  502TMC3    C5 7514   3.948   2.806  14.826  0.0338  0.9612 -0.1063
  502TMC3    C6 7515   3.967   2.891  14.723 -0.2830  0.4377  0.4017
  502TMC3     C 7516   4.129   2.959  15.106 -0.5518  0.1566  0.4697
  502TMC3     O 7517   4.237   3.015  15.097 -0.4867 -0.4038  0.0319
  502TMC3     H 7518   4.153   3.109  14.904 -0.5575  0.0300  0.9421
  502TMC3    H1 7519   3.983   2.746  15.031  1.1517 -2.5723 -1.1965
  502TMC3    H2 7520   3.915   2.869  14.631 -1.5543 -0.2593  1.2933
  502TMC3    C7 7521   3.845   2.712  14.803  0.1059  0.8775 -0.8117
  502TMC3    C8 7522   4.001   3.133  14.697 -0.9206 -0.2034 -0.0092
  502TMC3    O1 7523   3.806   2.685  14.693  0.0996  0.2542  0.2310
  502TMC3    O2 7524   4.073   3.228  14.729  0.3787  0.2916 -0.1474
  503MPD2     C 7525   1.007   3.565  16.804 -0.2630 -0.1142 -0.1700
  503MPD2    C1 7526   1.035   3.540  16.942 -0.0777 -0.0049  0.6502
  503MPD2    C2 7527   1.112   3.438  16.988 -0.6419  0.3673 -0.0909
  503MPD2    C3 7528   1.170   3.352  16.898  0.1309  0.2470  0.1675
  503MPD2    C4 7529   1.135   3.371  16.761 -0.0568  0.0521 -0.4700
  503MPD2    C5 7530   1.059   3.477  16.718 -0.3272  0.3419  0.0192
  503MPD2     H 7531   1.126   3.441  17.095 -0.0169  0.0755 -0.1661
  503MPD2    H1 7532   1.171   3.293  16.695 -0.8014 -1.8502  1.3442
  503MPD2    H2 7533   0.949   3.649  16.767  0.0378  0.0099 -0.3653
  503MPD2    H3 7534   1.042   3.498  16.613  0.2458 -0.3186 -0.2081
  503MPD2     N 7535   1.254   3.248  16.942  0.0321 -0.8623 -0.2560
  503MPD2    H5 7536   1.256   3.237  17.043 -1.2434 -1.7519 -0.3165
  503MPD2    N1 7537   0.988   3.626  17.042 -0.3967 -0.3065 -0.2393
  503MPD2    H7 7538   1.019   3.610  17.138  3.2922 -0.5683 -1.4988
  504TMC3    C1 7539   1.426   3.089  16.944  0.6933 -0.3175 -0.1064
  504TMC3    C2 7540   1.406   3.096  17.083 -0.5944 -0.6978 -1.2640
  504TMC3    C3 7541   1.518   3.083  17.154  0.6156  0.3140  0.7256
  504TMC3    C4 7542   1.554   3.089  16.887  0.4290  0.1465  0.4370
  504TMC3    C5 7543   1.656   3.091  16.975  0.0682 -0.2057  0.4944
  504TMC3    C6 7544   1.645   3.077  17.109 -0.1924  0.5530 -0.0250
  504TMC3     C 7545   1.345   3.180  16.864  0.6663  0.5158 -0.3992
  504TMC3     O 7546   1.372   3.185  16.744 -0.2125  0.2925  0.5828
  504TMC3     H 7547   1.303   3.087  17.117 -0.0697  0.3646  0.6065
  504TMC3    H1 7548   1.568   3.110  16.781  0.1421  2.5491  0.8632
  504TMC3    H2 7549   1.725   3.090  17.182  1.4726 -1.7600 -1.4141
  504TMC3    C7 7550   1.790   3.092  16.920 -0.0130  0.1066 -0.0046
  504TMC3    C8 7551   1.492   3.119  17.290  0.2448  0.2876 -0.6072
  504TMC3    O1 7552   1.783   3.133  16.805 -0.3371 -0.5447  0.7340
  504TMC3    O2 7553   1.385   3.176  17.301  0.2440 -0.3923  0.1318
  505MPD2     C 7554   1.697   2.905  11.453  0.8344 -0.2320  0.8438
  505MPD2    C1 7555   1.779   2.813  11.524 -0.0030 -0.6415 -0.0845
  505MPD2    C2 7556   1.906   2.843  11.565 -0.4460 -0.0169 -0.0854
  505MPD2    C3 7557   1.949   2.978  11.541  0.1719  0.1596 -0.7612
  505MPD2    C4 7558   1.876   3.061  11.460 -0.6926 -0.4565 -0.0650
  505MPD2    C5 7559   1.750   3.031  11.427 -0.0325  0.0527 -0.5976
  505MPD2     H 7560   1.964   2.772  11.623  0.2193  0.3460 -0.3034
  505MPD2    H1 7561   1.907   3.154  11.414  0.2372 -0.9257 -0.3663
  505MPD2    H2 7562   1.602   2.880  11.407  2.4367 -2.1877 -1.3921
  505MPD2    H3 7563   1.704   3.111  11.371  0.6608 -0.9489 -2.6031
  505MPD2     N 7564   2.078   3.008  11.586  0.0682 -0.0168 -0.0331
  505MPD2    H5 7565   2.121   2.932  11.637 -1.1992 -0.0670  0.9577
  505MPD2    N1 7566   1.729   2.685  11.535 -0.0038  0.3285 -0.2147
  505MPD2    H7 7567   1.641   2.664  11.489  0.6674 -0.0711 -1.3211
  506TMC3    C1 7568   1.729   2.454  11.571 -0.0059  0.4109 -0.1298
  506TMC3    C2 7569   1.693   2.438  11.437 -0.0150 -0.3935 -0.2123
  506TMC3    C3 7570   1.700   2.314  11.387  0.4247  0.3162 -0.1025
  506TMC3    C4 7571   1.794   2.348  11.643  0.1101  0.2059  0.7908
  506TMC3    C5 7572   1.824   2.232  11.576  0.9727  0.3024 -0.1108
  506TMC3    C6 7573   1.768   2.216  11.454  0.6782  0.5681 -0.0743
  506TMC3     C 7574   1.783   2.582  11.611 -0.4568 -0.3837  1.4199
  506TMC3     O 7575   1.886   2.577  11.683  0.3570  0.5454 -0.1294
  506TMC3     H 7576   1.644   2.514  11.378  0.4343  0.2521  0.2456
  506TMC3    H1 7577   1.812   2.366  11.749  1.5301  2.2335  0.2089
  506TMC3    H2 7578   1.790   2.122  11.404  1.8023  0.9349 -0.2817
  506TMC3    C7 7579   1.972   2.210  11.574 -0.7514  0.5232  0.4308
  506TMC3    C8 7580   1.692   2.291  11.239 -0.1198 -0.4470 -0.0659
  506TMC3    O1 7581   2.009   2.104  11.524 -0.7083  0.4219 -0.1600
  506TMC3    O2 7582   1.653   2.176  11.216  0.2925  0.1161  0.4496
  507TMC3    C1 7583   2.808   3.470  14.641  0.1654  0.0158 -0.6771
  507TMC3    C2 7584   2.824   3.393  14.534 -0.8742  0.2792 -0.7777
  507TMC3    C3 7585   2.853   3.452  14.418 -0.2389  0.5569  0.1290
  507TMC3    C4 7586   2.825   3.607  14.633  0.6910 -0.1802 -0.0437
  507TMC3    C5 7587   2.863   3.669  14.520 -0.4833  0.5451  0.5192
  507TMC3    C6 7588   2.885   3.588  14.410 -0.0827  0.0343  0.2343
  507TMC3     C 7589   2.836   3.411  14.773 -0.5531 -0.4472  0.1148
  507TMC3     O 7590   2.883   3.489  14.853  0.3150  0.4837  0.3837
  507TMC3     H 7591   2.819   3.286  14.544 -0.3988  0.4067  0.7186
  507TMC3    H1 7592   2.797   3.676  14.712 -2.8556  0.0421 -1.4892
  507TMC3    H2 7593   2.924   3.627  14.316 -0.3259  0.0355  0.1347
  507TMC3    C7 7594   2.783   3.783  14.475 -0.2161  0.0773  0.0847
  507TMC3    C8 7595   2.795   3.393  14.297 -0.0969  0.7068  0.3625
  507TMC3    O1 7596   2.807   3.811  14.359 -0.1288 -0.1982 -0.1455
  507TMC3    O2 7597   2.797   3.466  14.199 -0.2593  0.4003  0.2858
  508MPD2     C 7598   2.930   0.670  15.599  0.1497  0.7222 -0.1877
  508MPD2    C1 7599   3.066   0.684  15.628 -0.8609 -0.0442  0.0507
  508MPD2    C2 7600   3.155   0.662  15.531 -0.7696 -0.3136 -0.4271
  508MPD2    C3 7601   3.128   0.616  15.408 -0.2217  0.2892 -0.4562
  508MPD2    C4 7602   2.994   0.594  15.379 -1.0378 -0.0456 -0.0215
  508MPD2    C5 7603   2.896   0.623  15.477  0.3570 -0.5237  0.1935
  508MPD2     H 7604   3.259   0.676  15.556 -0.4083  0.6475 -2.4868
  508MPD2    H1 7605   2.959   0.559  15.282  2.2514 -0.0579 -1.2100
  508MPD2    H2 7606   2.853   0.707  15.666  1.1741  1.6645  0.4519
  508MPD2    H3 7607   2.792   0.620  15.449  0.7448 -1.0940 -1.1989
  508MPD2     N 7608   3.237   0.617  15.316  0.0980  0.5149  0.2394
  508MPD2    H5 7609   3.327   0.639  15.356  0.2158  1.7454 -0.6914
  508MPD2    N1 7610   3.104   0.743  15.754 -0.5874  0.0890 -0.4130
  508MPD2    H7 7611   3.030   0.754  15.823  2.0112 -2.4073  2.7478
  509TMC3    C1 7612   3.412   0.776  14.915 -0.2827 -0.0775 -0.3538
  509TMC3    C2 7613   3.532   0.801  14.978 -0.0395  0.4448  0.1742
  509TMC3    C3 7614   3.550   0.741  15.099 -0.0440 -0.0429 -0.7244
  509TMC3    C4 7615   3.315   0.696  14.975 -0.3913 -0.2929 -0.7879
  509TMC3    C5 7616   3.339   0.647  15.100 -0.6421  0.6032 -0.1735
  509TMC3    C6 7617   3.455   0.667  15.164 -0.7645 -0.3960  0.7500
  509TMC3     C 7618   3.362   0.897  14.852 -0.1883 -0.3219 -0.3486
  509TMC3     O 7619   3.419   0.998  14.887 -0.1056  0.3633  0.0401
  509TMC3     H 7620   3.603   0.877  14.948  0.2198  0.9478  2.0447
  509TMC3    H1 7621   3.215   0.687  14.937 -1.1540  0.5952  0.9777
  509TMC3    H2 7622   3.476   0.626  15.263  0.1646  0.9316  1.0965
  509TMC3    C7 7623   3.222   0.616  15.179  0.4007  0.0906 -1.6712
  509TMC3    C8 7624   3.631   0.813  15.183  0.2213 -0.2396  0.6167
  509TMC3    O1 7625   3.117   0.586  15.125  0.2847 -0.4382  0.3769
  509TMC3    O2 7626   3.736   0.754  15.213  0.3547  0.2255  0.5888
  510MPD2     C 7627   0.684   2.619  14.604 -0.5316 -0.1850  0.9145
  510MPD2    C1 7628   0.807   2.583  14.658 -0.2725  0.1627 -0.8196
  510MPD2    C2 7629   0.923   2.636  14.603 -0.1259 -0.0759 -0.0709
  510MPD2    C3 7630   0.925   2.712  14.489 -0.0727 -0.3365 -0.1312
  510MPD2    C4 7631   0.805   2.743  14.422 -0.6689 -0.6703 -0.7094
  510MPD2    C5 7632   0.693   2.693  14.487  0.2996  0.4326 -0.0800
  510MPD2     H 7633   1.020   2.626  14.649  1.4716 -0.3419 -3.5211
  510MPD2    H1 7634   0.791   2.788  14.325 -2.9570 -1.5099 -0.7676
  510MPD2    H2 7635   0.589   2.576  14.634 -0.8797 -1.1238 -1.5286
  510MPD2    H3 7636   0.601   2.715  14.434  1.5653  1.3994 -1.9088
  510MPD2     N 7637   1.052   2.731  14.426 -0.0883  0.3052 -0.1133
  510MPD2    H5 7638   1.130   2.678  14.464  0.6480  0.4966 -1.3244
  510MPD2    N1 7639   0.804   2.503  14.772  0.3010  0.4347  0.1978
  510MPD2    H7 7640   0.711   2.477  14.805 -0.0056  2.1942  0.6919
  511TMC3    C1 7641   0.874   2.345  14.921 -0.8014  0.1185 -0.1434
  511TMC3    C2 7642   0.758   2.365  14.993 -0.3536 -0.4818 -0.0200
  511TMC3    C3 7643   0.721   2.258  15.069 -0.2220  0.3092  0.5300
  511TMC3    C4 7644   0.948   2.233  14.938 -0.6070  0.1031  0.2485
  511TMC3    C5 7645   0.897   2.123  15.004 -0.1847 -0.0536  0.0238
  511TMC3    C6 7646   0.785   2.137  15.081  0.1765 -0.0968  0.2517
  511TMC3     C 7647   0.908   2.426  14.809 -0.2472 -0.3038  0.2507
  511TMC3     O 7648   1.021   2.417  14.764 -0.0979 -0.1486 -0.4889
  511TMC3     H 7649   0.704   2.458  14.981  0.0598 -0.3992 -1.1527
  511TMC3    H1 7650   1.035   2.212  14.877  1.3497  0.1274  3.0575
  511TMC3    H2 7651   0.755   2.058  15.149  0.3981 -0.2968  0.1153
  511TMC3    C7 7652   0.903   2.009  14.917 -0.5061  0.2027 -0.0745
  511TMC3    C8 7653   0.619   2.296  15.170  0.7771 -0.4052 -0.2532
  511TMC3    O1 7654   0.974   2.004  14.823 -0.9343  0.9363  0.6476
  511TMC3    O2 7655   0.558   2.403  15.148 -0.2467 -0.6710 -0.1735
  512TMC3    C1 7656   4.406   1.788  13.719  0.1409 -0.1543 -0.1672
  512TMC3    C2 7657   4.536   1.792  13.771 -0.4410  0.4561  0.3933
  512TMC3    C3 7658   4.612   1.674  13.768  0.0401  0.2214 -0.3292
  512TMC3    C4 7659   4.359   1.671  13.663  0.0820 -0.1190  0.7913
  512TMC3    C5 7660   4.436   1.556  13.675  0.0759 -0.7014  0.3865
  512TMC3    C6 7661   4.560   1.549  13.733 -0.1479  0.3465 -0.9790
  512TMC3     C 7662   4.366   1.912  13.663 -0.2578  0.1529  0.7358
  512TMC3     O 7663   4.451   2.000  13.669  0.3739  0.3800  0.6934
  512TMC3     H 7664   4.574   1.884  13.814 -0.4551  0.1335  1.0939
  512TMC3    H1 7665   4.261   1.664  13.616  1.0278  2.5482 -1.5842
  512TMC3    H2 7666   4.613   1.464  13.773  1.9024  2.5438  0.9536
  512TMC3    C7 7667   4.375   1.429  13.639  0.3124 -0.3419  0.0733
  512TMC3    C8 7668   0.023   1.684  13.771  0.2794 -0.4614  0.5218
  512TMC3    O1 7669   4.254   1.420  13.651 -0.0460 -0.1354  0.1825
  512TMC3    O2 7670   0.091   1.589  13.737 -0.1155 -0.8363 -0.1741
  513MPD2     C 7671   2.414   1.292  13.147 -0.8958  0.7437  1.2299
  513MPD2    C1 7672   2.392   1.159  13.114 -0.5468  0.1138 -0.2236
  513MPD2    C2 7673   2.414   1.068  13.218 -0.4295 -0.4613 -0.1930
  513MPD2    C3 7674   2.483   1.100  13.331  0.0583  0.2459 -0.3963
  513MPD2    C4 7675   2.516   1.234  13.351  0.5476  0.1424 -0.1651
  513MPD2    C5 7676   2.474   1.330  13.262 -0.2429 -0.3243  0.0736
  513MPD2     H 7677   2.371   0.969  13.209  1.1596 -1.0369 -1.5571
  513MPD2    H1 7678   2.579   1.260  13.436 -1.0580 -0.3838  1.1682
  513MPD2    H2 7679   2.390   1.369  13.075 -1.8778  0.2371  1.0058
  513MPD2    H3 7680   2.495   1.435  13.276  0.7232 -0.5940  0.6592
  513MPD2     N 7681   2.501   0.997  13.428 -0.2631  0.2907  0.0816
  513MPD2    H5 7682   2.459   0.909  13.399 -1.0181  0.8777 -0.6035
  513MPD2    N1 7683   2.331   1.117  12.991 -0.2642 -0.0659 -0.2516
  513MPD2    H7 7684   2.297   1.022  12.984  0.5747 -0.3607 -0.3022
  514TMC3    C1 7685   2.260   1.134  12.776 -0.0642  0.0576  0.0620
  514TMC3    C2 7686   2.341   1.126  12.669 -0.2927  0.1749  0.4596
  514TMC3    C3 7687   2.368   1.007  12.608  0.2577  0.2584  0.3860
  514TMC3    C4 7688   2.198   1.022  12.819  0.1289 -0.0594  0.0360
  514TMC3    C5 7689   2.251   0.902  12.773 -0.2421 -0.2030  0.6402
  514TMC3    C6 7690   2.321   0.887  12.657 -0.5528  0.1896 -0.2129
  514TMC3     C 7691   2.328   1.196  12.880  0.5334 -0.3552  0.4709
  514TMC3     O 7692   2.392   1.301  12.858  0.4237 -0.3306  0.2416
  514TMC3     H 7693   2.391   1.217  12.639 -0.3701  0.3549  0.8771
  514TMC3    H1 7694   2.116   1.025  12.889  0.0360  0.8840 -0.1101
  514TMC3    H2 7695   2.347   0.793  12.610  1.2606  0.4526  0.2428
  514TMC3    C7 7696   2.259   0.798  12.880  0.5964  0.9031 -0.1148
  514TMC3    C8 7697   2.455   1.004  12.493 -0.2022  0.7944 -0.0334
  514TMC3    O1 7698   2.230   0.835  12.989  0.3686 -0.6130  0.3022
  514TMC3    O2 7699   2.536   0.912  12.491 -0.2684  0.0255  0.1989
  515MPD2     C 7700   0.177   3.162  14.896 -1.2985 -0.9579  0.2285
  515MPD2    C1 7701   0.103   3.204  14.783  0.2392 -0.4647  0.1938
  515MPD2    C2 7702   0.051   3.336  14.779  0.0189  0.3300  0.5945
  515MPD2    C3 7703   0.093   3.428  14.875 -0.1719  0.5648 -0.6805
  515MPD2    C4 7704   0.179   3.390  14.975  0.1902  0.3993 -0.2183
  515MPD2    C5 7705   0.221   3.261  14.987 -0.3609  0.0490 -0.1772
  515MPD2     H 7706   0.002   3.362  14.686 -1.3276 -0.6424  1.0441
  515MPD2    H1 7707   0.231   3.465  15.034 -1.3183  0.9474  0.4130
  515MPD2    H2 7708   0.215   3.063  14.915  0.1249 -0.0215  2.3294
  515MPD2    H3 7709   0.296   3.233  15.060 -1.3886  2.1590  1.6979
  515MPD2     N 7710   0.064   3.569  14.867 -0.2390 -0.5759 -0.4061
  515MPD2    H5 7711   0.114   3.626  14.935  0.7775  0.9784 -2.4363
  515MPD2    N1 7712   0.073   3.111  14.686 -0.1145 -0.0804  0.1619
  515MPD2    H7 7713   0.029   3.146  14.602 -1.8222  3.6145  2.6145
  516TMC3    C1 7714   4.717   2.906  14.623  0.0403  0.6548  0.3757
  516TMC3    C2 7715   4.646   2.966  14.522  0.6081  0.8753 -0.0135
  516TMC3    C3 7716   4.528   2.912  14.475 -0.4813 -0.9454 -0.0117
  516TMC3    C4 7717   4.660   2.792  14.674  0.5199  0.1265 -0.2727
  516TMC3    C5 7718   4.546   2.736  14.627  0.1673  0.1938  0.7265
  516TMC3    C6 7719   4.477   2.800  14.524 -0.9276  0.1323  1.1360
  516TMC3     C 7720   0.072   2.972  14.711 -0.7424 -0.6713 -0.0926
  516TMC3     O 7721   0.115   2.906  14.804 -0.1994 -0.1025 -0.0781
  516TMC3     H 7722   4.698   3.051  14.480  3.1087 -0.9025 -0.5097
  516TMC3    H1 7723   4.703   2.750  14.764 -0.7592 -1.1491 -0.2528
  516TMC3    H2 7724   4.371   2.782  14.509 -0.2087 -0.0119 -3.7626
  516TMC3    C7 7725   4.461   2.674  14.729 -0.7411  0.9421 -0.0932
  516TMC3    C8 7726   4.458   2.975  14.364 -0.7146  0.7435 -0.0550
  516TMC3    O1 7727   4.497   2.717  14.838  0.3229 -0.1883 -0.2027
  516TMC3    O2 7728   4.348   2.935  14.337  0.6452 -0.1587 -0.1538
  517MPD2     C 7729   4.560   0.199   0.317  0.3221 -0.1560  0.1495
  517MPD2    C1 7730   4.635   0.279   0.235 -0.2164  0.7635  0.2321
  517MPD2    C2 7731   4.682   0.401   0.288  0.3901  0.0996 -0.3594
  517MPD2    C3 7732   4.664   0.425   0.426 -0.7032 -0.5724 -0.7450
  517MPD2    C4 7733   4.590   0.344   0.505 -0.2245  0.4791  0.4166
  517MPD2    C5 7734   4.538   0.229   0.448 -0.2432 -0.5150  0.0826
  517MPD2     H 7735   4.736   0.468   0.222  1.0969  1.6746  1.7901
  517MPD2    H1 7736   4.587   0.363   0.612  0.6231 -0.0142  0.5355
  517MPD2    H2 7737   4.514   0.104   0.291  1.3954 -0.3633 -0.9874
  517MPD2    H3 7738   4.473   0.161   0.502 -0.1775 -1.0536 -0.5076
  517MPD2     N 7739   4.710   0.539   0.487 -0.0827 -0.1451 -0.4004
  517MPD2    H5 7740   4.686   0.546   0.585  1.3254  0.5648 -0.1102
  517MPD2    N1 7741   4.667   0.252   0.103 -0.0510  0.6429 -0.0644
  517MPD2    H7 7742   4.730   0.311   0.050 -0.5243  0.5113 -0.7777
  518TMC3    C1 7743   4.657   0.133  17.644  0.6002 -0.7874 -0.4400
  518TMC3    C2 7744   4.579   0.053  17.562 -0.1729 -0.2631  0.1371
  518TMC3    C3 7745   4.647   0.008  17.451  0.2869  0.8902 -0.5815
  518TMC3    C4 7746   0.046   0.184  17.606 -0.4020  0.0047 -0.0027
  518TMC3    C5 7747   0.105   0.146  17.487 -0.2738  0.7359  0.3628
  518TMC3    C6 7748   0.037   0.053  17.409 -0.1295 -0.0377 -0.0723
  518TMC3     C 7749   4.615   0.142   0.037 -0.8479 -0.2423 -0.5790
  518TMC3     O 7750   4.520   0.070   0.060  0.0051 -0.2367  0.3559
  518TMC3     H 7751   4.479   0.017  17.582 -0.5505  0.3967 -0.5220
  518TMC3    H1 7752   0.114   0.224  17.681 -0.5935 -1.7509  1.0921
  518TMC3    H2 7753   0.075   0.021  17.313  0.7014  0.0006  0.2447
  518TMC3    C7 7754   0.251   0.126  17.497 -0.1074 -0.1658 -1.1765
  518TMC3    C8 7755   4.628   4.610  17.421 -0.0670 -0.3854 -0.2533
  518TMC3    O1 7756   0.331   0.184  17.569 -1.0263 -0.9203  0.1835
  518TMC3    O2 7757   4.677   4.572  17.314 -0.3845  0.5698  0.9111
  519MPD2     C 7758   1.614   3.275  14.163 -0.1660  0.1307  0.0323
  519MPD2    C1 7759   1.575   3.285  14.029 -0.7755 -0.0315  0.3987
  519MPD2    C2 7760   1.648   3.213  13.936 -0.0055  0.8566 -0.3783
  519MPD2    C3 7761   1.760   3.139  13.966  0.6205 -0.1410 -0.1221
  519MPD2    C4 7762   1.804   3.156  14.098 -0.3572 -0.1714  0.7665
  519MPD2    C5 7763   1.731   3.214  14.200 -0.1488  0.2682  0.6803
  519MPD2     H 7764   1.613   3.215  13.834  1.9516 -0.9389 -1.0714
  519MPD2    H1 7765   1.904   3.121  14.123 -0.3561 -0.5364  0.2636
  519MPD2    H2 7766   1.565   3.331  14.242 -0.7588  1.3585 -1.2192
  519MPD2    H3 7767   1.773   3.213  14.300  1.8013  0.1117 -0.1494
  519MPD2     N 7768   1.825   3.054  13.874  0.2310 -0.2226  0.6358
  519MPD2    H5 7769   1.901   2.999  13.912 -1.6394 -2.6443  0.8679
  519MPD2    N1 7770   1.478   3.375  13.988  0.0829  0.9467 -0.0877
  519MPD2    H7 7771   1.410   3.409  14.056  1.9610  1.6720  1.4276
  520TMC3    C1 7772   1.866   2.944  13.671 -0.5021  0.2305  0.4235
  520TMC3    C2 7773   1.881   2.957  13.535 -0.4640 -0.3331  0.6699
  520TMC3    C3 7774   1.950   2.864  13.468 -0.1271  0.0199 -0.0425
  520TMC3    C4 7775   1.940   2.850  13.733  0.5424  0.3580  0.3189
  520TMC3    C5 7776   2.000   2.750  13.662 -0.0141  0.3110  0.0061
  520TMC3    C6 7777   2.010   2.755  13.528  0.1442  0.3902  0.1022
  520TMC3     C 7778   1.789   3.046  13.740  0.6246 -0.0808  0.9249
  520TMC3     O 7779   1.720   3.119  13.670  0.0323 -0.0373 -0.1359
  520TMC3     H 7780   1.865   3.055  13.492 -1.5298 -0.8528 -0.1088
  520TMC3    H1 7781   1.942   2.847  13.841 -0.6579 -0.5263  0.3150
  520TMC3    H2 7782   2.070   2.687  13.469 -1.9874 -0.7359 -0.7312
  520TMC3    C7 7783   2.054   2.642  13.744  0.5779 -0.3166 -0.5486
  520TMC3    C8 7784   1.959   2.867  13.324  0.3186 -0.4925 -0.0736
  520TMC3    O1 7785   2.111   2.677  13.847  0.3900 -0.0472 -0.1316
  520TMC3    O2 7786   2.048   2.806  13.265 -0.5265 -0.4965 -0.3957
  521MPD2     C 7787   1.924   1.877  16.773 -0.0917 -0.0820  0.6292
  521MPD2    C1 7788   1.925   1.741  16.746  0.6288  0.2286 -0.0792
  521MPD2    C2 7789   2.010   1.680  16.656  0.5406  0.1897  0.0368
  521MPD2    C3 7790   2.108   1.759  16.593  0.2590  0.5983  0.5372
  521MPD2    C4 7791   2.118   1.890  16.632  0.4212  0.0246 -0.1394
  521MPD2    C5 7792   2.029   1.948  16.718 -0.0430 -0.4995  0.5482
  521MPD2     H 7793   1.995   1.578  16.621 -3.7686  0.4709  1.1345
  521MPD2    H1 7794   2.203   1.949  16.600  0.4448 -1.1767 -2.2570
  521MPD2    H2 7795   1.852   1.921  16.840  0.5364  0.8570  0.6787
  521MPD2    H3 7796   2.030   2.054  16.741 -1.3523  0.0621 -1.9580
  521MPD2     N 7797   2.195   1.710  16.494  0.5722 -0.5273 -0.5612
  521MPD2    H5 7798   2.184   1.613  16.467  0.7209 -0.3446 -1.2865
  521MPD2    N1 7799   1.815   1.666  16.793  0.0855 -0.0112 -0.0648
  521MPD2    H7 7800   1.742   1.714  16.844  1.5934  2.8813 -0.5829
  522TMC3    C1 7801   2.385   1.668  16.363 -0.6885  0.1416 -0.2585
  522TMC3    C2 7802   2.494   1.722  16.285 -0.7807 -0.4825 -0.0372
  522TMC3    C3 7803   2.545   1.652  16.185 -0.2877 -0.3869  0.5347
  522TMC3    C4 7804   2.336   1.541  16.333 -0.4914  0.0330  0.2508
  522TMC3    C5 7805   2.395   1.480  16.230 -0.1010 -0.2682  0.0858
  522TMC3    C6 7806   2.487   1.532  16.146 -0.7809 -0.6458 -0.5892
  522TMC3     C 7807   2.310   1.767  16.446 -0.3089  0.0650  0.2160
  522TMC3     O 7808   2.356   1.881  16.456 -0.4087 -0.4805  0.4735
  522TMC3     H 7809   2.532   1.820  16.314 -1.0776 -0.3456 -0.1090
  522TMC3    H1 7810   2.267   1.482  16.393 -0.7450  0.9574  0.8727
  522TMC3    H2 7811   2.497   1.495  16.045 -0.1318 -3.2349  0.4473
  522TMC3    C7 7812   2.304   1.386  16.164 -0.2406 -0.4652  0.4135
  522TMC3    C8 7813   2.687   1.674  16.161  0.6793 -0.9471 -0.4646
  522TMC3    O1 7814   2.260   1.297  16.228 -0.7125  0.0627 -0.4909
  522TMC3    O2 7815   2.737   1.787  16.179 -0.0764 -0.0462  0.5113
  523MPD2     C 7816   4.554   0.484   9.885  0.3488 -0.4269  0.8972
  523MPD2    C1 7817   4.481   0.385   9.840  0.3759 -0.0316 -0.1695
  523MPD2    C2 7818   4.393   0.406   9.735 -0.0563  0.0445  1.2704
  523MPD2    C3 7819   4.388   0.531   9.673  0.6882 -0.0850 -0.3710
  523MPD2    C4 7820   4.456   0.638   9.730 -0.1894 -0.5847  0.2563
  523MPD2    C5 7821   4.539   0.611   9.837  0.4013  0.3699  0.4079
  523MPD2     H 7822   4.344   0.322   9.688 -1.1708  0.9235  0.8610
  523MPD2    H1 7823   4.473   0.735   9.685  0.9910 -0.4498  1.0062
  523MPD2    H2 7824   4.624   0.471   9.967  0.0470  0.5347  1.2997
  523MPD2    H3 7825   4.610   0.687   9.866  0.1696  0.5458  0.5129
  523MPD2     N 7826   4.302   0.552   9.565 -0.2080  0.0888  0.2903
  523MPD2    H5 7827   4.290   0.647   9.532  0.5622 -0.0713 -0.4360
  523MPD2    N1 7828   4.512   0.259   9.892  0.4897 -0.1414 -0.5837
  523MPD2    H7 7829   4.596   0.245   9.947 -1.2783  0.2618  2.2529
  524TMC3    C1 7830   4.137   0.518   9.397 -0.3417  0.2286  0.3689
  524TMC3    C2 7831   4.067   0.417   9.341  0.0542 -0.0190  0.4118
  524TMC3    C3 7832   3.997   0.465   9.234 -0.2216  0.1295 -0.0645
  524TMC3    C4 7833   4.119   0.652   9.390  0.7526  0.1597 -0.1355
  524TMC3    C5 7834   4.029   0.690   9.291  0.0044  0.1511  0.6631
  524TMC3    C6 7835   3.956   0.595   9.213  0.4749  0.2246  0.4840
  524TMC3     C 7836   4.230   0.460   9.494 -0.1691 -0.8945 -0.1474
  524TMC3     O 7837   4.241   0.337   9.504  0.7400 -0.2849  0.3285
  524TMC3     H 7838   4.090   0.311   9.348  0.1586  0.1187  2.0984
  524TMC3    H1 7839   4.180   0.718   9.450  1.4157  0.0361 -0.6745
  524TMC3    H2 7840   3.880   0.616   9.138 -1.2282  1.1373  2.4726
  524TMC3    C7 7841   4.034   0.828   9.262  0.9236 -0.1134  0.2418
  524TMC3    C8 7842   3.929   0.361   9.160  0.6551 -0.1851 -0.6334
  524TMC3    O1 7843   4.127   0.901   9.303  0.1091  0.1538  0.1931
  524TMC3    O2 7844   3.896   0.263   9.224  0.2646  0.2606 -0.2297
  525MPD2     C 7845   3.025   2.462  14.252  0.6714  1.0828  0.1869
  525MPD2    C1 7846   3.105   2.513  14.349  0.2466 -0.7900 -0.3935
  525MPD2    C2 7847   3.205   2.600  14.307  0.3383  0.4204  0.0473
  525MPD2    C3 7848   3.209   2.653  14.178 -0.6205 -0.0732 -0.3287
  525MPD2    C4 7849   3.120   2.604  14.081  0.3327 -0.1523  0.0626
  525MPD2    C5 7850   3.031   2.507  14.126 -0.2632 -0.2394 -1.1407
  525MPD2     H 7851   3.270   2.643  14.382  2.2410  1.1119 -1.9887
  525MPD2    H1 7852   3.119   2.640  13.979  0.1819  0.9904  0.4674
  525MPD2    H2 7853   2.957   2.379  14.265 -2.3915  3.7308  1.1671
  525MPD2    H3 7854   2.962   2.444  14.071 -0.2736  0.3342 -1.7687
  525MPD2     N 7855   3.280   2.765  14.146  0.0664  0.0199  0.1239
  525MPD2    H5 7856   3.251   2.809  14.059 -0.0529  2.3152  1.3480
  525MPD2    N1 7857   3.091   2.467  14.480  0.3173  0.4828  0.5369
  525MPD2    H7 7858   3.160   2.490  14.551  3.1427 -0.7702 -1.8007
  526TMC3    C1 7859   2.998   2.323  14.651 -0.1700  0.0589 -0.5034
  526TMC3    C2 7860   2.879   2.289  14.710  0.1902 -0.5704 -0.0316
  526TMC3    C3 7861   2.896   2.265  14.844  1.0900  0.5700 -0.1855
  526TMC3    C4 7862   3.121   2.295  14.694 -0.5648 -0.3207 -0.1583
  526TMC3    C5 7863   3.125   2.236  14.816 -0.0667  0.1803  0.1941
  526TMC3    C6 7864   3.015   2.233  14.900 -0.4258 -0.2872  0.2807
  526TMC3     C 7865   2.977   2.405  14.531  0.1749  0.5529  0.3317
  526TMC3     O 7866   2.868   2.397  14.474 -0.3303 -0.1096  0.1883
  526TMC3     H 7867   2.783   2.309  14.664 -0.3536  1.6192  2.0356
  526TMC3    H1 7868   3.207   2.297  14.629  0.2552  0.8856  0.9577
  526TMC3    H2 7869   3.034   2.207  15.003  0.9895 -1.9378 -0.4111
  526TMC3    C7 7870   3.256   2.199  14.864 -0.7741 -0.1708 -0.1286
  526TMC3    C8 7871   2.774   2.266  14.922 -0.7963 -0.4649 -0.1060
  526TMC3    O1 7872   3.284   2.222  14.982  0.4512 -0.2051  0.4464
  526TMC3    O2 7873   2.799   2.296  15.041 -0.0255  0.2907  0.3683
  527MPD2     C 7874   1.061   0.486   1.252 -0.1037  0.6874  0.2624
  527MPD2    C1 7875   0.987   0.486   1.136 -0.5489  0.1030 -0.1981
  527MPD2    C2 7876   0.966   0.360   1.081  0.1534  0.1382 -0.0374
  527MPD2    C3 7877   1.010   0.250   1.147  0.0603 -0.1334  0.0241
  527MPD2    C4 7878   1.084   0.254   1.264  0.0860  0.7854  0.1824
  527MPD2    C5 7879   1.109   0.375   1.315 -0.0625  0.1277 -0.6929
  527MPD2     H 7880   0.918   0.348   0.984  1.3455 -1.6206 -0.4221
  527MPD2    H1 7881   1.095   0.166   1.327  2.1818 -0.6396 -2.1980
  527MPD2    H2 7882   1.070   0.570   1.319 -1.9054  1.7115 -0.7529
  527MPD2    H3 7883   1.152   0.386   1.414 -2.8819  0.4829  0.4745
  527MPD2     N 7884   1.012   0.126   1.077 -0.8477 -0.0586  0.0186
  527MPD2    H5 7885   0.980   0.142   0.982 -0.5485 -1.8261 -0.3904
  527MPD2    N1 7886   0.917   0.596   1.077 -0.4140  0.2413  0.4976
  527MPD2    H7 7887   0.862   0.585   0.993 -0.9134 -0.6383  0.9392
  528TMC3    C1 7888   0.847   0.820   1.084 -0.0908  0.3270  1.2830
  528TMC3    C2 7889   0.775   0.801   0.968  0.5354 -0.1577 -0.3159
  528TMC3    C3 7890   0.683   0.903   0.936  0.2974  0.5091 -0.1138
  528TMC3    C4 7891   0.831   0.928   1.172  0.5928 -0.6571  0.2760
  528TMC3    C5 7892   0.734   1.014   1.136 -0.4064  1.4430  1.1085
  528TMC3    C6 7893   0.660   1.010   1.017 -0.1802  0.5211 -0.2636
  528TMC3     C 7894   0.939   0.719   1.129 -0.1941 -0.2262  0.7110
  528TMC3     O 7895   1.016   0.760   1.214  0.5773  0.2350  0.2497
  528TMC3     H 7896   0.807   0.733   0.889  0.3871  1.7744 -2.0507
  528TMC3    H1 7897   0.880   0.930   1.269  1.1354 -1.7409  0.0290
  528TMC3    H2 7898   0.576   1.073   0.991 -0.4555  0.5302  0.6449
  528TMC3    C7 7899   0.695   1.110   1.236  0.3928  0.5393 -0.2170
  528TMC3    C8 7900   0.624   0.908   0.798 -0.5113 -0.3970 -0.6556
  528TMC3    O1 7901   0.577   1.142   1.248 -0.8624  0.0431  0.5071
  528TMC3    O2 7902   0.587   1.020   0.765  0.1479  0.4379  0.2566
  529MPD2     C 7903   3.285   4.575   0.455  0.1482 -0.6200  0.3179
  529MPD2    C1 7904   3.213   4.472   0.399 -0.1254 -0.3349 -0.1886
  529MPD2    C2 7905   3.133   4.502   0.285  0.2108 -0.2333  0.6067
  529MPD2    C3 7906   3.120   4.632   0.237 -0.4820 -0.3658 -0.7350
  529MPD2    C4 7907   3.196   4.731   0.298  0.0933 -0.3026 -0.0498
  529MPD2    C5 7908   3.278   4.702   0.399 -0.5242 -0.5186 -0.0600
  529MPD2     H 7909   3.074   4.422   0.241  0.4483 -1.2861  2.2032
  529MPD2    H1 7910   3.194   0.099   0.268 -4.3706 -0.7647 -1.3895
  529MPD2    H2 7911   3.362   4.561   0.530  0.7666 -1.4616 -0.4806
  529MPD2    H3 7912   3.343   0.035   0.451 -0.1223 -2.6947  2.3732
  529MPD2     N 7913   3.028   4.674   0.136 -0.2983 -0.2293 -0.1225
  529MPD2    H5 7914   3.032   0.034   0.107  0.8595  0.2077  1.4684
  529MPD2    N1 7915   3.217   4.340   0.446 -0.5756  0.4374  0.0082
  529MPD2    H7 7916   3.180   4.265   0.388 -0.3667 -0.6678  1.3306
  530TMC3    C1 7917   3.254   4.165   0.613  0.3923  0.5441 -0.2194
  530TMC3    C2 7918   3.250   4.140   0.755  0.2368  0.5688 -0.7927
  530TMC3    C3 7919   3.232   4.008   0.791  0.5376  0.1592 -0.1026
  530TMC3    C4 7920   3.222   4.066   0.523 -0.6383 -0.2422 -0.6283
  530TMC3    C5 7921   3.197   3.936   0.572 -0.4503  0.1952  0.5256
  530TMC3    C6 7922   3.197   3.908   0.707 -0.0390  0.4044 -0.1553
  530TMC3     C 7923   3.267   4.303   0.578 -0.8337  0.2322 -0.1471
  530TMC3     O 7924   3.300   4.382   0.671  0.2248 -0.0854  0.0901
  530TMC3     H 7925   3.301   4.203   0.827  2.8842 -1.1939 -1.1281
  530TMC3    H1 7926   3.226   4.073   0.415  0.6420  2.5537 -0.4237
  530TMC3    H2 7927   3.153   3.818   0.748 -1.0385  0.2477 -1.5822
  530TMC3    C7 7928   3.213   3.825   0.491 -0.0383 -0.2977  0.5933
  530TMC3    C8 7929   3.242   3.976   0.930 -0.1619  0.4170 -0.1614
  530TMC3    O1 7930   3.196   3.832   0.370 -0.2167  0.2976  0.8515
  530TMC3    O2 7931   3.203   4.059   1.006 -0.1092 -0.2638  0.1585
  531MPD2     C 7932   2.611   0.486  13.092  0.1977  0.1335 -0.2677
  531MPD2    C1 7933   2.518   0.571  13.151  0.0601 -0.7626 -0.6418
  531MPD2    C2 7934   2.422   0.633  13.073  0.1580  0.2411  0.0780
  531MPD2    C3 7935   2.414   0.619  12.939  0.0117  0.5944  0.3539
  531MPD2    C4 7936   2.510   0.542  12.876 -0.2596  0.1793  0.0485
  531MPD2    C5 7937   2.613   0.481  12.947  0.8330  0.3594 -0.1551
  531MPD2     H 7938   2.357   0.706  13.120  1.6189  1.3057  0.4587
  531MPD2    H1 7939   2.512   0.542  12.767 -1.8182  0.5204  0.0218
  531MPD2    H2 7940   2.687   0.429  13.144 -2.2281 -1.3421  1.6417
  531MPD2    H3 7941   2.689   0.424  12.895 -0.8113 -2.1856  0.2589
  531MPD2     N 7942   2.338   0.689  12.844  0.1771 -0.5732  0.5653
  531MPD2    H5 7943   2.361   0.662  12.748  1.1508  0.7142  0.4355
  531MPD2    N1 7944   2.542   0.587  13.293  0.0351 -0.3116  0.0745
  531MPD2    H7 7945   2.605   0.525  13.343  1.5884  2.3453  1.3819
  532TMC3    C1 7946   2.529   0.683  13.502 -0.0320 -0.8651 -0.3584
  532TMC3    C2 7947   2.479   0.799  13.559 -0.0927 -0.2919 -0.4743
  532TMC3    C3 7948   2.561   0.878  13.623 -0.4732  0.0910  0.0401
  532TMC3    C4 7949   2.658   0.650  13.525  0.4680  0.0745 -0.2178
  532TMC3    C5 7950   2.732   0.731  13.605 -0.0578  0.7408 -0.5839
  532TMC3    C6 7951   2.690   0.850  13.650 -0.1127  0.4590 -0.3212
  532TMC3     C 7952   2.473   0.679  13.369  0.3880  0.1755 -0.2191
  532TMC3     O 7953   2.381   0.756  13.338  0.0283 -0.3283 -0.0906
  532TMC3     H 7954   2.375   0.828  13.562 -0.7377 -2.6259 -0.1967
  532TMC3    H1 7955   2.698   0.557  13.486 -0.5121 -0.6601  0.5379
  532TMC3    H2 7956   2.756   0.911  13.711  1.3862 -3.1836  1.7064
  532TMC3    C7 7957   2.866   0.690  13.633 -0.0283  1.0887 -0.1800
  532TMC3    C8 7958   2.564   1.010  13.550 -0.3356  0.2055 -0.1308
  532TMC3    O1 7959   2.954   0.771  13.616  0.0964  0.2404 -0.3775
  532TMC3    O2 7960   2.624   1.102  13.600 -0.3275 -0.0080 -0.3477
  533TMC3    C1 7961   3.395   2.970  14.180  0.6269 -0.0536  0.0398
  533TMC3    C2 7962   3.508   3.023  14.227 -0.0862  0.7018  0.1178
  533TMC3    C3 7963   3.519   3.157  14.208 -0.6481 -0.1555 -0.3533
  533TMC3    C4 7964   3.288   3.036  14.133  0.0527 -0.5629  0.1382
  533TMC3    C5 7965   3.291   3.167  14.141  0.2664  0.2986 -0.1526
  533TMC3    C6 7966   3.412   3.230  14.164  0.2645 -0.1169  0.0093
  533TMC3     C 7967   3.370   2.835  14.226 -0.4469 -0.3070  0.0891
  533TMC3     O 7968   3.445   2.796  14.316 -0.2500  0.3715  0.3050
  533TMC3     H 7969   3.588   2.960  14.264 -1.7675 -1.0210  0.8357
  533TMC3    H1 7970   3.206   2.976  14.095 -0.9735 -0.0357  1.5452
  533TMC3    H2 7971   3.409   3.338  14.155  0.2754  0.0494  2.0064
  533TMC3    C7 7972   3.188   3.197  14.242  0.7998 -0.5408  0.1514
  533TMC3    C8 7973   3.645   3.227  14.223  0.3075 -0.5476  0.3773
  533TMC3    O1 7974   3.108   3.112  14.274  0.6135 -0.1548  0.2217
  533TMC3    O2 7975   3.639   3.339  14.173  0.8929  0.7725  0.1896
  534MPD2     C 7976   0.566   4.008   1.459  0.3380  0.1485  0.3211
  534MPD2    C1 7977   0.556   4.127   1.395 -0.0560  0.7130  0.2990
  534MPD2    C2 7978   0.433   4.171   1.352 -0.7340  0.5344  0.5667
  534MPD2    C3 7979   0.331   4.079   1.335  0.3276  0.1183  0.6424
  534MPD2    C4 7980   0.348   3.959   1.400 -0.4983  0.7501 -0.9943
  534MPD2    C5 7981   0.461   3.925   1.456  0.1534 -0.1057 -0.0240
  534MPD2     H 7982   0.422   4.267   1.302 -2.1429  0.7122  1.2059
  534MPD2    H1 7983   0.278   3.877   1.389 -0.4073  0.7074 -1.2459
  534MPD2    H2 7984   0.658   3.982   1.509  0.3941 -0.9412 -0.3573
  534MPD2    H3 7985   0.472   3.825   1.496 -1.2714 -0.1986  0.1426
  534MPD2     N 7986   0.218   4.095   1.250  0.4407  0.0911 -0.6007
  534MPD2    H5 7987   0.172   4.007   1.228  2.7234 -0.2077 -4.1124
  534MPD2    N1 7988   0.660   4.223   1.389 -0.1177 -0.2006  0.3285
  534MPD2    H7 7989   0.635   4.307   1.337  1.5886 -0.1813 -0.4775
  535TMC3    C1 7990   0.065   4.189   1.109  0.0744  0.5037  0.0867
  535TMC3    C2 7991   4.699   4.110   1.160  0.2579 -1.1156 -0.3077
  535TMC3    C3 7992   4.581   4.126   1.096 -0.5606 -0.0425 -0.1523
  535TMC3    C4 7993   0.042   4.270   0.999 -0.3647  0.6688 -0.4879
  535TMC3    C5 7994   4.663   4.257   0.928  0.3283  0.4281  0.1773
  535TMC3    C6 7995   4.562   4.184   0.970 -0.2601  0.4934  0.5323
  535TMC3     C 7996   0.190   4.203   1.177  0.1402  0.2423 -0.1009
  535TMC3     O 7997   0.252   4.303   1.141  0.3003 -1.1432  0.3504
  535TMC3     H 7998   4.711   4.060   1.256  0.8186  1.2832  0.8785
  535TMC3    H1 7999   0.113   4.336   0.951  0.2878 -0.0274 -0.4719
  535TMC3    H2 8000   4.463   4.186   0.925 -1.2125 -1.0139  2.5865
  535TMC3    C7 8001   4.648   4.330   0.801  0.1476  0.0686 -0.1483
  535TMC3    C8 8002   4.463   4.100   1.172  0.8649 -0.2332  0.9088
  535TMC3    O1 8003   4.579   4.278   0.708  0.2268  0.0591  0.1320
  535TMC3    O2 8004   4.371   4.053   1.106 -0.4255  0.6272 -0.4744
  536MPD2     C 8005   4.346   2.513  16.444 -0.5846  0.4192 -0.4097
  536MPD2    C1 8006   4.223   2.452  16.442 -0.2151 -1.1349 -0.0861
  536MPD2    C2 8007   4.123   2.504  16.359 -0.4874 -0.0964  0.4590
  536MPD2    C3 8008   4.162   2.613  16.272  0.3413 -0.0141 -0.1781
  536MPD2    C4 8009   4.285   2.664  16.272  1.2305 -0.3608 -0.1961
  536MPD2    C5 8010   4.375   2.620  16.371 -0.3597 -1.1092 -0.0766
  536MPD2     H 8011   4.027   2.455  16.343 -0.0896 -1.0778  1.1050
  536MPD2    H1 8012   4.304   2.753  16.213  1.6931  0.6836  1.5248
  536MPD2    H2 8013   4.423   2.472  16.509 -2.2723  0.5129  1.6390
  536MPD2    H3 8014   4.476   2.660  16.374 -0.5340 -0.4917 -2.6377
  536MPD2     N 8015   4.069   2.664  16.174 -0.0648 -0.3755  0.5953
  536MPD2    H5 8016   4.112   2.732  16.112  0.4417 -1.0134  0.2430
  536MPD2    N1 8017   4.199   2.343  16.534 -0.4476  0.3254  0.1244
  536MPD2    H7 8018   4.276   2.324  16.596 -1.0161  0.3974  0.8468
  537TMC3    C1 8019   4.095   2.191  16.667  0.9814  0.4936  0.0375
  537TMC3    C2 8020   4.207   2.194  16.739 -0.0799 -0.5424  0.1839
  537TMC3    C3 8021   4.234   2.086  16.814 -0.4557  0.0837 -1.1586
  537TMC3    C4 8022   4.010   2.082  16.656  1.1082 -0.1479  0.9129
  537TMC3    C5 8023   4.038   1.970  16.732 -0.3088 -0.2351  0.0063
  537TMC3    C6 8024   4.158   1.971  16.809 -0.1461 -0.2936  0.1300
  537TMC3     C 8025   4.078   2.294  16.573 -0.9163 -0.0478 -0.8110
  537TMC3     O 8026   3.968   2.307  16.517 -0.0471 -0.0064  0.2319
  537TMC3     H 8027   4.260   2.285  16.762 -3.0508  1.1452  0.3017
  537TMC3    H1 8028   3.909   2.105  16.625  1.0746  0.8459  1.7800
  537TMC3    H2 8029   4.187   1.882  16.862  0.2164  0.2888  0.9101
  537TMC3    C7 8030   3.943   1.860  16.731 -0.0420 -0.1646  0.0944
  537TMC3    C8 8031   4.335   2.098  16.923 -0.0733  0.5647 -0.1867
  537TMC3    O1 8032   3.858   1.885  16.647  0.1731  0.0728  0.0552
  537TMC3    O2 8033   4.418   2.191  16.911  0.1399  0.0417 -0.1656
  538TMC3    C1 8034   0.610   0.739  10.714 -0.3726 -0.2669  0.1784
  538TMC3    C2 8035   0.732   0.776  10.760 -0.4220  0.2029 -1.1539
  538TMC3    C3 8036   0.780   0.888  10.700  0.5441 -0.4961 -1.2401
  538TMC3    C4 8037   0.541   0.809  10.622 -0.4465 -0.5730 -0.4411
  538TMC3    C5 8038   0.591   0.924  10.569  0.3638 -0.9979 -0.5889
  538TMC3    C6 8039   0.717   0.962  10.605  0.7537 -0.9034  0.0685
  538TMC3     C 8040   0.535   0.634  10.781 -0.0298  0.0747 -0.0736
  538TMC3     O 8041   0.431   0.613  10.726  0.5489 -0.4732  0.4809
  538TMC3     H 8042   0.793   0.722  10.832 -1.2048  0.4015 -0.3475
  538TMC3    H1 8043   0.447   0.776  10.581  0.0364  0.2653 -2.2337
  538TMC3    H2 8044   0.758   1.048  10.553  1.7099 -0.8510  0.9299
  538TMC3    C7 8045   0.510   1.011  10.492 -0.2136 -0.1726  1.1972
  538TMC3    C8 8046   0.896   0.939  10.765  0.0181 -0.0074  0.7798
  538TMC3    O1 8047   0.567   1.047  10.388 -0.7422  0.3386 -0.7741
  538TMC3    O2 8048   0.918   0.903  10.878 -0.2910  0.6122  0.1789
  539MPD2     C 8049   0.207   0.051  11.704 -0.2225 -0.3195 -0.2564
  539MPD2    C1 8050   0.172   0.035  11.568  0.8506 -0.6254  0.2045
  539MPD2    C2 8051   0.155   0.150  11.489 -0.1758 -0.1226  0.4156
  539MPD2    C3 8052   0.173   0.278  11.543 -0.5936 -0.7796  1.1066
  539MPD2    C4 8053   0.207   0.294  11.681  0.1482  0.8756 -0.7170
  539MPD2    C5 8054   0.232   0.176  11.751 -0.2876  0.1307 -0.2739
  539MPD2     H 8055   0.129   0.130  11.386 -2.1731 -0.1897  0.9159
  539MPD2    H1 8056   0.239   0.390  11.720  2.0547 -0.2571  0.5374
  539MPD2    H2 8057   0.221   4.700  11.765  0.8017 -0.0484 -0.1075
  539MPD2    H3 8058   0.277   0.175  11.850  0.4522  0.2247 -0.6128
  539MPD2     N 8059   0.165   0.397  11.472 -0.1670 -0.5883 -0.1418
  539MPD2    H5 8060   0.199   0.484  11.512  1.2496 -0.4262 -1.7118
  539MPD2    N1 8061   0.154   4.639  11.516  0.0276 -0.1200  0.0775
  539MPD2    H7 8062   0.146   4.640  11.414  2.5425 -1.2239 -0.1221
  540TMC3    C1 8063   0.094   0.545  11.294  0.2947 -0.2792 -0.1759
  540TMC3    C2 8064   0.090   0.567  11.159  0.4926  0.4945  0.0394
  540TMC3    C3 8065   0.080   0.688  11.108 -0.0730  1.1192 -0.6139
  540TMC3    C4 8066   0.075   0.645  11.382 -0.0233  0.0741  0.1190
  540TMC3    C5 8067   0.079   0.775  11.322  0.5025 -0.3238  0.1583
  540TMC3    C6 8068   0.075   0.803  11.188 -0.2739 -0.6983 -0.1369
  540TMC3     C 8069   0.118   0.406  11.343  0.0337 -0.1598  0.7444
  540TMC3     O 8070   0.094   0.320  11.263 -0.6892  0.2282  0.2675
  540TMC3     H 8071   0.089   0.478  11.098  1.5616 -0.2772  1.1775
  540TMC3    H1 8072   0.045   0.621  11.483  1.4947 -0.9999  0.3141
  540TMC3    H2 8073   0.052   0.899  11.143  1.9958  0.5721  1.4555
  540TMC3    C7 8074   0.069   0.881  11.423 -0.6430  0.0394 -0.6616
  540TMC3    C8 8075   0.082   0.712  10.960  0.4946 -0.7096 -0.4054
  540TMC3    O1 8076   0.023   0.855  11.533 -0.2082 -0.3591 -0.7656
  540TMC3    O2 8077   0.124   0.818  10.914  0.0799 -0.4965 -0.6386
  541MPD2     C 8078   3.181   1.369  13.030  0.2931 -0.2501  0.5158
  541MPD2    C1 8079   3.312   1.332  12.982  0.6205  0.0222  0.2727
  541MPD2    C2 8080   3.365   1.400  12.881  0.3639 -0.1927  0.2423
  541MPD2    C3 8081   3.285   1.491  12.804  0.0187 -0.0399  0.3248
  541MPD2    C4 8082   3.165   1.528  12.855 -0.5087 -0.2221  0.1708
  541MPD2    C5 8083   3.124   1.475  12.976  0.5040  0.1845  0.8292
  541MPD2     H 8084   3.465   1.368  12.853 -0.2615 -1.8157 -0.1530
  541MPD2    H1 8085   3.100   1.604  12.816 -0.9274  0.6060  2.4977
  541MPD2    H2 8086   3.140   1.323  13.119 -2.6989 -0.3038 -0.8971
  541MPD2    H3 8087   3.028   1.491  13.023 -0.4554  1.5510 -1.5435
  541MPD2     N 8088   3.334   1.560  12.687 -0.4034  0.2324 -0.5073
  541MPD2    H5 8089   3.269   1.618  12.636 -1.1980  0.6896  1.0326
  541MPD2    N1 8090   3.391   1.230  13.034  0.1696 -0.6007  0.7251
  541MPD2    H7 8091   3.486   1.222  12.999  0.0310  0.7975  0.0078
  542TMC3    C1 8092   3.473   1.652  12.530 -0.3034 -0.0280  0.4891
  542TMC3    C2 8093   3.595   1.649  12.465 -0.3560  0.2323 -0.5673
  542TMC3    C3 8094   3.631   1.766  12.404 -0.1186  0.0077  0.2432
  542TMC3    C4 8095   3.397   1.762  12.543  0.1239 -0.2144 -0.3053
  542TMC3    C5 8096   3.438   1.876  12.487 -0.4084 -0.5695  0.1979
  542TMC3    C6 8097   3.551   1.874  12.402  0.6914 -0.7252 -0.4504
  542TMC3     C 8098   3.459   1.549  12.628 -0.5145  0.0059 -0.1931
  542TMC3     O 8099   3.546   1.469  12.656  0.2043  0.1752 -0.3725
  542TMC3     H 8100   3.661   1.565  12.479  0.5661  0.7648 -1.6614
  542TMC3    H1 8101   3.317   1.770  12.616 -0.1339 -0.4025 -0.5678
  542TMC3    H2 8102   3.585   1.961  12.346 -3.0629  1.5839  0.8251
  542TMC3    C7 8103   3.366   1.998  12.524 -0.5901  0.5101  0.1310
  542TMC3    C8 8104   3.690   1.745  12.277  0.0193  0.4703 -0.6213
  542TMC3    O1 8105   3.295   1.992  12.623  0.4500  0.4147 -0.1282
  542TMC3    O2 8106   3.625   1.782  12.182  0.1803  0.5384 -0.0816
  543TMC3    C1 8107   3.019   3.542  17.376 -0.3476 -0.0501 -0.4696
  543TMC3    C2 8108   3.054   3.411  17.421  0.4047 -0.2380  0.0211
  543TMC3    C3 8109   2.994   3.361  17.537 -0.7678  0.2155 -0.2234
  543TMC3    C4 8110   2.930   3.618  17.447  0.1759 -0.5787  0.3825
  543TMC3    C5 8111   2.870   3.561  17.555 -0.1515  1.0296 -0.6098
  543TMC3    C6 8112   2.906   3.437  17.610  0.4712  0.3512 -0.0529
  543TMC3     C 8113   3.032   3.559  17.238 -0.0251  0.8338  0.3720
  543TMC3     O 8114   3.083   3.460  17.188  0.3392  0.3753 -0.2478
  543TMC3     H 8115   3.118   3.347  17.360  1.0486  0.3981  0.0374
  543TMC3    H1 8116   2.908   3.718  17.410  0.3966 -0.5035  0.4551
  543TMC3    H2 8117   2.856   3.393  17.696  0.4837 -2.0178 -1.2472
  543TMC3    C7 8118   2.758   3.622  17.614  0.1741 -0.3281 -0.3984
  543TMC3    C8 8119   3.006   3.220  17.558 -0.1532  0.1986 -0.4356
  543TMC3    O1 8120   2.670   3.548  17.662  0.2577  0.2318  0.6018
  543TMC3    O2 8121   3.066   3.159  17.473  0.2284 -0.3170 -0.4379
  544MPD2     C 8122   2.894   2.769   0.050  0.0474  0.1532  0.7199
  544MPD2    C1 8123   2.974   2.790  17.682  0.5450 -0.1129 -0.6082
  544MPD2    C2 8124   2.990   2.923  17.636 -0.0427  0.4032 -0.1483
  544MPD2    C3 8125   2.944   3.034  17.703  0.1702 -0.0395  0.0464
  544MPD2    C4 8126   2.862   3.004   0.067  0.1619  0.1752 -0.0673
  544MPD2    C5 8127   2.830   2.875   0.104 -0.6388  0.7140 -0.1615
  544MPD2     H 8128   3.057   2.943  17.554  0.1266 -2.5516 -0.7201
  544MPD2    H1 8129   2.811   3.086   0.116  0.6844  0.0609  0.6827
  544MPD2    H2 8130   2.863   2.673   0.089 -0.3627  0.2747  0.6972
  544MPD2    H3 8131   2.768   2.858   0.191  0.0745 -0.8138  0.0383
  544MPD2     N 8132   2.939   3.170  17.668 -0.0110 -0.1851  0.6990
  544MPD2    H5 8133   2.904   3.238  17.735  0.3874 -0.1584  0.8825
  544MPD2    N1 8134   3.038   2.678  17.627  0.0810  0.2263 -0.7117
  544MPD2    H7 8135   3.028   2.590  17.677 -2.1395  2.0539  2.0339
  545TMC3    C1 8136   3.126   2.548  17.468 -0.2388  0.3406  0.4650
  545TMC3    C2 8137   3.197   2.475  17.563 -0.4929 -0.2998 -0.0886
  545TMC3    C3 8138   3.181   2.339  17.571 -0.1094 -0.3756 -0.2474
  545TMC3    C4 8139   3.046   2.493  17.379 -0.9135 -0.2157 -0.1948
  545TMC3    C5 8140   3.027   2.354  17.391 -0.6485  0.1879 -0.2763
  545TMC3    C6 8141   3.095   2.274  17.484 -0.0556 -0.0796 -0.3320
  545TMC3     C 8142   3.097   2.683  17.503  0.0875 -0.3815  0.2517
  545TMC3     O 8143   3.084   2.769  17.421  0.8706 -0.3919 -0.2464
  545TMC3     H 8144   3.275   2.520  17.624 -1.5629  0.9485  0.3653
  545TMC3    H1 8145   2.984   2.553  17.313 -1.7225  0.4340  1.1470
  545TMC3    H2 8146   3.086   2.167  17.495 -1.6198  0.2388  1.5611
  545TMC3    C7 8147   2.919   2.283  17.307  0.2119  0.5777  0.1139
  545TMC3    C8 8148   3.256   2.271  17.676  0.2879  0.1767 -0.3674
  545TMC3    O1 8149   2.871   2.340  17.212 -0.2452  0.1096 -0.2680
  545TMC3    O2 8150   3.280   2.335   0.034  0.0484 -0.0116 -0.3187
  546MPD2     C 8151   4.502   3.082  17.054  0.0984  0.2217 -0.3748
  546MPD2    C1 8152   4.391   3.158  17.072 -0.4128  0.2808 -0.2683
  546MPD2    C2 8153   4.402   3.296  17.077  0.0727  0.4482  0.6445
  546MPD2    C3 8154   4.521   3.360  17.046 -0.3505  0.9819 -0.1758
  546MPD2    C4 8155   4.629   3.276  17.036 -0.3740 -0.1181  0.2320
  546MPD2    C5 8156   4.624   3.139  17.044 -0.0325  0.3809 -0.0146
  546MPD2     H 8157   4.317   3.361  17.097  2.1802  3.2020  0.6586
  546MPD2    H1 8158   4.730   3.316  17.031 -0.4211  0.2669  2.5342
  546MPD2    H2 8159   4.491   2.974  17.055 -0.8309  0.3293  1.0406
  546MPD2    H3 8160   4.715   3.080  17.052  0.6914  1.9332  3.1662
  546MPD2     N 8161   4.544   3.492  17.029  0.5344 -0.2517  0.3633
  546MPD2    H5 8162   4.639   3.520  17.010  0.9636 -1.7794  0.2756
  546MPD2    N1 8163   4.268   3.090  17.081  0.0836 -0.3980  0.3821
  546MPD2    H7 8164   4.272   2.989  17.065 -2.0636 -0.5779  0.9885
  547TMC3    C1 8165   4.036   3.041  17.096  0.1504  0.1860  0.6356
  547TMC3    C2 8166   3.927   3.073  17.026  0.1997 -0.6466 -0.1104
  547TMC3    C3 8167   3.860   2.968  16.973  0.3305  0.3577 -0.3024
  547TMC3    C4 8168   4.065   2.916  17.143 -0.2505 -0.0363  0.2556
  547TMC3    C5 8169   3.988   2.811  17.094  0.5413 -0.6265  0.0602
  547TMC3    C6 8170   3.886   2.836  17.005 -0.2506 -0.2682 -0.0888
  547TMC3     C 8171   4.138   3.141  17.090  0.2105 -0.3559  0.1973
  547TMC3     O 8172   4.102   3.255  17.093 -0.3950  0.7095  0.7661
  547TMC3     H 8173   3.923   3.176  16.993 -0.5384 -0.8771 -0.7167
  547TMC3    H1 8174   4.143   2.903  17.218 -0.0458  2.6964  0.5169
  547TMC3    H2 8175   3.810   2.765  16.975 -0.2696 -0.8032  1.2420
  547TMC3    C7 8176   3.999   2.675  17.147 -0.3082  0.0990 -0.1244
  547TMC3    C8 8177   3.763   2.996  16.875 -0.0960  0.1645  0.1389
  547TMC3    O1 8178   4.072   2.661  17.246  0.0367  0.7285 -0.1366
  547TMC3    O2 8179   3.728   3.111  16.866 -0.1700 -0.0679 -0.6518
  548MPD2     C 8180   4.356   3.311  12.411  0.2882 -0.6467  0.1427
  548MPD2    C1 8181   4.265   3.217  12.450  0.0211 -0.1599  0.3578
  548MPD2    C2 8182   4.305   3.091  12.488 -0.2312 -0.1474  0.6214
  548MPD2    C3 8183   4.436   3.057  12.486  0.2899  0.4573 -0.0502
  548MPD2    C4 8184   4.529   3.153  12.459 -0.3666 -0.2039  0.1280
  548MPD2    C5 8185   4.485   3.280  12.429 -0.5840  0.5069  0.6226
  548MPD2     H 8186   4.229   3.016  12.510  0.4257 -0.1255  2.8591
  548MPD2    H1 8187   4.634   3.140  12.480 -0.1004  0.1845 -0.9794
  548MPD2    H2 8188   4.326   3.413  12.390  0.0436 -0.2305  2.6032
  548MPD2    H3 8189   4.564   3.354  12.423 -0.8085  0.6097 -1.1423
  548MPD2     N 8190   4.468   2.924  12.531  0.6739  0.0636 -0.3805
  548MPD2    H5 8191   4.391   2.861  12.549 -0.8195  1.8554 -0.4483
  548MPD2    N1 8192   4.135   3.266  12.480 -0.5089  0.3007 -0.3250
  548MPD2    H7 8193   4.125   3.365  12.460 -0.3339  0.1666 -1.0798
  549TMC3    C1 8194   3.947   3.284  12.631  0.0501  0.2620  0.2668
  549TMC3    C2 8195   3.936   3.416  12.601  0.4639 -0.1464 -0.5332
  549TMC3    C3 8196   3.832   3.488  12.655 -0.0988  0.8504 -0.6791
  549TMC3    C4 8197   3.879   3.222  12.734 -0.9724  0.0579 -0.2244
  549TMC3    C5 8198   3.774   3.295  12.786  0.1558 -0.3037  0.4772
  549TMC3    C6 8199   3.755   3.425  12.755 -0.2282  0.4476  0.3577
  549TMC3     C 8200   4.046   3.197  12.564 -1.0976 -1.0459 -0.1270
  549TMC3     O 8201   4.044   3.077  12.591 -0.0548 -0.4765 -0.1033
  549TMC3     H 8202   3.992   3.462  12.520  1.3980  2.0763  1.3792
  549TMC3    H1 8203   3.887   3.117  12.759 -1.8724 -0.0570 -0.3949
  549TMC3    H2 8204   3.663   3.472  12.789 -1.8528 -0.9369 -2.1261
  549TMC3    C7 8205   3.652   3.230  12.827 -0.9666 -0.0210  0.0940
  549TMC3    C8 8206   3.795   3.624  12.622 -0.8315 -0.1916  0.1040
  549TMC3    O1 8207   3.593   3.277  12.924 -0.2828  0.3916  0.5338
  549TMC3    O2 8208   3.680   3.662  12.649  0.0284  0.3653  0.2013
  550TMC3    C1 8209   3.338   1.012  11.721  0.2181  0.1095 -0.1948
  550TMC3    C2 8210   3.316   0.991  11.858 -0.5958 -0.5991 -0.3002
  550TMC3    C3 8211   3.234   1.079  11.921  0.3659 -0.9166 -0.1630
  550TMC3    C4 8212   3.293   1.125  11.662  0.2805 -0.2017 -1.1325
  550TMC3    C5 8213   3.209   1.208  11.727  0.0258  0.1968 -0.0842
  550TMC3    C6 8214   3.172   1.186  11.863  0.6607  0.1200  0.9997
  550TMC3     C 8215   3.364   0.898  11.633  0.5000  0.1680  0.5345
  550TMC3     O 8216   3.413   0.799  11.687  0.4878 -0.7105  0.1944
  550TMC3     H 8217   3.362   0.901  11.897  0.8426 -0.1340 -0.9005
  550TMC3    H1 8218   3.332   1.163  11.568  3.2269  0.2363  0.2903
  550TMC3    H2 8219   3.122   1.261  11.922  0.8066 -0.0564  1.3433
  550TMC3    C7 8220   3.164   1.315  11.645  0.4646 -0.2859 -0.1987
  550TMC3    C8 8221   3.191   1.037  12.052  1.1068  0.3054  0.2822
  550TMC3    O1 8222   3.233   1.355  11.556 -0.9999  0.1250 -0.1058
  550TMC3    O2 8223   3.246   0.943  12.107 -0.0720  0.0824 -0.4152
  551TMC3    C1 8224   0.398   4.387  13.232  0.0355 -0.9848 -0.1688
  551TMC3    C2 8225   0.511   4.435  13.174  0.6155  0.3580 -0.2903
  551TMC3    C3 8226   0.613   4.488  13.247  0.0383  0.0256 -0.2251
  551TMC3    C4 8227   0.371   4.402  13.366  0.2529  0.2253  0.4656
  551TMC3    C5 8228   0.478   4.448  13.437  0.0991  0.2095 -0.2266
  551TMC3    C6 8229   0.602   4.489  13.384 -0.1924  0.7102  0.9558
  551TMC3     C 8230   0.339   4.281  13.155 -0.2656  0.4231 -0.3901
  551TMC3     O 8231   0.365   4.282  13.039 -0.0270  0.2346 -0.2980
  551TMC3     H 8232   0.519   4.430  13.066  0.3401  1.3458 -0.3548
  551TMC3    H1 8233   0.274   4.384  13.410  1.0863 -1.1476  1.7167
  551TMC3    H2 8234   0.684   4.526  13.446  0.2141  0.5981  0.4853
  551TMC3    C7 8235   0.483   4.451  13.577 -0.4427  0.3302 -0.4097
  551TMC3    C8 8236   0.735   4.537  13.186 -0.3165  0.4436  0.3712
  551TMC3    O1 8237   0.575   4.396  13.634  0.3309  0.2883  0.2844
  551TMC3    O2 8238   0.755   4.479  13.078  0.1455 -0.6650  0.1341
  552MPD2     C 8239   2.095   1.013  13.606  0.9226 -1.1544 -0.4646
  552MPD2    C1 8240   2.112   0.923  13.713  0.6827  0.3427  0.6853
  552MPD2    C2 8241   2.205   0.955  13.805 -0.8001  0.6513 -0.3351
  552MPD2    C3 8242   2.296   1.058  13.788 -0.4838  0.7690  0.3316
  552MPD2    C4 8243   2.278   1.139  13.678 -0.2843  0.1855 -0.6058
  552MPD2    C5 8244   2.181   1.114  13.590 -0.3650 -0.7299 -0.5798
  552MPD2     H 8245   2.216   0.884  13.887  0.7760  1.0003 -0.2385
  552MPD2    H1 8246   2.345   1.224  13.669 -0.0529  0.2594  1.8812
  552MPD2    H2 8247   2.018   1.006  13.530  1.4172 -0.7509 -1.0055
  552MPD2    H3 8248   2.164   1.183  13.508 -0.8321  0.7769  0.7764
  552MPD2     N 8249   2.396   1.095  13.883 -0.2188  0.4802  0.5385
  552MPD2    H5 8250   2.458   1.173  13.864 -0.4006  0.1704 -1.2655
  552MPD2    N1 8251   2.050   0.800  13.721 -0.6707  1.0780 -0.2435
  552MPD2    H7 8252   2.071   0.753  13.809  2.0636 -1.0836 -2.0071
  553TMC3    C1 8253   2.005   0.588  13.649 -0.2121 -0.1652  0.7061
  553TMC3    C2 8254   2.096   0.525  13.574  0.7402  0.4453  0.6672
  553TMC3    C3 8255   2.159   0.423  13.628  0.5867  0.1504  1.2037
  553TMC3    C4 8256   1.981   0.555  13.782  0.1106 -0.7109 -0.9011
  553TMC3    C5 8257   2.061   0.467  13.837  0.3723  0.3266 -0.0067
  553TMC3    C6 8258   2.142   0.385  13.759 -0.9180  0.9023  0.4212
  553TMC3     C 8259   1.995   0.731  13.617  0.4959 -0.4397 -0.2810
  553TMC3     O 8260   1.993   0.761  13.501 -0.5806 -0.4303 -0.3868
  553TMC3     H 8261   2.130   0.566  13.479  0.8802  3.8119  2.1827
  553TMC3    H1 8262   1.918   0.616  13.846 -1.4851 -1.1771 -2.0312
  553TMC3    H2 8263   2.196   0.300  13.798 -2.6467 -0.8980 -1.0755
  553TMC3    C7 8264   2.127   0.537  13.944 -0.1355  0.8398 -0.8895
  553TMC3    C8 8265   2.283   0.372  13.575 -0.2460  0.4907 -0.1889
  553TMC3    O1 8266   2.067   0.611  14.011  0.6770 -0.4697 -0.3032
  553TMC3    O2 8267   2.369   0.356  13.656  0.5256  0.1750 -0.4112
  554TMC3    C1 8268   3.884   0.399  11.675 -0.1164 -0.2046 -0.4440
  554TMC3    C2 8269   3.758   0.368  11.636 -0.5435  0.1039  0.3872
  554TMC3    C3 8270   3.718   0.413  11.513  0.3089  0.4494  0.7710
  554TMC3    C4 8271   3.971   0.482  11.608 -0.0314 -0.3422 -0.1108
  554TMC3    C5 8272   3.927   0.526  11.486 -0.4663  0.8011 -0.1147
  554TMC3    C6 8273   3.806   0.499  11.434  0.2295 -0.3795  0.4405
  554TMC3     C 8274   3.933   0.294  11.766  0.2663 -0.0267  0.1536
  554TMC3     O 8275   3.889   0.185  11.736 -0.1489 -0.4245 -0.0601
  554TMC3     H 8276   3.687   0.316  11.699 -0.1930 -1.8934 -0.8853
  554TMC3    H1 8277   4.075   0.487  11.638  0.2588 -0.8187 -1.0108
  554TMC3    H2 8278   3.764   0.575  11.369 -1.9362 -0.3353  1.8910
  554TMC3    C7 8279   4.020   0.600  11.399 -0.0646  0.5134  0.1088
  554TMC3    C8 8280   3.607   0.336  11.448  0.7505  0.0095 -0.3620
  554TMC3    O1 8281   3.979   0.612  11.283 -0.6444 -0.2835 -0.2144
  554TMC3    O2 8282   3.515   0.307  11.522  0.0459  0.0529  0.1640
  555TMC3    C1 8283   3.302   4.267  14.772 -0.7133  0.3535 -0.6854
  555TMC3    C2 8284   3.291   4.380  14.848  0.7304 -0.9533 -0.1033
  555TMC3    C3 8285   3.324   4.373  14.976  0.0851 -0.9338 -0.0722
  555TMC3    C4 8286   3.350   4.144  14.818 -0.4808 -0.1758  0.7069
  555TMC3    C5 8287   3.382   4.138  14.951  0.0577  0.7842 -0.2189
  555TMC3    C6 8288   3.374   4.252  15.033 -0.2302 -0.9955 -0.8640
  555TMC3     C 8289   3.263   4.270  14.632 -0.0041  0.6570 -0.4476
  555TMC3     O 8290   3.333   4.204  14.553 -0.3633  0.1345  0.0998
  555TMC3     H 8291   3.258   4.473  14.803  1.3479  0.0804  1.5897
  555TMC3    H1 8292   3.344   4.059  14.751  0.3828 -0.3898  0.9000
  555TMC3    H2 8293   3.402   4.236  15.136  2.5299  1.9107 -1.1827
  555TMC3    C7 8294   3.377   4.006  15.014 -1.0726 -0.9309 -0.2947
  555TMC3    C8 8295   3.297   4.486  15.060  0.4314 -1.0583 -0.3453
  555TMC3    O1 8296   3.336   4.003  15.128 -0.0758  0.1623 -0.3049
  555TMC3    O2 8297   3.183   4.527  15.042 -0.2162  0.7960  0.0388
  556MPD2     C 8298   1.409   2.203  10.829 -0.5213  0.3755  0.8410
  556MPD2    C1 8299   1.355   2.091  10.882  0.6310  0.0728  0.0849
  556MPD2    C2 8300   1.354   1.988  10.793 -0.0338  0.3940  0.2049
  556MPD2    C3 8301   1.378   1.997  10.654 -0.6062  0.9107 -0.0964
  556MPD2    C4 8302   1.417   2.118  10.600  0.1859 -0.1662  0.0074
  556MPD2    C5 8303   1.440   2.215  10.699  0.2747 -0.1035  0.7582
  556MPD2     H 8304   1.330   1.891  10.834 -0.1328 -0.2407 -1.3443
  556MPD2    H1 8305   1.454   2.138  10.500 -2.4657 -0.4978 -1.0229
  556MPD2    H2 8306   1.423   2.292  10.890  0.3028  0.6939  0.1818
  556MPD2    H3 8307   1.466   2.316  10.670  2.5552 -0.4160  1.7616
  556MPD2     N 8308   1.365   1.882  10.571  0.3492  0.7459  0.2545
  556MPD2    H5 8309   1.354   1.797  10.625 -1.3038  0.4144 -0.6256
  556MPD2    N1 8310   1.325   2.073  11.020 -0.2949  0.3656  0.0149
  556MPD2    H7 8311   1.303   1.980  11.053 -2.0202  0.1482 -1.7683
  557TMC3    C1 8312   1.325   1.756  10.372  0.0744 -0.1416 -0.2686
  557TMC3    C2 8313   1.284   1.765  10.242  0.4213 -0.1663 -0.0499
  557TMC3    C3 8314   1.216   1.663  10.188  0.0436  0.5065  0.1162
  557TMC3    C4 8315   1.309   1.654  10.457  0.4960  0.1070  0.0457
  557TMC3    C5 8316   1.245   1.548  10.393  0.6301 -0.0994  0.2621
  557TMC3    C6 8317   1.194   1.553  10.263 -0.1695  1.2233 -0.8347
  557TMC3     C 8318   1.361   1.887  10.433 -0.3621 -0.2405  0.1201
  557TMC3     O 8319   1.370   1.983  10.359  0.1303  0.1887 -0.0798
  557TMC3     H 8320   1.296   1.850  10.176  0.6422  0.5992  0.9814
  557TMC3    H1 8321   1.364   1.652  10.550  1.3995 -1.0953 -0.5149
  557TMC3    H2 8322   1.137   1.467  10.229  2.0010 -1.5179  2.4040
  557TMC3    C7 8323   1.181   1.443  10.473  0.1810 -0.4631 -0.0262
  557TMC3    C8 8324   1.140   1.696  10.071  0.7162 -0.3215  0.1899
  557TMC3    O1 8325   1.091   1.386  10.416 -0.9487 -0.0782 -0.2373
  557TMC3    O2 8326   1.130   1.813  10.035 -0.4833 -0.1339 -0.4823
  558TMC3    C1 8327   3.479   4.214  10.395 -0.3468 -0.2556 -0.2880
  558TMC3    C2 8328   3.365   4.156  10.445 -0.2864  0.2580  0.0121
  558TMC3    C3 8329   3.251   4.192  10.382 -0.3366 -0.0790  0.0604
  558TMC3    C4 8330   3.489   4.303  10.282 -0.0898  0.2167  0.1428
  558TMC3    C5 8331   3.370   4.324  10.223 -0.3940 -0.5000  0.3536
  558TMC3    C6 8332   3.252   4.278  10.275  0.8463 -0.5651  0.0203
  558TMC3     C 8333   3.610   4.160  10.440 -0.4931  0.1209  0.4408
  558TMC3     O 8334   3.709   4.160  10.368  0.7782 -0.2822 -0.1934
  558TMC3     H 8335   3.371   4.085  10.527 -0.6364  1.6562  1.2572
  558TMC3    H1 8336   3.585   4.332  10.242 -0.3442 -0.8640 -1.2774
  558TMC3    H2 8337   3.155   4.314  10.242 -0.0574 -0.8715  2.3217
  558TMC3    C7 8338   3.379   4.361  10.083  0.5478  0.1147  0.4167
  558TMC3    C8 8339   3.127   4.148  10.441 -0.8390 -0.6159  0.0087
  558TMC3    O1 8340   3.485   4.417  10.052  0.2760 -0.6822  0.2467
  558TMC3    O2 8341   3.027   4.157  10.371  0.1347 -0.1364  0.3306
  559MPD2     C 8342   3.580   4.595  10.407  0.4559  0.0048 -0.4326
  559MPD2    C1 8343   3.500   4.556  10.507  0.4191  1.2541  0.2668
  559MPD2    C2 8344   3.559   4.514  10.629 -0.1426 -0.1190  1.0363
  559MPD2    C3 8345   3.700   4.520  10.642  0.2187 -0.3710 -0.1950
  559MPD2    C4 8346   3.781   4.561  10.537  0.9219  1.1463 -0.3069
  559MPD2    C5 8347   3.721   4.600  10.419  0.1508  0.5995  1.0927
  559MPD2     H 8348   3.498   4.473  10.709 -2.3689  0.4413 -0.3730
  559MPD2    H1 8349   3.890   4.558  10.539  0.8968  2.0661  2.2793
  559MPD2    H2 8350   3.534   4.616  10.311  1.8440  1.5880 -0.7549
  559MPD2    H3 8351   3.789   4.620  10.337 -1.7571 -0.5336 -0.7361
  559MPD2     N 8352   3.754   4.486  10.769 -0.1956  0.7181  0.8404
  559MPD2    H5 8353   3.688   4.459  10.841 -1.3064  0.1545 -0.3936
  559MPD2    N1 8354   3.357   4.573  10.493 -0.2221  0.0156 -0.0026
  559MPD2    H7 8355   3.321   4.615  10.408  1.1900 -0.1288 -0.6674
  560TMC3    C1 8356   3.908   4.443  10.951 -0.4379 -0.1133  0.3289
  560TMC3    C2 8357   3.828   4.347  11.001 -0.0284  0.0747  0.0303
  560TMC3    C3 8358   3.842   4.327  11.135 -0.1438 -0.7566 -0.2872
  560TMC3    C4 8359   4.016   4.497  11.020 -0.1951  0.3399 -0.7064
  560TMC3    C5 8360   4.023   4.468  11.154 -0.2338  0.4221 -0.6448
  560TMC3    C6 8361   3.933   4.389  11.216 -0.3018 -0.2943  0.6061
  560TMC3     C 8362   3.886   4.501  10.814  0.1239 -0.8292  0.3335
  560TMC3     O 8363   3.976   4.561  10.758 -0.5598  0.1423  0.0277
  560TMC3     H 8364   3.740   4.300  10.957  0.4920 -0.5145 -0.3865
  560TMC3    H1 8365   4.097   4.556  10.979 -0.5848 -0.2394 -2.3442
  560TMC3    H2 8366   3.949   4.360  11.319  0.9763  2.7019  1.2369
  560TMC3    C7 8367   4.132   4.523  11.237 -0.2796  0.3519 -0.5576
  560TMC3    C8 8368   3.751   4.229  11.192 -0.3948 -0.2299 -0.0303
  560TMC3    O1 8369   4.118   4.520  11.356  0.1606 -0.2959  0.3294
  560TMC3    O2 8370   3.703   4.155  11.106 -0.4876 -0.7046 -0.1193
  561TMC3    C1 8371   2.006   3.852  11.186  0.3858  0.2954  0.0284
  561TMC3    C2 8372   1.946   3.757  11.255 -0.3159 -0.5374 -0.1804
  561TMC3    C3 8373   1.812   3.774  11.289 -0.7894  0.3275 -0.3886
  561TMC3    C4 8374   1.938   3.967  11.145  0.1311 -0.5615 -0.2126
  561TMC3    C5 8375   1.810   3.991  11.196 -0.1876 -0.2449  1.0991
  561TMC3    C6 8376   1.741   3.886  11.253  0.2963 -0.0316  0.1538
  561TMC3     C 8377   2.110   3.814  11.096  0.2386 -0.5095 -0.3947
  561TMC3     O 8378   2.106   3.851  10.978 -0.5349  0.0571 -0.3708
  561TMC3     H 8379   2.001   3.674  11.300 -0.2372  0.3702  1.3801
  561TMC3    H1 8380   1.986   4.032  11.072 -2.7079  1.6020 -0.1427
  561TMC3    H2 8381   1.634   3.886  11.271  0.1787 -1.9457 -0.5807
  561TMC3    C7 8382   1.721   4.091  11.127 -0.7660  1.0986 -0.3009
  561TMC3    C8 8383   1.746   3.653  11.332 -0.1894 -0.0666  1.0553
  561TMC3    O1 8384   1.616   4.130  11.172 -0.0321 -0.6164  0.8761
  561TMC3    O2 8385   1.793   3.541  11.306 -0.2130  0.1971 -0.2670
  562TMC3    C1 8386   2.919   0.062  16.023 -0.1319 -0.1714 -0.4467
  562TMC3    C2 8387   2.860   0.185  16.014 -0.3341  0.3707 -0.0747
  562TMC3    C3 8388   2.845   0.231  15.884 -0.1038  0.7267  1.0684
  562TMC3    C4 8389   2.966   4.733  15.913  0.2324  0.0009 -0.2904
  562TMC3    C5 8390   2.952   0.050  15.788 -0.0968  0.5026  0.9106
  562TMC3    C6 8391   2.897   0.170  15.771  0.1505 -0.4278  0.3751
  562TMC3     C 8392   2.929   0.006  16.157  0.7794 -0.2373 -0.2914
  562TMC3     O 8393   2.873   0.051  16.256  0.2941 -0.2706  0.2129
  562TMC3     H 8394   2.839   0.240  16.105 -0.8580  0.2999 -0.1539
  562TMC3    H1 8395   3.007   4.634  15.930 -0.2322  0.0284  1.0083
  562TMC3    H2 8396   2.902   0.221  15.675 -1.0448 -2.6109 -0.8289
  562TMC3    C7 8397   2.986   4.709  15.661  0.5924  0.5637 -0.1335
  562TMC3    C8 8398   2.765   0.358  15.874 -0.1357  0.0401  0.7145
  562TMC3    O1 8399   2.958   0.018  15.549  0.4181  0.1665  0.1044
  562TMC3    O2 8400   2.737   0.402  15.986 -0.3627 -0.0928  0.1354
  563MPD2     C 8401   0.205   1.342  15.426  0.2805  0.6214 -0.0518
  563MPD2    C1 8402   0.216   1.466  15.484  0.4405 -0.2736  0.3573
  563MPD2    C2 8403   0.344   1.506  15.534 -0.3423 -0.6392  0.0938
  563MPD2    C3 8404   0.455   1.425  15.527  0.2088  0.3611 -0.0919
  563MPD2    C4 8405   0.437   1.295  15.475 -0.7131  0.2820 -0.2625
  563MPD2    C5 8406   0.312   1.258  15.435  0.0467  0.2161  0.3499
  563MPD2     H 8407   0.360   1.612  15.549  0.3890 -0.7912  0.3692
  563MPD2    H1 8408   0.499   1.211  15.505  0.3251  1.6009  1.2250
  563MPD2    H2 8409   0.111   1.309  15.383 -0.2519  2.5132 -0.3358
  563MPD2    H3 8410   0.302   1.151  15.419 -2.4525  0.2707  1.4937
  563MPD2     N 8411   0.575   1.477  15.572  0.3459 -0.1570  0.2982
  563MPD2    H5 8412   0.566   1.561  15.629  0.9549  0.4810 -0.5499
  563MPD2    N1 8413   0.105   1.548  15.473  0.2494  0.6563 -0.6157
  563MPD2    H7 8414   0.018   1.507  15.441  0.6336 -1.2885  0.8482
  564TMC3    C1 8415   0.078   1.576  15.694 -0.7184  0.6884  0.5757
  564TMC3    C2 8416   4.733   1.473  15.700 -0.9596 -0.3280  0.6462
  564TMC3    C3 8417   4.734   1.401  15.814  0.2240  0.3847  0.0085
  564TMC3    C4 8418   0.175   1.600  15.790  0.2650 -0.0393 -0.1443
  564TMC3    C5 8419   0.179   1.516  15.895 -0.3184  0.1803  0.2015
  564TMC3    C6 8420   0.080   1.430  15.906 -0.3493 -0.5436 -0.1345
  564TMC3     C 8421   0.090   1.643  15.571  0.1637  0.5528  0.1326
  564TMC3     O 8422   0.163   1.744  15.573  0.2626  0.8811  0.5059
  564TMC3     H 8423   4.646   1.472  15.635 -0.2309  0.1527 -0.3392
  564TMC3    H1 8424   0.257   1.668  15.771 -0.3430  0.5961 -0.5234
  564TMC3    H2 8425   0.080   1.375  15.999  2.4651  0.2519  0.3234
  564TMC3    C7 8426   0.311   1.461  15.909  0.9904 -0.4162 -0.5453
  564TMC3    C8 8427   4.717   1.258  15.799 -0.4381 -0.1354  0.3401
  564TMC3    O1 8428   0.408   1.533  15.924  0.4978  0.4300  0.4269
  564TMC3    O2 8429   0.034   1.191  15.884  0.1745 -0.3795  0.3326
  565TMC3    C1 8430   0.785   2.351  10.274 -0.3018 -0.6288  0.0539
  565TMC3    C2 8431   0.803   2.299  10.396  0.5266  0.0128 -1.0215
  565TMC3    C3 8432   0.702   2.238  10.462  0.5571 -0.5175 -0.1743
  565TMC3    C4 8433   0.672   2.334  10.203  0.5130  0.4485 -0.7582
  565TMC3    C5 8434   0.574   2.256  10.271  0.0832 -0.2702 -0.3675
  565TMC3    C6 8435   0.579   2.220  10.399  0.1119  0.5146  0.5960
  565TMC3     C 8436   0.856   2.472  10.237  0.3942  0.7081 -0.5377
  565TMC3     O 8437   0.862   2.495  10.115 -0.0605  0.3611  0.0306
  565TMC3     H 8438   0.902   2.310  10.439 -0.4238  1.3299  0.8173
  565TMC3    H1 8439   0.670   2.362  10.099  1.1396  0.5398 -0.7464
  565TMC3    H2 8440   0.506   2.162  10.454 -0.3624  2.2684  1.8196
  565TMC3    C7 8441   0.439   2.265  10.215  0.0682 -0.5977 -0.2454
  565TMC3    C8 8442   0.735   2.194  10.596  0.6793  0.1406 -0.0065
  565TMC3    O1 8443   0.351   2.207  10.274 -0.0593 -0.5583  0.4058
  565TMC3    O2 8444   0.845   2.223  10.628 -0.2238 -0.7806  0.0456
  566MPD2     C 8445   2.606   4.144  14.106 -0.0918 -0.2634  0.4855
  566MPD2    C1 8446   2.699   4.174  14.006 -0.1844  0.3989  0.0338
  566MPD2    C2 8447   2.655   4.204  13.880 -0.6670  0.5797 -0.7256
  566MPD2    C3 8448   2.520   4.189  13.838 -0.9803  0.1331  0.0164
  566MPD2    C4 8449   2.434   4.153  13.936  0.2812  0.2794  0.3159
  566MPD2    C5 8450   2.472   4.136  14.070 -0.9375  0.5791  0.5369
  566MPD2     H 8451   2.732   4.201  13.804 -0.5628  0.7217 -0.6241
  566MPD2    H1 8452   2.329   4.141  13.911  0.3513 -3.4620  1.8601
  566MPD2    H2 8453   2.633   4.117  14.208  0.6955  0.5245  0.4716
  566MPD2    H3 8454   2.392   4.105  14.136 -0.4373 -0.9036  0.4271
  566MPD2     N 8455   2.489   4.189  13.702  0.6834 -0.9819 -0.4845
  566MPD2    H5 8456   2.393   4.165  13.680 -0.0623  2.6608 -1.3454
  566MPD2    N1 8457   2.837   4.171  14.049  0.6854  0.4169 -0.4200
  566MPD2    H7 8458   2.863   4.131  14.139 -2.6816 -1.0583 -0.1016
  567TMC3    C1 8459   3.082   4.168  14.009 -0.0530  0.3584 -0.3521
  567TMC3    C2 8460   3.178   4.178  13.913  0.0872 -0.0404  0.0737
  567TMC3    C3 8461   3.298   4.115  13.931 -0.5475 -0.4966  0.1911
  567TMC3    C4 8462   3.098   4.090  14.118 -0.5091 -0.5134  0.1374
  567TMC3    C5 8463   3.220   4.029  14.135  0.3332 -0.0099 -0.5584
  567TMC3    C6 8464   3.321   4.040  14.046 -0.1559  0.0190 -0.0141
  567TMC3     C 8465   2.946   4.202  13.960 -0.0771 -0.5691  0.3041
  567TMC3     O 8466   2.947   4.271  13.856 -0.3231 -0.0038 -0.3319
  567TMC3     H 8467   3.164   4.218  13.813  0.0164 -0.5422 -0.1158
  567TMC3    H1 8468   3.018   4.087  14.191 -0.4097  3.0279  0.3785
  567TMC3    H2 8469   3.410   3.982  14.070  0.0992 -0.5937 -2.4423
  567TMC3    C7 8470   3.264   3.987  14.269 -0.0993 -0.2545  0.5027
  567TMC3    C8 8471   3.399   4.133  13.828  0.1092  0.2098  0.1257
  567TMC3    O1 8472   3.375   3.940  14.289  0.2245  0.1757  0.5280
  567TMC3    O2 8473   3.372   4.204  13.728  0.4534  0.4001  0.6445
  568MPD2     C 8474   0.790   0.189  16.299 -0.1500 -0.4855 -0.2062
  568MPD2    C1 8475   0.686   0.247  16.363 -0.4983  0.1799 -0.0907
  568MPD2    C2 8476   0.594   0.330  16.298  0.2790 -0.4877  0.4460
  568MPD2    C3 8477   0.601   0.350  16.160  0.4632 -0.0413 -0.3138
  568MPD2    C4 8478   0.709   0.290  16.099  0.0635 -0.4522 -0.6953
  568MPD2    C5 8479   0.801   0.213  16.169 -0.0600  0.5046 -0.0279
  568MPD2     H 8480   0.508   0.367  16.353  0.1944 -1.2108  0.7959
  568MPD2    H1 8481   0.720   0.298  15.991  0.3528 -0.4867 -0.6676
  568MPD2    H2 8482   0.865   0.125  16.344 -0.0746  0.7710  1.4664
  568MPD2    H3 8483   0.883   0.172  16.111 -0.4411  2.2392 -1.7958
  568MPD2     N 8484   0.506   0.424  16.092  0.4460 -0.5553 -0.0435
  568MPD2    H5 8485   0.428   0.445  16.152  0.2677  1.3830 -0.9405
  568MPD2    N1 8486   0.685   0.209  16.500 -0.4160 -0.4268 -0.3309
  568MPD2    H7 8487   0.744   0.134  16.536  0.8095 -0.1401 -1.7635
  569TMC3    C1 8488   0.391   0.558  15.930  0.4983  0.2592 -0.3510
  569TMC3    C2 8489   0.340   0.624  16.039 -0.6404 -1.0352  0.6600
  569TMC3    C3 8490   0.204   0.648  16.030 -0.5233  0.6701 -0.2254
  569TMC3    C4 8491   0.329   0.533  15.813  0.6835 -0.6383  0.5804
  569TMC3    C5 8492   0.198   0.572  15.803  0.5145  0.0670 -0.4726
  569TMC3    C6 8493   0.132   0.621  15.916  0.0839  0.4024  0.2019
  569TMC3     C 8494   0.507   0.472  15.959  0.4141 -0.2687  0.2326
  569TMC3     O 8495   0.580   0.437  15.870 -0.0971  0.0115  0.1500
  569TMC3     H 8496   0.396   0.640  16.130 -1.6352 -2.1810  1.4798
  569TMC3    H1 8497   0.381   0.492  15.726  0.5597 -0.4886  0.4362
  569TMC3    H2 8498   0.026   0.645  15.904  0.5226  2.3688  0.2733
  569TMC3    C7 8499   0.180   0.650  15.685  0.9521 -0.5844 -0.4391
  569TMC3    C8 8500   0.141   0.755  16.102  0.6340 -0.0102 -0.1041
  569TMC3    O1 8501   0.225   0.608  15.582  0.1856 -0.4833 -0.4977
  569TMC3    O2 8502   0.024   0.774  16.079 -0.3335 -0.4107 -0.2514
  570TMC3    C1 8503   4.430   4.142  16.264 -0.4244 -0.0473  0.3064
  570TMC3    C2 8504   4.470   4.149  16.129 -0.0762 -0.3507  0.0300
  570TMC3    C3 8505   4.499   4.276  16.077 -0.7902  0.5861  0.5376
  570TMC3    C4 8506   4.423   4.261  16.338 -0.6837  0.3960 -0.3231
  570TMC3    C5 8507   4.445   4.381  16.280  0.0408  0.8196  0.1232
  570TMC3    C6 8508   4.480   4.389  16.150  0.1107  0.2723 -0.1117
  570TMC3     C 8509   4.419   4.007  16.315  0.2247  0.6475  0.2109
  570TMC3     O 8510   4.459   3.917  16.245 -0.0409  0.2884 -0.3666
  570TMC3     H 8511   4.495   4.056  16.080 -1.5557 -0.6409 -0.1425
  570TMC3    H1 8512   4.406   4.253  16.445  0.6695  2.2563  0.0240
  570TMC3    H2 8513   4.502   4.484  16.102 -0.4021 -0.4750 -1.8344
  570TMC3    C7 8514   4.445   4.501  16.367 -0.1050  0.2967 -0.0476
  570TMC3    C8 8515   4.576   4.293  15.958  0.3593  0.1931 -0.0050
  570TMC3    O1 8516   4.423   4.481  16.488 -0.1251  0.2612 -0.0484
  570TMC3    O2 8517   4.629   4.398  15.932  0.0691  0.0556  0.1956
  571MPD2     C 8518   1.662   0.769  16.953  0.3188 -0.4693 -0.0872
  571MPD2    C1 8519   1.687   0.784  17.093 -0.2055 -0.2089  0.0515
  571MPD2    C2 8520   1.816   0.814  17.138  0.0363 -0.1099 -0.2194
  571MPD2    C3 8521   1.920   0.838  17.051 -0.5826  0.0486  1.3679
  571MPD2    C4 8522   1.891   0.830  16.915  0.3982 -0.6355  0.3007
  571MPD2    C5 8523   1.765   0.799  16.870 -0.0222 -0.3381 -0.1817
  571MPD2     H 8524   1.828   0.823  17.245  0.2475 -0.0733 -0.2463
  571MPD2    H1 8525   1.967   0.863  16.846 -0.4073  0.3894 -0.1036
  571MPD2    H2 8526   1.565   0.735  16.917 -0.0279  3.2656 -2.6185
  571MPD2    H3 8527   1.743   0.804  16.764  1.4676  1.0415 -0.4144
  571MPD2     N 8528   2.051   0.879  17.091 -0.3308 -0.2015 -0.2839
  571MPD2    H5 8529   2.122   0.899  17.021 -1.1981 -0.8246 -1.3424
  571MPD2    N1 8530   1.596   0.760  17.197 -0.1008 -0.1550  1.0999
  571MPD2    H7 8531   1.642   0.753  17.287  2.5974  0.5189 -0.2342
  572TMC3    C1 8532   2.237   0.934  17.231 -0.9434 -0.1831  0.6928
  572TMC3    C2 8533   2.319   0.848  17.292 -0.8378  0.5109  0.0582
  572TMC3    C3 8534   2.452   0.845  17.242  0.3759  0.0396  0.3335
  572TMC3    C4 8535   2.276   1.022  17.136 -0.4870  0.2122  0.5335
  572TMC3    C5 8536   2.410   1.013  17.090  0.4107  0.8147 -0.4650
  572TMC3    C6 8537   2.488   0.919  17.139 -0.0952 -0.2205 -0.4167
  572TMC3     C 8538   2.096   0.882  17.223 -0.3766  0.5875  0.0189
  572TMC3     O 8539   2.051   0.844  17.331  0.1673 -0.4814 -0.5335
  572TMC3     H 8540   2.274   0.765  17.344 -0.2981  0.4625  0.4464
  572TMC3    H1 8541   2.212   1.102  17.100  0.9029 -0.8748 -4.3293
  572TMC3    H2 8542   2.589   0.918  17.101 -0.4440 -3.2076 -1.2459
  572TMC3    C7 8543   2.462   1.105  16.995 -0.0287 -0.7353  1.0037
  572TMC3    C8 8544   2.539   0.741  17.285  0.0026  0.8081 -0.2627
  572TMC3    O1 8545   2.551   1.177  17.037  0.4427  0.0315  0.8392
  572TMC3    O2 8546   2.620   0.712  17.198 -0.3394  0.1279  0.1080
  573MPD2     C 8547   3.226   1.299   0.336  0.5395  0.0762  0.0606
  573MPD2    C1 8548   3.127   1.396   0.320  0.2339  0.0118 -0.1447
  573MPD2    C2 8549   3.030   1.391   0.216 -0.4447 -0.3739 -0.1833
  573MPD2    C3 8550   3.062   1.305   0.111 -0.1472  0.4392 -0.7996
  573MPD2    C4 8551   3.152   1.199   0.130 -0.7981  0.9555 -0.1987
  573MPD2    C5 8552   3.234   1.203   0.243  0.2761  0.1623  0.1622
  573MPD2     H 8553   2.942   1.454   0.214  0.1822  0.5960  2.3000
  573MPD2    H1 8554   3.157   1.120   0.056 -2.6646  0.1841  0.4865
  573MPD2    H2 8555   3.296   1.315   0.417  1.2719 -2.5133 -0.0639
  573MPD2    H3 8556   3.318   1.136   0.258  0.6806 -0.1432 -3.6153
  573MPD2     N 8557   2.978   1.306  17.741 -0.1350 -0.0981 -0.1433
  573MPD2    H5 8558   2.993   1.230  17.675 -1.1893 -1.2976  1.0064
  573MPD2    N1 8559   3.114   1.490   0.421 -0.3282  0.1842  0.1794
  573MPD2    H7 8560   3.189   1.499   0.489 -0.3707 -0.8342  0.3720
  574TMC3    C1 8561   2.829   1.375  17.569  0.6214  0.2046  0.1169
  574TMC3    C2 8562   2.799   1.491  17.500 -0.0812  0.7051 -0.5838
  574TMC3    C3 8563   2.767   1.471  17.367 -0.2000  0.4525  0.1846
  574TMC3    C4 8564   2.831   1.256  17.504 -0.2312  0.1390  0.4167
  574TMC3    C5 8565   2.778   1.245  17.382 -0.2672 -0.4834 -0.3609
  574TMC3    C6 8566   2.755   1.353  17.304 -0.0869 -0.2600  0.1241
  574TMC3     C 8567   2.903   1.409  17.694 -0.1352 -0.0170  0.9489
  574TMC3     O 8568   2.879   1.518  17.742 -0.0448 -0.0920 -0.4438
  574TMC3     H 8569   2.783   1.586  17.550 -0.2370  0.6584 -0.5463
  574TMC3    H1 8570   2.864   1.166  17.555  1.4862  1.3575  1.4766
  574TMC3    H2 8571   2.718   1.354  17.203  2.1097  0.0611 -0.6801
  574TMC3    C7 8572   2.782   1.114  17.332 -0.5227  1.2012  0.5516
  574TMC3    C8 8573   2.717   1.587  17.297  0.0506 -0.1062 -0.3389
  574TMC3    O1 8574   2.739   1.025  17.400  0.3246 -0.2980 -0.1640
  574TMC3    O2 8575   2.632   1.566  17.210  0.6295  0.1554  0.0360
  575TMC3    C1 8576   1.074   2.500  11.287  0.1469  0.6661 -0.3915
  575TMC3    C2 8577   1.040   2.460  11.408  0.5711  0.0196 -1.0233
  575TMC3    C3 8578   0.968   2.344  11.435  0.7019  0.1747  1.2126
  575TMC3    C4 8579   1.032   2.432  11.174  0.4157  0.0089 -0.3622
  575TMC3    C5 8580   0.958   2.316  11.191 -0.2310 -0.2286  0.0457
  575TMC3    C6 8581   0.940   2.260  11.325  0.1816 -0.7553 -0.2486
  575TMC3     C 8582   1.180   2.597  11.267 -0.6180  0.3260  0.1184
  575TMC3     O 8583   1.184   2.686  11.352 -0.4825 -0.2003  0.1655
  575TMC3     H 8584   1.085   2.518  11.488  0.3022 -0.6449 -0.3914
  575TMC3    H1 8585   1.045   2.474  11.075 -4.3522 -0.9944 -1.4293
  575TMC3    H2 8586   0.882   2.169  11.338  0.8931 -1.1767 -0.0008
  575TMC3    C7 8587   0.930   2.229  11.079 -0.6395  0.0236 -0.5344
  575TMC3    C8 8588   0.971   2.263  11.561  0.1690  1.1411  0.7434
  575TMC3    O1 8589   0.978   2.264  10.973 -0.1511  0.3399 -0.1424
  575TMC3    O2 8590   0.949   2.142  11.544  0.6016  0.0076 -0.2750
  576MPD2     C 8591   0.847   3.763  12.460 -0.3087 -0.2263 -0.0830
  576MPD2    C1 8592   0.849   3.882  12.384 -0.5120  0.1406  0.8318
  576MPD2    C2 8593   0.807   3.994  12.443  0.1228 -0.6212 -0.0765
  576MPD2    C3 8594   0.759   3.996  12.572  0.5071 -0.2138  0.4770
  576MPD2    C4 8595   0.733   3.877  12.637  0.0188 -0.8452 -0.5775
  576MPD2    C5 8596   0.782   3.763  12.583 -0.1667  0.0600 -0.2164
  576MPD2     H 8597   0.805   4.087  12.386  0.4546 -0.2537  0.5108
  576MPD2    H1 8598   0.679   3.886  12.731  0.9391  1.6008 -0.2830
  576MPD2    H2 8599   0.879   3.665  12.426  2.4110  0.5050  0.3814
  576MPD2    H3 8600   0.754   3.669  12.630 -0.0669  0.4764  0.6780
  576MPD2     N 8601   0.722   4.128  12.622  0.6957  0.1054  0.7798
  576MPD2    H5 8602   0.765   4.210  12.580  1.0337 -0.0622  0.7927
  576MPD2    N1 8603   0.897   3.886  12.251 -0.8519 -0.0968 -0.2130
  576MPD2    H7 8604   0.909   3.972  12.198 -0.2671  0.0953  0.2315
  577TMC3    C1 8605   0.990   3.806  12.044  0.7723 -0.5354 -0.1469
  577TMC3    C2 8606   1.059   3.702  11.981  0.0277 -0.4784 -0.2117
  577TMC3    C3 8607   1.142   3.732  11.878 -0.1910 -0.6629 -0.8169
  577TMC3    C4 8608   1.006   3.932  11.994 -0.0874  0.1431 -0.0597
  577TMC3    C5 8609   1.069   3.951  11.874 -0.0637 -0.1953 -0.5075
  577TMC3    C6 8610   1.141   3.854  11.816  0.6743 -0.9915 -0.3021
  577TMC3     C 8611   0.928   3.778  12.171  0.0626 -0.6345  0.4868
  577TMC3     O 8612   0.898   3.662  12.182 -0.4504 -0.0781  0.1454
  577TMC3     H 8613   1.081   3.606  12.026  2.2628 -0.4179 -1.1694
  577TMC3    H1 8614   0.954   4.019  12.032  2.2975  0.1747  3.0850
  577TMC3    H2 8615   1.193   3.872  11.722  0.5445 -0.9534 -0.3654
  577TMC3    C7 8616   1.054   4.072  11.791 -0.1890 -0.4972 -0.6743
  577TMC3    C8 8617   1.213   3.625  11.812  0.4324  0.3302 -0.4960
  577TMC3    O1 8618   1.146   4.107  11.725  0.1631 -0.5317 -0.0248
  577TMC3    O2 8619   1.159   3.514  11.827 -0.1859 -0.4836 -0.0691
  578MPD2     C 8620   3.541   4.363   0.900 -0.3227 -0.1573 -0.4417
  578MPD2    C1 8621   3.591   4.247   0.846  0.1299  0.1833 -0.5045
  578MPD2    C2 8622   3.599   4.135   0.922 -0.0781  0.1687  0.5833
  578MPD2    C3 8623   3.574   4.144   1.057 -0.3230  0.7076  0.1418
  578MPD2    C4 8624   3.540   4.263   1.115 -0.0836 -0.5132 -0.1997
  578MPD2    C5 8625   3.532   4.375   1.035 -0.1905  0.2170 -0.4412
  578MPD2     H 8626   3.634   4.046   0.872 -1.6615  0.4767 -1.0824
  578MPD2    H1 8627   3.517   4.269   1.221 -0.9258  0.4251 -0.4306
  578MPD2    H2 8628   3.518   4.454   0.846  1.6096  0.7616  0.2669
  578MPD2    H3 8629   3.500   4.469   1.079 -3.3003 -0.2471 -1.7095
  578MPD2     N 8630   3.598   4.025   1.140 -0.1308 -0.4405 -0.0254
  578MPD2    H5 8631   3.647   3.946   1.098 -1.9326 -0.8720 -1.2967
  578MPD2    N1 8632   3.609   4.256   0.709 -0.0438 -0.2772  0.5444
  578MPD2    H7 8633   3.610   4.348   0.666  1.3882 -0.2634  0.6105
  579TMC3    C1 8634   3.675   3.919   1.338  0.7342 -0.4212 -0.0263
  579TMC3    C2 8635   3.733   3.963   1.456 -0.0539  0.3455  0.3213
  579TMC3    C3 8636   3.838   3.889   1.492 -0.4804 -0.0653  0.6071
  579TMC3    C4 8637   3.702   3.809   1.263  0.0446  0.8489  0.6971
  579TMC3    C5 8638   3.798   3.726   1.317 -0.1951 -0.1779 -0.3126
  579TMC3    C6 8639   3.874   3.771   1.425  0.0103 -0.1316  0.2041
  579TMC3     C 8640   3.589   4.023   1.278  0.2684  0.4606 -0.3177
  579TMC3     O 8641   3.525   4.096   1.354  0.0082  0.0290  0.0395
  579TMC3     H 8642   3.733   4.067   1.485 -0.1108  0.4904 -0.1873
  579TMC3    H1 8643   3.640   3.777   1.181  0.8858  1.2234 -0.0863
  579TMC3    H2 8644   3.971   3.736   1.456 -0.7426 -1.1033  1.4651
  579TMC3    C7 8645   3.863   3.626   1.229  0.0164 -0.3578  0.5893
  579TMC3    C8 8646   3.951   3.968   1.553  0.4546  0.0814  0.2950
  579TMC3    O1 8647   3.944   3.554   1.290  0.1323  0.4243  0.0186
  579TMC3    O2 8648   3.922   4.040   1.647  0.4912 -0.1601  0.0693
  580TMC3    C1 8649   4.234   3.337  12.074 -0.0848  0.4745  0.0189
  580TMC3    C2 8650   4.272   3.358  11.942  0.2748 -1.1831 -0.0934
  580TMC3    C3 8651   4.233   3.259  11.846  0.1990 -0.5633 -0.3612
  580TMC3    C4 8652   4.193   3.217  12.115  0.3141 -0.0821 -0.0255
  580TMC3    C5 8653   4.186   3.120  12.017 -0.3421 -0.3248 -0.0243
  580TMC3    C6 8654   4.192   3.140  11.883 -0.4451  0.4053 -0.6827
  580TMC3     C 8655   4.164   3.448  12.130 -0.0850  0.2493  0.5977
  580TMC3     O 8656   4.195   3.563  12.106  0.2094  0.2965  0.3396
  580TMC3     H 8657   4.290   3.461  11.911 -0.4036 -1.0650 -0.1039
  580TMC3    H1 8658   4.184   3.189  12.219  0.1480 -0.7464 -0.2196
  580TMC3    H2 8659   4.172   3.070  11.804  1.2621  0.5745 -1.2515
  580TMC3    C7 8660   4.150   2.986  12.061 -0.1655  0.0209  0.1275
  580TMC3    C8 8661   4.183   3.297  11.718 -0.5620 -0.0838 -0.2840
  580TMC3    O1 8662   4.125   2.966  12.179 -0.1744 -0.0420  0.1137
  580TMC3    O2 8663   4.094   3.233  11.667 -0.0250 -0.0593 -0.1851
  581MPD2     C 8664   1.574   2.915  14.524  0.2351  0.1522  0.0525
  581MPD2    C1 8665   1.458   2.892  14.601  0.7724 -0.3543  0.1311
  581MPD2    C2 8666   1.343   2.957  14.567  0.1163 -0.2703 -0.1948
  581MPD2    C3 8667   1.338   3.027  14.445 -0.5788 -0.1095 -0.5509
  581MPD2    C4 8668   1.446   3.030  14.359 -0.0344  0.4960  0.5538
  581MPD2    C5 8669   1.566   2.982  14.407  0.6091  0.6390 -0.0814
  581MPD2     H 8670   1.252   2.928  14.617  0.5324 -3.7659 -1.4656
  581MPD2    H1 8671   1.447   3.077  14.261 -1.0701  0.3878  0.4940
  581MPD2    H2 8672   1.667   2.863  14.545 -0.6985 -0.4115  2.8423
  581MPD2    H3 8673   1.659   2.978  14.351 -0.9072  1.2568 -2.6363
  581MPD2     N 8674   1.229   3.096  14.399 -0.1390 -0.0049 -0.4874
  581MPD2    H5 8675   1.230   3.149  14.312 -0.2848  1.0784  0.1651
  581MPD2    N1 8676   1.477   2.795  14.707 -0.2166 -0.2002 -0.0466
  581MPD2    H7 8677   1.570   2.759  14.727 -1.3032 -2.3629  1.1439
  582TMC3    C1 8678   1.398   2.632  14.869  1.3304 -0.2508 -0.9347
  582TMC3    C2 8679   1.501   2.637  14.953  0.2303  1.1608 -0.3773
  582TMC3    C3 8680   1.494   2.567  15.063 -0.3228  0.4950 -0.9630
  582TMC3    C4 8681   1.289   2.552  14.890  0.5493 -0.2929  0.1409
  582TMC3    C5 8682   1.298   2.470  14.998  0.5168 -0.6370  0.0360
  582TMC3    C6 8683   1.402   2.471  15.088  0.7085 -0.0853  0.3362
  582TMC3     C 8684   1.370   2.732  14.767  0.0664  0.1569 -0.1025
  582TMC3     O 8685   1.256   2.775  14.768 -0.4361  0.2656  0.0930
  582TMC3     H 8686   1.581   2.709  14.941  1.0402  0.8519  3.0020
  582TMC3    H1 8687   1.204   2.546  14.823  0.6217  1.8808 -0.1375
  582TMC3    H2 8688   1.396   2.434  15.190 -0.5785  0.2510  0.3847
  582TMC3    C7 8689   1.171   2.485  15.071 -0.2048 -0.8749  0.6438
  582TMC3    C8 8690   1.527   2.650  15.168  0.5196  0.2623 -0.5651
  582TMC3    O1 8691   1.137   2.395  15.149 -0.3479  0.3272 -0.2118
  582TMC3    O2 8692   1.424   2.700  15.217  0.6757  0.3141 -0.1689
  583MPD2     C 8693   1.368   4.437  16.603  0.6574  0.0926  0.5641
  583MPD2    C1 8694   1.414   4.547  16.547 -0.2125 -0.1828 -0.8083
  583MPD2    C2 8695   1.389   4.678  16.596  0.6471 -0.5833 -1.1053
  583MPD2    C3 8696   1.318   4.687  16.714 -0.0526 -0.2101  0.2029
  583MPD2    C4 8697   1.269   4.578  16.776  1.0891 -0.2266 -0.0555
  583MPD2    C5 8698   1.291   4.455  16.714 -0.3468  0.0249  0.1261
  583MPD2     H 8699   1.415   0.029  16.538 -0.2240  0.7982  0.6194
  583MPD2    H1 8700   1.225   4.585  16.875  1.6896 -0.5666  0.2293
  583MPD2    H2 8701   1.383   4.337  16.565 -0.8016 -0.3849  1.2569
  583MPD2    H3 8702   1.252   4.364  16.757 -0.2213 -0.0900 -0.0024
  583MPD2     N 8703   1.308   0.074  16.767 -0.0966 -0.1017  0.6336
  583MPD2    H5 8704   1.293   0.147  16.698  0.3097  0.3920  1.0687
  583MPD2    N1 8705   1.488   4.543  16.428 -0.7177  0.4310 -0.3154
  583MPD2    H7 8706   1.515   4.635  16.395 -1.7510  0.9373  0.2597
  584TMC3    C1 8707   1.263   0.243  16.932 -0.1465 -0.4716 -0.3820
  584TMC3    C2 8708   1.291   0.345  16.850 -0.5169  0.3204 -0.0889
  584TMC3    C3 8709   1.266   0.470  16.889 -1.3079  0.1156  0.0709
  584TMC3    C4 8710   1.215   0.270  17.060 -0.5232  0.7256 -0.3291
  584TMC3    C5 8711   1.203   0.398  17.102  0.1888  0.6283 -0.4278
  584TMC3    C6 8712   1.224   0.504  17.014  0.1363 -0.4540 -0.6162
  584TMC3     C 8713   1.303   0.105  16.903 -0.4104 -0.0648 -0.0034
  584TMC3     O 8714   1.341   0.028  16.990 -0.0457 -0.0080 -0.4368
  584TMC3     H 8715   1.340   0.322  16.757  0.2346  0.1641  0.3462
  584TMC3    H1 8716   1.193   0.184  17.123 -0.3821  1.3709  0.6009
  584TMC3    H2 8717   1.196   0.605  17.040  1.7500 -0.7938  2.5488
  584TMC3    C7 8718   1.118   0.434  17.215 -0.2116  0.4271 -0.4449
  584TMC3    C8 8719   1.275   0.569  16.780 -0.2512 -0.3853  0.1603
  584TMC3    O1 8720   1.087   0.550  17.231  0.1065 -0.4347 -0.5298
  584TMC3    O2 8721   1.283   0.522  16.667 -0.3332  0.1328  0.0988
  585MPD2     C 8722   0.036   3.887   0.210 -0.4912 -0.1453 -0.1134
  585MPD2    C1 8723   0.054   3.937   0.079  0.0076  0.2302  0.5795
  585MPD2    C2 8724   0.099   3.848  17.727  0.4401 -0.2607 -0.1802
  585MPD2    C3 8725   0.138   3.715   0.009 -0.1131  0.5063  0.0832
  585MPD2    C4 8726   0.103   3.666   0.137 -0.2182 -0.2620  0.3713
  585MPD2    C5 8727   0.063   3.752   0.238 -0.5372  0.0075 -0.0983
  585MPD2     H 8728   0.101   3.874  17.621  2.1305  2.6214  0.5476
  585MPD2    H1 8729   0.128   3.564   0.163  2.9341  0.8146  1.6004
  585MPD2    H2 8730   4.735   3.944   0.294  1.3389  1.1012 -0.1488
  585MPD2    H3 8731   0.045   3.701   0.332  0.4242 -0.3896 -0.1228
  585MPD2     N 8732   0.205   3.625  17.665  0.1139 -0.6994  0.0503
  585MPD2    H5 8733   0.196   3.529  17.695  0.0024 -0.8888 -0.5925
  585MPD2    N1 8734   0.045   4.081   0.058 -0.5136 -0.0690  0.0228
  585MPD2    H7 8735   0.028   4.140   0.139 -0.5273 -0.7959  0.5451
  586TMC3    C1 8736   0.349   3.547  17.517  0.3117  0.0809  0.6673
  586TMC3    C2 8737   0.463   3.577  17.445 -0.0290 -0.1837  0.0175
  586TMC3    C3 8738   0.565   3.493  17.447 -0.6634  0.1709  0.7438
  586TMC3    C4 8739   0.341   3.425  17.579 -0.8718 -0.1428  0.4435
  586TMC3    C5 8740   0.449   3.344  17.582 -0.3688  0.2304  0.7428
  586TMC3    C6 8741   0.572   3.381  17.525  0.1811  0.4806  0.9851
  586TMC3     C 8742   0.274   3.661  17.555 -0.0968 -0.5037  0.3469
  586TMC3     O 8743   0.311   3.774  17.523  0.3891  0.0629 -0.1053
  586TMC3     H 8744   0.471   3.665  17.381  1.2079  0.5412  1.1606
  586TMC3    H1 8745   0.244   3.396  17.619 -1.0493 -0.8833 -0.5212
  586TMC3    H2 8746   0.664   3.326  17.540  0.5595  0.6325 -0.7719
  586TMC3    C7 8747   0.424   3.212  17.525 -0.1987  0.3760 -0.5870
  586TMC3    C8 8748   0.668   3.512  17.345  0.1208  0.5597 -0.2383
  586TMC3    O1 8749   0.317   3.160  17.558  0.0970  0.3220  0.2111
  586TMC3    O2 8750   0.781   3.464  17.363  0.0688 -0.1149  0.3658
  587TMC3    C1 8751   3.014   2.489  15.800 -0.7115  0.6241  0.2696
  587TMC3    C2 8752   3.010   2.539  15.933 -0.1311 -0.0077  0.0586
  587TMC3    C3 8753   3.133   2.550  15.991 -0.1824 -0.0266 -0.2873
  587TMC3    C4 8754   3.124   2.473  15.727 -1.1472 -0.8251  0.3891
  587TMC3    C5 8755   3.243   2.489  15.796 -0.4472 -0.3899  0.1177
  587TMC3    C6 8756   3.252   2.519  15.929  0.2456  0.2726 -0.3914
  587TMC3     C 8757   2.891   2.492  15.722 -0.9705  0.1630 -0.5529
  587TMC3     O 8758   2.895   2.549  15.611  0.0022  0.1256 -0.1420
  587TMC3     H 8759   2.921   2.541  15.995 -0.9745 -0.5824 -1.1256
  587TMC3    H1 8760   3.116   2.433  15.627  1.1155 -0.2881 -0.0068
  587TMC3    H2 8761   3.348   2.538  15.976 -0.6775 -0.8987  2.0003
  587TMC3    C7 8762   3.369   2.516  15.724  0.6570 -0.0241 -0.4091
  587TMC3    C8 8763   3.151   2.594  16.128 -0.1334 -0.9406  1.4572
  587TMC3    O1 8764   3.437   2.606  15.773 -0.0413 -0.2955  0.1317
  587TMC3    O2 8765   3.249   2.557  16.192  0.2257  0.1868  0.0808
  588TMC3    C1 8766   1.165   4.245   9.997  0.5747 -0.5991  0.7859
  588TMC3    C2 8767   1.212   4.129  10.033  0.2462  0.3773  0.1606
  588TMC3    C3 8768   1.255   4.106  10.165 -0.0393  0.7215 -0.0318
  588TMC3    C4 8769   1.136   4.342  10.086  0.4139 -0.2820  0.0614
  588TMC3    C5 8770   1.175   4.316  10.217 -0.6244  0.5431 -1.0218
  588TMC3    C6 8771   1.237   4.199  10.264  0.4933  0.0171 -0.0680
  588TMC3     C 8772   1.073   4.228   9.883  0.0419 -0.3069 -0.5084
  588TMC3     O 8773   1.022   4.121   9.869  0.8522  0.1890  0.6185
  588TMC3     H 8774   1.222   4.053   9.956  0.3238  0.3854  0.1631
  588TMC3    H1 8775   1.072   4.427  10.063 -1.0176 -1.3943 -0.0532
  588TMC3    H2 8776   1.263   4.195  10.369  2.2116  1.8270 -0.4436
  588TMC3    C7 8777   1.128   4.405  10.321 -0.7701 -0.1650 -0.0423
  588TMC3    C8 8778   1.286   3.972  10.195 -0.2476  0.1992 -1.1120
  588TMC3    O1 8779   1.107   4.368  10.434 -0.2045  0.2732 -0.2999
  588TMC3    O2 8780   1.320   3.900  10.104 -0.2075  0.5520 -0.9457
  589TMC3    C1 8781   4.651   1.614   0.921  0.3707  0.1234  0.2959
  589TMC3    C2 8782   0.047   1.581   0.946 -0.7550 -0.1820 -0.3556
  589TMC3    C3 8783   0.093   1.456   0.893  0.2594 -0.3609 -0.3622
  589TMC3    C4 8784   4.569   1.532   0.851  0.3970  0.0713  0.3628
  589TMC3    C5 8785   4.614   1.404   0.825  0.0941 -0.0488 -0.2908
  589TMC3    C6 8786   0.005   1.363   0.848  0.2352  0.0767 -0.7694
  589TMC3     C 8787   4.603   1.744   0.941 -0.7390  0.4455  0.8337
  589TMC3     O 8788   4.504   1.774   0.880 -0.6380  0.1495  0.3948
  589TMC3     H 8789   0.124   1.650   0.977 -1.3551  0.5631 -0.5239
  589TMC3    H1 8790   4.466   1.557   0.829  0.3353 -1.5584 -1.1818
  589TMC3    H2 8791   0.035   1.260   0.836 -0.7182 -0.1723 -1.0393
  589TMC3    C7 8792   4.528   1.329   0.746 -0.0156 -0.7462  1.1620
  589TMC3    C8 8793   0.229   1.415   0.897  0.3918  0.4578  0.7442
  589TMC3    O1 8794   4.408   1.357   0.743  0.0106  0.1213  0.3739
  589TMC3    O2 8795   0.249   1.295   0.901 -0.1725  0.7333 -0.2717
  590MPD2     C 8796   3.706   0.675  16.240 -0.3587 -0.7653  0.1631
  590MPD2    C1 8797   3.676   0.808  16.215  0.3665  0.2090 -0.2632
  590MPD2    C2 8798   3.766   0.910  16.240 -0.1018 -0.1427 -0.4873
  590MPD2    C3 8799   3.883   0.876  16.297  0.0585  0.9862  0.2946
  590MPD2    C4 8800   3.909   0.744  16.327  0.1297 -0.3090 -0.5618
  590MPD2    C5 8801   3.822   0.643  16.295 -0.0086 -0.8040  0.0921
  590MPD2     H 8802   3.743   1.011  16.206 -0.6678 -0.1501 -0.1132
  590MPD2    H1 8803   4.001   0.701  16.366  0.2451  2.6842  2.4639
  590MPD2    H2 8804   3.647   0.588  16.214  0.2849 -0.5973 -1.8525
  590MPD2    H3 8805   3.858   0.541  16.291  1.7893 -0.2397  1.8776
  590MPD2     N 8806   3.974   0.988  16.303  0.4366  0.1453 -0.0131
  590MPD2    H5 8807   3.947   1.070  16.250  1.8177  0.5002 -0.1433
  590MPD2    N1 8808   3.546   0.827  16.170 -0.0106  0.6846  0.2827
  590MPD2    H7 8809   3.501   0.742  16.138  0.1181  0.2096  1.3263
  591TMC3    C1 8810   4.170   1.102  16.332 -0.2899 -0.6996 -0.3922
  591TMC3    C2 8811   4.294   1.084  16.272  0.0860 -0.2950  0.4300
  591TMC3    C3 8812   4.323   1.168  16.168  0.2102 -0.6247 -0.1042
  591TMC3    C4 8813   4.088   1.212  16.304 -0.0955  0.6359  0.2528
  591TMC3    C5 8814   4.128   1.302  16.202  0.3762  0.3386  0.1262
  591TMC3    C6 8815   4.249   1.277  16.130 -0.2475  0.6421  0.6193
  591TMC3     C 8816   4.099   0.984  16.353  0.6935  0.2069 -0.4749
  591TMC3     O 8817   4.143   0.895  16.428 -0.5063  0.0946  0.1964
  591TMC3     H 8818   4.344   0.988  16.278 -0.9957 -0.7872  1.4326
  591TMC3    H1 8819   4.004   1.247  16.363  0.4575  0.2512  1.2630
  591TMC3    H2 8820   4.285   1.344  16.053 -1.7452  0.1485 -0.5175
  591TMC3    C7 8821   4.032   1.403  16.162  0.2044 -0.1444  0.5252
  591TMC3    C8 8822   4.402   1.110  16.066 -0.0851  0.4041  0.6710
  591TMC3    O1 8823   3.915   1.376  16.190 -0.8328 -0.4829 -0.4107
  591TMC3    O2 8824   4.498   1.039  16.104  0.5758 -0.6055 -0.9024
  592MPD2     C 8825   4.479   2.281  11.601  0.5886  0.7850  0.8625
  592MPD2    C1 8826   4.455   2.347  11.713 -0.1049  0.2759  0.1160
  592MPD2    C2 8827   4.377   2.289  11.812 -0.2304 -0.2785 -0.0554
  592MPD2    C3 8828   4.320   2.165  11.792 -0.0574  0.1459 -0.1640
  592MPD2    C4 8829   4.346   2.100  11.673 -1.0664  0.0867  0.1917
  592MPD2    C5 8830   4.422   2.154  11.584 -0.3246 -0.2392 -0.7365
  592MPD2     H 8831   4.354   2.346  11.902  0.9625 -0.0576  0.1242
  592MPD2    H1 8832   4.300   2.008  11.640  0.6833 -0.5095 -0.5787
  592MPD2    H2 8833   4.526   2.322  11.513 -0.0942 -0.4946 -0.1066
  592MPD2    H3 8834   4.435   2.103  11.489  1.5889 -0.6378 -0.2588
  592MPD2     N 8835   4.242   2.097  11.893  0.3248 -0.3710  0.4755
  592MPD2    H5 8836   4.219   2.147  11.978 -2.9469  0.4383 -0.8562
  592MPD2    N1 8837   4.516   2.476  11.719  0.1921 -0.2721 -0.1865
  592MPD2    H7 8838   4.554   2.509  11.631 -1.3448  2.3768  0.1676
  593TMC3    C1 8839   4.550   2.702  11.798  0.2721 -0.3275 -0.1550
  593TMC3    C2 8840   4.537   2.800  11.888 -0.5452  0.8173  0.1062
  593TMC3    C3 8841   4.611   2.913  11.871  0.7898 -0.7891 -0.8418
  593TMC3    C4 8842   4.616   2.721  11.675 -0.5388  0.5043 -0.3050
  593TMC3    C5 8843   4.678   2.844  11.659 -0.3003 -0.8430  0.2671
  593TMC3    C6 8844   4.678   2.935  11.759 -0.2043 -0.2674 -0.2715
  593TMC3     C 8845   4.515   2.564  11.832 -0.5189  0.2325  0.3350
  593TMC3     O 8846   4.484   2.550  11.951  0.1339  0.1252 -0.0643
  593TMC3     H 8847   4.488   2.779  11.983 -1.9784  1.1378 -0.5696
  593TMC3    H1 8848   4.634   2.646  11.599 -4.6815 -1.5054  0.7418
  593TMC3    H2 8849   4.701   3.036  11.726  1.7074 -0.0659  1.6725
  593TMC3    C7 8850   4.729   2.889  11.533  0.0848 -0.2424 -0.6887
  593TMC3    C8 8851   4.578   3.024  11.953 -0.5083 -0.1620  0.8298
  593TMC3    O1 8852   0.080   2.969  11.536  0.1065 -0.3388 -0.5289
  593TMC3    O2 8853   4.474   3.023  12.019 -0.4887 -0.2697  0.0559
  594MPD2     C 8854   3.139   1.198  13.972  0.3214  0.2685  0.5102
  594MPD2    C1 8855   3.095   1.229  14.092 -0.5899  0.1432  0.5788
  594MPD2    C2 8856   3.182   1.271  14.187 -0.2251 -0.0273 -0.1501
  594MPD2    C3 8857   3.321   1.281  14.166 -0.2282  0.3103 -0.2539
  594MPD2    C4 8858   3.369   1.250  14.042  0.0928 -0.9556  0.3983
  594MPD2    C5 8859   3.275   1.206  13.954  0.6594 -0.3702 -0.1000
  594MPD2     H 8860   3.148   1.277  14.289  1.4918  1.9726  0.3128
  594MPD2    H1 8861   3.472   1.262  14.011  0.0746  1.0579  1.1233
  594MPD2    H2 8862   3.079   1.154  13.892  1.1035  0.8470 -0.4027
  594MPD2    H3 8863   3.310   1.174  13.857  2.6194  1.7268 -0.0744
  594MPD2     N 8864   3.407   1.324  14.271  0.4673 -0.1132 -0.5401
  594MPD2    H5 8865   3.363   1.329  14.362  0.6763 -2.1177 -0.3447
  594MPD2    N1 8866   2.962   1.214  14.137 -0.1107  0.5660  0.1020
  594MPD2    H7 8867   2.931   1.226  14.233  1.5822 -0.9314  0.8319
  595TMC3    C1 8868   3.796   1.441  14.506  0.1327 -0.8247 -0.1937
  595TMC3    C2 8869   3.731   1.371  14.412  0.1365 -0.5623 -0.3099
  595TMC3    C3 8870   3.596   1.390  14.395  0.1357  0.1924 -0.3212
  595TMC3    C4 8871   3.723   1.527  14.585  0.1238  0.7466  0.8051
  595TMC3    C5 8872   3.588   1.550  14.561  0.1806 -0.6009  0.9868
  595TMC3    C6 8873   3.521   1.473  14.470 -0.1039 -0.3309 -0.9091
  595TMC3     C 8874   3.936   1.471  14.496 -0.1767  0.2998  0.1583
  595TMC3     O 8875   3.974   1.562  14.565 -0.2297  0.0474  0.1640
  595TMC3     H 8876   3.779   1.300  14.345 -0.9224 -2.4887  0.9942
  595TMC3    H1 8877   3.782   1.586  14.654 -1.3065 -0.1697  2.7816
  595TMC3    H2 8878   3.415   1.484  14.452 -0.3208 -0.6504  0.2121
  595TMC3    C7 8879   3.519   1.668  14.617  0.5453 -0.5379  0.0066
  595TMC3    C8 8880   3.549   1.341  14.270 -0.8506  0.5469  0.1426
  595TMC3    O1 8881   3.410   1.691  14.568  0.1135  0.1779  0.3028
  595TMC3    O2 8882   3.624   1.335  14.175 -0.4248 -0.6100  0.3503
  596MPD2     C 8883   2.231   4.163  16.568  0.8295  0.0496  0.1820
  596MPD2    C1 8884   2.281   4.282  16.523  0.0648  0.1145  0.3618
  596MPD2    C2 8885   2.328   4.306  16.395  0.7832  1.1499  0.3907
  596MPD2    C3 8886   2.330   4.199  16.307  0.3974  0.2473 -0.6530
  596MPD2    C4 8887   2.292   4.077  16.356  0.4933  0.1789 -0.0603
  596MPD2    C5 8888   2.235   4.058  16.476 -0.8659  0.0397  0.3391
  596MPD2     H 8889   2.373   4.400  16.365 -1.6521  1.9220 -0.8709
  596MPD2    H1 8890   2.289   3.995  16.285 -1.3994  0.0498  0.1806
  596MPD2    H2 8891   2.187   4.140  16.665  0.6821 -0.2829  0.0359
  596MPD2    H3 8892   2.198   3.962  16.511 -0.3495 -0.4721 -0.5078
  596MPD2     N 8893   2.372   4.206  16.169  0.3918  0.2135 -0.2135
  596MPD2    H5 8894   2.348   4.123  16.114  1.1608 -1.4808  2.0006
  596MPD2    N1 8895   2.276   4.398  16.602  0.4399 -0.2762 -0.3774
  596MPD2    H7 8896   2.314   4.481  16.559 -0.0492  1.6526  2.9227
  597TMC3    C1 8897   2.218   4.545  16.765  0.0989  0.0220  0.0676
  597TMC3    C2 8898   2.328   4.618  16.749 -0.2610 -0.2009  0.0442
  597TMC3    C3 8899   2.335   4.734  16.814 -0.4658  0.8009 -0.1809
  597TMC3    C4 8900   2.116   4.583  16.847 -0.3821 -0.6527  0.0950
  597TMC3    C5 8901   2.119   4.709  16.901  0.3828 -0.2157  0.0202
  597TMC3    C6 8902   2.232   0.042  16.892  0.5211 -0.1846  0.6259
  597TMC3     C 8903   2.204   4.414  16.716 -0.4390 -0.8240 -0.2156
  597TMC3     O 8904   2.144   4.328  16.784 -0.3455  0.5527  0.1347
  597TMC3     H 8905   2.405   4.589  16.679 -1.1252 -1.5007 -0.3863
  597TMC3    H1 8906   2.030   4.518  16.855  0.9480 -1.9847  3.6493
  597TMC3    H2 8907   2.233   0.145  16.926  0.3106 -0.8131  2.5604
  597TMC3    C7 8908   2.002   0.026  16.979 -0.1438  0.2726  0.5323
  597TMC3    C8 8909   2.453   0.079  16.799 -0.2645 -0.1426  0.3792
  597TMC3    O1 8910   1.931   4.684  17.039 -0.3729 -0.0129  0.1828
  597TMC3    O2 8911   2.526   0.059  16.703 -0.2171 -0.0774  0.2251
  598TMC3    C1 8912   0.757   1.176  15.188  0.2566  0.6567 -0.2751
  598TMC3    C2 8913   0.663   1.087  15.231  0.3350 -0.0805 -0.0221
  598TMC3    C3 8914   0.545   1.090  15.162  0.2060  0.0843  0.7081
  598TMC3    C4 8915   0.725   1.268  15.093  0.1827  0.6832  0.0059
  598TMC3    C5 8916   0.605   1.269  15.029 -0.2774 -0.4298 -0.2968
  598TMC3    C6 8917   0.519   1.171  15.048  0.1742 -0.6809  0.3929
  598TMC3     C 8918   0.893   1.167  15.238 -0.7614 -0.2681 -0.0864
  598TMC3     O 8919   0.975   1.247  15.200  0.2604  0.4929 -0.0417
  598TMC3     H 8920   0.667   1.013  15.311 -1.8389 -0.4617 -0.2657
  598TMC3    H1 8921   0.799   1.347  15.084 -0.4108  1.1183 -0.9903
  598TMC3    H2 8922   0.425   1.167  14.995  0.3427  0.1054  0.0345
  598TMC3    C7 8923   0.573   1.360  14.928  0.0565 -0.2344  0.7604
  598TMC3    C8 8924   0.462   0.977  15.185 -0.2919  0.1591  0.1228
  598TMC3    O1 8925   0.521   1.338  14.821 -0.0297 -0.0970  0.0204
  598TMC3    O2 8926   0.460   0.936  15.302  0.8313  0.8877 -0.4756
  599MPD2     C 8927   0.269   3.781  15.594 -0.1912 -0.1340 -0.3362
  599MPD2    C1 8928   0.317   3.671  15.661  1.0541 -0.8778 -0.0317
  599MPD2    C2 8929   0.276   3.658  15.794  0.7506  0.0887 -0.2697
  599MPD2    C3 8930   0.185   3.746  15.845 -0.3538 -0.3363 -0.0144
  599MPD2    C4 8931   0.134   3.847  15.768  0.4833 -0.5003 -0.3863
  599MPD2    C5 8932   0.185   3.875  15.645 -0.9601 -0.1494 -1.0911
  599MPD2     H 8933   0.323   3.590  15.864 -0.8170  0.7728  1.4517
  599MPD2    H1 8934   0.046   3.900  15.802  1.1772 -1.4118  2.7888
  599MPD2    H2 8935   0.307   3.804  15.495  0.0630  1.0487  0.0334
  599MPD2    H3 8936   0.154   3.962  15.588 -1.2462 -0.8958 -2.0701
  599MPD2     N 8937   0.140   3.743  15.978 -0.0042 -0.7118 -0.0453
  599MPD2    H5 8938   0.078   3.820  16.003  2.2041  0.5304  1.6367
  599MPD2    N1 8939   0.434   3.596  15.616  0.4026  0.3130 -0.2479
  599MPD2    H7 8940   0.496   3.635  15.546 -0.5827  1.8762 -0.2548
  600TMC3    C1 8941   0.101   3.679  16.197 -0.1107 -0.3156 -0.0121
  600TMC3    C2 8942   0.069   3.574  16.274 -0.2618 -0.0935  0.2064
  600TMC3    C3 8943   0.021   3.599  16.396 -0.1113 -0.1024 -0.1464
  600TMC3    C4 8944   0.082   3.805  16.232 -0.4259 -0.4260 -0.3513
  600TMC3    C5 8945   0.045   3.832  16.362  0.2489 -0.5031  0.3265
  600TMC3    C6 8946   0.017   3.724  16.449 -0.3177 -0.0712  0.2217
  600TMC3     C 8947   0.164   3.642  16.065  0.2572  0.5191 -0.0518
  600TMC3     O 8948   0.221   3.537  16.057  0.2163 -0.7448  0.0128
  600TMC3     H 8949   0.082   3.473  16.236 -0.6106 -0.6071  1.4521
  600TMC3    H1 8950   0.104   3.882  16.159  0.5527  2.0483  2.5068
  600TMC3    H2 8951   4.722   3.731  16.552 -1.5482 -0.3198 -0.1418
  600TMC3    C7 8952   0.017   3.961  16.412  0.4162  0.1960 -0.1266
  600TMC3    C8 8953   4.726   3.492  16.485 -0.5911  0.1670  0.4278
  600TMC3    O1 8954   4.702   3.966  16.526  0.5235 -0.2209  0.3336
  600TMC3    O2 8955   0.031   3.499  16.597 -0.1307  0.1461  0.1514
  601MPD2     C 8956   2.486   1.312  16.525 -0.0876 -0.6941  0.4760
  601MPD2    C1 8957   2.521   1.363  16.647 -0.1649  0.2471 -0.1496
  601MPD2    C2 8958   2.492   1.299  16.767 -0.1726 -0.0572 -0.1457
  601MPD2    C3 8959   2.420   1.180  16.770  0.3228  0.4162  0.5040
  601MPD2    C4 8960   2.370   1.141  16.644  0.8363  0.1623 -0.3014
  601MPD2    C5 8961   2.407   1.201  16.525  0.0805 -0.5880  0.5451
  601MPD2     H 8962   2.538   1.336  16.857  0.2306 -0.3002 -0.2526
  601MPD2    H1 8963   2.310   1.051  16.633  1.8388 -0.4872 -0.4602
  601MPD2    H2 8964   2.503   1.352  16.425  0.7429 -2.0700  0.0567
  601MPD2    H3 8965   2.374   1.163  16.429 -1.4657 -0.0174  0.8445
  601MPD2     N 8966   2.391   1.096  16.876 -0.2087  0.0465 -0.3136
  601MPD2    H5 8967   2.316   1.028  16.869 -0.1356  0.1881 -2.5076
  601MPD2    N1 8968   2.570   1.496  16.657  0.1001  0.1744 -0.0430
  601MPD2    H7 8969   2.581   1.535  16.750  0.9043  1.5331 -0.6958
  602TMC3    C1 8970   2.655   1.702  16.605 -0.6006 -0.1278 -0.2704
  602TMC3    C2 8971   2.754   1.773  16.547 -0.3010  0.8550  0.4128
  602TMC3    C3 8972   2.774   1.900  16.596  0.6195  0.6763 -0.9896
  602TMC3    C4 8973   2.577   1.751  16.703 -0.0676 -0.1303  0.1543
  602TMC3    C5 8974   2.593   1.877  16.740  0.1950 -0.0356 -0.6658
  602TMC3    C6 8975   2.693   1.955  16.687 -0.3989  0.6835  0.2835
  602TMC3     C 8976   2.639   1.557  16.565 -0.1677 -0.6847  0.4935
  602TMC3     O 8977   2.675   1.515  16.452  0.0380  0.4419 -0.1731
  602TMC3     H 8978   2.806   1.740  16.458 -0.2147  1.7697  0.1167
  602TMC3    H1 8979   2.491   1.694  16.736 -1.8641  1.7611 -1.2259
  602TMC3    H2 8980   2.739   2.033  16.747 -0.8132  0.3949  0.9820
  602TMC3    C7 8981   2.481   1.942  16.801  0.2782 -0.1188 -0.2634
  602TMC3    C8 8982   2.848   1.991  16.502 -0.3633  0.3639  0.1114
  602TMC3    O1 8983   2.389   1.876  16.848 -0.0409 -0.0467 -0.4749
  602TMC3    O2 8984   2.926   1.948  16.416  0.1668  0.6325 -0.2624
  603TMC3    C1 8985   0.295   2.235  11.267  0.8347  0.6602  0.4323
  603TMC3    C2 8986   0.306   2.292  11.394  0.6392 -0.3222  0.1795
  603TMC3    C3 8987   0.428   2.352  11.435  0.0111  0.0738  0.3149
  603TMC3    C4 8988   0.401   2.236  11.181 -0.4130 -0.8915  0.1171
  603TMC3    C5 8989   0.518   2.307  11.222 -0.5177  0.2083  0.3915
  603TMC3    C6 8990   0.540   2.348  11.350 -0.3869 -0.1136  0.2258
  603TMC3     C 8991   0.170   2.268  11.200  0.8068  0.4505  0.0032
  603TMC3     O 8992   0.181   2.315  11.084 -0.2406 -0.1866  0.5135
  603TMC3     H 8993   0.220   2.291  11.459  0.4549  0.3509 -0.0558
  603TMC3    H1 8994   0.392   2.185  11.086 -0.7240 -1.0974  0.2569
  603TMC3    H2 8995   0.623   2.415  11.368 -0.7262 -0.1555  1.9368
  603TMC3    C7 8996   0.592   2.385  11.124 -0.5185  0.1034 -0.3440
  603TMC3    C8 8997   0.457   2.335  11.578 -0.3915  0.2051 -0.7651
  603TMC3    O1 8998   0.680   2.457  11.169 -0.0415  0.0886 -0.3651
  603TMC3    O2 8999   0.386   2.257  11.640 -0.1826  0.1547  0.3639
  604MPD2     C 9000   1.208   0.738  15.930 -0.5445 -0.5697  0.9015
  604MPD2    C1 9001   1.258   0.855  15.878 -0.0151 -0.5227  1.2628
  604MPD2    C2 9002   1.364   0.845  15.783 -0.0878  0.0200 -0.0086
  604MPD2    C3 9003   1.419   0.725  15.751  0.2212  0.2102  0.1462
  604MPD2    C4 9004   1.376   0.608  15.816 -0.6173  0.2839  0.6249
  604MPD2    C5 9005   1.271   0.623  15.900 -0.1745 -0.1634 -0.2593
  604MPD2     H 9006   1.401   0.932  15.729  2.9358  0.4501  2.7749
  604MPD2    H1 9007   1.408   0.508  15.790 -1.1299  0.2563  0.1086
  604MPD2    H2 9008   1.129   0.751  16.004  0.2239  0.3948  1.5598
  604MPD2    H3 9009   1.224   0.537  15.946 -1.7048  1.9445  2.1426
  604MPD2     N 9010   1.529   0.730  15.661  0.0623 -0.3835  0.0630
  604MPD2    H5 9011   1.575   0.818  15.642  0.3854 -0.6184 -0.2689
  604MPD2    N1 9012   1.198   0.978  15.916 -0.6432  0.1157  0.3411
  604MPD2    H7 9013   1.123   0.986  15.985  2.0104 -2.4907  3.4935
  605TMC3    C1 9014   1.188   1.211  15.943 -0.1760 -0.0396  0.4169
  605TMC3    C2 9015   1.258   1.325  15.974 -0.3900 -0.0599 -0.2533
  605TMC3    C3 9016   1.181   1.425  16.032 -0.1991 -0.1786 -0.2201
  605TMC3    C4 9017   1.049   1.202  15.963 -0.5328  0.1089 -0.2732
  605TMC3    C5 9018   0.985   1.316  16.005 -0.2858 -0.2362 -0.0808
  605TMC3    C6 9019   1.044   1.431  16.041  0.0786 -0.9711  0.7052
  605TMC3     C 9020   1.255   1.096  15.882  0.1309 -0.7030 -0.4644
  605TMC3     O 9021   1.360   1.119  15.824 -0.2058 -0.4655  0.2466
  605TMC3     H 9022   1.366   1.332  15.964 -0.3769 -0.7589 -0.6156
  605TMC3    H1 9023   0.992   1.119  15.922  2.0067 -1.7873  0.0318
  605TMC3    H2 9024   0.986   1.520  16.065  1.2604 -0.3984  1.4484
  605TMC3    C7 9025   0.840   1.323  15.988  0.5721  0.5402  0.2092
  605TMC3    C8 9026   1.248   1.549  16.075  0.1136 -0.2851 -0.4813
  605TMC3    O1 9027   0.782   1.431  15.980  0.1229 -0.4112 -0.6698
  605TMC3    O2 9028   1.195   1.614  16.164  0.5530  0.0650  0.1147
  606TMC3    C1 9029   2.556   4.018  16.676  0.2355  0.4022  0.3413
  606TMC3    C2 9030   2.558   4.122  16.767  1.2720  0.5778  0.1465
  606TMC3    C3 9031   2.451   4.128  16.855 -0.5340 -0.6733 -0.0997
  606TMC3    C4 9032   2.472   3.914  16.687 -0.4471 -0.2552  0.6095
  606TMC3    C5 9033   2.378   3.920  16.783 -0.1379 -0.3500 -0.2300
  606TMC3    C6 9034   2.368   4.025  16.875 -0.3059  0.2654  0.0603
  606TMC3     C 9035   2.623   4.045  16.546 -0.2764  0.1325  0.0104
  606TMC3     O 9036   2.694   4.145  16.543  0.4639 -0.5739 -0.1784
  606TMC3     H 9037   2.621   4.209  16.753 -0.0378  1.2644 -1.5356
  606TMC3    H1 9038   2.465   3.841  16.606  0.9934  0.6359 -0.3061
  606TMC3    H2 9039   2.319   4.009  16.970 -1.3927  2.2101 -0.1745
  606TMC3    C7 9040   2.325   3.795  16.822 -0.6004 -0.0701 -0.3332
  606TMC3    C8 9041   2.479   4.210  16.976 -0.3467 -0.1402 -0.1839
  606TMC3    O1 9042   2.393   3.693  16.805  0.2217  0.2049  0.1772
  606TMC3    O2 9043   2.598   4.232  16.991  0.1753 -0.1340 -0.4598
  607MPD2     C 9044   4.511   1.866  11.985  0.3403 -0.7014  0.9075
  607MPD2    C1 9045   4.520   1.984  12.062  0.5227 -0.1842  0.2780
  607MPD2    C2 9046   4.468   1.985  12.188 -0.9346 -0.3989  0.2714
  607MPD2    C3 9047   4.411   1.873  12.238  0.2928  0.3133 -0.5227
  607MPD2    C4 9048   4.405   1.756  12.165  0.0722  0.4103  0.2240
  607MPD2    C5 9049   4.454   1.756  12.042  0.4261  0.5774 -0.3278
  607MPD2     H 9050   4.480   2.079  12.239  2.1386 -1.1272  0.8992
  607MPD2    H1 9051   4.389   1.653  12.195 -1.7091 -0.1886 -2.7699
  607MPD2    H2 9052   4.547   1.860  11.883  1.0204  0.3505  1.0824
  607MPD2    H3 9053   4.451   1.660  11.992  0.8587  0.9002 -0.9784
  607MPD2     N 9054   4.387   1.881  12.374  0.1051  0.0507 -0.5189
  607MPD2    H5 9055   4.426   1.962  12.421 -0.5585  0.1714 -0.1851
  607MPD2    N1 9056   4.591   2.102  12.026 -0.0009  0.0616 -0.3208
  607MPD2    H7 9057   4.560   2.188  12.071 -0.2712 -0.5991  0.7545
  608TMC3    C1 9058   0.014   2.241  11.931  0.5545 -0.1732 -0.2859
  608TMC3    C2 9059   0.040   2.282  12.060 -0.0422  0.2990 -0.1374
  608TMC3    C3 9060   0.108   2.400  12.074 -0.4088 -0.2307 -0.6001
  608TMC3    C4 9061   0.055   2.318  11.822  0.5368 -0.2910  0.4381
  608TMC3    C5 9062   0.129   2.433  11.844 -0.7791  0.4471 -0.5327
  608TMC3    C6 9063   0.152   2.477  11.972 -0.0034 -0.2734 -0.2084
  608TMC3     C 9064   4.681   2.114  11.924  0.6323  0.7200 -0.7986
  608TMC3     O 9065   4.727   2.037  11.838  0.0044  0.0756 -0.3942
  608TMC3     H 9066   0.034   2.209  12.139 -3.0686  1.8848  1.0951
  608TMC3    H1 9067   0.049   2.282  11.720  0.6682 -1.4907  0.8478
  608TMC3    H2 9068   0.202   2.571  11.993  1.6621 -0.7339 -2.1338
  608TMC3    C7 9069   0.166   2.497  11.723 -0.8043  0.4120 -0.1573
  608TMC3    C8 9070   0.101   2.465  12.206 -0.1189  0.2129  0.1245
  608TMC3    O1 9071   0.101   2.476  11.625  0.1538 -0.5804  0.5231
  608TMC3    O2 9072   0.185   2.547  12.236 -0.0062  0.4508 -0.3522
  609TMC3    C1 9073   2.544   1.684   9.154  0.6807 -0.1330  0.0319
  609TMC3    C2 9074   2.431   1.643   9.081  0.7867  0.1933 -0.2708
  609TMC3    C3 9075   2.443   1.555   8.981 -0.1242  0.7329  0.1844
  609TMC3    C4 9076   2.665   1.628   9.123  0.8135  0.5720 -0.2699
  609TMC3    C5 9077   2.675   1.537   9.025 -0.1189  0.0949 -0.7372
  609TMC3    C6 9078   2.561   1.496   8.955  0.0771  1.1681  0.0924
  609TMC3     C 9079   2.532   1.761   9.283 -0.1195  0.2417 -0.8096
  609TMC3     O 9080   2.422   1.813   9.309 -0.0973  0.5629 -1.1204
  609TMC3     H 9081   2.346   1.709   9.094  2.4426  1.9652  1.6418
  609TMC3    H1 9082   2.758   1.646   9.176  1.0977 -1.1551 -0.1955
  609TMC3    H2 9083   2.557   1.418   8.880  2.7394  2.4147 -1.3457
  609TMC3    C7 9084   2.795   1.453   9.033  0.2570 -0.0344 -0.3230
  609TMC3    C8 9085   2.334   1.530   8.882  0.7139 -0.0730  0.1808
  609TMC3    O1 9086   2.901   1.500   9.064  0.0784 -0.4197 -0.2503
  609TMC3    O2 9087   2.352   1.471   8.778 -0.0998  0.3724  0.3084
  610TMC3    C1 9088   0.230   2.178  12.848 -0.5199  0.0108 -0.3641
  610TMC3    C2 9089   0.194   2.138  12.719  0.1947 -0.3264 -0.2603
  610TMC3    C3 9090   0.289   2.172  12.625  0.7126  0.5382 -0.1553
  610TMC3    C4 9091   0.354   2.224  12.888 -0.3013 -0.0488 -0.0066
  610TMC3    C5 9092   0.444   2.249  12.789 -0.3472 -0.1402  1.0366
  610TMC3    C6 9093   0.414   2.225  12.653 -0.6944 -0.3703  0.0236
  610TMC3     C 9094   0.131   2.157  12.945 -0.0603 -0.1295 -0.0490
  610TMC3     O 9095   0.016   2.181  12.918  0.0254 -0.0383  0.1626
  610TMC3     H 9096   0.098   2.090  12.704 -0.1061  0.5115 -0.9725
  610TMC3    H1 9097   0.378   2.242  12.992 -1.5047 -1.4110  0.5147
  610TMC3    H2 9098   0.489   2.218  12.575 -0.2160  1.3432  0.3086
  610TMC3    C7 9099   0.588   2.253  12.834  0.3858 -0.4619  0.0375
  610TMC3    C8 9100   0.262   2.170  12.479  0.0324 -0.0067  0.4997
  610TMC3    O1 9101   0.594   2.234  12.952  0.5857 -0.5928 -0.4153
  610TMC3    O2 9102   0.328   2.239  12.404 -0.2530 -0.0577  0.0350
  611MPD2     C 9103   4.586   1.978  10.257  0.7320  0.5171  0.1162
  611MPD2    C1 9104   4.531   2.094  10.214 -0.3235  0.3111 -0.2323
  611MPD2    C2 9105   4.603   2.212  10.233  0.0389  0.3094  0.2825
  611MPD2    C3 9106   4.726   2.224  10.289  0.4971 -0.2407  0.2950
  611MPD2    C4 9107   0.047   2.106  10.322  0.6203 -0.4133  0.2057
  611MPD2    C5 9108   4.714   1.985  10.306  0.0231  0.1161 -0.1217
  611MPD2     H 9109   4.542   2.300  10.216  0.0772  0.2031 -0.3917
  611MPD2    H1 9110   0.151   2.105  10.354  1.0169 -1.5354 -1.1401
  611MPD2    H2 9111   4.531   1.886  10.241 -0.9513  1.5989 -0.3203
  611MPD2    H3 9112   0.024   1.889  10.325 -2.4302 -0.9681  0.4917
  611MPD2     N 9113   0.060   2.342  10.312 -0.4381  0.3170 -0.1603
  611MPD2    H5 9114   0.159   2.327  10.330 -0.1696  1.0946 -0.9922
  611MPD2    N1 9115   4.400   2.084  10.176 -0.3020 -0.2077 -0.2462
  611MPD2    H7 9116   4.371   1.987  10.170 -0.2626 -0.1108 -1.8608
  612TMC3    C1 9117   0.136   2.565  10.275 -0.1574  1.1433  0.0032
  612TMC3    C2 9118   0.230   2.540  10.372  0.1264  0.2507  0.0797
  612TMC3    C3 9119   0.344   2.613  10.353  0.4524 -0.3235  0.6107
  612TMC3    C4 9120   0.137   2.665  10.186 -0.3317 -0.2234  0.5306
  612TMC3    C5 9121   0.240   2.748  10.187 -0.2709 -0.1675 -0.1711
  612TMC3    C6 9122   0.351   2.725  10.267 -0.4956  0.5225  0.2175
  612TMC3     C 9123   0.020   2.472  10.267 -0.1814 -0.4959 -0.7200
  612TMC3     O 9124   4.654   2.501  10.207 -0.0423  0.0137  0.0380
  612TMC3     H 9125   0.224   2.457  10.442  0.0173 -0.6527 -0.9885
  612TMC3    H1 9126   0.055   2.682  10.117  0.8095  1.5281 -0.3994
  612TMC3    H2 9127   0.436   2.790  10.249  0.1441 -1.0110 -2.3657
  612TMC3    C7 9128   0.235   2.862  10.100 -0.0718 -0.0574  0.2368
  612TMC3    C8 9129   0.462   2.577  10.425 -0.5131  0.1479  0.1972
  612TMC3    O1 9130   0.154   2.861  10.009 -0.5302  0.3239 -0.9734
  612TMC3    O2 9131   0.558   2.644  10.388 -0.5700  0.5399 -0.2333
  613MPD2     C 9132   3.752   4.294  16.333  0.1571 -0.4029  0.0034
  613MPD2    C1 9133   3.662   4.335  16.244 -0.4404 -0.3024 -1.1529
  613MPD2    C2 9134   3.586   4.243  16.176  0.0150  0.1364 -0.1595
  613MPD2    C3 9135   3.609   4.108  16.193  0.6817  0.2913  0.8789
  613MPD2    C4 9136   3.709   4.063  16.283 -0.2133  0.1221 -0.4008
  613MPD2    C5 9137   3.777   4.158  16.352 -0.6138 -0.2246  0.2924
  613MPD2     H 9138   3.513   4.278  16.104 -0.9994 -1.1790  0.2342
  613MPD2    H1 9139   3.745   3.961  16.290 -1.2224 -0.3550 -2.2012
  613MPD2    H2 9140   3.810   4.361  16.396  0.6424 -0.1362 -0.7361
  613MPD2    H3 9141   3.854   4.131  16.422  0.6183  2.3814 -0.0715
  613MPD2     N 9142   3.548   4.010  16.111 -0.1034 -0.4024 -0.7329
  613MPD2    H5 9143   3.600   3.923  16.108  0.5687 -0.0902  2.7503
  613MPD2    N1 9144   3.675   4.470  16.202  0.3342 -0.0818  0.2928
  613MPD2    H7 9145   3.753   4.526  16.236 -1.4071  1.5864  1.5396
  614TMC3    C1 9146   3.675   4.630  16.029 -0.0580  0.1660 -0.0978
  614TMC3    C2 9147   3.799   4.584  15.987 -0.0596  0.0707 -0.1547
  614TMC3    C3 9148   3.820   4.582  15.846  0.1002  0.5745  0.4343
  614TMC3    C4 9149   3.590   4.689  15.941  0.0962  0.2883 -0.6273
  614TMC3    C5 9150   3.617   4.682  15.807  0.0952  0.3354  0.0454
  614TMC3    C6 9151   3.733   4.632  15.752  0.5980  0.2055 -0.8214
  614TMC3     C 9152   3.604   4.524  16.097  0.3328 -0.1090  0.4934
  614TMC3     O 9153   3.495   4.493  16.046 -0.7801 -0.0215  0.6669
  614TMC3     H 9154   3.869   4.539  16.055  0.3753  1.0649  0.0615
  614TMC3    H1 9155   3.491   4.722  15.971 -0.0844 -0.2074 -0.6757
  614TMC3    H2 9156   3.748   4.617  15.646  0.7061  0.9965 -0.9137
  614TMC3    C7 9157   3.501   4.712  15.715  0.8082  0.0767 -0.3821
  614TMC3    C8 9158   3.908   4.473  15.800  0.2252 -0.3550  0.0594
  614TMC3    O1 9159   3.396   0.019  15.763  0.0796  0.8085 -0.5828
  614TMC3    O2 9160   3.914   4.379  15.881 -0.0183  0.4061 -0.6827
  615MPD2     C 9161   3.301   1.200  15.698 -0.8474  0.3059 -0.0954
  615MPD2    C1 9162   3.167   1.233  15.674  0.2908 -0.2066 -0.8516
  615MPD2    C2 9163   3.090   1.149  15.598  0.2416 -0.1915  0.4999
  615MPD2    C3 9164   3.142   1.045  15.527 -0.5014  0.2851 -0.0546
  615MPD2    C4 9165   3.276   1.021  15.537  0.3583  0.1718  0.5808
  615MPD2    C5 9166   3.351   1.099  15.630 -0.6758 -0.0350  0.2226
  615MPD2     H 9167   2.986   1.179  15.587 -0.0358 -0.6699  1.8080
  615MPD2    H1 9168   3.317   0.940  15.478 -1.2968 -0.0530 -0.2570
  615MPD2    H2 9169   3.372   1.255  15.759 -1.4963  0.1972  0.7659
  615MPD2    H3 9170   3.457   1.080  15.640  0.0208  1.4599 -4.2092
  615MPD2     N 9171   3.059   0.969  15.439  0.4539  0.2642  0.2016
  615MPD2    H5 9172   3.106   0.914  15.368 -0.3990  2.4223 -2.0172
  615MPD2    N1 9173   3.097   1.341  15.727 -0.2091 -0.5115 -0.0853
  615MPD2    H7 9174   2.997   1.350  15.709 -0.2042 -1.7363 -0.7097
  616TMC3    C1 9175   3.070   1.569  15.813 -0.1606  0.1004  0.5131
  616TMC3    C2 9176   3.134   1.677  15.867 -0.7487 -0.5340 -1.1575
  616TMC3    C3 9177   3.056   1.785  15.891  0.4483 -0.2313 -0.2073
  616TMC3    C4 9178   2.934   1.569  15.782 -0.0676 -1.3595  0.3059
  616TMC3    C5 9179   2.868   1.691  15.801  0.1164  0.5529  0.2405
  616TMC3    C6 9180   2.925   1.796  15.871  0.3298  0.5360 -0.2592
  616TMC3     C 9181   3.157   1.456  15.776  0.3655  0.0433  0.0277
  616TMC3     O 9182   3.276   1.470  15.794 -0.6843  0.9639  0.0350
  616TMC3     H 9183   3.241   1.697  15.860 -1.2884  3.2126  0.9337
  616TMC3    H1 9184   2.889   1.491  15.722  0.3450 -0.7730 -0.7741
  616TMC3    H2 9185   2.863   1.879  15.904  2.3546  1.7835  0.4304
  616TMC3    C7 9186   2.744   1.711  15.740  0.1939 -0.8098 -0.2209
  616TMC3    C8 9187   3.114   1.899  15.965 -0.1406  0.6684  0.7526
  616TMC3    O1 9188   2.669   1.618  15.701 -0.8808  0.3038 -0.2747
  616TMC3    O2 9189   3.063   1.999  15.928  0.4414  0.4861  0.2054
  617MPD2     C 9190   1.584   3.832  13.075 -0.0442  0.5246  0.0820
  617MPD2    C1 9191   1.598   3.894  13.196  0.6094  0.6902 -0.5079
  617MPD2    C2 9192   1.485   3.926  13.262 -0.5988 -0.3917  0.2480
  617MPD2    C3 9193   1.358   3.906  13.202 -0.4501  0.0615 -0.5280
  617MPD2    C4 9194   1.344   3.834  13.090 -0.8204 -0.5369  0.3662
  617MPD2    C5 9195   1.459   3.799  13.019 -0.0370  0.0445 -0.0601
  617MPD2     H 9196   1.493   3.974  13.359 -0.3889 -2.9510  1.4892
  617MPD2    H1 9197   1.246   3.815  13.048 -1.0524 -0.1884  0.7477
  617MPD2    H2 9198   1.669   3.791  13.023 -1.1980 -1.5240 -0.1998
  617MPD2    H3 9199   1.442   3.738  12.931  3.2666 -2.2249  0.8997
  617MPD2     N 9200   1.236   3.950  13.263  0.2163  0.0799  0.3713
  617MPD2    H5 9201   1.152   3.921  13.214  0.8885 -0.3934 -0.4960
  617MPD2    N1 9202   1.732   3.938  13.226  0.1921 -0.0781  1.0090
  617MPD2    H7 9203   1.806   3.903  13.166  1.4937 -0.1371  2.6559
  618TMC3    C1 9204   1.893   4.066  13.316  0.7704  0.3172 -0.3312
  618TMC3    C2 9205   1.957   4.091  13.434  0.3655 -0.7043 -0.7206
  618TMC3    C3 9206   2.089   4.124  13.429 -0.3168 -0.1185 -0.3087
  618TMC3    C4 9207   1.949   4.083  13.187  0.0662 -0.2795 -0.3230
  618TMC3    C5 9208   2.080   4.113  13.185 -0.1700 -0.1686 -0.0040
  618TMC3    C6 9209   2.150   4.137  13.305  0.1666  0.1396 -0.1091
  618TMC3     C 9210   1.763   4.014  13.331  0.1941  0.8721  0.0456
  618TMC3     O 9211   1.701   4.068  13.422 -0.3252 -0.0642  0.2503
  618TMC3     H 9212   1.908   4.071  13.528 -0.4859  1.6088 -0.6841
  618TMC3    H1 9213   1.899   4.049  13.097  1.0396  0.1634 -1.0373
  618TMC3    H2 9214   2.257   4.147  13.320  0.6293 -2.1595 -1.7140
  618TMC3    C7 9215   2.161   4.062  13.074 -0.4226  0.6084 -0.2635
  618TMC3    C8 9216   2.167   4.070  13.535  0.2682 -0.2593 -0.5595
  618TMC3    O1 9217   2.107   4.013  12.975  0.0096 -0.0609 -0.0246
  618TMC3    O2 9218   2.249   4.142  13.590 -0.1923 -0.6151  0.2547
  619MPD2     C 9219   2.441   4.509  14.117  0.0170 -0.0678  0.5512
  619MPD2    C1 9220   2.435   4.585  14.003 -0.7376  0.0655 -0.2040
  619MPD2    C2 9221   2.315   4.633  13.958 -1.1160 -0.1041  0.3186
  619MPD2    C3 9222   2.197   4.591  14.019  0.1166  0.0658 -0.6227
  619MPD2    C4 9223   2.200   4.496  14.121 -0.7132  0.5443 -0.5507
  619MPD2    C5 9224   2.323   4.462  14.168  0.0831 -0.6258  0.0731
  619MPD2     H 9225   2.317   4.691  13.867  0.7937  0.0988  0.4766
  619MPD2    H1 9226   2.113   4.461  14.175 -0.7900  1.8721  0.1738
  619MPD2    H2 9227   2.531   4.462  14.158 -0.4366 -0.0065  1.6227
  619MPD2    H3 9228   2.345   4.399  14.253  2.3781 -0.4292 -0.3617
  619MPD2     N 9229   2.072   4.639  13.975  0.2702  0.0902  0.4022
  619MPD2    H5 9230   1.993   4.586  14.010 -0.2339  0.4864 -0.1406
  619MPD2    N1 9231   2.551   4.620  13.928 -0.2174 -0.2667 -0.2932
  619MPD2    H7 9232   2.534   4.637  13.830  0.2496 -0.7325 -0.4566
  620TMC3    C1 9233   2.758   4.560  13.853 -1.0780 -0.4438 -0.5113
  620TMC3    C2 9234   2.691   4.550  13.733 -0.3197  0.9519  0.2533
  620TMC3    C3 9235   2.744   4.615  13.625 -0.2326  0.2096 -0.2790
  620TMC3    C4 9236   2.880   4.616  13.863 -0.2246  0.0832 -0.0516
  620TMC3    C5 9237   2.931   4.680  13.748 -0.1288  0.1742  0.2215
  620TMC3    C6 9238   2.860   4.676  13.630  0.1201 -0.2087  0.4825
  620TMC3     C 9239   2.673   4.574  13.967  0.0875 -0.0738  0.3884
  620TMC3     O 9240   2.735   4.605  14.068  0.4424  0.2801  0.2517
  620TMC3     H 9241   2.598   4.495  13.721  0.9949 -0.8611 -1.7027
  620TMC3    H1 9242   2.936   4.615  13.956 -0.8480  1.2322  0.3332
  620TMC3    H2 9243   2.903   4.731  13.547  2.0804 -0.8608  1.0561
  620TMC3    C7 9244   2.975   0.072  13.791 -0.2007 -0.7879  0.8205
  620TMC3    C8 9245   2.632   4.691  13.569  0.2639 -0.6047 -0.0664
  620TMC3    O1 9246   2.918   0.124  13.888 -0.4169 -0.4685 -0.3915
  620TMC3    O2 9247   2.534   4.694  13.640  0.5214  0.1292  0.3633
  621MPD2     C 9248   2.759   1.379   9.433 -0.6809  0.7124 -0.4618
  621MPD2    C1 9249   2.786   1.461   9.539 -0.4372  0.6271  0.0201
  621MPD2    C2 9250   2.917   1.468   9.580 -0.3061  0.0942 -0.0758
  621MPD2    C3 9251   3.015   1.417   9.505  0.2806  0.5963  0.6530
  621MPD2    C4 9252   2.986   1.356   9.387 -0.3827  0.5385  0.0584
  621MPD2    C5 9253   2.855   1.331   9.351  0.1485  0.0554 -0.3003
  621MPD2     H 9254   2.937   1.515   9.676  3.0395 -0.5233 -0.4582
  621MPD2    H1 9255   3.069   1.317   9.329 -1.9097 -1.0306 -1.0799
  621MPD2    H2 9256   2.658   1.354   9.403 -0.8829 -0.5152  1.2321
  621MPD2    H3 9257   2.840   1.277   9.258 -0.9827 -1.5021  0.7896
  621MPD2     N 9258   3.150   1.441   9.550  0.6461  0.1956  0.2291
  621MPD2    H5 9259   3.157   1.493   9.637 -0.1156 -0.0125  0.4161
  621MPD2    N1 9260   2.686   1.520   9.619 -0.5487  0.0242 -0.3073
  621MPD2    H7 9261   2.727   1.573   9.695  0.3006 -0.4013 -0.4630
  622TMC3    C1 9262   2.479   1.625   9.661  0.3375  0.2737  0.0226
  622TMC3    C2 9263   2.535   1.675   9.778  0.0748 -0.1630  0.3503
  622TMC3    C3 9264   2.486   1.775   9.848 -0.5220 -1.1665  0.2639
  622TMC3    C4 9265   2.371   1.687   9.604  0.8795 -0.1527 -0.6362
  622TMC3    C5 9266   2.336   1.808   9.673  0.5375 -0.4478 -0.4018
  622TMC3    C6 9267   2.389   1.851   9.793  0.1736  0.5930 -0.2107
  622TMC3     C 9268   2.551   1.526   9.584 -0.0238  0.4008 -0.8078
  622TMC3     O 9269   2.491   1.476   9.492  0.1384 -0.7719  0.5720
  622TMC3     H 9270   2.630   1.638   9.815  0.3060  0.4662  0.3890
  622TMC3    H1 9271   2.317   1.654   9.516 -1.3833  1.5493  0.1301
  622TMC3    H2 9272   2.339   1.931   9.847 -2.1061  0.2090 -1.7689
  622TMC3    C7 9273   2.232   1.901   9.620 -0.4247 -0.0099  0.1431
  622TMC3    C8 9274   2.449   1.731   9.985  0.1120  0.1854 -0.2949
  622TMC3    O1 9275   2.161   1.957   9.704  0.1597 -0.0792 -0.2239
  622TMC3    O2 9276   2.481   1.615  10.017  0.0008  0.0045  0.2606
  623MPD2     C 9277   1.314   1.345  15.307  0.1968  0.4005 -0.3384
  623MPD2    C1 9278   1.307   1.449  15.394  0.5681  0.1355  0.6843
  623MPD2    C2 9279   1.411   1.536  15.404 -1.2168 -0.0666 -0.3214
  623MPD2    C3 9280   1.524   1.518  15.328  0.2389  0.3159  0.1430
  623MPD2    C4 9281   1.528   1.422  15.234  0.3205  0.6943 -0.2448
  623MPD2    C5 9282   1.425   1.327  15.231  0.2998  0.0582 -0.1413
  623MPD2     H 9283   1.409   1.617  15.477  0.9343  0.7355 -1.1461
  623MPD2    H1 9284   1.615   1.401  15.173  1.3404  1.0593  1.0714
  623MPD2    H2 9285   1.232   1.275  15.311  1.2689 -0.9353 -1.7307
  623MPD2    H3 9286   1.429   1.239  15.167  0.0388  0.6945 -1.0271
  623MPD2     N 9287   1.638   1.598  15.351  0.1787 -0.9346  0.5142
  623MPD2    H5 9288   1.632   1.651  15.438  3.0255 -0.4658  0.4139
  623MPD2    N1 9289   1.189   1.452  15.472 -0.5230  0.9308 -0.2955
  623MPD2    H7 9290   1.121   1.377  15.465  3.0675 -2.4950  2.1288
  624TMC3    C1 9291   1.947   1.729  15.565  0.0723 -0.1900  0.1038
  624TMC3    C2 9292   1.884   1.839  15.612  0.2310 -0.3742  0.3130
  624TMC3    C3 9293   1.767   1.870  15.543 -0.3930  0.3639 -0.3259
  624TMC3    C4 9294   1.922   1.664  15.445  0.4708 -0.0011  0.5700
  624TMC3    C5 9295   1.823   1.723  15.361  0.0558 -0.4348  0.1146
  624TMC3    C6 9296   1.738   1.814  15.422  0.3496 -0.9797 -0.0102
  624TMC3     C 9297   2.029   1.654  15.665 -0.7909  0.6749  0.5360
  624TMC3     O 9298   2.072   1.725  15.754 -0.0147 -0.3218 -0.2123
  624TMC3     H 9299   1.903   1.880  15.711 -3.8841  1.1402  0.4616
  624TMC3    H1 9300   1.969   1.576  15.403  0.1887 -0.0505  0.3560
  624TMC3    H2 9301   1.649   1.833  15.364  1.2131 -0.4870 -1.1706
  624TMC3    C7 9302   1.752   1.629  15.279  0.2600  0.5160 -0.0690
  624TMC3    C8 9303   1.662   1.825  15.634 -0.5125 -0.3465 -0.2448
  624TMC3    O1 9304   1.809   1.560  15.193  0.1954 -0.6988  0.2679
  624TMC3    O2 9305   1.580   1.754  15.586 -0.4553  0.0278  0.5956
  625MPD2     C 9306   2.431   2.684   0.561 -0.7482  0.0240  0.2991
  625MPD2    C1 9307   2.450   2.781   0.463 -0.2910 -0.0553 -0.0410
  625MPD2    C2 9308   2.576   2.825   0.435  0.2821 -0.0665  0.3684
  625MPD2    C3 9309   2.683   2.764   0.500 -0.1704 -0.1440 -0.2258
  625MPD2    C4 9310   2.665   2.660   0.582  0.7696  0.1268 -0.2339
  625MPD2    C5 9311   2.544   2.623   0.614  0.7069 -0.1673 -0.2498
  625MPD2     H 9312   2.597   2.906   0.366  1.4769  0.6139  1.5233
  625MPD2    H1 9313   2.745   2.616   0.641  0.5224  0.1497  0.1199
  625MPD2    H2 9314   2.333   2.649   0.591 -0.3208 -0.3418  1.2732
  625MPD2    H3 9315   2.534   2.544   0.687 -1.9651  1.1791  0.8465
  625MPD2     N 9316   2.815   2.802   0.464  0.1731  0.3944  1.2350
  625MPD2    H5 9317   2.828   2.858   0.380 -1.0450 -1.8030 -0.4307
  625MPD2    N1 9318   2.330   2.829   0.415  0.2856  0.4270 -0.4591
  625MPD2    H7 9319   2.247   2.784   0.453  2.0975 -2.4299  0.0982
  626TMC3    C1 9320   2.156   2.938   0.316  0.1757 -0.0726 -0.3682
  626TMC3    C2 9321   2.101   2.986   0.198 -0.6123 -0.4465  0.0060
  626TMC3    C3 9322   1.965   2.988   0.189 -0.2073  0.6489  0.1434
  626TMC3    C4 9323   2.086   2.901   0.426  0.1204  0.5579  0.1858
  626TMC3    C5 9324   1.947   2.901   0.415 -0.0406 -0.0558 -0.4642
  626TMC3    C6 9325   1.888   2.935   0.291 -0.8311 -0.9778  0.0367
  626TMC3     C 9326   2.302   2.924   0.319 -0.9446  0.2614 -1.1505
  626TMC3     O 9327   2.383   2.978   0.246 -0.1247 -0.1121  0.5432
  626TMC3     H 9328   2.170   3.014   0.119 -0.2251  0.6521  0.7285
  626TMC3    H1 9329   2.136   2.882   0.520  0.3161 -0.3435 -0.1047
  626TMC3    H2 9330   1.784   2.909   0.275 -1.0131 -0.4185  0.3026
  626TMC3    C7 9331   1.880   2.804   0.500  0.5453 -0.0907 -0.2755
  626TMC3    C8 9332   1.898   3.023   0.067 -0.4392  0.1182 -0.0813
  626TMC3    O1 9333   1.953   2.723   0.554 -0.3612  0.2812 -0.8017
  626TMC3    O2 9334   1.961   3.026  17.709  0.4594  0.4049  0.0654
  627MPD2     C 9335   0.384   3.089  14.261  0.6462 -0.3007 -0.0996
  627MPD2    C1 9336   0.473   3.048  14.369  0.0015 -0.2718 -0.8630
  627MPD2    C2 9337   0.429   2.935  14.445  0.0467  0.5051 -0.2077
  627MPD2    C3 9338   0.317   2.862  14.420 -0.1285 -0.2566 -0.1937
  627MPD2    C4 9339   0.232   2.909  14.323  0.2067  0.1431  0.0027
  627MPD2    C5 9340   0.274   3.011  14.240 -0.2027 -0.1623 -1.1935
  627MPD2     H 9341   0.493   2.902  14.526  2.0154  2.9105 -0.7772
  627MPD2    H1 9342   0.131   2.870  14.319  0.1528  0.3266 -0.4249
  627MPD2    H2 9343   0.390   3.171  14.190  0.4433 -0.9628 -0.8847
  627MPD2    H3 9344   0.206   3.043  14.162 -0.1371  0.5764 -0.9487
  627MPD2     N 9345   0.282   2.753  14.503  0.4148 -0.0040 -0.1803
  627MPD2    H5 9346   0.343   2.744  14.584 -1.1405  0.0358  1.0164
  627MPD2    N1 9347   0.600   3.112  14.386  0.1740 -0.2521  0.7682
  627MPD2    H7 9348   0.657   3.078  14.463  0.3902  0.3245  0.8614
  628TMC3    C1 9349   0.794   3.242  14.334 -0.3641 -0.9470 -0.1608
  628TMC3    C2 9350   0.872   3.154  14.395 -0.1340 -0.4256  0.0687
  628TMC3    C3 9351   1.010   3.174  14.377  0.1969  0.4876 -0.0730
  628TMC3    C4 9352   0.837   3.361  14.276  0.2363 -0.8200 -0.6309
  628TMC3    C5 9353   0.971   3.388  14.280 -0.2877 -0.2138 -0.3989
  628TMC3    C6 9354   1.057   3.286  14.314  0.4383  0.6165 -0.2386
  628TMC3     C 9355   0.657   3.206  14.303 -0.2013 -0.5013 -0.1585
  628TMC3     O 9356   0.603   3.272  14.218 -0.6230 -0.2379 -0.1072
  628TMC3     H 9357   0.832   3.062  14.435 -0.0387 -0.8337 -0.7678
  628TMC3    H1 9358   0.771   3.438  14.237  1.0476 -0.1455 -0.6642
  628TMC3    H2 9359   1.159   3.320  14.329  0.9899 -0.3806 -1.7358
  628TMC3    C7 9360   1.020   3.510  14.210 -0.5824 -1.1140 -0.1066
  628TMC3    C8 9361   1.102   3.097  14.452  0.2081 -0.3679 -0.3672
  628TMC3    O1 9362   1.131   3.550  14.244  0.1575  0.0080  0.4959
  628TMC3    O2 9363   1.058   3.031  14.544 -0.1380  0.0402  0.2981
  629MPD2     C 9364   3.466   2.165  16.207 -0.2106 -0.7447 -1.6268
  629MPD2    C1 9365   3.504   2.028  16.202  0.0839 -0.0588  0.0672
  629MPD2    C2 9366   3.420   1.927  16.150 -0.1250 -0.2518 -0.8981
  629MPD2    C3 9367   3.296   1.962  16.110  0.2289  0.0376 -0.3200
  629MPD2    C4 9368   3.255   2.098  16.114 -0.4066 -0.0313  0.1099
  629MPD2    C5 9369   3.337   2.196  16.168  0.1133  0.2017  0.3152
  629MPD2     H 9370   3.453   1.826  16.131  0.0962 -0.3546  0.0484
  629MPD2    H1 9371   3.151   2.119  16.091 -0.8704 -0.4600  1.7982
  629MPD2    H2 9372   3.530   2.248  16.235 -1.6270 -0.9405  2.3041
  629MPD2    H3 9373   3.303   2.299  16.161 -3.0962 -0.8690  0.0983
  629MPD2     N 9374   3.216   1.867  16.046  0.1409 -0.2717 -0.0825
  629MPD2    H5 9375   3.245   1.770  16.050  1.0646  0.0186  0.4699
  629MPD2    N1 9376   3.636   2.004  16.251 -0.1329 -0.6294  0.1214
  629MPD2    H7 9377   3.690   2.080  16.291 -1.7177 -0.3003  1.6337
  630TMC3    C1 9378   3.826   1.866  16.317 -0.3544 -0.0887 -0.3995
  630TMC3    C2 9379   3.911   1.977  16.297  0.4971  0.8644 -0.0640
  630TMC3    C3 9380   4.041   1.948  16.313  0.2372 -0.0314 -0.6698
  630TMC3    C4 9381   3.866   1.740  16.361 -0.3033  1.0687  0.0343
  630TMC3    C5 9382   3.997   1.723  16.373 -0.2441  0.1466  0.1995
  630TMC3    C6 9383   4.086   1.827  16.352  0.2114 -0.1954 -0.0480
  630TMC3     C 9384   3.683   1.874  16.276  0.5016  0.1437  0.6044
  630TMC3     O 9385   3.618   1.771  16.280  0.5637  0.3038  0.5188
  630TMC3     H 9386   3.883   2.081  16.283 -1.1080  0.7134  1.9947
  630TMC3    H1 9387   3.797   1.658  16.370 -0.1322  0.7731 -1.2356
  630TMC3    H2 9388   4.192   1.809  16.346 -0.0412 -1.5372 -0.4766
  630TMC3    C7 9389   4.043   1.606  16.450 -0.5213 -0.0810  0.2186
  630TMC3    C8 9390   4.140   2.046  16.276  0.2837 -0.5363 -0.9358
  630TMC3    O1 9391   3.965   1.515  16.453 -0.4719 -0.4052 -0.0899
  630TMC3    O2 9392   4.249   2.043  16.335  0.0919 -0.1615 -0.0753
  631MPD2     C 9393   2.121   1.273  15.178  0.1835 -0.2704  0.0739
  631MPD2    C1 9394   2.215   1.327  15.095  0.6634  0.2615 -0.0774
  631MPD2    C2 9395   2.331   1.252  15.068  0.1275  0.4385  0.5151
  631MPD2    C3 9396   2.353   1.131  15.122 -0.5467 -0.1280  0.6921
  631MPD2    C4 9397   2.251   1.081  15.201  0.6872  0.3487  0.3726
  631MPD2    C5 9398   2.144   1.155  15.232  0.1988 -0.7672  0.4549
  631MPD2     H 9399   2.406   1.285  14.997 -2.4498  1.9188 -1.5336
  631MPD2    H1 9400   2.256   0.986  15.253 -1.6134 -2.0241 -3.7988
  631MPD2    H2 9401   2.028   1.324  15.198  0.5186  0.5167 -0.3825
  631MPD2    H3 9402   2.070   1.118  15.302  1.7582 -1.2473  1.8497
  631MPD2     N 9403   2.484   1.074  15.118 -0.3117  0.2805  0.1332
  631MPD2    H5 9404   2.548   1.121  15.054 -2.0194  0.8447 -1.1858
  631MPD2    N1 9405   2.193   1.461  15.048  0.5906  0.5887  1.0420
  631MPD2    H7 9406   2.120   1.519  15.087  2.5790  3.2922  0.7191
  632TMC3    C1 9407   2.214   1.636  14.886  0.4432  0.5683  0.1758
  632TMC3    C2 9408   2.141   1.719  14.965  0.1373 -0.2990 -0.3207
  632TMC3    C3 9409   2.071   1.818  14.904  0.6287  0.1712  0.4853
  632TMC3    C4 9410   2.223   1.658  14.752 -0.3200  0.4680  0.1132
  632TMC3    C5 9411   2.141   1.754  14.694 -0.1121 -0.0698  0.7290
  632TMC3    C6 9412   2.056   1.830  14.766  0.6874  0.4698 -0.1046
  632TMC3     C 9413   2.259   1.507  14.933 -0.2807  0.2913  0.2268
  632TMC3     O 9414   2.336   1.460  14.856  0.5479 -0.4396 -0.0122
  632TMC3     H 9415   2.143   1.706  15.073  0.5713  2.2981 -0.0135
  632TMC3    H1 9416   2.274   1.592  14.682  1.7077  1.3947  0.7180
  632TMC3    H2 9417   1.984   1.903  14.732  0.6497  0.1200 -0.7685
  632TMC3    C7 9418   2.135   1.757  14.549  0.1646 -0.2542  0.5936
  632TMC3    C8 9419   1.989   1.906  14.989  0.3519 -0.3185 -0.0903
  632TMC3    O1 9420   2.245   1.711  14.500 -0.1411 -1.0742 -0.2568
  632TMC3    O2 9421   1.897   1.975  14.945 -0.3261  0.0236  0.1867
  633MPD2     C 9422   1.485   4.318  17.151  0.5678  0.4011  0.5054
  633MPD2    C1 9423   1.504   4.279  17.024  0.2063 -0.5049 -0.2537
  633MPD2    C2 9424   1.479   4.150  16.981 -0.5758  0.5275  0.4852
  633MPD2    C3 9425   1.423   4.063  17.074  0.1684  0.4037 -0.3558
  633MPD2    C4 9426   1.410   4.099  17.208  0.9579  0.1053 -0.3020
  633MPD2    C5 9427   1.444   4.225  17.243 -0.6981 -0.7437  0.5010
  633MPD2     H 9428   1.475   4.127  16.875 -3.0762 -0.5808  0.8259
  633MPD2    H1 9429   1.371   4.029  17.282  0.0489  1.3900  0.4427
  633MPD2    H2 9430   1.502   4.418  17.189  0.4840  0.8079 -0.5244
  633MPD2    H3 9431   1.429   4.257  17.346 -1.2051 -0.8143  0.4479
  633MPD2     N 9432   1.394   3.925  17.058 -0.1436  0.2963 -0.7557
  633MPD2    H5 9433   1.357   3.872  17.136 -0.4696 -1.4984 -2.1290
  633MPD2    N1 9434   1.553   4.362  16.924  0.2166  0.6724  0.0048
  633MPD2    H7 9435   1.570   4.324  16.831 -1.7710 -0.4471  0.0990
  634TMC3    C1 9436   1.679   4.531  16.822 -0.0474 -0.8723  0.1055
  634TMC3    C2 9437   1.755   4.439  16.757  0.4369  0.1106 -0.0180
  634TMC3    C3 9438   1.842   4.482  16.663  0.2638 -0.1827 -0.1290
  634TMC3    C4 9439   1.698   4.666  16.798  0.1371  0.2085  0.0574
  634TMC3    C5 9440   1.769   4.705  16.689 -0.6204  0.1384 -0.9855
  634TMC3    C6 9441   1.844   4.611  16.621 -0.0269 -0.1157  0.4866
  634TMC3     C 9442   1.605   4.488  16.936 -0.0665  0.0710  0.8469
  634TMC3     O 9443   1.605   4.559  17.035  0.2914 -0.1814 -0.2816
  634TMC3     H 9444   1.752   4.334  16.784 -2.1263  0.8651  2.6299
  634TMC3    H1 9445   1.637   4.733  16.858 -0.6805  0.8398 -1.4794
  634TMC3    H2 9446   1.889   4.643  16.527  0.6469 -1.0624  0.4918
  634TMC3    C7 9447   1.725   0.078  16.607  1.0678 -0.1457  0.1861
  634TMC3    C8 9448   1.882   4.373  16.578 -0.6189  0.1071 -0.1133
  634TMC3    O1 9449   1.740   0.069  16.488 -0.6240  0.1632 -0.0624
  634TMC3    O2 9450   1.850   4.257  16.604 -0.0401  0.1222 -0.7423
  635TMC3    C1 9451   1.385   0.735  17.300 -0.1516  0.2418 -0.5728
  635TMC3    C2 9452   1.434   0.682  17.412 -0.5209  0.0171 -0.2620
  635TMC3    C3 9453   1.360   0.672  17.519  0.2387  0.2124 -0.2053
  635TMC3    C4 9454   1.262   0.789  17.289  0.2035  0.1364 -0.4936
  635TMC3    C5 9455   1.187   0.783  17.408  0.2375 -0.0608  0.4569
  635TMC3    C6 9456   1.232   0.722  17.521  0.0649  0.5137  0.7748
  635TMC3     C 9457   1.461   0.751  17.179 -0.1124  0.4422 -0.0291
  635TMC3     O 9458   1.398   0.755  17.077 -0.2831 -0.2582 -0.1324
  635TMC3     H 9459   1.533   0.637  17.414  0.2081  1.5913 -0.4521
  635TMC3    H1 9460   1.227   0.839  17.199 -3.4634 -1.5364 -0.0252
  635TMC3    H2 9461   1.170   0.726  17.610  3.0386 -1.4641  2.9328
  635TMC3    C7 9462   1.041   0.799  17.390 -0.1031 -1.1303  0.3204
  635TMC3    C8 9463   1.426   0.619  17.637  0.4715  0.0031  0.5164
  635TMC3    O1 9464   1.008   0.874  17.299 -0.0813  0.3835 -0.6457
  635TMC3    O2 9465   1.550   0.616  17.636  0.0537 -0.0132  0.2978
  636MPD2     C 9466   3.083   4.509  15.457 -0.0072 -0.6084 -0.7097
  636MPD2    C1 9467   3.098   4.497  15.594  0.2103  0.4112 -0.1814
  636MPD2    C2 9468   3.174   4.397  15.658 -0.5312  0.2194  0.3475
  636MPD2    C3 9469   3.225   4.293  15.579  0.5198 -0.0225  0.3115
  636MPD2    C4 9470   3.207   4.301  15.441  0.1827  0.1167 -0.9105
  636MPD2    C5 9471   3.128   4.399  15.384  0.0914  0.1894  0.1188
  636MPD2     H 9472   3.181   4.400  15.766  0.2909  0.5930  0.2827
  636MPD2    H1 9473   3.259   4.240  15.368  2.0117 -1.7773  1.9450
  636MPD2    H2 9474   3.034   4.594  15.410 -0.8700 -0.9935 -0.5093
  636MPD2    H3 9475   3.115   4.399  15.277 -0.4378 -2.0374  0.1873
  636MPD2     N 9476   3.285   4.183  15.639 -0.1315  0.7771  0.4247
  636MPD2    H5 9477   3.322   4.200  15.732 -2.1525 -0.0515  1.3840
  636MPD2    N1 9478   3.057   4.595  15.688 -0.3099 -0.4258  0.0166
  636MPD2    H7 9479   3.086   4.584  15.785 -0.0952  1.2398  0.1413
  637TMC3    C1 9480   3.406   3.984  15.670 -0.3022 -0.1426  0.5855
  637TMC3    C2 9481   3.373   3.984  15.805  0.4290  0.1183 -0.4976
  637TMC3    C3 9482   3.469   3.936  15.896 -0.2118  0.2817 -0.2336
  637TMC3    C4 9483   3.535   3.943  15.626  0.1368  0.7422 -0.5580
  637TMC3    C5 9484   3.629   3.922  15.729  0.1221 -0.2874 -0.1560
  637TMC3    C6 9485   3.593   3.906  15.858  0.3514  0.4428 -0.1233
  637TMC3     C 9486   3.331   4.067  15.579 -0.0593 -0.2591 -0.0827
  637TMC3     O 9487   3.355   4.043  15.459 -0.6475  0.1070 -0.0844
  637TMC3     H 9488   3.275   4.017  15.837  0.8446  2.2189 -1.4007
  637TMC3    H1 9489   3.564   3.938  15.522  0.2670  1.3995 -0.5501
  637TMC3    H2 9490   3.659   3.865  15.934 -2.7199 -1.3809  1.5685
  637TMC3    C7 9491   3.762   3.988  15.715 -0.5884 -0.1511  0.0329
  637TMC3    C8 9492   3.463   4.024  16.009 -0.1739 -0.2291  0.0887
  637TMC3    O1 9493   3.814   4.018  15.819  0.1019  0.6344  0.1506
  637TMC3    O2 9494   3.393   4.119  15.992 -0.2566  0.1112  0.2771
  638MPD2     C 9495   3.212   3.461  14.506  0.1766  0.1566  0.4649
  638MPD2    C1 9496   3.187   3.331  14.449  0.0174 -0.7848  0.2455
  638MPD2    C2 9497   3.158   3.225  14.528  0.5319  0.3582 -0.3857
  638MPD2    C3 9498   3.150   3.237  14.656 -0.1895  0.0845 -0.4046
  638MPD2    C4 9499   3.171   3.363  14.718  0.4470 -0.2969  0.0379
  638MPD2    C5 9500   3.204   3.477  14.642  0.2014  0.3385  0.0075
  638MPD2     H 9501   3.159   3.124  14.491 -0.7055 -0.6177  2.2683
  638MPD2    H1 9502   3.165   3.382  14.825  1.1209 -1.1599  0.2332
  638MPD2    H2 9503   3.234   3.551  14.448  3.2157 -0.9560 -0.0910
  638MPD2    H3 9504   3.214   3.574  14.687 -1.2686  0.4243  0.1709
  638MPD2     N 9505   3.130   3.119  14.729 -0.1922  0.0803 -0.1497
  638MPD2    H5 9506   3.098   3.041  14.673 -0.5802  0.8630 -1.0010
  638MPD2    N1 9507   3.214   3.308  14.312 -0.6807  0.7235 -0.6582
  638MPD2    H7 9508   3.255   3.384  14.258 -1.3687  0.9433 -0.8703
  639TMC3    C1 9509   3.103   2.967  14.908  0.2056 -0.4416 -0.0076
  639TMC3    C2 9510   2.987   2.914  14.855 -0.5382  0.0962 -0.5113
  639TMC3    C3 9511   2.921   2.809  14.911  0.4567 -0.0338 -0.1195
  639TMC3    C4 9512   3.147   2.913  15.024  0.2248 -0.2096 -0.4688
  639TMC3    C5 9513   3.094   2.796  15.071 -0.8985 -0.4900  0.7048
  639TMC3    C6 9514   2.970   2.754  15.027 -0.3163  0.6416 -0.4728
  639TMC3     C 9515   3.147   3.101  14.867  0.1853  0.5420 -0.2041
  639TMC3     O 9516   3.197   3.177  14.949  0.5942 -0.1061  0.9483
  639TMC3     H 9517   2.947   2.965  14.768 -2.2827  0.4178  0.4681
  639TMC3    H1 9518   3.218   2.967  15.085 -0.4382  1.1814 -0.9154
  639TMC3    H2 9519   2.922   2.667  15.071 -0.0961  1.1816  0.8141
  639TMC3    C7 9520   3.185   2.686  15.053 -0.7479 -0.7121 -0.1732
  639TMC3    C8 9521   2.826   2.730  14.834  0.3208 -0.6234  0.5025
  639TMC3    O1 9522   3.139   2.584  15.007 -0.3912  0.3810 -0.2204
  639TMC3    O2 9523   2.866   2.684  14.728 -0.7499 -0.2030 -0.0266
  640MPD2     C 9524   3.358   2.455   9.788  0.0919  0.1946  0.1368
  640MPD2    C1 9525   3.225   2.410   9.790  0.0461 -0.1979  0.5480
  640MPD2    C2 9526   3.139   2.465   9.882  0.1711  0.3793 -0.3519
  640MPD2    C3 9527   3.180   2.579   9.947 -0.0594 -0.2298  0.6198
  640MPD2    C4 9528   3.301   2.627   9.942 -0.0057  0.4338 -0.2398
  640MPD2    C5 9529   3.393   2.561   9.865  0.0926  0.7176 -0.0672
  640MPD2     H 9530   3.035   2.435   9.886  1.0183 -2.7490 -1.5486
  640MPD2    H1 9531   3.335   2.720   9.987  0.1886  0.2127  0.0739
  640MPD2    H2 9532   3.431   2.391   9.739  0.6686 -1.5976  3.3612
  640MPD2    H3 9533   3.494   2.601   9.874  0.4259 -0.2970  0.6695
  640MPD2     N 9534   3.099   2.642  10.044 -0.1338 -0.1718  0.4018
  640MPD2    H5 9535   3.147   2.716  10.095  0.4164 -0.7679  0.7570
  640MPD2    N1 9536   3.195   2.306   9.709 -0.9267 -0.4674 -0.1768
  640MPD2    H7 9537   3.261   2.280   9.636 -0.7230  0.2425 -0.2423
  641TMC3    C1 9538   3.056   2.180   9.565  0.3798 -0.0010  0.3797
  641TMC3    C2 9539   3.162   2.096   9.537  0.4499  0.0686 -0.2586
  641TMC3    C3 9540   3.150   2.039   9.410  0.1830 -0.3651 -0.2879
  641TMC3    C4 9541   2.945   2.209   9.486  0.3827 -0.6274  0.0148
  641TMC3    C5 9542   2.941   2.141   9.364 -0.3047  0.3589 -0.2837
  641TMC3    C6 9543   3.044   2.055   9.326 -0.3336  0.1389 -0.0982
  641TMC3     C 9544   3.061   2.258   9.690 -0.5332  0.5921  0.5632
  641TMC3     O 9545   2.954   2.293   9.735  0.4516 -0.2386 -0.5832
  641TMC3     H 9546   3.239   2.067   9.607  0.4296 -0.3800 -0.4177
  641TMC3    H1 9547   2.866   2.279   9.509 -0.8617 -1.6080 -1.2783
  641TMC3    H2 9548   3.043   2.014   9.226 -3.7385 -0.1811  0.0323
  641TMC3    C7 9549   2.823   2.156   9.282 -0.5697  0.3742 -0.7401
  641TMC3    C8 9550   3.249   1.934   9.371 -0.4591 -0.5577  0.4148
  641TMC3    O1 9551   2.763   2.264   9.301 -0.4799 -0.5732  0.0543
  641TMC3    O2 9552   3.217   1.869   9.268  0.4058  0.0724 -0.1852
  642TMC3    C1 9553   4.557   2.759  12.657 -0.2645 -0.5574  0.0195
  642TMC3    C2 9554   4.576   2.773  12.796  0.7202 -0.0829 -0.1780
  642TMC3    C3 9555   4.497   2.690  12.874 -0.9508 -0.2014 -0.2645
  642TMC3    C4 9556   4.478   2.664  12.603  0.8222  0.1676 -0.8247
  642TMC3    C5 9557   4.424   2.564  12.683 -0.2676  0.0487 -0.0040
  642TMC3    C6 9558   4.417   2.587  12.822 -0.0092  0.0167  0.3390
  642TMC3     C 9559   4.586   2.879  12.579 -0.3259  0.4567  0.7705
  642TMC3     O 9560   4.692   2.936  12.608 -0.3016  0.0700 -0.7193
  642TMC3     H 9561   4.636   2.853  12.838  0.5330 -1.1476  2.0635
  642TMC3    H1 9562   4.474   2.653  12.495 -1.4846  0.9293 -0.8020
  642TMC3    H2 9563   4.335   2.545  12.878 -1.0801 -0.6109 -1.6830
  642TMC3    C7 9564   4.328   2.477  12.612  0.4427  0.3384 -0.1101
  642TMC3    C8 9565   4.453   2.741  13.006  0.2756 -0.3917 -0.4755
  642TMC3    O1 9566   4.278   2.511  12.505 -0.3612 -0.2587  0.5291
  642TMC3    O2 9567   4.341   2.708  13.040  0.1121  0.3382  0.2314
  643TMC3    C1 9568   3.770   2.292  17.745 -0.7008 -0.4711 -0.8138
  643TMC3    C2 9569   3.648   2.269  17.706  0.4595 -0.0700 -0.3332
  643TMC3    C3 9570   3.627   2.227  17.579  0.6786  0.5816  0.0062
  643TMC3    C4 9571   3.885   2.262  17.677  0.4139  0.1626 -0.2537
  643TMC3    C5 9572   3.867   2.199  17.561 -0.2757 -0.0873 -0.3783
  643TMC3    C6 9573   3.737   2.178  17.507 -0.5035 -0.6883 -0.1047
  643TMC3     C 9574   3.785   2.416   0.074  0.0609 -0.6451 -0.2106
  643TMC3     O 9575   3.734   2.513   0.023  0.4546  0.6038  0.1651
  643TMC3     H 9576   3.566   2.321   0.008  2.3866  1.4416  1.2917
  643TMC3    H1 9577   3.985   2.278  17.716 -0.7985  3.2943  1.5968
  643TMC3    H2 9578   3.728   2.139  17.406  1.4878 -0.4187 -0.3849
  643TMC3    C7 9579   3.963   2.248  17.470 -0.8470  0.4088  0.7148
  643TMC3    C8 9580   3.537   2.307  17.493  0.4020  0.8461  0.6435
  643TMC3    O1 9581   4.037   2.343  17.500  0.6996 -0.0826  0.1417
  643TMC3    O2 9582   3.503   2.250  17.390  0.4415 -0.7117  0.0052
  644MPD2     C 9583   2.812   1.487   8.635  0.4261  0.7170  0.3999
  644MPD2    C1 9584   2.938   1.531   8.680  0.8726 -0.1457  0.0877
  644MPD2    C2 9585   2.953   1.667   8.711  0.3263  0.0271 -0.2338
  644MPD2    C3 9586   2.855   1.763   8.684 -0.2511 -0.1784 -0.2964
  644MPD2    C4 9587   2.745   1.718   8.610 -0.1116 -0.2585  0.2743
  644MPD2    C5 9588   2.716   1.583   8.595  0.0358 -0.3127  0.5318
  644MPD2     H 9589   3.040   1.706   8.762 -0.3753  1.3815 -0.0654
  644MPD2    H1 9590   2.671   1.786   8.570  0.3017 -1.1827 -2.0698
  644MPD2    H2 9591   2.796   1.382   8.617 -0.0746  0.6310  1.3851
  644MPD2    H3 9592   2.622   1.553   8.551  0.0396  1.6673 -0.8298
  644MPD2     N 9593   2.869   1.897   8.729 -0.6398 -0.1475  0.2414
  644MPD2    H5 9594   2.956   1.915   8.778 -0.0269 -1.1592 -0.4664
  644MPD2    N1 9595   3.034   1.430   8.718 -0.4918  0.2436 -0.9013
  644MPD2    H7 9596   3.017   1.338   8.679  0.2665 -0.2619  0.0049
  645TMC3    C1 9597   2.857   2.127   8.740 -0.3283 -0.4934 -0.5593
  645TMC3    C2 9598   2.770   2.232   8.716 -0.1318  0.0168 -0.5863
  645TMC3    C3 9599   2.806   2.349   8.776 -0.1471 -0.0547  0.2999
  645TMC3    C4 9600   2.943   2.124   8.846 -0.3422 -0.1152 -0.5671
  645TMC3    C5 9601   2.968   2.243   8.913  0.2438 -0.6549  0.4408
  645TMC3    C6 9602   2.910   2.358   8.864  0.6316 -0.8833 -0.2621
  645TMC3     C 9603   2.789   2.007   8.697 -0.3548  0.3499  0.5213
  645TMC3     O 9604   2.679   2.011   8.631  0.1626  0.3196  0.1813
  645TMC3     H 9605   2.698   2.237   8.635 -1.5377 -0.6571  0.6178
  645TMC3    H1 9606   2.987   2.040   8.897  2.5662  1.9434  0.2987
  645TMC3    H2 9607   2.942   2.456   8.898 -1.1586  0.1262 -1.4068
  645TMC3    C7 9608   3.080   2.249   9.000 -0.4773 -0.4913  0.0522
  645TMC3    C8 9609   2.734   2.466   8.723 -0.0231 -1.0133 -0.0544
  645TMC3    O1 9610   3.180   2.178   8.983 -0.2691  0.1661 -0.1921
  645TMC3    O2 9611   2.671   2.459   8.622  0.0311  0.1007  0.0228
  646MPD2     C 9612   3.234   1.937  14.434  1.0387 -0.3450  0.1150
  646MPD2    C1 9613   3.149   1.937  14.543  0.5875  1.1865 -0.0951
  646MPD2    C2 9614   3.026   2.001  14.532 -0.2008  0.0135 -0.1358
  646MPD2    C3 9615   2.990   2.060  14.415 -1.0288 -0.5291  0.2584
  646MPD2    C4 9616   3.081   2.077  14.319 -0.6691 -0.0841  0.0905
  646MPD2    C5 9617   3.204   2.018  14.326 -0.0977 -0.4389 -0.0653
  646MPD2     H 9618   2.957   1.995  14.615  0.2720  1.6498  0.3645
  646MPD2    H1 9619   3.056   2.114  14.220 -2.1208 -1.8824 -0.2278
  646MPD2    H2 9620   3.323   1.875  14.426 -0.3310 -2.1574 -0.8413
  646MPD2    H3 9621   3.272   2.023  14.241 -1.6858  2.6476 -1.1408
  646MPD2     N 9622   2.855   2.100  14.398  0.5645  0.4106 -0.1352
  646MPD2    H5 9623   2.793   2.090  14.478  1.2616 -2.4050  0.0760
  646MPD2    N1 9624   3.188   1.849  14.646  0.6471  0.4068  0.3331
  646MPD2    H7 9625   3.269   1.789  14.630 -1.6975 -2.2758 -1.5516
  647TMC3    C1 9626   3.190   1.734  14.849 -0.2082  0.1549 -0.7250
  647TMC3    C2 9627   3.158   1.609  14.814 -0.4246  1.0622  0.2897
  647TMC3    C3 9628   3.188   1.513  14.904  0.3333 -0.1075  0.9942
  647TMC3    C4 9629   3.249   1.774  14.967 -0.5549  0.7091  0.1729
  647TMC3    C5 9630   3.282   1.673  15.057 -0.1659  0.5738  0.1153
  647TMC3    C6 9631   3.243   1.544  15.028  0.6562  0.5650  0.6041
  647TMC3     C 9632   3.124   1.839  14.768 -0.7042 -0.0024 -0.2196
  647TMC3     O 9633   3.043   1.910  14.829  0.0995  0.3826  0.2794
  647TMC3     H 9634   3.100   1.591  14.724  0.4796  0.5503 -0.2009
  647TMC3    H1 9635   3.265   1.878  14.990  1.0591 -0.0618  2.5154
  647TMC3    H2 9636   3.272   1.456  15.085 -1.9646  0.3006  1.5102
  647TMC3    C7 9637   3.387   1.689  15.155  0.0760  0.1034 -0.4905
  647TMC3    C8 9638   3.160   1.370  14.883  0.6359 -0.0688 -0.4154
  647TMC3    O1 9639   3.441   1.581  15.195  0.5701  0.0969 -0.0461
  647TMC3    O2 9640   3.188   1.286  14.967  0.1467  0.1503 -0.3059
  648TMC3    C1 9641   2.406   4.290  15.950  0.6278 -0.0545 -0.9525
  648TMC3    C2 9642   2.469   4.185  15.897 -0.0304  0.1826 -0.5998
  648TMC3    C3 9643   2.442   4.152  15.773  0.3699  0.2721  0.3636
  648TMC3    C4 9644   2.322   4.368  15.874  0.6269 -0.1443  0.0314
  648TMC3    C5 9645   2.321   4.352  15.741  0.6321  0.0162  0.5011
  648TMC3    C6 9646   2.385   4.240  15.686 -0.2823 -0.1795 -0.3039
  648TMC3     C 9647   2.402   4.318  16.095  0.4004 -0.6191 -0.2982
  648TMC3     O 9648   2.421   4.431  16.134  0.5544 -0.7092 -0.3015
  648TMC3     H 9649   2.528   4.122  15.962  0.2637  0.9924 -0.0766
  648TMC3    H1 9650   2.248   4.433  15.918  0.3013 -1.1883  1.0379
  648TMC3    H2 9651   2.375   4.215  15.581 -2.1878 -2.4620  0.4257
  648TMC3    C7 9652   2.255   4.444  15.653 -0.6442  0.2301  0.3906
  648TMC3    C8 9653   2.513   4.046  15.709  0.5354  0.0084  0.3995
  648TMC3    O1 9654   2.268   4.422  15.534  0.2636 -0.2241  0.1125
  648TMC3    O2 9655   2.616   4.009  15.768  0.7787  0.1144 -0.3616
  649TMC3    C1 9656   1.572   0.738  13.365 -0.6884  0.0230  0.5271
  649TMC3    C2 9657   1.684   0.663  13.330 -0.5881 -0.2082  0.4038
  649TMC3    C3 9658   1.685   0.535  13.382 -0.1876  0.7439 -0.1718
  649TMC3    C4 9659   1.462   0.677  13.416 -0.3589  0.2600  0.8656
  649TMC3    C5 9660   1.462   0.544  13.447 -0.2159  0.0791  0.3288
  649TMC3    C6 9661   1.577   0.470  13.436  0.2421 -0.9229  0.9554
  649TMC3     C 9662   1.546   0.857  13.285  0.0789  1.0947 -0.1549
  649TMC3     O 9663   1.473   0.944  13.329  0.2881  0.0421  0.7552
  649TMC3     H 9664   1.772   0.703  13.282 -1.0196  2.4658  1.8158
  649TMC3    H1 9665   1.369   0.734  13.417  0.1030  1.0185  0.6420
  649TMC3    H2 9666   1.576   0.362  13.442  1.3833 -0.9516  0.7358
  649TMC3    C7 9667   1.350   0.492  13.518  0.2320 -0.1098 -0.7388
  649TMC3    C8 9668   1.805   0.457  13.340  0.1228  0.0930  1.0011
  649TMC3    O1 9669   1.282   0.573  13.572  0.4517  0.1505 -0.0701
  649TMC3    O2 9670   1.877   0.495  13.247  0.4581 -0.2965  0.0321
  650TMC3    C1 9671   3.689   2.328  12.526  0.3986  0.0088 -0.0793
  650TMC3    C2 9672   3.607   2.440  12.542  0.4556 -0.0136 -0.1714
  650TMC3    C3 9673   3.642   2.547  12.460 -0.2325 -0.0667  0.0504
  650TMC3    C4 9674   3.787   2.316  12.432 -0.1641  0.8303  1.0533
  650TMC3    C5 9675   3.811   2.419  12.350  0.5636 -0.3863  0.2867
  650TMC3    C6 9676   3.730   2.531  12.360  0.2654 -0.1482  0.0049
  650TMC3     C 9677   3.663   2.229  12.631 -0.5362 -0.5413  0.8681
  650TMC3     O 9678   3.599   2.266  12.731  0.2835  0.2082 -0.3435
  650TMC3     H 9679   3.543   2.457  12.628  0.7596 -0.1885  0.0925
  650TMC3    H1 9680   3.833   2.219  12.417  0.1690  0.8257  2.1111
  650TMC3    H2 9681   3.740   2.609  12.285  0.0765  0.8822  1.0597
  650TMC3    C7 9682   3.916   2.413  12.250  0.7498  0.8047  0.0345
  650TMC3    C8 9683   3.604   2.680  12.502  0.0810  0.3076 -0.1761
  650TMC3    O1 9684   3.951   2.309  12.202 -0.1082 -0.4843  0.1035
  650TMC3    O2 9685   3.629   2.769  12.423  0.2958  0.0750  0.2086
  651MPD2     C 9686   2.431   4.029  10.360  0.1221  0.3433  0.4749
  651MPD2    C1 9687   2.411   4.149  10.300  0.2713  0.3221  0.0539
  651MPD2    C2 9688   2.500   4.251  10.324 -1.0024  0.2042  1.0381
  651MPD2    C3 9689   2.598   4.236  10.424 -0.0550  0.1356 -0.3824
  651MPD2    C4 9690   2.612   4.115  10.485 -0.1935  0.5856  0.2837
  651MPD2    C5 9691   2.534   4.012  10.453  0.4406  0.2133 -0.2065
  651MPD2     H 9692   2.483   4.344  10.271  0.3006 -0.8229 -1.1862
  651MPD2    H1 9693   2.682   4.104  10.568 -1.8864 -0.1056  1.6125
  651MPD2    H2 9694   2.369   3.940  10.347 -0.4053  0.5758  1.4013
  651MPD2    H3 9695   2.552   3.923  10.512 -2.6675  0.0075  0.4004
  651MPD2     N 9696   2.693   4.339  10.444 -0.8201  0.1849 -0.3549
  651MPD2    H5 9697   2.668   4.420  10.388 -2.5206  2.6320  3.8852
  651MPD2    N1 9698   2.300   4.183  10.228  0.1452 -0.0116  0.1621
  651MPD2    H7 9699   2.281   4.282  10.213 -0.6551 -0.2807 -0.6189
  652TMC3    C1 9700   3.113   4.541  10.545  0.2639  0.1895  0.5107
  652TMC3    C2 9701   3.021   4.444  10.578  0.5794 -0.1134 -1.1455
  652TMC3    C3 9702   2.891   4.461  10.529  0.4898 -0.0527  0.1289
  652TMC3    C4 9703   3.078   4.648  10.470 -0.2020  0.4349  0.4274
  652TMC3    C5 9704   2.944   4.655  10.421 -0.8922  0.1005  0.0452
  652TMC3    C6 9705   2.851   4.566  10.453  0.3024 -0.3698  0.5395
  652TMC3     C 9706   3.258   4.517  10.583 -0.0636  0.3949 -0.3818
  652TMC3     O 9707   3.273   4.438  10.677 -0.4619 -0.2033 -0.2236
  652TMC3     H 9708   3.042   4.349  10.626  0.2530  0.8015  0.7918
  652TMC3    H1 9709   3.152   4.724  10.449 -1.1158  0.9352 -0.9012
  652TMC3    H2 9710   2.754   4.566  10.404  0.3569 -1.2844  0.4362
  652TMC3    C7 9711   2.897   0.023  10.331 -0.0728  0.0801  0.4905
  652TMC3    C8 9712   2.798   4.344  10.538 -1.0883  0.0824 -0.0328
  652TMC3    O1 9713   2.786   4.735  10.282 -0.6524 -0.2244  0.4306
  652TMC3    O2 9714   2.807   4.277  10.636  0.1989 -0.6266  0.0777
  653MPD2     C 9715   1.364   4.276  17.711 -0.3476  0.7500  0.0140
  653MPD2    C1 9716   1.325   4.350  17.598 -0.1724  0.2091 -0.0354
  653MPD2    C2 9717   1.233   4.293  17.507  0.1396  0.1105 -0.2417
  653MPD2    C3 9718   1.208   4.156  17.510 -0.3826  0.2082 -0.3912
  653MPD2    C4 9719   1.251   4.087  17.622  0.4561  0.2138 -0.2730
  653MPD2    C5 9720   1.326   4.147  17.715 -0.1740  0.1847  0.4149
  653MPD2     H 9721   1.199   4.352  17.422  1.4547  0.6030 -0.4233
  653MPD2    H1 9722   1.222   3.984  17.641  2.4336 -0.5139 -1.1261
  653MPD2    H2 9723   1.427   4.315   0.043 -0.1204  1.1111 -0.3522
  653MPD2    H3 9724   1.348   4.092   0.060  0.9531 -0.1415 -0.0590
  653MPD2     N 9725   1.129   4.100  17.416 -0.1812 -0.6647 -0.5062
  653MPD2    H5 9726   1.103   4.164  17.342  0.1347 -0.9915 -0.9030
  653MPD2    N1 9727   1.376   4.475  17.581  0.6085  0.3170 -0.2410
  653MPD2    H7 9728   1.434   4.510  17.656 -1.9546  0.2371  1.8053
  654TMC3    C1 9729   0.986   3.952  17.296 -0.2302  0.1681 -0.0729
  654TMC3    C2 9730   0.898   4.052  17.276  0.5266 -0.2386 -1.0191
  654TMC3    C3 9731   0.801   4.036  17.183  0.1408  0.6991  0.2116
  654TMC3    C4 9732   0.968   3.825  17.234 -0.3130  0.1462  0.4428
  654TMC3    C5 9733   0.871   3.812  17.143  0.4462  0.1512 -0.5116
  654TMC3    C6 9734   0.784   3.915  17.117  0.6057 -0.5564  0.6727
  654TMC3     C 9735   1.085   3.971  17.400  0.3225 -0.7742  0.6030
  654TMC3     O 9736   1.111   3.879  17.470  0.5872  0.1254 -0.0404
  654TMC3     H 9737   0.912   4.151  17.317  1.4139 -1.2374  1.0738
  654TMC3    H1 9738   1.044   3.750  17.252 -1.5721 -0.6079  2.5573
  654TMC3    H2 9739   0.701   3.903  17.048 -0.5318  1.6982  1.6423
  654TMC3    C7 9740   0.889   3.719  17.032  0.0801 -0.3964  0.8910
  654TMC3    C8 9741   0.786   4.152  17.102  0.3321  0.3325 -0.5011
  654TMC3    O1 9742   0.818   3.743  16.935  0.5407 -0.5412 -0.1720
  654TMC3    O2 9743   0.747   4.256  17.150  0.1845 -0.5936 -0.7937
  655MPD2     C 9744   2.770   4.350  15.641  0.0177 -0.2107  0.1265
  655MPD2    C1 9745   2.704   4.441  15.558  0.3322 -0.1507  0.6709
  655MPD2    C2 9746   2.690   4.417  15.425 -0.0823 -0.1344 -0.1344
  655MPD2    C3 9747   2.738   4.298  15.366 -0.5798 -0.1199  1.0514
  655MPD2    C4 9748   2.813   4.216  15.447 -0.4708 -0.3453 -0.2638
  655MPD2    C5 9749   2.826   4.237  15.583  0.2641  0.1486 -0.3526
  655MPD2     H 9750   2.636   4.489  15.365 -1.7655  0.2326  1.8414
  655MPD2    H1 9751   2.865   4.130  15.405 -1.1646 -0.7538 -0.2835
  655MPD2    H2 9752   2.787   4.368  15.746 -1.7097  2.8333 -0.0994
  655MPD2    H3 9753   2.873   4.159  15.641  2.4344  0.9192 -1.0818
  655MPD2     N 9754   2.742   4.277  15.227 -0.4696 -0.1742  0.8173
  655MPD2    H5 9755   2.775   4.185  15.198  0.2703  1.0075 -2.0775
  655MPD2    N1 9756   2.644   4.558  15.609 -0.0398  0.4396 -0.1943
  655MPD2    H7 9757   2.599   4.616  15.539 -2.6115 -1.7342 -0.3366
  656TMC3    C1 9758   2.575   4.707  15.758 -0.6195 -0.0198  0.4678
  656TMC3    C2 9759   2.484   4.720  15.850 -0.1362 -0.2839  0.4689
  656TMC3    C3 9760   2.396   0.079  15.849 -0.5773  0.5005  0.1469
  656TMC3    C4 9761   2.583   0.064  15.652  0.0954 -0.3788 -0.1697
  656TMC3    C5 9762   2.490   0.167  15.657  0.5008  0.3634 -0.5456
  656TMC3    C6 9763   2.394   0.179  15.755 -0.3427 -0.5671 -0.0807
  656TMC3     C 9764   2.633   4.581  15.743  0.8173  0.4098 -0.1168
  656TMC3     O 9765   2.658   4.511  15.840  0.7199 -0.0315  0.0832
  656TMC3     H 9766   2.479   4.638  15.921  2.7022 -1.4511 -0.6858
  656TMC3    H1 9767   2.661   0.067  15.576 -0.0036  0.3700 -0.2428
  656TMC3    H2 9768   2.299   0.230  15.747 -0.4714 -0.5041  1.8878
  656TMC3    C7 9769   2.442   0.179  15.523 -0.2642 -0.0230  0.0716
  656TMC3    C8 9770   2.291   0.062  15.950 -0.1456  0.2931 -0.9567
  656TMC3    O1 9771   2.492   0.107  15.436  0.6166  0.0824  1.2048
  656TMC3    O2 9772   2.257   4.684  15.970  1.0686 -0.2622  0.1197
  657TMC3    C1 9773   1.838   3.786  14.381  0.1735  0.2007 -0.1841
  657TMC3    C2 9774   1.756   3.799  14.490  0.2684  0.1242 -0.2097
  657TMC3    C3 9775   1.654   3.889  14.487  0.9425  0.4982  0.0870
  657TMC3    C4 9776   1.823   3.868  14.269 -0.0934  0.3250 -0.1472
  657TMC3    C5 9777   1.720   3.955  14.274  0.4796  0.5052 -0.1171
  657TMC3    C6 9778   1.625   3.960  14.375  0.4134  0.5353  0.0726
  657TMC3     C 9779   1.910   3.665  14.369 -0.3765 -0.5969  0.6530
  657TMC3     O 9780   1.916   3.611  14.261  0.5897 -0.6301  0.1242
  657TMC3     H 9781   1.763   3.727  14.572 -1.2789  1.3791  1.0227
  657TMC3    H1 9782   1.898   3.851  14.192  0.4153 -3.2910  1.1419
  657TMC3    H2 9783   1.547   4.033  14.355 -0.4780  0.1533  2.1720
  657TMC3    C7 9784   1.712   4.050  14.171 -0.4020  0.6000  0.2424
  657TMC3    C8 9785   1.590   3.930  14.611  0.3001 -0.2477  0.2671
  657TMC3    O1 9786   1.597   4.093  14.141 -0.0987 -0.8543 -0.0397
  657TMC3    O2 9787   1.477   3.980  14.604 -0.0727  0.6385  0.1339
  658MPD2     C 9788   3.102   3.904  14.750  0.3030  0.3091 -0.0090
  658MPD2    C1 9789   3.026   4.005  14.699  0.3817 -0.4046  0.9659
  658MPD2    C2 9790   3.042   4.024  14.561 -0.4916  0.0148 -0.8088
  658MPD2    C3 9791   3.148   3.959  14.493  0.2333 -0.2731 -0.7647
  658MPD2    C4 9792   3.231   3.867  14.552  0.0317 -0.1733  0.9092
  658MPD2    C5 9793   3.201   3.836  14.679  0.3356  0.6278  0.1035
  658MPD2     H 9794   2.981   4.092  14.503 -1.6638 -0.3036  0.0636
  658MPD2    H1 9795   3.314   3.819  14.501  0.0597  1.0259 -0.1550
  658MPD2    H2 9796   3.090   3.872  14.853 -1.4414 -0.2753 -0.3952
  658MPD2    H3 9797   3.259   3.764  14.736 -1.8660 -0.1994  1.3040
  658MPD2     N 9798   3.160   4.001  14.361  0.5867 -0.4386  0.4404
  658MPD2    H5 9799   3.081   4.054  14.326  0.8609  0.2848  0.9189
  658MPD2    N1 9800   2.928   4.067  14.774  0.0346 -0.0476 -0.2711
  658MPD2    H7 9801   2.926   4.046  14.873 -3.1428 -1.0106 -0.5495
  659TMC3    C1 9802   2.718   4.185  14.812 -0.1326  0.3807 -0.0290
  659TMC3    C2 9803   2.749   4.207  14.942 -0.3992 -0.5168  0.3893
  659TMC3    C3 9804   2.659   4.288  15.008 -0.0916 -0.3689 -0.6143
  659TMC3    C4 9805   2.605   4.219  14.755 -0.1403 -0.2429  0.6231
  659TMC3    C5 9806   2.513   4.293  14.833 -0.6105  0.6768  0.4777
  659TMC3    C6 9807   2.545   4.332  14.959  0.7659  0.1731  0.4692
  659TMC3     C 9808   2.829   4.147  14.728  0.1663  0.1215 -0.3398
  659TMC3     O 9809   2.803   4.175  14.614  0.0354 -0.0841 -0.1750
  659TMC3     H 9810   2.850   4.183  14.972 -0.0668  0.9544  0.4619
  659TMC3    H1 9811   2.584   4.165  14.663 -3.0350  0.0629  1.0865
  659TMC3    H2 9812   2.479   4.387  15.025  1.6930  1.6149  0.2098
  659TMC3    C7 9813   2.388   4.330  14.778  0.2989 -0.2144  0.0468
  659TMC3    C8 9814   2.684   4.353  15.136  0.3102  0.0618  0.4442
  659TMC3    O1 9815   2.310   4.384  14.853  0.4186  0.2962 -0.7842
  659TMC3    O2 9816   2.648   4.470  15.148 -0.3664  0.3431 -0.1319
  660MPD2     C 9817   0.903   3.406  12.412  0.0448  0.3473  0.2166
  660MPD2    C1 9818   0.763   3.424  12.406 -0.1564 -1.3996  0.2355
  660MPD2    C2 9819   0.688   3.349  12.503  0.0186  0.7224 -0.0042
  660MPD2    C3 9820   0.753   3.253  12.583  0.0279 -0.5705 -0.1072
  660MPD2    C4 9821   0.891   3.242  12.582  0.0294  0.2070 -0.6315
  660MPD2    C5 9822   0.966   3.323  12.503 -0.4244  0.1276 -0.1450
  660MPD2     H 9823   0.580   3.360  12.510 -0.0779 -0.1230 -0.2091
  660MPD2    H1 9824   0.939   3.167  12.643 -0.0214  0.8746  0.2222
  660MPD2    H2 9825   0.961   3.461  12.339 -1.8621  0.8689 -0.9170
  660MPD2    H3 9826   1.074   3.317  12.496 -0.4918 -0.4449 -0.6874
  660MPD2     N 9827   0.681   3.172  12.673  0.0128  0.0768  0.9010
  660MPD2    H5 9828   0.733   3.091  12.704  1.7104 -0.2033 -2.6257
  660MPD2    N1 9829   0.709   3.493  12.298 -0.5837  0.6312 -0.2414
  660MPD2    H7 9830   0.773   3.531  12.228  0.5919  1.9793  1.5597
  661TMC3    C1 9831   0.537   3.632  12.192  1.2794 -0.4447 -0.2862
  661TMC3    C2 9832   0.598   3.623  12.064  0.1133 -0.3185 -0.7279
  661TMC3    C3 9833   0.529   3.652  11.949  0.1882  0.1544 -0.3554
  661TMC3    C4 9834   0.401   3.667  12.204  1.3192 -0.2337 -0.2722
  661TMC3    C5 9835   0.340   3.704  12.085  0.6698 -0.3182 -0.6727
  661TMC3    C6 9836   0.395   3.686  11.964  0.3189  0.8982 -0.0668
  661TMC3     C 9837   0.577   3.540  12.299 -0.8130 -0.3546 -0.0997
  661TMC3     O 9838   0.487   3.527  12.381 -0.1593  0.3918 -0.1786
  661TMC3     H 9839   0.700   3.589  12.052  0.8563  2.0549 -1.1350
  661TMC3    H1 9840   0.359   3.687  12.302  0.1484  0.0380 -0.8348
  661TMC3    H2 9841   0.329   3.702  11.879 -0.4422  1.1049  0.5719
  661TMC3    C7 9842   0.201   3.665  12.100  0.8432 -0.6708  0.1948
  661TMC3    C8 9843   0.599   3.673  11.824 -0.5825  0.5128  0.3590
  661TMC3    O1 9844   0.131   3.744  12.160  0.1910 -0.0960  1.0498
  661TMC3    O2 9845   0.721   3.667  11.818  0.6144 -0.6120  0.1273
  662MPD2     C 9846   0.701   3.375  16.842 -0.2507  0.4401  0.5775
  662MPD2    C1 9847   0.740   3.315  16.964  0.5970 -0.3240  0.3210
  662MPD2    C2 9848   0.721   3.376  17.088 -0.1879  0.8396 -0.1603
  662MPD2    C3 9849   0.638   3.485  17.096  0.4028  0.0769  0.8107
  662MPD2    C4 9850   0.591   3.548  16.973  0.2845  0.2896  0.0192
  662MPD2    C5 9851   0.632   3.491  16.853  1.0178 -0.8162  0.6648
  662MPD2     H 9852   0.767   3.324  17.172  0.5245  1.6207 -0.0685
  662MPD2    H1 9853   0.530   3.636  16.980 -0.1576  0.0596 -1.0250
  662MPD2    H2 9854   0.720   3.338  16.741  0.5530 -0.9289  1.2303
  662MPD2    H3 9855   0.600   3.540  16.761  0.2354 -0.5741  1.0611
  662MPD2     N 9856   0.604   3.542  17.222  0.1064 -0.0909  0.1978
  662MPD2    H5 9857   0.510   3.579  17.232 -0.8290 -2.7141  1.0910
  662MPD2    N1 9858   0.798   3.192  16.976 -0.7764 -0.6533  0.1452
  662MPD2    H7 9859   0.845   3.173  17.064  1.5974 -3.2241 -1.6651
  663TMC3    C1 9860   0.888   2.991  16.938 -0.0213  0.8192 -0.0748
  663TMC3    C2 9861   0.988   2.998  17.033  1.2785  0.0364  0.2204
  663TMC3    C3 9862   1.092   2.904  17.033 -0.1696  0.1228  0.2270
  663TMC3    C4 9863   0.876   2.881  16.862 -0.1481 -0.3918 -0.5059
  663TMC3    C5 9864   0.962   2.770  16.887 -0.2150  0.3932  0.1188
  663TMC3    C6 9865   1.083   2.788  16.953  0.1948  0.2359  0.8433
  663TMC3     C 9866   0.822   3.103  16.883  0.1224 -0.1805 -0.8868
  663TMC3     O 9867   0.796   3.101  16.766  0.1632 -0.3195  0.0567
  663TMC3     H 9868   1.011   3.093  17.080  0.2799 -0.4036  1.6032
  663TMC3    H1 9869   0.795   2.865  16.792  0.5356  0.2956 -1.4422
  663TMC3    H2 9870   1.148   2.706  16.982 -0.2507 -0.3285  0.2549
  663TMC3    C7 9871   0.954   2.660  16.794 -1.1938  0.0424  0.1995
  663TMC3    C8 9872   1.145   2.872  17.162 -0.0541  0.3564  0.0813
  663TMC3    O1 9873   0.906   2.693  16.684  0.1151 -0.3962 -0.7865
  663TMC3    O2 9874   1.254   2.815  17.162 -0.2647 -0.1562 -0.1503
  664MPD2     C 9875   3.776   0.579  17.117  0.5620  0.0455 -0.1753
  664MPD2    C1 9876   3.791   0.706  17.179 -0.3169  0.2534 -0.5211
  664MPD2    C2 9877   3.761   0.725  17.307 -0.1544  0.1131  0.5744
  664MPD2    C3 9878   3.733   0.618  17.397 -0.0577 -0.5537  0.8418
  664MPD2    C4 9879   3.711   0.496  17.339  0.3027  0.7099  0.0313
  664MPD2    C5 9880   3.731   0.473  17.201 -0.3274 -0.5060  0.1379
  664MPD2     H 9881   3.753   0.828  17.338  0.2100  0.7670 -1.5257
  664MPD2    H1 9882   3.680   0.407  17.393  1.1559 -1.2861 -2.7816
  664MPD2    H2 9883   3.778   0.565  17.010  0.8694  0.1298 -0.1820
  664MPD2    H3 9884   3.699   0.383  17.151 -1.9878 -0.0408  0.3691
  664MPD2     N 9885   3.715   0.653  17.532  0.3447 -0.2722 -0.7264
  664MPD2    H5 9886   3.752   0.745  17.554 -0.2079 -0.3606  0.5867
  664MPD2    N1 9887   3.830   0.825  17.111  0.1117  0.6860 -0.3228
  664MPD2    H7 9888   3.821   0.914  17.159  0.7688  0.4681  0.2099
  665TMC3    C1 9889   3.633   0.639   0.010  0.2082 -0.4353  0.3632
  665TMC3    C2 9890   3.524   0.601   0.088  0.3243  0.4131  0.2907
  665TMC3    C3 9891   3.457   0.704   0.154  0.4714 -0.5511  0.3493
  665TMC3    C4 9892   3.692   0.758   0.025 -0.2562 -0.3048 -0.2907
  665TMC3    C5 9893   3.640   0.848   0.118 -0.1199 -0.2844  0.1919
  665TMC3    C6 9894   3.513   0.828   0.162 -0.9014 -0.1655  0.1145
  665TMC3     C 9895   3.652   0.576  17.629 -0.1064  0.4949  0.1507
  665TMC3     O 9896   3.605   0.462  17.615  0.7321 -0.0114  0.2522
  665TMC3     H 9897   3.490   0.499   0.080  0.9432  0.1745  0.6638
  665TMC3    H1 9898   3.786   0.779  17.721 -0.7234  1.0510 -0.6107
  665TMC3    H2 9899   3.469   0.904   0.226 -2.3044 -0.2662 -0.7233
  665TMC3    C7 9900   3.710   0.969   0.154 -0.4877  0.4870 -0.5796
  665TMC3    C8 9901   3.378   0.659   0.265 -0.1212  0.8255  0.1120
  665TMC3    O1 9902   3.646   1.048   0.225 -0.6571 -0.2981 -0.0227
  665TMC3    O2 9903   3.412   0.561   0.328 -0.2256  0.3884 -0.0590
  666TMC3    C1 9904   3.377   1.407   9.569  0.8433  0.3805  0.3108
  666TMC3    C2 9905   3.464   1.310   9.589 -0.6185  0.1199 -0.1606
  666TMC3    C3 9906   3.585   1.345   9.651 -0.1327 -0.0155 -0.0542
  666TMC3    C4 9907   3.394   1.539   9.601  0.2673  0.8755 -0.5269
  666TMC3    C5 9908   3.519   1.572   9.651 -0.1488 -0.0801 -0.7117
  666TMC3    C6 9909   3.613   1.475   9.681 -0.9479 -0.0467  0.2430
  666TMC3     C 9910   3.259   1.370   9.506  0.2762 -0.6817 -0.0348
  666TMC3     O 9911   3.264   1.286   9.420  0.1584 -0.6882  0.6019
  666TMC3     H 9912   3.455   1.204   9.570 -2.7514  0.3869 -0.6227
  666TMC3    H1 9913   3.330   1.619   9.567 -0.6162  1.6493  2.9262
  666TMC3    H2 9914   3.702   1.514   9.730 -1.1682 -1.7740  2.0135
  666TMC3    C7 9915   3.531   1.707   9.694 -0.1408  0.6079 -0.2913
  666TMC3    C8 9916   3.640   1.245   9.747 -0.4527 -0.0322  0.1556
  666TMC3    O1 9917   3.426   1.762   9.728  0.2560  0.3455  0.2350
  666TMC3    O2 9918   3.557   1.152   9.771  0.1652  0.3238 -0.0443
  667MPD2     C 9919   0.064   0.979  14.665 -0.1387 -0.3695 -0.1324
  667MPD2    C1 9920   4.719   1.013  14.770  0.1698  0.2367 -0.5737
  667MPD2    C2 9921   4.615   0.930  14.793  0.6367  0.3330  0.1623
  667MPD2    C3 9922   4.602   0.809  14.719 -0.3117 -0.2485 -0.6189
  667MPD2    C4 9923   4.688   0.778  14.617  0.7311 -0.3063  0.7180
  667MPD2    C5 9924   0.047   0.867  14.586  0.3373  0.2704 -0.1544
  667MPD2     H 9925   4.535   0.949  14.865 -1.7430  0.4488 -2.5086
  667MPD2    H1 9926   4.676   0.686  14.561 -0.1137 -1.1699  2.3429
  667MPD2    H2 9927   0.150   1.038  14.634 -1.4637  1.4828 -0.2824
  667MPD2    H3 9928   0.127   0.844  14.516 -0.7936 -0.6788 -1.1347
  667MPD2     N 9929   4.502   0.718  14.758 -0.3992 -0.5578 -0.3445
  667MPD2    H5 9930   4.456   0.669  14.682 -1.8717 -0.3500  0.4180
  667MPD2    N1 9931   4.733   1.138  14.839 -0.1314 -0.2990  0.0063
  667MPD2    H7 9932   4.661   1.148  14.909 -0.9983 -0.0823 -0.9263
  668TMC3    C1 9933   0.095   1.312  14.948  0.3275 -0.0513  0.0337
  668TMC3    C2 9934   0.180   1.426  14.951  0.5844 -0.3353  0.0117
  668TMC3    C3 9935   0.156   1.508  15.059  0.2301  0.0629  0.2533
  668TMC3    C4 9936   4.736   1.287  15.043  0.2545 -0.3930  0.0683
  668TMC3    C5 9937   4.715   1.379  15.141  0.1990 -0.2707 -0.4843
  668TMC3    C6 9938   0.069   1.483  15.160  0.4981  0.2144 -0.2889
  668TMC3     C 9939   0.102   1.225  14.832  0.1981 -0.1868 -1.0434
  668TMC3     O 9940   0.191   1.237  14.745  0.0263 -0.3247  0.2197
  668TMC3     H 9941   0.253   1.435  14.871 -0.1585  2.2052 -0.3851
  668TMC3    H1 9942   4.666   1.204  15.036 -0.3516  0.1527 -0.4363
  668TMC3    H2 9943   0.059   1.544  15.249  0.8126 -0.5069  0.2395
  668TMC3    C7 9944   4.611   1.352  15.243  0.4614  0.3520  0.1591
  668TMC3    C8 9945   0.219   1.641  15.067  0.3010 -0.5829  0.0270
  668TMC3    O1 9946   4.640   1.400  15.351 -0.8462  0.1843  0.5398
  668TMC3    O2 9947   0.204   1.704  15.171  0.4462  0.6475  0.2215
  669TMC3    C1 9948   2.608   1.089  14.312  0.4483 -0.3552  0.2582
  669TMC3    C2 9949   2.496   1.086  14.238 -0.6825  0.0128  0.1262
  669TMC3    C3 9950   2.503   1.106  14.103 -0.4343 -0.4701  0.6733
  669TMC3    C4 9951   2.731   1.109  14.258 -0.0849  0.3754  0.5265
  669TMC3    C5 9952   2.736   1.141  14.129  0.0267 -0.1581 -0.6149
  669TMC3    C6 9953   2.627   1.132  14.053 -0.4646  0.3579 -0.4600
  669TMC3     C 9954   2.606   0.995  14.429  0.6628 -0.6126 -0.2049
  669TMC3     O 9955   2.500   0.979  14.490 -0.1750  0.1762  0.1816
  669TMC3     H 9956   2.403   1.065  14.290  0.1212 -2.7474  0.4476
  669TMC3    H1 9957   2.823   1.105  14.314  1.1492  0.5081 -1.5084
  669TMC3    H2 9958   2.635   1.134  13.945  2.3002  3.1678 -0.1881
  669TMC3    C7 9959   2.859   1.170  14.057 -0.6080  1.0092  0.1348
  669TMC3    C8 9960   2.397   1.048  14.014 -0.1352  0.7137  0.6593
  669TMC3    O1 9961   2.856   1.138  13.939  0.2724  0.1108 -0.5489
  669TMC3    O2 9962   2.297   1.018  14.082 -0.2222 -0.1454 -0.2122
  670MPD2     C 9963   1.450   3.467  13.097 -0.1520 -0.4004  0.2010
  670MPD2    C1 9964   1.547   3.459  13.199 -0.3096 -0.4979 -0.3673
  670MPD2    C2 9965   1.517   3.477  13.330  0.6804 -0.0043 -0.0162
  670MPD2    C3 9966   1.393   3.523  13.364  0.3005  0.1538 -0.3410
  670MPD2    C4 9967   1.299   3.542  13.263 -0.9301 -0.3269 -0.6259
  670MPD2    C5 9968   1.330   3.515  13.134  0.1086  0.8786 -0.1716
  670MPD2     H 9969   1.594   3.473  13.405  0.3206 -0.0378  0.3505
  670MPD2    H1 9970   1.194   3.554  13.289 -0.8138 -0.8388  0.0648
  670MPD2    H2 9971   1.468   3.436  12.995  0.9709  0.2495  0.2028
  670MPD2    H3 9972   1.253   3.531  13.059  0.8687  2.5942 -0.5758
  670MPD2     N 9973   1.357   3.552  13.500  0.3583  0.3408 -0.2393
  670MPD2    H5 9974   1.424   3.523  13.570  2.5983  0.5807 -2.2741
  670MPD2    N1 9975   1.677   3.412  13.174  0.8544 -0.0057 -0.2209
  670MPD2    H7 9976   1.737   3.400  13.255 -1.2263  1.0398  1.4878
  671TMC3    C1 9977   1.230   3.624  13.684 -0.8920 -0.1777 -0.4597
  671TMC3    C2 9978   1.343   3.587  13.747 -0.9161  1.0754 -0.4485
  671TMC3    C3 9979   1.345   3.502  13.854 -0.7972 -0.4061  0.1689
  671TMC3    C4 9980   1.113   3.561  13.724 -0.4656 -0.3635 -1.1745
  671TMC3    C5 9981   1.113   3.467  13.824  0.2442 -1.0647  0.7696
  671TMC3    C6 9982   1.233   3.437  13.894 -0.1432 -0.5441 -0.7067
  671TMC3     C 9983   1.245   3.624  13.535 -0.1562 -0.1845  0.2548
  671TMC3     O 9984   1.151   3.674  13.474  0.1707  0.4115  0.3902
  671TMC3     H 9985   1.438   3.639  13.734 -0.3083  0.0187 -0.2219
  671TMC3    H1 9986   1.024   3.571  13.662 -1.0081 -1.1461 -0.5284
  671TMC3    H2 9987   1.229   3.388  13.991 -0.4348  1.2239  0.1825
  671TMC3    C7 9988   1.049   3.341  13.805  0.5337  0.1945  0.1101
  671TMC3    C8 9989   1.466   3.424  13.862 -0.4542 -0.2058 -0.3864
  671TMC3    O1 9990   1.035   3.263  13.897  0.7928  0.4118  0.5657
  671TMC3    O2 9991   1.541   3.425  13.765 -0.9661 -0.6087  0.1594
  672MPD2     C 9992   1.896   4.347   0.090  0.4275 -0.3025 -0.2323
  672MPD2    C1 9993   1.914   4.263   0.203  0.2150 -0.2359 -1.1577
  672MPD2    C2 9994   2.005   4.302   0.298  0.2776 -0.4168  0.4538
  672MPD2    C3 9995   2.067   4.430   0.289 -0.0085 -0.4978  0.3085
  672MPD2    C4 9996   2.037   4.514   0.193  0.8736  0.4692  0.7524
  672MPD2    C5 9997   1.948   4.472   0.093  0.1471 -0.2587 -0.0689
  672MPD2     H 9998   2.025   4.234   0.379  0.5095 -0.2349  0.5494
  672MPD2    H1 9999   2.066   4.619   0.196 -1.5676  1.2270 -1.7441
  672MPD2    H210000   1.827   4.326   0.009 -0.7970  2.4926  0.1015
  672MPD2    H310001   1.933   4.535   0.005  1.2570  0.3586  0.1772
  672MPD2     N10002   2.140   4.486   0.394  0.3608  0.2182 -0.0480
  672MPD2    H510003   2.164   4.585   0.389  1.2544 -0.0397 -1.0547
  672MPD2    N110004   1.855   4.137   0.215  0.2942  0.6912 -0.6450
  672MPD2    H710005   1.896   4.072   0.281 -1.7470 -0.3576 -0.4076
  673TMC3    C110006   1.683   3.980   0.191  0.7229  0.3880  0.1257
  673TMC3    C210007   1.762   3.868   0.218  0.7826 -0.3368  0.5106
  673TMC3    C310008   1.697   3.748   0.242 -0.3562 -0.3951 -0.2604
  673TMC3    C410009   1.545   3.975   0.205 -0.8708  0.3985 -0.1884
  673TMC3    C510010   1.489   3.849   0.230 -1.6112 -0.0388 -0.7071
  673TMC3    C610011   1.560   3.736   0.236 -0.1909  0.3837 -0.1498
  673TMC3     C10012   1.735   4.106   0.155 -0.0496 -0.3949 -0.8592
  673TMC3     O10013   1.659   4.188   0.100  0.6786  0.2504  0.0792
  673TMC3     H10014   1.869   3.879   0.229  1.0423 -2.3157 -0.0414
  673TMC3    H110015   1.496   4.072   0.209 -2.1561 -0.3414  2.3912
  673TMC3    H210016   1.510   3.642   0.255  0.0720  0.8535  2.8519
  673TMC3    C710017   1.348   3.839   0.267 -0.6052  0.1743 -0.5129
  673TMC3    C810018   1.776   3.623   0.271  0.1494  0.3783  0.2902
  673TMC3    O110019   1.303   3.725   0.283  0.5796 -0.2747 -0.7088
  673TMC3    O210020   1.719   3.515   0.246  0.0795  0.1289 -0.0269
  674MPD2     C10021   0.884   4.179  17.644 -0.4632  0.1965 -0.7809
  674MPD2    C110022   0.797   4.080  17.668 -0.7335 -0.3495  0.4777
  674MPD2    C210023   0.664   4.120  17.666 -0.0170 -0.0323 -0.4568
  674MPD2    C310024   0.619   4.246  17.638  0.2384 -0.0974  0.5227
  674MPD2    C410025   0.718   4.344  17.621  0.2698 -0.5343  1.0180
  674MPD2    C510026   0.846   4.304  17.615 -0.2316  0.2936  0.1781
  674MPD2     H10027   0.585   4.056  17.705 -0.3835  1.2630  0.8930
  674MPD2    H110028   0.698   4.451  17.620 -3.8943 -1.3237 -0.3958
  674MPD2    H210029   0.990   4.168  17.663 -0.6738 -0.9100 -0.2820
  674MPD2    H310030   0.927   4.374  17.602  0.8128 -0.8612  0.5054
  674MPD2     N10031   0.484   4.273  17.662 -0.1541 -0.3064 -0.0590
  674MPD2    H510032   0.427   4.199  17.623  1.7229 -0.8514 -1.7797
  674MPD2    N110033   0.841   3.954  17.716  0.1174 -0.1243 -0.1668
  674MPD2    H710034   0.942   3.945  17.725 -0.1347 -1.3353  1.3637
  675TMC3    C110035   0.827   3.721  17.699 -0.1380  0.4151  0.2642
  675TMC3    C210036   0.746   3.617  17.742 -0.2458  0.2623  0.3868
  675TMC3    C310037   0.797   3.501   0.040 -0.3402  0.0062  1.0986
  675TMC3    C410038   0.965   3.718  17.709  0.0063  0.1098  0.6405
  675TMC3    C510039   1.013   3.587  17.735 -0.0052  0.0051 -0.7149
  675TMC3    C610040   0.931   3.489   0.043  0.1940 -0.6722  0.0926
  675TMC3     C10041   0.760   3.850  17.696 -0.0469  0.3382  0.0869
  675TMC3     O10042   0.650   3.843  17.648  0.3844  0.2790  0.5132
  675TMC3     H10043   0.638   3.620  17.729 -0.2384  1.9742  0.8175
  675TMC3    H110044   1.027   3.803  17.684 -0.1100  0.2046  0.6725
  675TMC3    H210045   0.966   3.395   0.082  1.9224 -0.3406 -0.6881
  675TMC3    C710046   1.156   3.565  17.734  0.3304  0.1067  0.2704
  675TMC3    C810047   0.703   3.398   0.074  0.2371 -0.0609 -0.5935
  675TMC3    O110048   1.192   3.466   0.054  1.0470 -0.6524  0.0367
  675TMC3    O210049   0.584   3.428   0.075  0.9333  0.7018  0.4503
  676MPD2     C10050   4.170   2.410  10.909 -0.8184 -0.1036  0.0177
  676MPD2    C110051   4.070   2.376  10.997 -0.6636  0.4473 -0.2132
  676MPD2    C210052   4.024   2.244  10.984 -0.2504  0.3350 -0.6993
  676MPD2    C310053   4.075   2.145  10.906 -0.7359 -0.3572 -0.3201
  676MPD2    C410054   4.184   2.181  10.835 -0.0427  0.3823 -0.8504
  676MPD2    C510055   4.230   2.312  10.837  0.2533  0.1359  0.1146
  676MPD2     H10056   3.946   2.224  11.057  0.4235  2.2186  0.5389
  676MPD2    H110057   4.250   2.111  10.785  0.4307  1.1168 -1.2617
  676MPD2    H210058   4.210   2.510  10.910  2.1971 -1.3097 -1.0265
  676MPD2    H310059   4.317   2.333  10.776 -0.7878 -0.5380 -1.6132
  676MPD2     N10060   4.023   2.010  10.906  0.6661  0.2927  0.1330
  676MPD2    H510061   4.079   1.944  10.853  1.2756  1.0494 -0.1733
  676MPD2    N110062   4.039   2.452  11.108  0.0842 -0.4245 -0.0780
  676MPD2    H710063   3.969   2.409  11.169 -1.0633  0.1855 -0.9749
  677TMC3    C110064   4.058   2.628  11.271  0.0890 -0.0562  0.0032
  677TMC3    C210065   3.969   2.554  11.343  0.6501 -0.3411  0.6499
  677TMC3    C310066   3.940   2.598  11.474  0.1051  0.4493 -0.0387
  677TMC3    C410067   4.126   2.734  11.314 -0.5140  0.4616 -0.3508
  677TMC3    C510068   4.092   2.773  11.439 -0.2931 -0.4466 -0.0936
  677TMC3    C610069   4.001   2.712  11.526  0.2075 -0.1033 -0.2501
  677TMC3     C10070   4.085   2.586  11.136  0.2359  0.0687 -0.2939
  677TMC3     O10071   4.157   2.663  11.074 -0.2274 -0.3705 -0.3346
  677TMC3     H10072   3.910   2.475  11.300  0.8468 -1.3090  2.1682
  677TMC3    H110073   4.209   2.776  11.258 -0.0979  1.1411  0.7853
  677TMC3    H210074   3.998   2.735  11.631  2.1846  0.9330 -0.4150
  677TMC3    C710075   4.180   2.869  11.514 -0.7907  0.5670 -0.6158
  677TMC3    C810076   3.871   2.507  11.564 -0.3691  0.6742  0.4424
  677TMC3    O110077   4.176   2.876  11.636  0.0152 -0.2806 -0.1841
  677TMC3    O210078   3.870   2.388  11.536 -0.6952 -0.0988  0.3441
  678MPD2     C10079   0.720   1.501   0.988  0.6081 -0.5765 -0.7836
  678MPD2    C110080   0.673   1.599   0.904 -0.6378  0.0253 -0.1179
  678MPD2    C210081   0.531   1.611   0.874  0.0010  0.0606  0.1804
  678MPD2    C310082   0.448   1.512   0.918  0.2375  0.3984 -0.5765
  678MPD2    C410083   0.496   1.410   0.996 -0.4759  0.5358 -0.2501
  678MPD2    C510084   0.632   1.411   1.032  0.3197 -0.0624  0.1031
  678MPD2     H10085   0.497   1.686   0.804 -0.4566  0.3199  0.6785
  678MPD2    H110086   0.451   1.319   1.034 -1.6640  0.9848 -0.5778
  678MPD2    H210087   0.824   1.487   1.018 -0.2362 -0.0161  2.4425
  678MPD2    H310088   0.663   1.325   1.091  0.3374  0.1465  0.3994
  678MPD2     N10089   0.319   1.515   0.880  0.0603  0.1784  0.2235
  678MPD2    H510090   0.284   1.603   0.843  1.9393  2.2424  3.2734
  678MPD2    N110091   0.754   1.701   0.847 -0.4847 -0.0278  0.2445
  678MPD2    H710092   0.713   1.768   0.783  1.6010  1.3526  0.3600
  679TMC3    C110093   1.125   1.850   0.613 -0.1806 -0.2404 -0.3308
  679TMC3    C210094   1.064   1.760   0.693  0.4738  0.6389 -0.8981
  679TMC3    C310095   0.947   1.796   0.750 -0.2603  0.5839 -0.4536
  679TMC3    C410096   1.059   1.963   0.566  0.4331 -0.2818  0.1840
  679TMC3    C510097   0.945   2.005   0.632 -0.4214  0.2383  1.1389
  679TMC3    C610098   0.886   1.917   0.721  0.0772 -0.1773 -0.1545
  679TMC3     C10099   1.237   1.810   0.530  0.1819  0.7326  0.3578
  679TMC3     O10100   1.225   1.699   0.487 -0.2658  0.5139  0.3351
  679TMC3     H10101   1.099   1.660   0.713 -2.1777 -0.6606 -2.6844
  679TMC3    H110102   1.097   2.024   0.484 -1.3368  1.8378  0.9434
  679TMC3    H210103   0.795   1.935   0.778  0.8798  0.1370  1.0282
  679TMC3    C710104   0.873   2.122   0.593 -0.8914  0.7581  0.8626
  679TMC3    C810105   0.891   1.704   0.850  0.4694  0.5425 -0.4292
  679TMC3    O110106   0.923   2.197   0.504  0.4779 -0.3975 -0.4167
  679TMC3    O210107   0.979   1.632   0.903 -0.5805  0.2578 -0.6056
  680MPD2     C10108   0.437   0.791  13.774  0.1359 -0.2858  0.8714
  680MPD2    C110109   0.537   0.759  13.857  0.2838  0.4869 -0.3898
  680MPD2    C210110   0.627   0.855  13.903  0.1543  0.2523 -0.6212
  680MPD2    C310111   0.604   0.992  13.869  0.5771  0.1164  0.0975
  680MPD2    C410112   0.501   1.026  13.785  0.5494 -0.1174 -0.2475
  680MPD2    C510113   0.417   0.925  13.747  0.6470 -0.4439 -0.3861
  680MPD2     H10114   0.710   0.826  13.966 -1.0768  2.7290  2.1696
  680MPD2    H110115   0.474   1.123  13.745  0.4804 -0.2788 -0.5963
  680MPD2    H210116   0.363   0.723  13.735 -0.3676 -0.3607  1.9585
  680MPD2    H310117   0.331   0.955  13.688  0.0407 -1.5150 -0.0540
  680MPD2     N10118   0.683   1.103  13.924  0.1188  0.3400 -0.2148
  680MPD2    H510119   0.652   1.193  13.889 -1.6894  0.4727  1.6714
  680MPD2    N110120   0.564   0.627  13.889 -0.4841  0.1206 -0.8922
  680MPD2    H710121   0.652   0.611  13.937 -0.7429 -0.5222 -0.6376
  681TMC3    C110122   0.550   0.391  13.883 -0.6668 -0.7054 -0.0242
  681TMC3    C210123   0.472   0.313  13.964 -0.3258  0.8068  0.0947
  681TMC3    C310124   0.545   0.215  14.029 -0.2683 -0.0090  0.5981
  681TMC3    C410125   0.680   0.381  13.857  0.4805  0.1010  0.1103
  681TMC3    C510126   0.751   0.283  13.918 -0.2531  0.3820 -0.3449
  681TMC3    C610127   0.681   0.197  14.007  0.1596  0.5149 -0.3364
  681TMC3     C10128   0.484   0.519  13.858 -0.2577  0.5214  0.1165
  681TMC3     O10129   0.371   0.517  13.818 -0.0972 -0.0556 -0.2089
  681TMC3     H10130   0.366   0.325  13.985 -0.6888  1.2080 -1.9677
  681TMC3    H110131   0.739   0.449  13.797 -2.7951  0.5461 -2.6476
  681TMC3    H210132   0.733   0.113  14.052  0.2154  0.9112  0.3470
  681TMC3    C710133   0.852   0.217  13.846 -0.2556 -0.3813 -0.1952
  681TMC3    C810134   0.499   0.199  14.163  0.3565  0.5361  0.5845
  681TMC3    O110135   0.873   0.097  13.868  0.9217  0.6860  0.4273
  681TMC3    O210136   0.380   0.200  14.186 -0.0195 -0.1374  0.2659
  682MPD2     C10137   3.080   2.573  10.566  0.2616 -0.3009 -0.6677
  682MPD2    C110138   3.060   2.441  10.529  0.9482 -0.1845  0.0479
  682MPD2    C210139   2.985   2.362  10.615  0.8398  0.2043 -0.5237
  682MPD2    C310140   2.945   2.410  10.740 -0.2749 -0.9081  0.3555
  682MPD2    C410141   2.966   2.542  10.773 -0.5444 -0.1567 -0.0082
  682MPD2    C510142   3.036   2.625  10.686 -1.0444 -0.2679  0.5341
  682MPD2     H10143   2.964   2.260  10.583 -1.5360  0.4363  0.2650
  682MPD2    H110144   2.928   2.574  10.870  1.7988 -2.0678  1.5503
  682MPD2    H210145   3.135   2.633  10.494  0.9106  0.9486  0.8732
  682MPD2    H310146   3.049   2.731  10.707 -0.5348 -0.2031 -0.1195
  682MPD2     N10147   2.874   2.326  10.831  0.9691  0.3280  0.0671
  682MPD2    H510148   2.818   2.366  10.906 -0.4922  1.3326 -1.5661
  682MPD2    N110149   3.110   2.377  10.410  0.0862  0.2760 -0.5212
  682MPD2    H710150   3.083   2.279  10.405 -0.5854  0.4477 -0.2627
  683TMC3    C110151   2.814   2.033  11.136  0.1829  0.1811 -0.3253
  683TMC3    C210152   2.763   1.905  11.096 -0.6494 -0.3748  0.1275
  683TMC3    C310153   2.738   1.887  10.959  0.0470 -0.3889 -0.2413
  683TMC3    C410154   2.829   2.141  11.048  0.1893  0.2308 -0.5120
  683TMC3    C510155   2.799   2.118  10.919  1.2476  0.2611  0.3689
  683TMC3    C610156   2.755   1.992  10.874 -0.6471  0.1658 -0.3088
  683TMC3     C10157   2.790   2.064  11.273  0.1000 -0.1421 -0.5635
  683TMC3     O10158   2.856   2.158  11.311  0.3187  0.0120  0.2241
  683TMC3     H10159   2.776   1.824  11.166  0.7542  2.2171  2.8677
  683TMC3    H110160   2.867   2.234  11.088 -0.1708  0.6921 -1.2417
  683TMC3    H210161   2.738   1.982  10.768  1.9700 -1.9121 -0.5432
  683TMC3    C710162   2.874   2.186  10.819 -0.3178 -0.1575  0.5035
  683TMC3    C810163   2.741   1.753  10.914  0.8261 -0.5564  0.2664
  683TMC3    O110164   2.917   2.112  10.733 -0.1517  0.0905 -0.3833
  683TMC3    O210165   2.773   1.664  10.993 -0.0780  0.0904  0.2001
  684MPD2     C10166   0.930   1.856  16.132  0.0441 -0.0548  0.5340
  684MPD2    C110167   0.964   1.920  16.013 -0.0756  1.1872  0.4290
  684MPD2    C210168   1.030   2.041  16.008  0.0615 -0.0779  0.3157
  684MPD2    C310169   1.054   2.108  16.130 -0.6541 -0.0884  0.6213
  684MPD2    C410170   1.022   2.045  16.251 -0.3180  1.2906  0.8910
  684MPD2    C510171   0.955   1.920  16.250  0.2492 -0.1434  0.2314
  684MPD2     H10172   1.047   2.089  15.912 -1.9601  0.5233  0.2533
  684MPD2    H110173   1.042   2.088  16.348  1.6129  2.1717  0.1049
  684MPD2    H210174   0.867   1.768  16.134  0.4946 -0.3633  1.0173
  684MPD2    H310175   0.923   1.881  16.346 -0.3390  0.2842  0.2065
  684MPD2     N10176   1.100   2.242  16.118 -0.2909  0.4772  0.0022
  684MPD2    H510177   1.108   2.287  16.027  0.0610  1.7725  0.6692
  684MPD2    N110178   0.950   1.852  15.888 -0.8912  0.1818 -0.3614
  684MPD2    H710179   0.997   1.883  15.803  1.9658 -1.8121  0.5231
  685TMC3    C110180   0.883   1.656  15.768 -0.2243 -0.0038  0.4719
  685TMC3    C210181   0.780   1.578  15.724  0.6996  0.2392  0.8384
  685TMC3    C310182   0.804   1.480  15.635  0.1963  0.5759  0.1696
  685TMC3    C410183   1.008   1.624  15.734 -0.0163  0.3709  0.7606
  685TMC3    C510184   1.038   1.530  15.638  0.1844 -0.1319  0.1951
  685TMC3    C610185   0.932   1.462  15.581 -0.4666  0.0976  0.3361
  685TMC3     C10186   0.861   1.748  15.879 -0.7206  0.7594  0.1568
  685TMC3     O10187   0.750   1.737  15.929 -0.5821 -0.0131 -0.0703
  685TMC3     H10188   0.683   1.579  15.771  0.7092 -0.9907  0.8898
  685TMC3    H110189   1.093   1.688  15.757  0.7926 -0.7604  0.8910
  685TMC3    H210190   0.940   1.390  15.501  2.8533 -0.1669  0.9169
  685TMC3    C710191   1.173   1.528  15.582  0.1479  0.4647 -0.5848
  685TMC3    C810192   0.694   1.412  15.570 -0.6115  0.1600 -0.7603
  685TMC3    O110193   1.251   1.602  15.638  0.3624  0.0547  0.1641
  685TMC3    O210194   0.714   1.324  15.493  0.1360 -0.8625  0.2541
  686MPD2     C10195   2.645   1.361  14.898 -0.1221 -0.2419  0.0139
  686MPD2    C110196   2.692   1.308  15.016 -0.6539  1.3294  0.3540
  686MPD2    C210197   2.787   1.210  15.008  0.3212  0.0851  0.5091
  686MPD2    C310198   2.831   1.155  14.890  0.7545 -0.4751 -0.0782
  686MPD2    C410199   2.776   1.204  14.773  0.1986  0.8320  0.0125
  686MPD2    C510200   2.688   1.314  14.776 -0.1255  0.3931  0.8795
  686MPD2     H10201   2.826   1.167  15.100  1.0072 -0.3211  0.0230
  686MPD2    H110202   2.797   1.157  14.677  0.1201 -1.6457  1.2284
  686MPD2    H210203   2.585   1.452  14.896 -0.0936 -0.2422 -0.7266
  686MPD2    H310204   2.652   1.355  14.683 -3.0120 -2.7749  0.5690
  686MPD2     N10205   2.907   1.034  14.880 -0.0674  0.4572 -0.3244
  686MPD2    H510206   2.946   1.014  14.789  2.8368 -0.4795  1.1250
  686MPD2    N110207   2.632   1.352  15.137 -0.4181  0.3713  0.1252
  686MPD2    H710208   2.555   1.417  15.125  0.6297  0.9475 -3.5493
  687TMC3    C110209   2.865   0.932  15.099  0.2671  0.6770  0.4251
  687TMC3    C210210   2.731   0.947  15.086 -0.3453  0.0196 -0.0173
  687TMC3    C310211   2.666   0.945  15.203 -0.3411  0.9538 -0.0881
  687TMC3    C410212   2.930   0.903  15.215 -0.2984 -0.0844 -0.5514
  687TMC3    C510213   2.859   0.912  15.331  0.1045  0.3214 -0.2243
  687TMC3    C610214   2.718   0.921  15.328  0.9229  0.2110  0.8710
  687TMC3     C10215   2.957   0.965  14.982 -0.1909  0.5546  0.3843
  687TMC3     O10216   3.071   0.914  14.985  0.0586 -0.4143  0.3473
  687TMC3     H10217   2.689   0.969  14.988 -1.0582 -2.2690 -0.2315
  687TMC3    H110218   3.037   0.885  15.217 -0.2639  0.5121  2.4053
  687TMC3    H210219   2.661   0.925  15.420  1.6103 -2.7380  1.4068
  687TMC3    C710220   2.922   0.974  15.447 -0.0079  0.1839  0.6228
  687TMC3    C810221   2.525   0.984  15.213 -0.1323  0.3820  0.2087
  687TMC3    O110222   2.844   1.003  15.539 -0.5074  0.3773 -0.6914
  687TMC3    O210223   2.468   0.955  15.317  0.1500  0.5181  0.2061
  688MPD2     C10224   1.650   0.386  17.111  0.3835  0.3802 -0.1233
  688MPD2    C110225   1.668   0.257  17.154 -0.5616 -0.4004  0.7960
  688MPD2    C210226   1.780   0.182  17.120  0.8868 -0.6391 -0.2891
  688MPD2    C310227   1.878   0.238  17.035  0.2511 -0.4701  0.1747
  688MPD2    C410228   1.859   0.369  17.002  0.3925  0.5971  0.6681
  688MPD2    C510229   1.751   0.434  17.036 -0.1843 -1.1902  0.1422
  688MPD2     H10230   1.772   0.074  17.128  2.4913 -0.5439  2.4452
  688MPD2    H110231   1.938   0.432  16.963 -0.3238  1.0934  0.0114
  688MPD2    H210232   1.562   0.447  17.132 -0.5083 -1.2422  0.8728
  688MPD2    H310233   1.740   0.538  17.005 -0.5295 -0.9418  1.0919
  688MPD2     N10234   1.986   0.163  16.975 -0.4269 -0.4062  0.2020
  688MPD2    H510235   2.049   0.214  16.914 -1.2882 -0.0532 -0.3938
  688MPD2    N110236   1.572   0.194  17.241  0.3037 -0.4930 -0.0118
  688MPD2    H710237   1.593   0.096  17.257 -0.9581 -0.8379 -0.4388
  689TMC3    C110238   1.406   0.168  17.408 -0.8015 -0.1766 -0.8409
  689TMC3    C210239   1.356   0.228  17.522 -0.5116  0.8031  0.2840
  689TMC3    C310240   1.313   0.147  17.623 -0.1513 -0.1755 -0.4733
  689TMC3    C410241   1.428   0.035  17.389 -0.5051 -0.1424 -0.2269
  689TMC3    C510242   1.377   4.695  17.495 -0.0813  1.0705  0.3329
  689TMC3    C610243   1.317   0.005  17.605  0.0282  0.3390 -0.2559
  689TMC3     C10244   1.470   0.256  17.308 -0.0879 -0.0451  0.7313
  689TMC3     O10245   1.436   0.373  17.309  0.1064 -0.2036  0.1212
  689TMC3     H10246   1.352   0.336  17.537  2.3540  1.0566 -0.7537
  689TMC3    H110247   1.456   4.732  17.292  1.3057 -2.0650  1.0824
  689TMC3    H210248   1.282   4.672  17.679 -0.6270  0.0396 -0.8468
  689TMC3    C710249   1.364   4.553  17.468  0.3436  0.1298 -0.1246
  689TMC3    C810250   1.212   0.197  17.712  0.2115 -0.1384  0.2124
  689TMC3    O110251   1.334   4.511  17.357 -0.0200 -0.4064  0.0882
  689TMC3    O210252   1.149   0.295  17.678  0.2717  0.2170  0.3147
  690MPD2     C10253   3.539   2.134  15.827 -0.7667  0.0261 -0.0080
  690MPD2    C110254   3.615   2.064  15.735  0.3892 -0.1391  0.7892
  690MPD2    C210255   3.719   2.126  15.669  0.3135 -0.3428 -0.3229
  690MPD2    C310256   3.745   2.263  15.684  0.7436  0.1766  0.0636
  690MPD2    C410257   3.671   2.332  15.777 -0.1769  0.9881  0.1983
  690MPD2    C510258   3.572   2.265  15.852  0.5431 -0.0343  0.0322
  690MPD2     H10259   3.773   2.063  15.599  0.9353  0.8145 -0.8862
  690MPD2    H110260   3.672   2.440  15.781  0.2358  0.9256  1.6983
  690MPD2    H210261   3.459   2.093  15.888 -0.4108 -0.5780  0.0528
  690MPD2    H310262   3.513   2.325  15.920  2.0457  2.1828 -0.5977
  690MPD2     N10263   3.844   2.333  15.615 -0.3908  0.1407  0.2870
  690MPD2    H510264   3.894   2.280  15.545  0.9410  1.2461  0.3941
  690MPD2    N110265   3.586   1.933  15.697  0.2463 -0.0642 -0.1208
  690MPD2    H710266   3.631   1.895  15.614  0.9291  0.7977 -0.1506
  691TMC3    C110267   3.437   1.763  15.636  0.5245 -0.3355 -0.5692
  691TMC3    C210268   3.308   1.757  15.588  0.0478  0.0863 -0.6188
  691TMC3    C310269   3.283   1.645  15.510  0.1175  0.0065 -0.8215
  691TMC3    C410270   3.529   1.666  15.627 -0.4952  0.2925 -1.0519
  691TMC3    C510271   3.495   1.556  15.547 -0.1734 -0.2905  0.2613
  691TMC3    C610272   3.374   1.546  15.481  0.2604 -0.4691  0.4421
  691TMC3     C10273   3.469   1.869  15.731 -0.0394  0.4975  0.0226
  691TMC3     O10274   3.373   1.907  15.801 -0.8234 -0.1187 -0.1887
  691TMC3     H10275   3.235   1.835  15.610 -0.6151 -0.6503 -0.2103
  691TMC3    H110276   3.618   1.672  15.688 -1.2386 -1.2290  0.1776
  691TMC3    H210277   3.351   1.476  15.402 -1.8931  0.8948 -0.1294
  691TMC3    C710278   3.588   1.447  15.543 -0.0895  0.5122 -0.3528
  691TMC3    C810279   3.148   1.626  15.466 -0.5924 -0.3849 -0.0543
  691TMC3    O110280   3.691   1.472  15.599 -0.4575  0.1459 -0.4069
  691TMC3    O210281   3.115   1.516  15.423  0.3142 -0.2064 -0.3538
  692TMC3    C110282   0.591   3.406  15.622  0.1327  0.4467  0.0157
  692TMC3    C210283   0.703   3.489  15.603  0.3217  0.6443  0.0143
  692TMC3    C310284   0.833   3.439  15.600 -0.1403 -0.3137  0.3956
  692TMC3    C410285   0.615   3.272  15.624  0.4785  0.0803  0.2218
  692TMC3    C510286   0.743   3.231  15.625 -0.6489 -0.3834  0.1548
  692TMC3    C610287   0.853   3.306  15.633  0.3232  0.5873  0.1334
  692TMC3     C10288   0.458   3.463  15.650  0.9119 -0.2430  0.4891
  692TMC3     O10289   0.385   3.381  15.698  0.0978  0.6884  0.5877
  692TMC3     H10290   0.686   3.596  15.613 -1.6996  0.4403 -1.3024
  692TMC3    H110291   0.540   3.196  15.642  0.1534  0.4345  0.3800
  692TMC3    H210292   0.948   3.261  15.608  0.1779  1.7207 -2.5387
  692TMC3    C710293   0.749   3.089  15.609  0.2076 -0.2669 -0.8067
  692TMC3    C810294   0.936   3.516  15.670  1.3855  0.3719 -0.1552
  692TMC3    O110295   0.667   3.035  15.541 -0.1585  0.4546 -0.5551
  692TMC3    O210296   1.028   3.455  15.725 -0.0300 -0.3360  0.0893
  693MPD2     C10297   0.023   1.080  10.356 -0.2617  0.5849  0.2944
  693MPD2    C110298   0.030   1.036  10.486 -0.1982  0.0806  0.3998
  693MPD2    C210299   0.146   1.020  10.550  0.3398 -0.4871 -0.3884
  693MPD2    C310300   0.262   1.059  10.480 -0.1464 -0.0041  0.5842
  693MPD2    C410301   0.266   1.112  10.351  0.0561  0.3955 -0.1536
  693MPD2    C510302   0.141   1.125  10.291  1.0508  0.7065  0.3124
  693MPD2     H10303   0.157   0.987  10.653 -0.2495 -0.6344 -0.3718
  693MPD2    H110304   0.352   1.149  10.295 -1.3892  0.3011 -2.4204
  693MPD2    H210305   4.666   1.102  10.305 -0.1082 -0.0986 -0.2774
  693MPD2    H310306   0.130   1.174  10.195 -1.1357  0.2772  0.3299
  693MPD2     N10307   0.378   1.008  10.537 -0.4071 -0.1497 -0.4169
  693MPD2    H510308   0.375   0.966  10.629  0.8182 -0.6753 -0.6194
  693MPD2    N110309   4.649   0.994  10.556  0.3481 -0.5750 -0.2425
  693MPD2    H710310   4.665   0.966  10.653  0.9298  0.2058 -0.1165
  694TMC3    C110311   4.450   0.907  10.608 -0.2849 -0.2652 -0.5079
  694TMC3    C210312   4.381   0.798  10.571  0.3475  0.3274 -0.3521
  694TMC3    C310313   4.319   0.715  10.668  0.6831  0.1184  0.6859
  694TMC3    C410314   4.472   0.932  10.745  0.1637 -0.0479  0.1244
  694TMC3    C510315   4.414   0.856  10.837  0.0783 -0.6236  0.0572
  694TMC3    C610316   4.336   0.743  10.799 -0.3548 -0.1587 -0.4488
  694TMC3     C10317   4.525   0.980  10.506 -0.6675 -0.0682  0.2073
  694TMC3     O10318   4.486   0.967  10.387 -0.1687  0.3035 -0.2478
  694TMC3     H10319   4.361   0.784  10.466 -1.2484 -2.7151  0.3459
  694TMC3    H110320   4.530   1.020  10.772 -0.7621  0.5156  0.2860
  694TMC3    H210321   4.308   0.658  10.860 -1.7744 -2.0772 -3.7578
  694TMC3    C710322   4.445   0.876  10.980 -0.1157  0.0287 -0.2756
  694TMC3    C810323   4.237   0.608  10.625  0.5842  1.4420  0.2938
  694TMC3    O110324   4.544   0.946  11.010  0.0329  0.3615 -0.3447
  694TMC3    O210325   4.145   0.561  10.693 -0.0838 -1.0717  0.3703
  695MPD2     C10326   1.898   2.924  13.035 -0.5979 -0.4358 -0.2948
  695MPD2    C110327   1.817   2.958  13.141 -0.1553  0.4501 -0.2064
  695MPD2    C210328   1.690   3.017  13.117 -0.3710 -0.0909 -0.0904
  695MPD2    C310329   1.640   3.028  12.996 -0.2857  0.0722 -0.0822
  695MPD2    C410330   1.722   3.003  12.888 -0.1879  0.3139 -0.7924
  695MPD2    C510331   1.847   2.953  12.911  0.4029  0.0416  0.2507
  695MPD2     H10332   1.623   3.036  13.200  2.3740  0.0436  2.0834
  695MPD2    H110333   1.688   3.023  12.787 -2.4600 -0.6842 -0.2250
  695MPD2    H210334   1.994   2.875  13.047  0.4033  1.2222 -1.6916
  695MPD2    H310335   1.913   2.931  12.828 -0.0879  0.0274 -0.1380
  695MPD2     N10336   1.506   3.073  12.990  0.4179 -0.2903  0.1365
  695MPD2    H510337   1.465   3.092  13.081  0.2055  0.7956 -0.1856
  695MPD2    N110338   1.846   2.937  13.276  0.3038  0.4701 -0.3003
  695MPD2    H710339   1.782   2.981  13.341 -0.6757  0.5541 -1.3192
  696TMC3    C110340   1.304   3.151  12.898 -0.6324  0.0633  0.7916
  696TMC3    C210341   1.245   3.122  13.021 -0.5906  0.7478 -0.6971
  696TMC3    C310342   1.117   3.166  13.037 -0.3841 -0.0525 -0.2176
  696TMC3    C410343   1.249   3.227  12.798  0.1885 -0.0818  0.1964
  696TMC3    C510344   1.134   3.291  12.830  0.1475  0.6106 -1.2379
  696TMC3    C610345   1.071   3.266  12.952  0.0542  0.5710  0.1836
  696TMC3     C10346   1.442   3.102  12.874  0.0017  0.4729 -0.4853
  696TMC3     O10347   1.479   3.114  12.757  0.4221  0.0480 -0.3537
  696TMC3     H10348   1.297   3.059  13.093  0.4085  0.5366 -1.6079
  696TMC3    H110349   1.297   3.235  12.701  0.6643 -2.8359  0.2050
  696TMC3    H210350   0.971   3.304  12.966  0.1380  1.5944 -2.0259
  696TMC3    C710351   1.141   3.433  12.791  0.0065 -0.0571  0.1776
  696TMC3    C810352   1.075   3.176  13.177  0.5206 -0.4967 -0.0052
  696TMC3    O110353   1.195   3.457  12.681  0.0467  0.1995 -0.0978
  696TMC3    O210354   0.998   3.264  13.214  0.3759 -0.0936  0.0728
  697MPD2     C10355   0.605   0.293  15.561 -1.2568  1.0516 -0.2249
  697MPD2    C110356   0.503   0.279  15.474  0.5101 -0.8555 -0.0505
  697MPD2    C210357   0.476   0.380  15.380 -0.1771 -0.3131 -0.1998
  697MPD2    C310358   0.565   0.486  15.364 -0.0894  0.2495 -1.0087
  697MPD2    C410359   0.667   0.500  15.454 -0.6862 -0.0101  0.3432
  697MPD2    C510360   0.684   0.408  15.555 -1.2438 -0.2883  0.4546
  697MPD2     H10361   0.397   0.359  15.308  0.0320 -0.8574 -0.2723
  697MPD2    H110362   0.735   0.585  15.451 -1.4329  0.5165 -2.1684
  697MPD2    H210363   0.638   0.219  15.632 -1.7566  1.2009  0.1709
  697MPD2    H310364   0.780   0.421  15.604 -1.4806 -0.6093  0.9994
  697MPD2     N10365   0.555   0.559  15.240  0.3774 -0.1399  0.4551
  697MPD2    H510366   0.493   0.518  15.170 -0.3822  0.3758  0.8173
  697MPD2    N110367   0.435   0.163  15.449  0.5797 -0.2849  0.2939
  697MPD2    H710368   0.373   0.161  15.369  1.0516 -1.2849 -0.0357
  698TMC3    C110369   0.637   0.665  15.050  0.1277  0.2342  0.2159
  698TMC3    C210370   0.722   0.750  14.993 -1.1001 -0.0786 -0.3212
  698TMC3    C310371   0.704   0.779  14.855 -0.0271 -0.0463  0.6999
  698TMC3    C410372   0.531   0.606  14.975 -0.1199  0.5695  0.3437
  698TMC3    C510373   0.523   0.629  14.845  0.3560 -0.1324 -0.2972
  698TMC3    C610374   0.607   0.720  14.783 -0.0876  0.3951  0.1663
  698TMC3     C10375   0.651   0.652  15.192  0.1008  0.0496  0.2954
  698TMC3     O10376   0.724   0.724  15.262 -0.3500  0.5513  0.1883
  698TMC3     H10377   0.785   0.817  15.051 -1.1389 -1.7005  1.5827
  698TMC3    H110378   0.459   0.542  15.025  1.0994 -1.6848 -0.7856
  698TMC3    H210379   0.581   0.751  14.683 -1.6106 -0.7453  0.1946
  698TMC3    C710380   0.417   0.579  14.762 -0.4467 -0.3295 -0.1028
  698TMC3    C810381   0.744   0.908  14.805 -0.9899  0.2711  0.0169
  698TMC3    O110382   0.399   0.635  14.657 -0.1815 -0.5752  0.4702
  698TMC3    O210383   0.658   0.963  14.736  0.3459  0.4235 -0.9886
  699TMC3    C110384   0.502   3.095  12.815 -0.0707 -0.7925 -0.1597
  699TMC3    C210385   0.590   3.051  12.912 -0.7108  0.5783  0.1019
  699TMC3    C310386   0.526   3.000  13.024  0.2994  0.4096 -0.3107
  699TMC3    C410387   0.362   3.114  12.832  0.5551 -0.3794 -0.0090
  699TMC3    C510388   0.310   3.076  12.953  0.2418 -0.2202 -0.3969
  699TMC3    C610389   0.393   3.023  13.044  0.9713  0.1777  0.0672
  699TMC3     C10390   0.552   3.187  12.711  0.4961  0.5276  0.6945
  699TMC3     O10391   0.474   3.272  12.672 -0.1156  0.1163 -0.4060
  699TMC3     H10392   0.697   3.065  12.923 -0.2388 -2.8345 -0.3238
  699TMC3    H110393   0.301   3.158  12.753  0.0118  0.3774  0.8360
  699TMC3    H210394   0.338   2.974  13.123  0.4942 -1.7666 -1.4739
  699TMC3    C710395   0.173   3.114  12.990  0.1111  0.8532  0.1306
  699TMC3    C810396   0.591   2.919  13.123 -0.6665 -0.5356 -0.7981
  699TMC3    O110397   0.146   3.097  13.109 -0.2081 -0.4874  0.3741
  699TMC3    O210398   0.523   2.879  13.219 -0.7845 -0.2824  0.3498
  700TMC3    C110399   4.395   0.557  16.935  0.0209 -0.0567 -0.0843
  700TMC3    C210400   4.480   0.459  16.984  0.4139  0.5235 -0.6730
  700TMC3    C310401   4.527   0.482  17.116 -0.1960 -0.2653 -0.6915
  700TMC3    C410402   4.349   0.659  17.013 -0.5625  0.1863  0.5641
  700TMC3    C510403   4.396   0.679  17.143 -0.1820  0.0898 -0.5190
  700TMC3    C610404   4.482   0.581  17.200  0.3510  0.0094  0.0507
  700TMC3     C10405   4.407   0.577  16.793  0.3842 -0.5922 -0.4214
  700TMC3     O10406   4.385   0.476  16.726  0.4838  0.1965  0.2879
  700TMC3     H10407   4.518   0.378  16.923  0.2672  0.5720 -0.8319
  700TMC3    H110408   4.297   0.744  16.972 -0.5216  0.8383  1.8594
  700TMC3    H210409   4.514   0.588  17.304 -2.4259 -0.9358  0.9727
  700TMC3    C710410   4.381   0.815  17.210 -0.2616  0.4000 -0.2267
  700TMC3    C810411   4.654   0.408  17.146  0.1784  0.2807  0.4986
  700TMC3    O110412   4.338   0.907  17.142  0.7441  0.0113 -0.0418
  700TMC3    O210413   4.690   0.328  17.058 -0.4004 -0.6540 -0.1781
  701TMC3    C110414   4.236   4.110  15.495 -0.2014  0.0867  0.2613
  701TMC3    C210415   4.302   4.087  15.375  0.4836 -0.7056  0.1341
  701TMC3    C310416   4.399   4.178  15.346  0.7685  0.6545 -0.4989
  701TMC3    C410417   4.247   4.223  15.570 -0.2124  0.4390 -0.4176
  701TMC3    C510418   4.356   4.307  15.539  0.0004 -0.4340 -0.3737
  701TMC3    C610419   4.436   4.289  15.429 -0.1901  0.1921  0.1300
  701TMC3     C10420   4.206   3.986  15.558  0.1000 -0.2256 -0.7933
  701TMC3     O10421   4.141   4.004  15.663 -0.3514  0.3388 -0.3537
  701TMC3     H10422   4.285   3.997  15.316 -0.7018  0.5070 -1.3699
  701TMC3    H110423   4.193   4.233  15.663 -0.9902 -0.3437 -0.7807
  701TMC3    H210424   4.521   4.349  15.398  0.0898 -0.5043 -0.4587
  701TMC3    C710425   4.368   4.433  15.602 -0.3327  0.2169  0.3950
  701TMC3    C810426   4.472   4.172  15.215  0.3420  0.3831  0.6426
  701TMC3    O110427   4.400   4.524  15.529 -0.3880 -0.3747 -0.0362
  701TMC3    O210428   4.572   4.244  15.208 -0.0437  0.3019 -0.2778
  702MPD2     C10429   4.157   1.489  10.516  0.3830  0.3581 -0.1255
  702MPD2    C110430   4.076   1.597  10.545  0.1706  0.4155 -0.2204
  702MPD2    C210431   4.054   1.687  10.443 -0.6803  0.0671  0.3511
  702MPD2    C310432   4.106   1.669  10.316  0.0236 -0.0841  0.3304
  702MPD2    C410433   4.187   1.565  10.290  0.4287  0.0645  0.5339
  702MPD2    C510434   4.208   1.472  10.391 -0.1373 -0.1898 -1.1627
  702MPD2     H10435   3.999   1.779  10.459  0.7223  0.9792 -0.0732
  702MPD2    H110436   4.240   1.576  10.197 -2.7350  1.8890 -1.0624
  702MPD2    H210437   4.189   1.421  10.594  0.4076  1.3764  0.7533
  702MPD2    H310438   4.270   1.384  10.384  0.8122  0.3906 -0.0566
  702MPD2     N10439   4.087   1.770  10.215  0.2322  0.1115  0.2361
  702MPD2    H510440   4.140   1.759  10.129 -0.7643  0.2393 -0.4027
  702MPD2    N110441   4.009   1.622  10.666 -0.2198 -0.2541  0.1054
  702MPD2    H710442   3.945   1.700  10.667 -1.9624 -1.6683  0.6502
  703TMC3    C110443   4.025   1.982  10.139 -0.2833 -0.3968  0.4427
  703TMC3    C210444   3.932   2.085  10.155 -0.8146 -0.3226 -0.3122
  703TMC3    C310445   3.982   2.216  10.140 -0.8030  0.5223  0.7985
  703TMC3    C410446   4.154   2.003  10.105  0.3065  0.7112  0.5088
  703TMC3    C510447   4.191   2.136  10.075  0.1844  0.3227 -0.3019
  703TMC3    C610448   4.103   2.245  10.090  0.4067  0.1962  0.8745
  703TMC3     C10449   3.996   1.872  10.218 -0.2537  0.2315  0.5159
  703TMC3     O10450   3.897   1.884  10.289  0.1035  0.5646 -0.0887
  703TMC3     H10451   3.827   2.067  10.177 -0.7426 -0.5778 -0.1766
  703TMC3    H110452   4.218   1.916  10.099  2.0198  2.0776 -0.9684
  703TMC3    H210453   4.147   2.344  10.086  0.8114 -0.0628 -1.2455
  703TMC3    C710454   4.325   2.177  10.106  0.0739  0.2148 -0.2909
  703TMC3    C810455   3.899   2.333  10.171  0.7584 -0.4939  0.8240
  703TMC3    O110456   4.364   2.295  10.084  0.0023  0.0081 -0.8050
  703TMC3    O210457   3.931   2.439  10.127  0.5425  0.2015 -0.2167
  704TMC3    C110458   1.976   0.140  12.274 -0.3447 -0.5548  0.1270
  704TMC3    C210459   2.031   0.130  12.150 -0.1980  0.2671  0.4256
  704TMC3    C310460   2.166   0.117  12.143  0.0855  0.0985 -0.3132
  704TMC3    C410461   2.044   0.160  12.390  0.0349 -0.3634  0.5567
  704TMC3    C510462   2.182   0.142  12.375 -0.2429 -0.0890  0.0748
  704TMC3    C610463   2.246   0.132  12.251 -0.4804  0.4648  0.7764
  704TMC3     C10464   1.839   0.103  12.296  0.3834 -0.6008 -0.4708
  704TMC3     O10465   1.779   0.152  12.391 -0.3310 -0.2740  0.2399
  704TMC3     H10466   1.970   0.129  12.060 -0.7064  0.9842  0.7646
  704TMC3    H110467   2.002   0.157  12.490 -1.7183 -0.3419 -0.1797
  704TMC3    H210468   2.353   0.116  12.255 -0.5031  0.3060  0.7556
  704TMC3    C710469   2.234   0.046  12.470  0.4989 -0.1308  0.2673
  704TMC3    C810470   2.228   0.098  12.013  0.0153  0.5209  0.6472
  704TMC3    O110471   2.149   4.714  12.518 -0.0371 -0.1870 -0.0526
  704TMC3    O210472   2.145   0.106  11.923  0.8182  0.5844 -0.1509
  705MPD2     C10473   1.296   2.925  16.433 -0.0320  0.6500 -0.2009
  705MPD2    C110474   1.260   3.035  16.357 -0.5633  0.1641 -0.3724
  705MPD2    C210475   1.152   3.113  16.388 -0.4643 -0.1496 -0.4836
  705MPD2    C310476   1.071   3.080  16.491 -0.0006  0.1836  0.4961
  705MPD2    C410477   1.104   2.967  16.562 -0.1420  0.1182  0.6013
  705MPD2    C510478   1.210   2.892  16.534 -0.3437  0.1133  0.2028
  705MPD2     H10479   1.119   3.198  16.330  2.5733 -0.9545 -3.3796
  705MPD2    H110480   1.045   2.942  16.650 -1.4163  0.3883 -0.1782
  705MPD2    H210481   1.377   2.854  16.420 -1.0747 -0.9286  1.9913
  705MPD2    H310482   1.239   2.829  16.618 -0.7842  0.1060  0.3507
  705MPD2     N10483   0.946   3.139  16.521  0.3277 -0.0304 -0.4323
  705MPD2    H510484   0.885   3.105  16.595  0.1563 -0.3451 -0.7174
  705MPD2    N110485   1.328   3.066  16.237  0.5778 -0.6298 -0.1394
  705MPD2    H710486   1.265   3.110  16.170  0.1869  0.4639  0.9567
  706TMC3    C110487   1.545   2.985  15.861  0.9273  0.9586  0.0375
  706TMC3    C210488   1.477   3.093  15.801 -0.0114  0.2168  0.0330
  706TMC3    C310489   1.424   3.190  15.882  1.2613  0.5434 -0.0449
  706TMC3    C410490   1.551   2.962  15.995 -0.7120  0.1946  0.0691
  706TMC3    C510491   1.480   3.050  16.070 -1.0490 -0.1849  0.2603
  706TMC3    C610492   1.425   3.171  16.022  1.0355 -0.0616  0.1514
  706TMC3     C10493   1.644   2.912  15.781  0.1356  0.6700 -0.2839
  706TMC3     O10494   1.746   2.882  15.850  0.0974  0.1239 -0.0807
  706TMC3     H10495   1.467   3.095  15.693  0.4171 -2.1290 -0.0480
  706TMC3    H110496   1.592   2.869  16.034 -1.3776 -1.2537 -2.7081
  706TMC3    H210497   1.370   3.245  16.080  1.2212  0.0160  0.2277
  706TMC3    C710498   1.434   3.004  16.198 -0.6884  0.1181 -0.3598
  706TMC3    C810499   1.402   3.321  15.817  0.0588 -0.0312  0.0222
  706TMC3    O110500   1.509   2.925  16.253 -0.4619  0.0966  0.2837
  706TMC3    O210501   1.391   3.333  15.694  0.3851  0.4992 -0.2294
  707TMC3    C110502   2.489   2.107  17.515  0.8526  0.7744 -0.4338
  707TMC3    C210503   2.503   1.971  17.518 -0.1994  0.5164  0.9027
  707TMC3    C310504   2.427   1.894  17.425 -0.0504  0.9774  0.8879
  707TMC3    C410505   2.414   2.172  17.421 -0.1315 -0.7603 -0.1734
  707TMC3    C510506   2.348   2.094  17.329  0.0763 -0.3507 -0.1468
  707TMC3    C610507   2.346   1.960  17.339 -0.4908 -0.3310  0.9473
  707TMC3     C10508   2.595   2.195  17.578 -0.4666 -0.9481 -0.1132
  707TMC3     O10509   2.612   2.308  17.547  0.2773  0.0812 -0.4183
  707TMC3     H10510   2.594   1.925  17.553  0.3713  0.6548 -0.4180
  707TMC3    H110511   2.414   2.279  17.404 -1.4693 -0.3833  2.1668
  707TMC3    H210512   2.278   1.913  17.268 -1.0809  0.7592  0.7865
  707TMC3    C710513   2.238   2.163  17.262 -0.3839  0.6914  0.1203
  707TMC3    C810514   2.418   1.749  17.431  0.1712  0.3306  0.4857
  707TMC3    O110515   2.139   2.102  17.225 -0.4542 -1.0096 -0.1590
  707TMC3    O210516   2.344   1.693  17.353  0.2393  0.1109  0.2881
  708MPD2     C10517   4.347   1.181  13.895 -0.1708 -0.3734  0.5863
  708MPD2    C110518   4.211   1.147  13.909  0.3123  0.4790  0.3333
  708MPD2    C210519   4.173   1.055  14.010 -0.0880  0.3615  0.2919
  708MPD2    C310520   4.272   0.990  14.079  0.0202 -0.2699 -0.2968
  708MPD2    C410521   4.407   1.002  14.035 -0.3897  0.5251  0.1628
  708MPD2    C510522   4.441   1.103  13.957  0.0539 -0.0216  0.4021
  708MPD2     H10523   4.069   1.039  14.034  0.3192 -0.0139  1.7760
  708MPD2    H110524   4.491   0.946  14.073  1.2880  2.1825 -1.0984
  708MPD2    H210525   4.392   1.249  13.823  1.0127 -0.6881  1.0319
  708MPD2    H310526   4.548   1.115  13.940  0.0740 -0.9680 -0.1869
  708MPD2     N10527   4.230   0.914  14.190 -0.3183 -0.1581 -0.8606
  708MPD2    H510528   4.130   0.912  14.209 -0.3994 -2.0350 -1.5283
  708MPD2    N110529   4.116   1.229  13.829  0.5307 -0.2541 -0.5476
  708MPD2    H710530   4.148   1.291  13.754  0.1664 -0.1785 -0.6380
  709TMC3    C110531   3.906   1.321  13.767 -0.0175 -0.4328 -0.4685
  709TMC3    C210532   3.939   1.276  13.641 -0.2200 -0.1569 -0.2190
  709TMC3    C310533   3.829   1.245  13.562 -0.5360  0.3659  0.0218
  709TMC3    C410534   3.776   1.323  13.813 -0.3466 -0.6510 -0.6640
  709TMC3    C510535   3.688   1.242  13.747  0.3901 -0.5115  0.2514
  709TMC3    C610536   3.704   1.224  13.613 -0.0867  0.1994 -0.0226
  709TMC3     C10537   3.989   1.265  13.875  0.8224  0.0468  0.1479
  709TMC3     O10538   3.936   1.233  13.976  0.1172  0.2137 -0.1112
  709TMC3     H10539   4.042   1.284  13.605 -0.9532 -0.1476 -2.3439
  709TMC3    H110540   3.740   1.366  13.906  0.6209  0.1414 -0.6474
  709TMC3    H210541   3.639   1.160  13.555  0.4309 -0.1197 -0.2504
  709TMC3    C710542   3.628   1.139  13.823  0.2473 -0.2502 -0.6435
  709TMC3    C810543   3.864   1.163  13.448  0.5199  0.5477  0.3273
  709TMC3    O110544   3.549   1.060  13.767  0.5961 -0.3441 -0.8143
  709TMC3    O210545   3.825   1.049  13.442  0.0601  0.1503 -0.6545
  710TMC3    C110546   0.446   2.736   0.068 -0.4242 -0.3054 -0.6698
  710TMC3    C210547   0.545   2.784  17.725  0.0783  0.0189  0.0048
  710TMC3    C310548   0.673   2.764   0.015 -0.5084 -0.3461  0.9813
  710TMC3    C410549   0.470   2.651   0.174  0.4536 -0.8765  0.5243
  710TMC3    C510550   0.600   2.619   0.196  0.2359  0.5637 -0.2821
  710TMC3    C610551   0.695   2.683   0.120  0.3359  0.5199 -0.0978
  710TMC3     C10552   0.311   2.769   0.030 -0.2928  0.5488 -0.1344
  710TMC3     O10553   0.293   2.798  17.660 -0.1911 -0.0723  0.0265
  710TMC3     H10554   0.521   2.853  17.646 -0.3361 -0.3629 -0.2055
  710TMC3    H110555   0.390   2.605   0.230  0.3279 -0.3227  0.7926
  710TMC3    H210556   0.797   2.646   0.133 -0.2145 -0.2659  1.9450
  710TMC3    C710557   0.646   2.534   0.300 -0.0976  0.1744 -0.4031
  710TMC3    C810558   0.767   2.830  17.675 -0.3067  0.0762  0.6111
  710TMC3    O110559   0.760   2.493   0.291 -0.5531 -0.4026  0.1383
  710TMC3    O210560   0.715   2.899  17.589  0.4477  0.5445 -0.2651
  711TMC3    C110561   0.019   3.779  14.801 -0.1662  0.3384 -0.0660
  711TMC3    C210562   0.038   3.793  14.938 -0.5354  0.3344 -0.7790
  711TMC3    C310563   0.146   3.859  14.982  0.0393  0.5012  0.0634
  711TMC3    C410564   0.104   3.833  14.715 -0.5033 -0.1844  0.4320
  711TMC3    C510565   0.222   3.895  14.758  0.4062  0.3296  0.3613
  711TMC3    C610566   0.234   3.920  14.894  0.3584 -0.0384 -0.4938
  711TMC3     C10567   4.735   3.641  14.769 -0.1817  0.4041 -0.2009
  711TMC3     O10568   4.721   3.608  14.649 -0.1042  0.0807 -0.0198
  711TMC3     H10569   4.705   3.755  15.012 -0.6247 -0.6295 -1.3525
  711TMC3    H110570   0.079   3.818  14.611 -1.3759  2.2183  0.3065
  711TMC3    H210571   0.319   3.974  14.933 -0.8197  0.7574  0.9807
  711TMC3    C710572   0.342   3.822  14.726 -0.1236  0.1888 -0.6505
  711TMC3    C810573   0.218   3.781  15.083  0.3165  0.3803  0.6192
  711TMC3    O110574   0.447   3.850  14.785 -0.0020 -0.0983 -0.2421
  711TMC3    O210575   0.159   3.681  15.123  0.0464 -0.2687  0.2451
  712MPD2     C10576   1.905   4.400  13.125  0.6989  0.1981 -0.2572
  712MPD2    C110577   1.786   4.391  13.190  0.2468 -0.7037 -0.4113
  712MPD2    C210578   1.768   4.432  13.320 -0.5329 -1.3860  0.5503
  712MPD2    C310579   1.874   4.489  13.383 -0.4782  0.0720 -0.0477
  712MPD2    C410580   1.992   4.493  13.321  0.5580 -0.3390 -0.2808
  712MPD2    C510581   2.014   4.442  13.194 -0.4448 -0.0831  0.1121
  712MPD2     H10582   1.670   4.440  13.365 -1.6037  1.0096 -2.1795
  712MPD2    H110583   2.079   4.544  13.361 -0.7636 -0.0285  2.2593
  712MPD2    H210584   1.917   4.369  13.022 -0.6707 -1.8896  0.1952
  712MPD2    H310585   2.114   4.445  13.152 -1.1490  0.3985 -1.5416
  712MPD2     N10586   1.861   4.563  13.502  1.1250 -0.0455 -0.5375
  712MPD2    H510587   1.946   4.598  13.543 -0.6165  1.7360  1.5221
  712MPD2    N110588   1.667   4.336  13.137 -0.7476  0.0430  0.4232
  712MPD2    H710589   1.583   4.333  13.193 -0.3931 -0.8622  0.9094
  713TMC3    C110590   1.748   4.668  13.692 -0.6546 -0.1089  0.2528
  713TMC3    C210591   1.866   4.647  13.760 -0.1115 -0.0104 -0.1439
  713TMC3    C310592   1.904   4.737  13.854  0.0194  0.4375 -0.4918
  713TMC3    C410593   1.684   0.044  13.702 -0.4355  0.2629  0.0858
  713TMC3    C510594   1.728   0.133  13.803 -0.4141 -0.2401  0.6388
  713TMC3    C610595   1.841   0.116  13.877 -0.6541 -0.9893 -0.0391
  713TMC3     C10596   1.738   4.600  13.569 -0.1359 -0.3937  0.4369
  713TMC3     O10597   1.629   4.605  13.513 -0.1101 -0.6796 -0.0275
  713TMC3     H10598   1.922   4.555  13.754  0.0479  0.0787 -0.0126
  713TMC3    H110599   1.596   0.069  13.643 -0.7020 -0.4012  0.1976
  713TMC3    H210600   1.870   0.176  13.963 -0.6174  0.5455 -1.1038
  713TMC3    C710601   1.672   0.269  13.792 -0.0663  0.8287  0.7917
  713TMC3    C810602   2.047   0.004  13.889  0.8496 -0.2995 -0.5526
  713TMC3    O110603   1.613   0.300  13.691  0.7718 -0.0236  0.0791
  713TMC3    O210604   2.110   0.107  13.873 -0.1949 -0.3243  0.6823
  714MPD2     C10605   3.296   3.639   1.300  0.9079 -0.7710 -0.1126
  714MPD2    C110606   3.370   3.594   1.195  0.0658  0.5169  0.4433
  714MPD2    C210607   3.371   3.661   1.075  0.8933 -0.5505  0.4013
  714MPD2    C310608   3.296   3.772   1.061 -0.5786 -0.1308  0.3668
  714MPD2    C410609   3.205   3.808   1.165  0.0726 -0.3004  0.1609
  714MPD2    C510610   3.209   3.744   1.289  0.0820 -0.1397 -0.6624
  714MPD2     H10611   3.433   3.627   0.993  0.6050 -0.6859  0.2378
  714MPD2    H110612   3.136   3.890   1.149  0.8296  0.2505 -0.3227
  714MPD2    H210613   3.304   3.588   1.395  1.0056 -2.1173 -0.8480
  714MPD2    H310614   3.146   3.771   1.373  0.8354  0.8757 -0.4302
  714MPD2     N10615   3.302   3.851   0.947 -0.3088 -0.1188  0.1323
  714MPD2    H510616   3.351   3.810   0.867 -0.0878  0.3712  0.0167
  714MPD2    N110617   3.452   3.481   1.222 -0.7711  0.3540 -0.2889
  714MPD2    H710618   3.468   3.466   1.322  0.6707  2.2498 -0.2198
  715TMC3    C110619   3.628   3.338   1.202 -0.1878 -0.1953  0.8977
  715TMC3    C210620   3.678   3.233   1.138  0.1182 -0.1008  0.2936
  715TMC3    C310621   3.757   3.141   1.205  0.2768 -0.1130  0.6082
  715TMC3    C410622   3.661   3.377   1.330 -0.1951 -0.4007 -0.2477
  715TMC3    C510623   3.742   3.282   1.392 -0.1716  0.1782 -0.1533
  715TMC3    C610624   3.778   3.160   1.337  0.2810 -0.0876  0.2453
  715TMC3     C10625   3.521   3.400   1.131 -0.4101 -0.3220  0.2095
  715TMC3     O10626   3.501   3.391   1.012 -0.0750 -0.1658  0.5506
  715TMC3     H10627   3.670   3.223   1.031 -1.3184 -2.3758  0.5988
  715TMC3    H110628   3.654   3.477   1.370  0.3128 -0.3947 -0.1613
  715TMC3    H210629   3.817   3.087   1.407  1.2256 -0.7965 -1.0336
  715TMC3    C710630   3.822   3.325   1.507 -0.4191  0.9758  0.1348
  715TMC3    C810631   3.867   3.071   1.133 -0.3910 -0.1146  0.1182
  715TMC3    O110632   3.939   3.285   1.509 -0.6933  0.3933  0.9887
  715TMC3    O210633   3.843   3.040   1.017  1.0803  0.0909 -0.4901
  716MPD2     C10634   3.611   1.915   9.387  0.4541 -0.4683  0.3693
  716MPD2    C110635   3.482   1.865   9.361 -0.2657  0.8569  0.4312
  716MPD2    C210636   3.464   1.735   9.322  0.0066  1.0826 -0.4033
  716MPD2    C310637   3.571   1.651   9.322  0.4780  0.5152  0.0930
  716MPD2    C410638   3.699   1.708   9.343 -0.1963 -0.7709  1.0155
  716MPD2    C510639   3.720   1.835   9.377  0.1378  0.4719 -0.6517
  716MPD2     H10640   3.364   1.701   9.297  0.9303 -2.9524  1.3726
  716MPD2    H110641   3.793   1.655   9.336  0.9618  1.4292  0.0018
  716MPD2    H210642   3.619   2.020   9.411 -1.1853 -0.4475  0.8265
  716MPD2    H310643   3.822   1.871   9.391 -0.3466  1.5648  0.0856
  716MPD2     N10644   3.540   1.514   9.301 -0.0567 -0.4801 -0.0923
  716MPD2    H510645   3.444   1.484   9.283 -0.3926  0.7480 -0.3241
  716MPD2    N110646   3.382   1.947   9.409  0.1995  0.3254  0.0479
  716MPD2    H710647   3.409   2.020   9.474 -0.3529  1.7791 -1.3716
  717TMC3    C110648   3.571   1.285   9.267  0.7328 -0.1392  0.2999
  717TMC3    C210649   3.467   1.282   9.174 -0.1526  0.8637 -0.4519
  717TMC3    C310650   3.395   1.165   9.154 -0.2081 -0.3242  0.1332
  717TMC3    C410651   3.613   1.176   9.330 -0.2382  0.1402 -0.0260
  717TMC3    C510652   3.545   1.058   9.298  0.1109  0.4036  0.3485
  717TMC3    C610653   3.439   1.048   9.210 -0.0063 -0.4879  0.4669
  717TMC3     C10654   3.628   1.414   9.312  0.5491 -0.5663  0.3507
  717TMC3     O10655   3.747   1.430   9.341  0.0610 -0.3393  0.2073
  717TMC3     H10656   3.454   1.364   9.105 -0.4315  0.8020 -0.4753
  717TMC3    H110657   3.699   1.171   9.395 -1.6193 -2.2658  1.6111
  717TMC3    H210658   3.373   0.964   9.196 -2.4362  0.8563  3.6593
  717TMC3    C710659   3.600   0.939   9.348  0.6294  0.0518  0.2464
  717TMC3    C810660   3.264   1.192   9.105  0.0311  0.5415  0.2615
  717TMC3    O110661   3.663   0.942   9.450  0.2972  0.2450  0.3528
  717TMC3    O210662   3.235   1.311   9.092  0.3082  0.3519  0.4827
  718MPD2     C10663   3.739   0.198  12.796  0.0188  0.0806 -0.4787
  718MPD2    C110664   3.684   0.173  12.667  0.5788 -0.3306 -0.4946
  718MPD2    C210665   3.566   0.102  12.662 -0.2810  0.4444 -0.6702
  718MPD2    C310666   3.504   0.057  12.772 -0.2002 -0.0655  0.5495
  718MPD2    C410667   3.565   0.061  12.899  0.2936 -0.0485  0.9796
  718MPD2    C510668   3.680   0.140  12.908 -0.2935 -0.2722  0.2157
  718MPD2     H10669   3.512   0.089  12.569 -3.7712  1.3610  1.2208
  718MPD2    H110670   3.518   0.009  12.982  0.4861 -2.4761 -0.4193
  718MPD2    H210671   3.826   0.259  12.817  0.3121 -1.4466  2.8177
  718MPD2    H310672   3.718   0.159  13.008 -1.3602 -0.8330  0.7306
  718MPD2     N10673   3.382   4.725  12.743  0.0281  0.3127  0.0520
  718MPD2    H510674   3.347   0.000  12.649  0.1480  0.6301  0.0470
  718MPD2    N110675   3.751   0.222  12.553  0.0866 -0.3226  0.0806
  718MPD2    H710676   3.833   0.280  12.568  0.5431 -1.4474  1.9566
  719TMC3    C110677   3.832   0.212  12.322  0.2801 -0.2437 -0.1742
  719TMC3    C210678   3.786   0.153  12.203 -0.6106 -0.0240 -0.1538
  719TMC3    C310679   3.757   0.231  12.096  0.3241  0.4693 -0.4713
  719TMC3    C410680   3.867   0.346  12.321 -0.6072 -0.3944  0.6368
  719TMC3    C510681   3.849   0.417  12.201 -0.5444 -0.4273 -0.2426
  719TMC3    C610682   3.790   0.363  12.088 -0.1212  0.0426 -0.2160
  719TMC3     C10683   3.737   0.163  12.426  0.6573  0.4811  0.9743
  719TMC3     O10684   3.669   0.071  12.390 -0.0369  0.4261  0.3911
  719TMC3     H10685   3.777   0.046  12.189 -3.0885  0.0420  0.9937
  719TMC3    H110686   3.894   0.392  12.415  0.8101  1.0958 -0.4991
  719TMC3    H210687   3.748   0.420  12.006  0.6854  0.5610 -0.2676
  719TMC3    C710688   3.934   0.532  12.175  0.0029  0.3804  0.0041
  719TMC3    C810689   3.619   0.212  12.046  0.0419 -0.2860 -0.7631
  719TMC3    O110690   3.924   0.578  12.064  0.1459 -0.5284 -0.0218
  719TMC3    O210691   3.582   0.271  11.942 -0.7410 -0.2749 -0.1819
  720MPD2     C10692   2.141   1.697  13.004  0.7451  0.3424  0.8934
  720MPD2    C110693   2.057   1.781  13.077  0.3823 -0.5578 -0.3820
  720MPD2    C210694   2.092   1.813  13.210 -0.6741  0.6536 -0.4280
  720MPD2    C310695   2.203   1.764  13.274 -0.0147 -0.6901  0.0693
  720MPD2    C410696   2.286   1.677  13.201 -0.5629  0.3609  1.1394
  720MPD2    C510697   2.257   1.654  13.070  0.1315  0.1111 -0.2569
  720MPD2     H10698   2.026   1.879  13.265 -1.7891 -1.4068  0.7127
  720MPD2    H110699   2.384   1.646  13.238 -0.5230  0.4841  1.1372
  720MPD2    H210700   2.122   1.673  12.900  0.1396 -1.3174  1.3900
  720MPD2    H310701   2.327   1.590  13.018  1.3913  0.1931  1.3382
  720MPD2     N10702   2.250   1.813  13.403 -0.0327  0.7076 -0.1136
  720MPD2    H510703   2.194   1.887  13.446 -0.3805  0.5228 -0.2513
  720MPD2    N110704   1.943   1.839  13.027 -0.2663 -0.9095  0.6598
  720MPD2    H710705   1.886   1.898  13.088 -3.1537 -0.3111 -2.6073
  721TMC3    C110706   2.363   1.814  13.610  0.4282 -0.1818  0.1882
  721TMC3    C210707   2.249   1.806  13.687  0.3119  0.6771  0.1620
  721TMC3    C310708   2.259   1.793  13.826  0.5546  0.8139 -0.5730
  721TMC3    C410709   2.486   1.818  13.674 -0.2639 -0.7487  0.1265
  721TMC3    C510710   2.495   1.834  13.811 -0.3901 -0.0212 -0.2851
  721TMC3    C610711   2.381   1.812  13.887 -0.0177 -0.3137  0.0994
  721TMC3     C10712   2.355   1.767  13.475 -0.6929  0.5129  0.1574
  721TMC3     O10713   2.443   1.684  13.447  0.4223  0.6041  0.4889
  721TMC3     H10714   2.153   1.784  13.639  0.5846 -0.8529  0.3077
  721TMC3    H110715   2.578   1.830  13.618 -0.5463 -2.9794 -0.8020
  721TMC3    H210716   2.397   1.811  13.994 -1.3598 -1.2943  0.2945
  721TMC3    C710717   2.630   1.835  13.874  0.0635 -0.1097  0.2924
  721TMC3    C810718   2.125   1.802  13.895  0.7780  0.0182 -0.3022
  721TMC3    O110719   2.731   1.853  13.807  0.7358 -0.1338 -0.2924
  721TMC3    O210720   2.031   1.822  13.820  0.0234 -0.4699  0.1342
  722MPD2     C10721   0.757   0.525  13.536  0.3225 -0.0660 -1.0766
  722MPD2    C110722   0.734   0.656  13.564 -0.0648  0.3920  0.3413
  722MPD2    C210723   0.621   0.713  13.504 -0.3214 -0.1267  0.1722
  722MPD2    C310724   0.530   0.645  13.426 -0.1867  0.2732 -0.0230
  722MPD2    C410725   0.548   0.511  13.411  0.4570 -0.4380  0.1711
  722MPD2    C510726   0.666   0.456  13.462 -0.4834 -0.5417 -0.1074
  722MPD2     H10727   0.608   0.820  13.520 -3.7253 -0.6843  1.0459
  722MPD2    H110728   0.477   0.454  13.354  0.4726 -0.8147  0.5280
  722MPD2    H210729   0.854   0.480  13.557  1.5124  2.7547 -0.4423
  722MPD2    H310730   0.681   0.352  13.436  0.7220 -0.6334  0.9884
  722MPD2     N10731   0.438   0.717  13.349 -0.6036 -0.1078  0.2809
  722MPD2    H510732   0.426   0.815  13.375  0.0943  0.1677 -0.4139
  722MPD2    N110733   0.824   0.731  13.644  0.0427  0.0982 -0.5304
  722MPD2    H710734   0.805   0.830  13.646  0.7049  0.2537 -1.8030
  723TMC3    C110735   0.257   0.748  13.198 -0.2382  0.1976 -0.1806
  723TMC3    C210736   0.198   0.704  13.085  0.3546  0.0215 -0.3748
  723TMC3    C310737   0.078   0.756  13.062  0.4129 -0.5195 -0.1976
  723TMC3    C410738   0.196   0.837  13.285 -0.8629 -1.0974  0.0094
  723TMC3    C510739   0.083   0.891  13.252  0.3200  0.3233  0.4853
  723TMC3    C610740   0.018   0.850  13.140  0.7701 -0.6393  0.2527
  723TMC3     C10741   0.365   0.661  13.248 -1.0768 -0.8509  0.2335
  723TMC3     O10742   0.367   0.550  13.204  0.5843  0.3487 -0.4047
  723TMC3     H10743   0.250   0.638  13.017 -1.3215  0.8008 -2.4247
  723TMC3    H110744   0.233   0.866  13.382 -0.0441  1.2926 -1.0150
  723TMC3    H210745   4.667   0.907  13.113  1.2132 -0.1059 -0.0594
  723TMC3    C710746   0.017   0.973  13.358  0.2143 -0.1078  0.4487
  723TMC3    C810747   4.730   0.712  12.954  0.3903 -0.3947  0.2092
  723TMC3    O110748   0.088   1.025  13.443 -0.1857  0.6555 -0.4710
  723TMC3    O210749   4.637   0.783  12.919 -0.3458  0.0957  0.2794
  724TMC3    C110750   0.827   4.197   9.329  0.3103  0.4540  1.0953
  724TMC3    C210751   0.821   4.303   9.247  0.8630 -0.0285 -0.3908
  724TMC3    C310752   0.907   4.410   9.268  0.4637  0.8868  0.0129
  724TMC3    C410753   0.932   4.177   9.415 -0.2346  0.6045 -0.6745
  724TMC3    C510754   1.019   4.273   9.422  0.4933  0.1378  0.2467
  724TMC3    C610755   1.011   4.396   9.356 -0.3121  0.3185  0.4802
  724TMC3     C10756   0.720   4.103   9.328  0.1883 -0.3346 -0.5093
  724TMC3     O10757   0.711   4.046   9.435  0.7138 -0.1998  0.5024
  724TMC3     H10758   0.739   4.320   9.178  0.1620 -1.7762  0.0122
  724TMC3    H110759   0.944   4.077   9.455 -2.5325 -0.0046 -1.4761
  724TMC3    H210760   1.088   4.472   9.362  0.0093 -0.0287  0.8039
  724TMC3    C710761   1.130   4.254   9.522  0.8688  0.3767 -0.5445
  724TMC3    C810762   0.902   4.513   9.168  0.3842  0.3841 -0.0337
  724TMC3    O110763   1.132   4.150   9.586 -0.2745 -0.2497 -0.3382
  724TMC3    O210764   0.894   4.482   9.049 -0.3965  0.0632 -0.0258
  725TMC3    C110765   2.529   1.623  12.472 -0.4391  0.0638 -0.3744
  725TMC3    C210766   2.426   1.665  12.392 -0.7413 -0.0060  0.2342
  725TMC3    C310767   2.403   1.584  12.282  0.6422 -0.6080 -0.0845
  725TMC3    C410768   2.606   1.507  12.459 -0.6749 -0.6142 -0.7349
  725TMC3    C510769   2.566   1.431  12.349  0.3627 -0.0270 -0.9666
  725TMC3    C610770   2.467   1.463  12.258 -0.0611 -0.3079 -0.6908
  725TMC3     C10771   2.522   1.677  12.606  0.5912  0.8602 -0.2798
  725TMC3     O10772   2.468   1.784  12.614  0.4959  0.5048 -0.4844
  725TMC3     H10773   2.379   1.762  12.407 -1.6563 -0.5958  1.2047
  725TMC3    H110774   2.684   1.471  12.526  1.8369  0.8373 -2.8938
  725TMC3    H210775   2.453   1.418  12.161 -1.0798  0.7980 -1.0647
  725TMC3    C710776   2.671   1.345  12.293  0.2789  0.6384 -0.0608
  725TMC3    C810777   2.319   1.646  12.177 -0.4298 -0.0152 -0.3741
  725TMC3    O110778   2.671   1.339  12.171 -0.4471  0.8258  0.2584
  725TMC3    O210779   2.256   1.582  12.095 -0.5744  0.2260  0.1845
  726MPD2     C10780   4.529   3.591   9.205  0.2456 -0.9623  0.3531
  726MPD2    C110781   4.549   3.674   9.312 -0.5846 -0.6652 -0.1384
  726MPD2    C210782   4.499   3.635   9.432  0.3128  0.0112 -0.2692
  726MPD2    C310783   4.419   3.518   9.446  0.2662  0.3184 -0.0789
  726MPD2    C410784   4.394   3.445   9.335  0.5548  0.2333  0.0435
  726MPD2    C510785   4.451   3.478   9.216  0.2806 -0.1619  0.2152
  726MPD2     H10786   4.516   3.694   9.522 -2.8089  0.2460  0.1730
  726MPD2    H110787   4.329   3.359   9.351 -0.2010  1.0183  1.1841
  726MPD2    H210788   4.546   3.623   9.103 -1.0582 -2.1724 -0.2525
  726MPD2    H310789   4.433   3.429   9.121  0.8525 -0.2977  0.1730
  726MPD2     N10790   4.366   3.469   9.568  0.6675 -0.0045  0.3862
  726MPD2    H510791   4.327   3.375   9.559 -1.4305  1.2057 -3.3453
  726MPD2    N110792   4.628   3.791   9.310 -0.3318  0.0093  0.0202
  726MPD2    H710793   4.634   3.850   9.393  2.1867 -1.5896  0.9750
  727TMC3    C110794   0.029   3.963   9.242  0.0303  0.1318 -0.2070
  727TMC3    C210795   0.042   4.007   9.372  0.0706  0.7540  0.7927
  727TMC3    C310796   0.103   4.129   9.408 -0.5143 -0.2896  0.2075
  727TMC3    C410797   0.084   4.044   9.149  0.5469 -0.6821  0.0461
  727TMC3    C510798   0.165   4.150   9.187  0.8132 -0.9702  0.6656
  727TMC3    C610799   0.180   4.194   9.312  0.1711 -0.5021 -0.4366
  727TMC3     C10800   4.702   3.836   9.204 -0.1191  0.1867  0.6940
  727TMC3     O10801   4.721   3.796   9.088  0.6946 -0.4540  0.6333
  727TMC3     H10802   0.007   3.955   9.461  1.2800 -0.8142  0.3360
  727TMC3    H110803   0.078   4.013   9.046 -0.6943 -0.7055  0.1255
  727TMC3    H210804   0.208   4.295   9.341 -2.2825 -0.1578  0.7047
  727TMC3    C710805   0.219   4.231   9.080  0.4470  0.4719  0.1910
  727TMC3    C810806   0.126   4.169   9.548  0.1826 -0.0184  0.2979
  727TMC3    O110807   0.158   4.228   8.971 -0.2194  0.1631  0.0188
  727TMC3    O210808   0.232   4.228   9.570  0.0654 -0.4035 -0.5093
  728TMC3    C110809   4.005   2.502  15.549  0.1010  0.5954  0.5855
  728TMC3    C210810   4.129   2.555  15.592 -0.0930 -0.6938 -0.5037
  728TMC3    C310811   4.231   2.556  15.500  0.4508 -0.2344  0.3081
  728TMC3    C410812   3.977   2.469  15.421  0.0723 -0.0721  0.6636
  728TMC3    C510813   4.080   2.481  15.326  0.4401 -0.2020 -0.4133
  728TMC3    C610814   4.207   2.526  15.369  0.2943 -0.0991  0.0448
  728TMC3     C10815   3.906   2.453  15.653  0.0403 -0.4335  0.0316
  728TMC3     O10816   3.913   2.502  15.764 -0.2643  0.2335 -0.3300
  728TMC3     H10817   4.139   2.579  15.698 -3.3194  1.3662 -0.6544
  728TMC3    H110818   3.882   2.427  15.391  1.2043 -1.2768 -1.3011
  728TMC3    H210819   4.285   2.548  15.298  1.6803 -1.0288  1.2901
  728TMC3    C710820   4.036   2.458  15.192  0.0608  0.3612 -0.6344
  728TMC3    C810821   4.363   2.547  15.559  0.1001  0.4834  0.7189
  728TMC3    O110822   3.914   2.451  15.163 -0.0863  0.4122 -0.0621
  728TMC3    O210823   4.375   2.525  15.678  0.5372  0.1941  0.1431
  729MPD2     C10824   1.777   3.260  16.333 -0.5667  0.3716  0.4306
  729MPD2    C110825   1.777   3.397  16.364 -0.0942 -0.6637  0.3309
  729MPD2    C210826   1.681   3.441  16.457  0.4711 -0.6876 -0.1089
  729MPD2    C310827   1.584   3.354  16.506 -0.3587 -0.2551  0.1170
  729MPD2    C410828   1.580   3.228  16.464  0.1565 -0.5392 -0.0750
  729MPD2    C510829   1.679   3.178  16.382  0.7958  0.0560 -0.2392
  729MPD2     H10830   1.685   3.546  16.485 -1.4351 -0.0291 -2.3655
  729MPD2    H110831   1.508   3.152  16.495 -0.2710 -0.2954 -0.4712
  729MPD2    H210832   1.857   3.214  16.276 -0.0674  1.0405  0.5795
  729MPD2    H310833   1.675   3.073  16.353 -0.1938 -0.4588  1.7640
  729MPD2     N10834   1.496   3.388  16.613  0.0305 -0.2786 -0.1665
  729MPD2    H510835   1.448   3.313  16.662 -0.7920  0.6601  0.4597
  729MPD2    N110836   1.880   3.472  16.309  0.2430 -0.2160 -0.9461
  729MPD2    H710837   1.945   3.420  16.251 -0.2483 -2.9231  0.9319
  730TMC3    C110838   1.429   3.526  16.800  0.2830 -0.2620 -0.0920
  730TMC3    C210839   1.523   3.471  16.885  1.2435 -0.6611 -0.2652
  730TMC3    C310840   1.559   3.549  16.992  0.4730  0.7163 -0.0422
  730TMC3    C410841   1.375   3.646  16.839  0.4093  0.3513  0.5510
  730TMC3    C510842   1.397   3.710  16.960 -0.4372  0.0373 -0.1660
  730TMC3    C610843   1.500   3.667  17.038  0.0586  0.1213 -0.2512
  730TMC3     C10844   1.478   3.514  16.664 -0.4404 -0.5762 -0.0006
  730TMC3     O10845   1.495   3.620  16.603 -0.1734  0.1901 -0.1267
  730TMC3     H10846   1.581   3.382  16.864  3.2908  0.4803  0.6053
  730TMC3    H110847   1.306   3.697  16.772  0.4199 -1.7855 -1.0904
  730TMC3    H210848   1.535   3.726  17.123  1.2396  1.1483 -1.4555
  730TMC3    C710849   1.406   3.857  16.943 -0.5860 -0.4516 -0.4426
  730TMC3    C810850   1.690   3.510  17.032  0.0161  0.1146 -0.2200
  730TMC3    O110851   1.438   3.898  16.832  0.0130  0.2705 -0.3995
  730TMC3    O210852   1.714   3.392  17.061 -0.0163 -0.0016  0.1860
  731MPD2     C10853   2.543   1.055  11.989  0.7605 -0.1840  0.4255
  731MPD2    C110854   2.442   1.140  12.022  0.1176  0.0631  0.3181
  731MPD2    C210855   2.403   1.149  12.154 -0.3045 -0.2866  0.3365
  731MPD2    C310856   2.465   1.074  12.253 -0.0935 -0.0430 -0.0979
  731MPD2    C410857   2.565   0.987  12.211  0.1304 -0.4220  0.0645
  731MPD2    C510858   2.607   0.979  12.083 -0.1040  0.3500  0.8304
  731MPD2     H10859   2.317   1.212  12.176 -1.9223 -1.8851 -1.3833
  731MPD2    H110860   2.616   0.929  12.287 -1.1497 -0.0664  1.1991
  731MPD2    H210861   2.581   1.044  11.888 -0.2030 -1.6546  0.2320
  731MPD2    H310862   2.686   0.912  12.053 -1.3767 -1.2930  1.1365
  731MPD2     N10863   2.410   1.087  12.389 -0.4547 -0.3530  0.2747
  731MPD2    H510864   2.346   1.163  12.409 -0.0255  0.4351 -1.3672
  731MPD2    N110865   2.399   1.228  11.921 -0.2876 -0.2210  0.1983
  731MPD2    H710866   2.449   1.222  11.833 -2.2590 -0.9887 -0.8485
  732TMC3    C110867   2.270   1.407  11.820 -0.3727  0.9212 -0.5873
  732TMC3    C210868   2.139   1.442  11.794  0.2247 -0.0314  0.3203
  732TMC3    C310869   2.126   1.530  11.695  0.4908 -0.4764  0.6579
  732TMC3    C410870   2.378   1.462  11.767  0.8171  0.6785 -0.6202
  732TMC3    C510871   2.361   1.539  11.657  1.0229  0.6868  0.4765
  732TMC3    C610872   2.236   1.578  11.624 -0.2138 -0.5468 -0.4249
  732TMC3     C10873   2.287   1.312  11.927  0.2862  0.3811 -0.4101
  732TMC3     O10874   2.190   1.303  12.001 -0.1018 -0.0599  0.1715
  732TMC3     H10875   2.057   1.390  11.843  0.4748 -0.6749  0.0612
  732TMC3    H110876   2.476   1.433  11.805  0.5329 -1.0055 -1.1875
  732TMC3    H210877   2.232   1.643  11.537  2.0738 -1.9421 -1.5905
  732TMC3    C710878   2.480   1.572  11.572 -0.3239  0.0968  0.1009
  732TMC3    C810879   1.997   1.583  11.666  0.0135  0.3031 -0.2178
  732TMC3    O110880   2.478   1.654  11.484 -0.2669 -0.5417 -0.7146
  732TMC3    O210881   1.985   1.652  11.566 -0.7591  0.4191 -0.1947
  733TMC3    C110882   2.974   4.535  12.749 -0.2729  0.4548 -0.3497
  733TMC3    C210883   3.083   4.578  12.822  0.2447  0.6085 -0.2471
  733TMC3    C310884   3.203   4.586  12.759  0.1322  0.5191 -0.1743
  733TMC3    C410885   2.990   4.514  12.611 -0.6385  0.3738  0.3840
  733TMC3    C510886   3.107   4.547  12.553 -0.2928  0.7482 -0.6004
  733TMC3    C610887   3.217   4.573  12.625  0.1459 -0.3887 -0.2997
  733TMC3     C10888   2.845   4.545  12.807 -0.4663 -0.6232 -0.2610
  733TMC3     O10889   2.824   4.624  12.900 -0.0991  0.8990  0.5469
  733TMC3     H10890   3.079   4.605  12.927  0.6873 -0.0675 -0.0567
  733TMC3    H110891   2.898   4.500  12.555  0.5563  0.5805 -1.6096
  733TMC3    H210892   3.315   4.578  12.578  1.5017 -1.0380  2.4318
  733TMC3    C710893   3.101   4.591  12.412  0.9386 -0.0406  0.3903
  733TMC3    C810894   3.311   4.648  12.830  0.2494  0.8465 -0.1153
  733TMC3    O110895   2.998   4.590  12.349  0.3406  0.6714  0.1797
  733TMC3    O210896   3.316   4.636  12.952  0.0019  0.2033 -0.0980
  734MPD2     C10897   4.727   2.414  12.687 -0.3056 -0.0196  0.3482
  734MPD2    C110898   4.650   2.324  12.619 -0.4701  0.1216  0.2716
  734MPD2    C210899   4.660   2.329  12.483 -1.3001 -0.5556 -0.3800
  734MPD2    C310900   4.737   2.418  12.426  0.4140 -0.7931  0.3999
  734MPD2    C410901   0.065   2.516  12.493 -0.1876  0.8355  0.1631
  734MPD2    C510902   0.056   2.519  12.627 -0.9309  0.0351 -0.2850
  734MPD2     H10903   4.605   2.258  12.424  1.4441 -1.7130 -1.5597
  734MPD2    H110904   0.123   2.591  12.440 -2.7951  2.0700 -0.9273
  734MPD2    H210905   4.735   2.422  12.795  1.7193 -0.4216  0.2164
  734MPD2    H310906   0.115   2.584  12.691 -1.1461  1.2611 -1.3228
  734MPD2     N10907   0.008   2.401  12.286 -0.8254 -0.2303  0.1491
  734MPD2    H510908   4.682   2.330  12.248  2.3003 -2.1101 -1.4777
  734MPD2    N110909   4.583   2.219  12.686  0.3352  0.0043  0.0678
  734MPD2    H710910   4.608   2.211  12.784 -0.1120  0.7270  0.2411
  735TMC3    C110911   4.464   2.009  12.692  0.5509 -0.3751  0.1780
  735TMC3    C210912   4.371   1.947  12.621  0.2784  0.3790 -0.1320
  735TMC3    C310913   4.377   1.813  12.591  0.0564 -0.1594 -0.0320
  735TMC3    C410914   4.569   1.937  12.743  0.2525 -0.4915 -0.0788
  735TMC3    C510915   4.585   1.804  12.705 -0.4863 -0.0482  0.0128
  735TMC3    C610916   4.487   1.736  12.638 -0.3970  0.1021 -0.0916
  735TMC3     C10917   4.511   2.122  12.615 -0.5218 -0.1161 -0.1066
  735TMC3     O10918   4.460   2.113  12.503  0.4049 -0.0221 -0.3451
  735TMC3     H10919   4.284   2.005  12.592 -1.0655 -0.7978  1.5701
  735TMC3    H110920   4.644   1.983  12.807 -0.4297 -2.9367  2.4603
  735TMC3    H210921   4.499   1.632  12.613 -3.0514 -0.2834  0.1827
  735TMC3    C710922   4.718   1.769  12.657 -0.3197  0.2923 -0.1162
  735TMC3    C810923   4.337   1.779  12.455  0.1211 -0.1663 -0.2696
  735TMC3    O110924   0.054   1.861  12.641 -0.0207 -0.3511 -0.1129
  735TMC3    O210925   4.327   1.659  12.428  0.0345 -0.1848  0.5478
  736MPD2     C10926   0.108   1.428  12.593  0.3040  0.6522  0.2039
  736MPD2    C110927   0.107   1.565  12.584  0.1363  0.2465 -0.7230
  736MPD2    C210928   0.204   1.621  12.508 -1.0294 -0.1429  0.0725
  736MPD2    C310929   0.295   1.547  12.435  1.2745  0.1470 -0.6433
  736MPD2    C410930   0.294   1.411  12.445  0.2866 -0.4397  0.1614
  736MPD2    C510931   0.189   1.355  12.509  0.1668  0.1930  0.0938
  736MPD2     H10932   0.210   1.726  12.481  0.6999  0.0708  1.3374
  736MPD2    H110933   0.348   1.343  12.380 -3.4800 -3.5428  0.2494
  736MPD2    H210934   0.037   1.367  12.649  0.1647  1.0978  0.5173
  736MPD2    H310935   0.182   1.247  12.496 -0.5571  0.3607 -0.9139
  736MPD2     N10936   0.404   1.602  12.370  0.1219 -0.4262 -0.6664
  736MPD2    H510937   0.475   1.536  12.341  2.0255 -0.1898  3.4804
  736MPD2    N110938   0.002   1.633  12.644  0.7620  0.1229  0.0021
  736MPD2    H710939   4.657   1.583  12.678 -0.7567  2.8046  0.3843
  737TMC3    C110940   0.542   1.777  12.285 -0.2837  0.2763 -0.0240
  737TMC3    C210941   0.554   1.916  12.270  0.1377 -0.2209 -0.5323
  737TMC3    C310942   0.630   1.964  12.164  0.2938 -0.9097  0.4364
  737TMC3    C410943   0.592   1.689  12.183  1.0155 -0.2476 -0.0033
  737TMC3    C510944   0.670   1.743  12.081  0.2767  0.9169  0.4119
  737TMC3    C610945   0.698   1.878  12.080 -0.2227 -0.1526 -0.8799
  737TMC3     C10946   0.436   1.735  12.379 -0.2926 -0.2065  0.8342
  737TMC3     O10947   0.407   1.826  12.456  0.0187  0.6397 -0.2199
  737TMC3     H10948   0.514   1.986  12.342  1.7486 -0.9149  1.0515
  737TMC3    H110949   0.573   1.582  12.182  2.5895 -0.5304  1.2901
  737TMC3    H210950   0.761   1.922  12.004  3.2045  1.1471  2.7400
  737TMC3    C710951   0.737   1.650  11.985  0.7614  0.2694  0.0706
  737TMC3    C810952   0.653   2.104  12.140  0.2911  0.4542 -0.8606
  737TMC3    O110953   0.768   1.541  12.022 -0.3208  0.0260 -0.3145
  737TMC3    O210954   0.651   2.178  12.238 -0.3985  0.1751  0.3265
  738MPD2     C10955   0.871   1.182  14.785 -0.7451 -0.9637 -0.1977
  738MPD2    C110956   0.926   1.078  14.852  0.2590 -0.0210  0.9780
  738MPD2    C210957   1.054   1.086  14.899  0.9758 -0.5297  0.4102
  738MPD2    C310958   1.131   1.204  14.871 -0.3310 -0.4436 -0.5356
  738MPD2    C410959   1.070   1.309  14.820 -0.6127 -0.3332  0.0020
  738MPD2    C510960   0.941   1.298  14.782 -0.0572 -0.7755  0.3734
  738MPD2     H10961   1.106   0.999  14.939 -0.4910 -0.8271  1.6507
  738MPD2    H110962   1.128   1.393  14.784 -0.3519  0.1759  1.6201
  738MPD2    H210963   0.777   1.185  14.732 -0.4878  0.7636 -0.5798
  738MPD2    H310964   0.901   1.384  14.730 -4.5119 -0.8292  3.7489
  738MPD2     N10965   1.271   1.219  14.877 -0.2070  0.3383  0.4359
  738MPD2    H510966   1.315   1.296  14.828 -1.3200  1.1115  0.6860
  738MPD2    N110967   0.860   0.958  14.862 -0.1974 -0.2708 -0.3296
  738MPD2    H710968   0.912   0.887  14.913 -1.2291 -1.0269 -0.3256
  739TMC3    C110969   1.484   1.139  14.874  0.1063 -0.5515  0.8901
  739TMC3    C210970   1.502   1.237  14.775 -0.2593  0.2370 -0.2650
  739TMC3    C310971   1.591   1.218  14.669 -0.5416  0.3594  0.0572
  739TMC3    C410972   1.555   1.021  14.860 -0.2238  0.0331  0.3479
  739TMC3    C510973   1.651   1.011  14.762  0.2598 -0.1021  0.9909
  739TMC3    C610974   1.654   1.100  14.658  0.4414 -0.0505 -0.9173
  739TMC3     C10975   1.349   1.121  14.922 -0.5116 -0.2722 -0.3168
  739TMC3     O10976   1.325   1.013  14.976  0.2697 -0.4661 -0.2603
  739TMC3     H10977   1.465   1.339  14.780  1.8395  1.0346 -1.3485
  739TMC3    H110978   1.549   0.937  14.929 -2.0707  0.4180  0.6539
  739TMC3    H210979   1.709   1.083  14.566 -0.8742 -1.4896 -1.4365
  739TMC3    C710980   1.727   0.885  14.761 -0.7531 -0.4164 -0.2383
  739TMC3    C810981   1.530   1.275  14.552 -0.3519 -0.4108  0.2709
  739TMC3    O110982   1.666   0.779  14.792  0.2709 -0.1902 -0.3980
  739TMC3    O210983   1.408   1.288  14.562  0.1120  0.4095 -0.5203
  740TMC3    C110984   1.207   2.796  14.255  0.0158 -0.5292  0.9625
  740TMC3    C210985   1.291   2.709  14.326 -0.0448  0.2999 -0.3795
  740TMC3    C310986   1.406   2.667  14.252 -0.3311 -0.1880  0.5401
  740TMC3    C410987   1.228   2.835  14.123 -0.0645  0.4931  0.2258
  740TMC3    C510988   1.338   2.788  14.060 -0.2651  0.3119 -0.4723
  740TMC3    C610989   1.423   2.701  14.124  0.2885  0.5160  0.1407
  740TMC3     C10990   1.073   2.799  14.305  0.1790 -0.6483  0.6147
  740TMC3     O10991   0.997   2.879  14.246 -0.3045  0.0451  0.2208
  740TMC3     H10992   1.293   2.694  14.433  0.6432 -2.0944 -0.7139
  740TMC3    H110993   1.163   2.907  14.077  0.9865  0.6628 -0.9849
  740TMC3    H210994   1.510   2.669  14.067 -0.0072 -0.9193  0.5102
  740TMC3    C710995   1.383   2.866  13.946  0.9391 -0.3880  0.6162
  740TMC3    C810996   1.512   2.609  14.331  0.5509  0.2746  0.1934
  740TMC3    O110997   1.346   2.980  13.942 -0.5942  0.2657 -0.1174
  740TMC3    O210998   1.629   2.629  14.287 -0.8958 -0.4451  0.1768
  741TMC3    C110999   1.272   1.777  14.213 -0.4031 -0.2633 -0.2254
  741TMC3    C211000   1.138   1.751  14.213  0.6088 -0.3235 -0.3791
  741TMC3    C311001   1.082   1.682  14.315 -0.4291 -0.0294 -0.3076
  741TMC3    C411002   1.352   1.733  14.315 -0.3620  0.0198  0.5812
  741TMC3    C511003   1.294   1.655  14.416  0.3569 -1.0872 -0.2215
  741TMC3    C611004   1.158   1.637  14.417  0.3659 -0.3160 -0.3816
  741TMC3     C11005   1.338   1.865  14.114 -0.8343  0.0432 -1.2278
  741TMC3     O11006   1.457   1.843  14.102  0.1633  0.3048 -0.2159
  741TMC3     H11007   1.080   1.776  14.124 -0.6649  0.4902  0.6804
  741TMC3    H111008   1.449   1.781  14.321 -0.2243 -0.5517  2.8069
  741TMC3    H211009   1.114   1.592  14.505  2.7229  1.0500  1.5071
  741TMC3    C711010   1.372   1.635  14.545  0.1472 -1.2187  0.2398
  741TMC3    C811011   0.958   1.610  14.284  0.2043  0.3402  0.2765
  741TMC3    O111012   1.310   1.609  14.648  0.6183 -0.0308 -0.3171
  741TMC3    O211013   0.869   1.664  14.226 -0.3593  0.2640  0.2627
  742TMC3    C111014   0.868   4.423  15.521 -0.0166 -0.3957 -0.9598
  742TMC3    C211015   0.825   4.410  15.392 -0.4814  0.4190 -0.5430
  742TMC3    C311016   0.924   4.422  15.293  0.2011 -0.1418 -0.1876
  742TMC3    C411017   0.999   4.441  15.560  0.0547  0.7348 -0.2432
  742TMC3    C511018   1.089   4.438  15.458  0.6382  0.0468 -0.2889
  742TMC3    C611019   1.057   4.428  15.326 -0.3560 -0.5646  0.0697
  742TMC3     C11020   0.765   4.429  15.622 -1.1111  0.0005  0.2262
  742TMC3     O11021   0.802   4.484  15.725  0.2394 -0.5439 -0.0477
  742TMC3     H11022   0.725   4.435  15.358 -0.6980  0.1413 -0.1088
  742TMC3    H111023   1.021   4.432  15.666  2.1174 -0.3042 -0.7517
  742TMC3    H211024   1.122   4.458  15.245  0.5010  0.1909  1.0287
  742TMC3    C711025   1.227   4.448  15.496 -0.3057 -0.2328 -0.6059
  742TMC3    C811026   0.897   4.424  15.145 -0.3298 -0.1243 -0.0775
  742TMC3    O111027   1.247   4.470  15.617  0.1107  0.1869 -0.2412
  742TMC3    O211028   0.807   4.353  15.101  0.3438  0.5102 -0.2011
  743MPD2     C11029   2.814   1.778   0.760 -0.4502 -0.0442 -0.1584
  743MPD2    C111030   2.843   1.642   0.757 -0.0200 -0.3498  0.3705
  743MPD2    C211031   2.951   1.596   0.836 -0.2054  0.7217 -0.7929
  743MPD2    C311032   3.025   1.675   0.925  0.6714 -0.5849 -0.6114
  743MPD2    C411033   2.982   1.804   0.943 -0.0682  0.2518 -0.1315
  743MPD2    C511034   2.885   1.854   0.852 -0.0370  0.1521  0.0569
  743MPD2     H11035   2.995   1.497   0.829 -0.6632  0.4626  0.0634
  743MPD2    H111036   3.049   1.877   0.987 -0.7031  1.1176 -0.6118
  743MPD2    H211037   2.731   1.825   0.708 -1.2033 -1.2972 -0.0815
  743MPD2    H311038   2.871   1.961   0.861 -2.2403 -0.2968  1.7533
  743MPD2     N11039   3.140   1.623   0.993  0.0943  0.1358  0.3067
  743MPD2    H511040   3.173   1.531   0.966 -0.1603  0.8879 -2.6179
  743MPD2    N111041   2.775   1.555   0.671 -0.0991  0.1850  0.2001
  743MPD2    H711042   2.744   1.590   0.581  2.8461  2.3602  0.0195
  744TMC3    C111043   2.733   1.349   0.563 -0.2792 -0.0260 -0.3484
  744TMC3    C211044   2.661   1.410   0.464 -0.1248  0.4052 -0.6204
  744TMC3    C311045   2.663   1.346   0.341 -0.1064  0.0685 -0.0412
  744TMC3    C411046   2.779   1.219   0.549 -0.8262 -0.3863  0.4482
  744TMC3    C511047   2.787   1.165   0.419 -0.1590  0.0417 -0.1176
  744TMC3    C611048   2.729   1.228   0.314  0.2613  0.3901  0.1440
  744TMC3     C11049   2.792   1.421   0.682  0.2836  0.2179  0.0856
  744TMC3     O11050   2.820   1.356   0.782  0.4538 -0.4127 -0.2515
  744TMC3     H11051   2.624   1.511   0.463 -1.0635  0.0636  0.5294
  744TMC3    H111052   2.851   1.178   0.620 -1.7060  0.3069  1.7346
  744TMC3    H211053   2.743   1.196   0.211 -0.2662  0.2707  0.1084
  744TMC3    C711054   2.878   1.056   0.387  0.2787 -0.1405  0.4842
  744TMC3    C811055   2.618   1.425   0.226 -0.2246  0.8123 -0.5003
  744TMC3    O111056   2.900   1.036   0.271 -0.2211 -0.9389  0.6185
  744TMC3    O211057   2.588   1.543   0.244  0.5259 -0.1636 -0.5386
  745TMC3    C111058   1.508   4.241  12.992 -0.4779 -0.0086  0.4350
  745TMC3    C211059   1.420   4.254  13.092  0.1237 -0.2326 -0.4008
  745TMC3    C311060   1.290   4.286  13.067 -0.1930  0.0255  0.4505
  745TMC3    C411061   1.470   4.269  12.864 -0.2925  0.0874  0.9057
  745TMC3    C511062   1.344   4.313  12.841 -0.7116 -0.7090  0.1277
  745TMC3    C611063   1.258   4.325  12.941 -0.8224 -1.1729 -0.4401
  745TMC3     C11064   1.648   4.266  13.024  0.7131 -0.0034  0.6757
  745TMC3     O11065   1.732   4.238  12.936 -0.4527  0.3110  0.5830
  745TMC3     H11066   1.434   4.205  13.187  0.6060 -1.0798 -0.9077
  745TMC3    H111067   1.529   4.273  12.774  0.4540 -3.9853  1.1994
  745TMC3    H211068   1.157   4.361  12.926 -0.6243  0.4663  2.0832
  745TMC3    C711069   1.334   4.436  12.758  0.7537 -0.1421  0.3533
  745TMC3    C811070   1.190   4.312  13.171  0.1520 -0.4089 -0.1634
  745TMC3    O111071   1.232   4.461  12.693  0.3473 -0.1343 -0.1156
  745TMC3    O211072   1.074   4.289  13.144  0.5613  0.4490  0.3789
  746TMC3    C111073   3.889   1.827  10.964 -0.2184 -0.1977 -0.1928
  746TMC3    C211074   3.985   1.751  10.895 -0.8275 -0.5999  0.3036
  746TMC3    C311075   3.954   1.611  10.882  0.4488 -0.0244  0.5874
  746TMC3    C411076   3.765   1.777  10.996 -0.5306 -0.2673 -0.0788
  746TMC3    C511077   3.742   1.639  10.976  0.2793 -0.2703  1.2268
  746TMC3    C611078   3.840   1.555  10.929 -0.3233  0.2237  0.9252
  746TMC3     C11079   3.907   1.970  10.973  0.2511 -0.0294 -0.1601
  746TMC3     O11080   3.828   2.029  11.041  0.0863 -0.1144 -0.3059
  746TMC3     H11081   4.072   1.793  10.847 -1.0279 -1.7632 -1.0799
  746TMC3    H111082   3.696   1.837  11.055  0.1295 -0.0913  0.5068
  746TMC3    H211083   3.826   1.449  10.908 -1.4527  0.6664 -0.5879
  746TMC3    C711084   3.607   1.604  10.927 -0.1671  0.2497  0.5302
  746TMC3    C811085   4.017   1.542  10.776  0.2214 -0.2044 -0.1651
  746TMC3    O111086   3.586   1.492  10.877 -0.6359 -0.6657  0.1655
  746TMC3    O211087   4.043   1.420  10.789 -0.8290 -0.0129 -0.2114
  747TMC3    C111088   1.307   2.131  11.246  0.6556  0.1223  0.6616
  747TMC3    C211089   1.243   2.011  11.274  0.2042  0.0175  0.7268
  747TMC3    C311090   1.231   1.985  11.406  0.1178  0.0918 -0.2799
  747TMC3    C411091   1.343   2.220  11.338 -0.3644  0.2868  0.1140
  747TMC3    C511092   1.323   2.184  11.471 -0.3134  0.2987  0.5644
  747TMC3    C611093   1.262   2.073  11.509 -0.0025  0.0276  0.1642
  747TMC3     C11094   1.326   2.182  11.110 -0.1590  0.1029 -0.0356
  747TMC3     O11095   1.342   2.303  11.099  0.2315 -0.0482 -0.1563
  747TMC3     H11096   1.226   1.943  11.191  1.7196 -2.3637  2.3618
  747TMC3    H111097   1.383   2.316  11.308 -1.9322  1.4930  1.8799
  747TMC3    H211098   1.259   2.037  11.611 -0.9726 -1.1076 -0.2539
  747TMC3    C711099   1.353   2.293  11.561  0.7222 -0.3862 -0.1517
  747TMC3    C811100   1.174   1.858  11.437  0.3374  0.3831 -0.3610
  747TMC3    O111101   1.352   2.407  11.513 -0.1749 -0.1257 -0.2408
  747TMC3    O211102   1.224   1.762  11.377  0.0000  0.1298  0.0061
  748MPD2     C11103   2.679   2.250   0.613  0.3925 -0.4391  0.1228
  748MPD2    C111104   2.736   2.304   0.503 -0.5030 -0.5321 -0.9019
  748MPD2    C211105   2.866   2.336   0.504  0.5130  0.1772  0.0626
  748MPD2    C311106   2.938   2.323   0.624 -0.2682 -0.2446 -0.1345
  748MPD2    C411107   2.875   2.287   0.740  0.1707  0.0138 -0.3276
  748MPD2    C511108   2.745   2.243   0.734  0.1247 -0.5174 -0.1821
  748MPD2     H11109   2.913   2.361   0.410  0.0173  0.6547 -0.0603
  748MPD2    H111110   2.940   2.277   0.826  2.6399  3.5366 -1.7485
  748MPD2    H211111   2.575   2.220   0.603 -0.0776  1.4370 -0.5484
  748MPD2    H311112   2.703   2.186   0.816 -1.4012  0.6141 -0.1937
  748MPD2     N11113   3.066   2.367   0.631  0.1492 -0.3448  0.3322
  748MPD2    H511114   3.086   2.427   0.552  0.6962 -1.7260 -0.5713
  748MPD2    N111115   2.655   2.325   0.388  0.0535 -0.4603 -0.6626
  748MPD2    H711116   2.559   2.294   0.395 -0.4924  1.2491 -0.4758
  749TMC3    C111117   3.300   2.369   0.693  0.7209 -0.6491 -0.0874
  749TMC3    C211118   3.406   2.308   0.752 -0.3681 -0.1544 -1.1372
  749TMC3    C311119   3.527   2.374   0.746  0.0330  0.0542 -0.1326
  749TMC3    C411120   3.308   2.488   0.628  0.2625  0.1130 -0.5411
  749TMC3    C511121   3.425   2.562   0.646 -0.2586  0.2882  0.8087
  749TMC3    C611122   3.537   2.495   0.698  0.2321 -0.5040  0.0020
  749TMC3     C11123   3.169   2.316   0.714  0.4228 -0.0803 -0.0145
  749TMC3     O11124   3.163   2.217   0.787  0.6895 -0.5896 -0.1240
  749TMC3     H11125   3.397   2.213   0.804  0.7833 -0.6013 -1.7594
  749TMC3    H111126   3.221   2.540   0.589 -0.1221  1.6968  2.4465
  749TMC3    H211127   3.632   2.545   0.710 -0.1765  0.2784 -0.0554
  749TMC3    C711128   3.447   2.680   0.571  0.3333 -0.6976 -0.0387
  749TMC3    C811129   3.641   2.312   0.812 -0.4177  0.1731  0.2789
  749TMC3    O111130   3.517   2.755   0.634 -1.1209  0.5625 -0.2969
  749TMC3    O211131   3.706   2.384   0.881  0.5429  0.3302 -0.3033
  750MPD2     C11132   3.862   3.769  11.201  0.1019  0.1409  0.1954
  750MPD2    C111133   3.778   3.715  11.305  0.3553  0.8901  0.0494
  750MPD2    C211134   3.735   3.583  11.282 -0.3336  0.1927 -0.1144
  750MPD2    C311135   3.778   3.507  11.177 -0.2269  0.5505 -0.8421
  750MPD2    C411136   3.865   3.561  11.085  0.3861 -0.2289 -0.6954
  750MPD2    C511137   3.914   3.689  11.106 -0.0242  0.2589  0.5312
  750MPD2     H11138   3.691   3.532  11.366 -1.7162  2.6475  0.6620
  750MPD2    H111139   3.906   3.509  11.000 -3.1132 -0.8356 -1.9914
  750MPD2    H211140   3.879   3.876  11.201  3.0583 -0.3377 -1.1157
  750MPD2    H311141   3.981   3.724  11.028  1.3877  0.9244  2.0321
  750MPD2     N11142   3.745   3.370  11.161 -0.2879 -0.7341  0.3290
  750MPD2    H511143   3.797   3.327  11.084  0.0882 -2.5482  1.5919
  750MPD2    N111144   3.742   3.791  11.415  0.4580 -0.5994 -0.0436
  750MPD2    H711145   3.781   3.884  11.423 -1.6459  0.4251 -1.6960
  751TMC3    C111146   3.701   3.158  11.238 -0.5108 -0.5268  0.4869
  751TMC3    C211147   3.672   3.090  11.352  0.1153  1.2912  0.5263
  751TMC3    C311148   3.725   2.964  11.366 -0.4465  0.1330  0.1418
  751TMC3    C411149   3.781   3.102  11.134  0.2089  0.8405 -0.3732
  751TMC3    C511150   3.826   2.977  11.152  0.2209 -0.2891  0.3281
  751TMC3    C611151   3.810   2.909  11.268 -0.9007 -0.4975  0.4381
  751TMC3     C11152   3.672   3.302  11.247  0.4529 -0.1750  0.1799
  751TMC3     O11153   3.601   3.347  11.334  0.2019 -0.4275 -0.1184
  751TMC3     H11154   3.609   3.139  11.424  1.8102 -0.8282  3.4538
  751TMC3    H111155   3.781   3.138  11.032 -0.4847  2.9340  0.3554
  751TMC3    H211156   3.856   2.812  11.278  0.9400  0.4838  1.4516
  751TMC3    C711157   3.842   2.890  11.035 -0.2082  0.4475  0.4815
  751TMC3    C811158   3.616   2.869  11.370  0.1052  0.8202 -0.4585
  751TMC3    O111159   3.882   2.937  10.933  0.0890  0.2749 -0.0642
  751TMC3    O211160   3.619   2.769  11.303  0.7110 -0.0928  0.1173
  752TMC3    C111161   2.693   3.515  16.958 -0.1334  0.0848  0.8081
  752TMC3    C211162   2.727   3.427  17.050  0.5377  0.1652  0.4880
  752TMC3    C311163   2.686   3.452  17.177 -0.4432  0.1872 -0.2134
  752TMC3    C411164   2.636   3.633  16.991 -0.4720  0.2902  0.4010
  752TMC3    C511165   2.600   3.659  17.117 -0.3187 -0.0364  0.0622
  752TMC3    C611166   2.621   3.568  17.216 -0.3196  0.1644  0.7406
  752TMC3     C11167   2.723   3.487  16.823  1.0354  0.4690 -0.0347
  752TMC3     O11168   2.817   3.407  16.800  0.0457  0.0331 -0.2599
  752TMC3     H11169   2.796   3.347  17.026  1.0066  0.1546  1.8592
  752TMC3    H111170   2.603   3.705  16.917  1.1104 -1.6683 -2.2174
  752TMC3    H211171   2.598   3.584  17.320 -2.3232  2.1547 -0.0070
  752TMC3    C711172   2.526   3.781  17.145  0.4000  0.5892 -0.2203
  752TMC3    C811173   2.701   3.339  17.269  0.3479  0.4445  0.1858
  752TMC3    O111174   2.579   3.882  17.102 -0.0638 -0.3781  0.2951
  752TMC3    O211175   2.775   3.245  17.235  0.0927  0.1410  0.7419
  753TMC3    C111176   4.629   4.147  13.521  0.2437 -0.7484 -0.3711
  753TMC3    C211177   4.627   4.169  13.656  0.3341 -0.1749  0.6501
  753TMC3    C311178   4.537   4.092  13.725 -0.3587  0.2995  0.1377
  753TMC3    C411179   4.555   4.049  13.459  0.1483 -0.1392 -0.5537
  753TMC3    C511180   4.474   3.967  13.529  0.5626  0.2622 -0.0343
  753TMC3    C611181   4.465   3.984  13.667  0.1492 -0.5478 -0.5189
  753TMC3     C11182   4.696   4.251  13.440 -0.4227 -0.1180  0.6307
  753TMC3     O11183   0.034   4.321  13.510  0.1283 -0.0123  0.0841
  753TMC3     H11184   4.688   4.235  13.718 -0.2700 -1.0882  2.1903
  753TMC3    H111185   4.582   4.034  13.355 -1.0149  1.3863 -1.0881
  753TMC3    H211186   4.408   3.914  13.726  0.4778 -1.2644 -1.0530
  753TMC3    C711187   4.420   3.855  13.454 -0.0565 -0.7772  0.0350
  753TMC3    C811188   4.476   4.161  13.843  0.2313  0.0859  0.3063
  753TMC3    O111189   4.464   3.821  13.346 -0.2273 -0.5056 -0.1357
  753TMC3    O211190   4.417   4.085  13.912 -0.1786 -0.5699 -0.4920
  754MPD2     C11191   3.449   2.434  13.024  0.2245 -0.2713 -0.2363
  754MPD2    C111192   3.406   2.301  13.039  0.6682 -0.0881 -0.2033
  754MPD2    C211193   3.283   2.271  12.983  0.4521  0.6857 -0.4410
  754MPD2    C311194   3.195   2.360  12.926  0.7165  0.0635 -0.1364
  754MPD2    C411195   3.236   2.491  12.918  0.0012 -0.0012  0.0508
  754MPD2    C511196   3.365   2.524  12.967 -0.0599 -0.2410  0.4697
  754MPD2     H11197   3.250   2.168  12.991 -1.0601  1.3829  2.2100
  754MPD2    H111198   3.172   2.568  12.877 -0.4481 -0.3326  0.1273
  754MPD2    H211199   3.548   2.467  13.056  0.1584  0.7496 -1.0799
  754MPD2    H311200   3.393   2.627  12.952 -0.5366 -0.4951 -2.1702
  754MPD2     N11201   3.065   2.334  12.887 -0.0482  0.0586  0.1858
  754MPD2    H511202   3.014   2.418  12.862 -1.8575 -0.5022  1.9889
  754MPD2    N111203   3.480   2.211  13.117  0.0603 -0.4663  0.6044
  754MPD2    H711204   3.572   2.250  13.134 -0.6041  0.8759  1.1117
  755MPD2     C11205   2.540   2.990  12.893 -0.5536 -0.2141  0.2055
  755MPD2    C111206   2.517   2.916  13.008  1.0736 -0.9972 -0.6300
  755MPD2    C211207   2.537   2.779  12.996 -0.4690 -0.3267  0.5636
  755MPD2    C311208   2.598   2.725  12.881 -0.2700  0.8538  0.3504
  755MPD2    C411209   2.627   2.806  12.771  0.6110 -0.3250 -0.2226
  755MPD2    C511210   2.590   2.943  12.781 -0.2612  0.9124 -0.1495
  755MPD2     H11211   2.530   2.719  13.087  1.5580  0.2024  1.0852
  755MPD2    H111212   2.681   2.770  12.684 -0.8038  0.3852 -1.4078
  755MPD2    H211213   2.513   3.094  12.879  0.0386  0.1444  1.7998
  755MPD2    H311214   2.606   3.010  12.697  0.2876  2.1935  0.9768
  755MPD2     N11215   2.638   2.592  12.883 -0.0977  0.2374  0.0992
  755MPD2    H511216   2.695   2.557  12.806  0.1442 -2.1736  1.3508
  755MPD2    N111217   2.479   2.978  13.135 -0.4678  0.0605 -0.6712
  755MPD2    H711218   2.447   2.914  13.206  2.1804 -0.6132 -0.0636
  756MPD2     C11219   3.349   4.411   9.794 -0.0874  0.3926  0.0007
  756MPD2    C111220   3.261   4.335   9.868 -0.2567 -0.1166  0.1644
  756MPD2    C211221   3.152   4.275   9.802 -0.0983  0.3118  0.0370
  756MPD2    C311222   3.134   4.305   9.672 -0.0343  0.0585 -0.1103
  756MPD2    C411223   3.231   4.375   9.599 -0.0396 -0.6117  0.0318
  756MPD2    C511224   3.341   4.427   9.661  0.0967  0.3508  0.1327
  756MPD2     H11225   3.088   4.204   9.854 -0.7253  0.7352 -0.1606
  756MPD2    H111226   3.225   4.386   9.491  1.0536  2.7992  0.3233
  756MPD2    H211227   3.437   4.459   9.836  0.5779 -0.2353 -0.6719
  756MPD2    H311228   3.401   4.498   9.604 -2.3627  0.3492 -2.4314
  756MPD2     N11229   3.013   4.261   9.612 -0.4838  0.5331  0.3674
  756MPD2    H511230   2.948   4.213   9.673 -0.0123 -0.8807 -0.2495
  756MPD2    N111231   3.274   4.314  10.010 -1.0709 -0.1998  0.5657
  756MPD2    H711232   3.201   4.259  10.053 -0.1308 -0.7994  1.3815
  757MPD2     C11233   2.495   3.582   9.758  0.3979 -0.2226  0.1670
  757MPD2    C111234   2.627   3.608   9.785 -0.3286  0.3094  0.0718
  757MPD2    C211235   2.670   3.735   9.757  0.0063 -0.0753 -0.0753
  757MPD2    C311236   2.581   3.819   9.693 -0.2844 -0.3695 -0.1890
  757MPD2    C411237   2.457   3.794   9.670  0.4370  0.0631 -0.1545
  757MPD2    C511238   2.408   3.677   9.707  0.2981 -0.6074  0.2615
  757MPD2     H11239   2.773   3.765   9.774 -0.6737  2.7144 -0.8659
  757MPD2    H111240   2.388   3.862   9.622 -0.3803  0.6207  1.7953
  757MPD2    H211241   2.451   3.483   9.769  0.9283 -0.5672 -0.8026
  757MPD2    H311242   2.308   3.651   9.677  1.1404 -2.1938 -1.2119
  757MPD2     N11243   2.638   3.944   9.646 -0.2505  0.3058  0.0493
  757MPD2    H511244   2.738   3.960   9.651 -0.1294  0.0140 -1.3576
  757MPD2    N111245   2.708   3.504   9.830 -0.0073  0.3127 -0.4345
  757MPD2    H711246   2.676   3.408   9.836  0.4213  0.2086  0.1626
  758MPD2     C11247   3.226   2.929  15.841 -0.2385 -0.4994 -0.7378
  758MPD2    C111248   3.301   2.914  15.959 -0.4058  0.2109  0.3956
  758MPD2    C211249   3.262   2.956  16.080  0.2717  0.1702  0.0624
  758MPD2    C311250   3.151   3.040  16.086 -0.4205 -0.3863 -0.2782
  758MPD2    C411251   3.082   3.073  15.973  0.4793  0.1504  0.0571
  758MPD2    C511252   3.112   3.012  15.853 -0.2374  0.4612  0.2578
  758MPD2     H11253   3.316   2.937  16.172 -0.2817 -3.2518 -0.3299
  758MPD2    H111254   2.998   3.142  15.975 -0.8111 -1.3993 -1.2114
  758MPD2    H211255   3.237   2.896  15.739  2.2682  0.4329 -0.7700
  758MPD2    H311256   3.055   3.035  15.764 -0.1690  1.6672  0.5186
  758MPD2     N11257   3.129   3.104  16.210  0.6180 -0.3658  0.2642
  758MPD2    H511258   3.182   3.073  16.290  1.3362  0.9146  0.2916
  758MPD2    N111259   3.424   2.838  15.944 -0.0211  0.1036 -0.0305
  758MPD2    H711260   3.446   2.791  15.856  1.6695  1.2192 -0.2075
  759MPD2     C11261   1.960   2.736  10.146 -0.4015  0.1977  0.2154
  759MPD2    C111262   1.962   2.601  10.111  0.5338 -0.1954 -0.5519
  759MPD2    C211263   2.064   2.566  10.024  0.4266 -0.2899 -0.0935
  759MPD2    C311264   2.166   2.655   9.982 -1.0142 -0.1545  0.4754
  759MPD2    C411265   2.159   2.793  10.011 -0.4443  0.2787  0.6659
  759MPD2    C511266   2.053   2.822  10.092  0.2156  0.3375  0.2082
  759MPD2     H11267   2.064   2.459  10.006  3.3480 -0.1794 -0.7299
  759MPD2    H111268   2.229   2.868   9.977 -0.6320 -0.0609 -0.4717
  759MPD2    H211269   1.894   2.783  10.219 -0.1340 -0.7100  1.0360
  759MPD2    H311270   2.044   2.921  10.134  1.0024  0.4318  0.1512
  759MPD2     N11271   2.261   2.608   9.888  0.3113  0.1198 -0.3333
  759MPD2    H511272   2.268   2.508   9.874  1.2320  0.1190  0.1071
  759MPD2    N111273   1.876   2.498  10.150  1.0400  0.1885  0.2337
  759MPD2    H711274   1.904   2.408  10.112  2.0772  1.1757 -1.3662
  760MPD2     C11275   1.997   3.220  11.891 -0.7658  0.4998 -0.3327
  760MPD2    C111276   2.134   3.211  11.904 -0.0374  0.1070 -0.1685
  760MPD2    C211277   2.190   3.094  11.955  0.0577 -0.4004 -0.8667
  760MPD2    C311278   2.111   2.981  11.971 -0.0856 -0.4533  0.1559
  760MPD2    C411279   1.979   2.992  11.951 -0.6984  0.4488  0.1572
  760MPD2    C511280   1.927   3.110  11.918  0.6254 -0.1004 -0.7756
  760MPD2     H11281   2.298   3.090  11.965 -0.0487 -1.8242 -0.1853
  760MPD2    H111282   1.911   2.908  11.964  0.9370 -0.6959  1.2866
  760MPD2    H211283   1.943   3.306  11.853  0.5019  0.4595 -2.2655
  760MPD2    H311284   1.822   3.115  11.894  0.7386 -1.8410 -1.5912
  760MPD2     N11285   2.160   2.856  12.009  0.0879 -0.1605  0.7148
  760MPD2    H511286   2.100   2.777  12.029 -2.0511  1.1156 -0.5939
  760MPD2    N111287   2.214   3.324  11.865  0.1186 -0.1808  0.4832
  760MPD2    H711288   2.314   3.312  11.876 -0.1387 -1.3008  1.6039
  761MPD2     C11289   3.124   2.813  11.320 -0.6938  0.5351  0.0738
  761MPD2    C111290   3.224   2.783  11.232 -0.1078  0.0444  0.6021
  761MPD2    C211291   3.348   2.824  11.260  0.1700 -0.0997  0.7014
  761MPD2    C311292   3.368   2.888  11.382 -0.2950  0.0748  0.6802
  761MPD2    C411293   3.264   2.917  11.462  0.0087 -0.1176  0.2905
  761MPD2    C511294   3.138   2.877  11.438 -0.1881  1.0659 -0.0291
  761MPD2     H11295   3.431   2.805  11.192 -1.4530 -0.3553 -1.2260
  761MPD2    H111296   3.282   2.974  11.552 -1.4290 -2.4502  2.0262
  761MPD2    H211297   3.027   2.782  11.283 -0.2580 -0.0623 -0.5649
  761MPD2    H311298   3.051   2.895  11.499 -0.2106 -0.5095  0.3823
  761MPD2     N11299   3.500   2.925  11.418 -0.3102  0.1889  0.6604
  761MPD2    H511300   3.508   2.981  11.502  0.9963  0.6341  0.2338
  761MPD2    N111301   3.196   2.695  11.124 -0.1851  0.1692 -0.8295
  761MPD2    H711302   3.118   2.630  11.131 -0.4517  0.5246 -0.4864
  762MPD2     C11303   3.511   2.569  10.402 -0.0411 -0.1832  0.8871
  762MPD2    C111304   3.539   2.463  10.485 -0.6972 -0.7937  0.1116
  762MPD2    C211305   3.655   2.392  10.453 -0.2972  0.2724  0.4320
  762MPD2    C311306   3.721   2.411  10.327  0.4370  0.2347 -0.2365
  762MPD2    C411307   3.685   2.526  10.251 -0.0070 -0.6643  0.2854
  762MPD2    C511308   3.583   2.604  10.289 -0.7819  0.4063  0.3251
  762MPD2     H11309   3.679   2.311  10.520  1.4546 -1.5032 -2.3720
  762MPD2    H111310   3.722   2.543  10.151 -1.2745 -1.9727 -0.4171
  762MPD2    H211311   3.433   2.638  10.431 -1.2421 -1.2257  0.1499
  762MPD2    H311312   3.563   2.697  10.237 -1.2878 -0.8708 -1.7701
  762MPD2     N11313   3.814   2.315  10.278 -0.1368  0.0925  0.1986
  762MPD2    H511314   3.822   2.236  10.341  0.0347  0.3568  0.5102
  762MPD2    N111315   3.456   2.456  10.600 -0.5829  0.7528  0.2313
  762MPD2    H711316   3.379   2.521  10.607 -0.9891  0.4031 -0.9586
  763MPD2     C11317   0.783   3.235  16.031 -0.3929 -0.5394 -0.0404
  763MPD2    C111318   0.666   3.268  15.977  0.1797  0.6366 -1.2393
  763MPD2    C211319   0.639   3.400  15.970  0.3727  0.4845 -0.2138
  763MPD2    C311320   0.719   3.492  16.039  0.2932 -0.9089 -0.0034
  763MPD2    C411321   0.833   3.454  16.106 -0.6712  0.2759  0.2821
  763MPD2    C511322   0.871   3.327  16.087  0.7499  0.9839 -0.2287
  763MPD2     H11323   0.550   3.421  15.912  0.0105 -0.9172 -0.1837
  763MPD2    H111324   0.896   3.521  16.163 -1.9280  1.2488  0.5195
  763MPD2    H211325   0.813   3.131  16.044 -1.5103 -1.1490 -2.2689
  763MPD2    H311326   0.961   3.292  16.137  0.8689  1.3370 -0.1964
  763MPD2     N11327   0.686   3.630  16.051 -0.1708  0.1602  0.8163
  763MPD2    H511328   0.743   3.689  16.112 -0.0097  0.1387  0.6869
  763MPD2    N111329   0.580   3.164  15.926  0.3717  0.3258 -0.7299
  763MPD2    H711330   0.491   3.193  15.887 -1.6141 -0.1545  3.5308
  764MPD2     C11331   3.123   0.391  17.021 -0.2802  0.1824  0.0667
  764MPD2    C111332   3.069   0.266  16.989  0.0971 -0.2888 -0.4180
  764MPD2    C211333   3.016   0.186  17.086  0.6155  1.1251  0.2208
  764MPD2    C311334   3.015   0.230  17.221  0.0822  0.9431 -0.6349
  764MPD2    C411335   3.061   0.355  17.250  0.6898 -0.8709  0.1137
  764MPD2    C511336   3.108   0.436  17.149  0.4420 -0.2195 -0.2480
  764MPD2     H11337   2.989   0.084  17.060  2.6083  0.5100  0.5533
  764MPD2    H111338   3.058   0.390  17.352 -1.3434  0.2076 -0.3241
  764MPD2    H211339   3.170   0.464  16.956  0.5164  0.9902  1.5349
  764MPD2    H311340   3.136   0.539  17.171  0.1276 -0.2501  0.2908
  764MPD2     N11341   2.950   0.147  17.314 -0.3484 -1.0122  0.2142
  764MPD2    H511342   2.891   0.072  17.280  0.7709 -2.6262  1.8154
  764MPD2    N111343   3.083   0.211  16.855  0.2902 -0.0931 -0.1715
  764MPD2    H711344   3.048   0.118  16.836 -0.7673  0.3324 -0.3212
  765MPD2     C11345   2.681   1.804  15.354  0.4465  0.6543  0.4374
  765MPD2    C111346   2.765   1.908  15.366  0.5758 -0.4451 -1.0137
  765MPD2    C211347   2.899   1.887  15.387  0.8202 -0.7787 -0.1050
  765MPD2    C311348   2.942   1.756  15.406  0.3053  0.1082  0.3736
  765MPD2    C411349   2.856   1.652  15.403 -0.3244 -0.2836  0.6682
  765MPD2    C511350   2.728   1.674  15.370 -0.0952 -0.2287  0.8692
  765MPD2     H11351   2.969   1.968  15.401 -2.4995  2.1229 -0.4951
  765MPD2    H111352   2.889   1.550  15.417  0.3753 -0.2708 -0.8581
  765MPD2    H211353   2.575   1.819  15.339  0.2685  0.3904  1.4329
  765MPD2    H311354   2.656   1.594  15.377 -0.2803  0.0156  1.7883
  765MPD2     N11355   3.080   1.743  15.442  0.1466 -0.4503 -0.3590
  765MPD2    H511356   3.126   1.833  15.452  0.2460 -0.5943  0.5072
  765MPD2    N111357   2.703   2.040  15.346  0.1739  0.1106  0.0585
  765MPD2    H711358   2.614   2.054  15.299  1.0998  2.7778 -0.9019
  766MPD2     C11359   2.283   2.178  14.993 -0.3639 -0.0557  0.7273
  766MPD2    C111360   2.366   2.261  15.065  0.3763 -0.1450  0.1433
  766MPD2    C211361   2.490   2.282  15.008  0.2433 -0.4489 -0.1618
  766MPD2    C311362   2.532   2.200  14.906 -0.2175 -0.7129 -0.9796
  766MPD2    C411363   2.451   2.110  14.844  0.0560 -0.3074  0.1091
  766MPD2    C511364   2.320   2.110  14.883  0.0424  0.3671  0.5410
  766MPD2     H11365   2.566   2.350  15.045  0.7464 -1.6318  0.9645
  766MPD2    H111366   2.478   2.033  14.772  1.2146  0.8974 -0.7339
  766MPD2    H211367   2.178   2.159  15.014 -0.4621  2.0075  1.9934
  766MPD2    H311368   2.249   2.049  14.829  0.7952 -0.2750  0.2918
  766MPD2     N11369   2.662   2.212  14.858  0.7797 -0.2877 -0.2827
  766MPD2    H511370   2.685   2.168  14.769 -0.9833 -0.2377 -0.7792
  766MPD2    N111371   2.306   2.327  15.174  0.5562  0.0139  0.0559
  766MPD2    H711372   2.206   2.312  15.184  0.4380  0.8436  0.0466
  767MPD2     C11373   2.475   2.644  14.920 -0.5925 -0.4021  0.3953
  767MPD2    C111374   2.591   2.646  14.846 -0.3015  0.3596  0.5788
  767MPD2    C211375   2.599   2.573  14.733  0.6719 -0.5528 -0.3781
  767MPD2    C311376   2.488   2.500  14.687  0.3120  0.1227  0.1887
  767MPD2    C411377   2.375   2.495  14.763  0.4547 -0.0838 -0.7190
  767MPD2    C511378   2.369   2.565  14.879 -0.6702 -0.2718 -0.5906
  767MPD2     H11379   2.682   2.562  14.664  0.4294  0.5736 -0.8417
  767MPD2    H111380   2.287   2.440  14.731  1.7254 -3.8324  2.1129
  767MPD2    H211381   2.468   2.698  15.014 -1.7933  0.1731 -0.0244
  767MPD2    H311382   2.278   2.560  14.936 -0.5685  0.0001 -0.4062
  767MPD2     N11383   2.509   2.426  14.570 -0.1694 -0.9245 -0.4023
  767MPD2    H511384   2.598   2.431  14.522  0.5727  1.1621  1.1928
  767MPD2    N111385   2.706   2.714  14.895 -0.4829 -0.6164  0.9446
  767MPD2    H711386   2.702   2.770  14.980  0.5537  0.4887  0.2518
  768MPD2     C11387   3.644   1.381  10.387  0.2230  0.1468  0.0497
  768MPD2    C111388   3.560   1.322  10.481 -0.4739  0.4876  0.1289
  768MPD2    C211389   3.608   1.276  10.602 -0.6207  0.0838 -0.8267
  768MPD2    C311390   3.745   1.293  10.633 -0.5502 -0.0943  0.5796
  768MPD2    C411391   3.821   1.368  10.546  0.0722  0.6251  0.2640
  768MPD2    C511392   3.773   1.403  10.430 -0.3575  0.2483  0.2764
  768MPD2     H11393   3.538   1.220  10.662 -2.7415  2.3712 -1.1411
  768MPD2    H111394   3.928   1.382  10.558  0.3075  1.7297 -3.2622
  768MPD2    H211395   3.627   1.408  10.283 -1.6536 -0.1147  0.3014
  768MPD2    H311396   3.843   1.435  10.354 -1.0781  0.5581 -0.2553
  768MPD2     N11397   3.814   1.250  10.748  0.0237 -0.4617 -0.2579
  768MPD2    H511398   3.914   1.264  10.757 -0.3203  1.8496 -0.0372
  768MPD2    N111399   3.419   1.310  10.460  0.3203  0.2583  1.0039
  768MPD2    H711400   3.379   1.255  10.536  2.2039 -2.6082 -0.0895
  769MPD2     C11401   4.541   4.025  14.738 -0.0874  1.0432  0.0188
  769MPD2    C111402   4.407   4.014  14.763  0.3065  0.0282 -0.0704
  769MPD2    C211403   4.368   4.037  14.891 -0.1281 -0.6814  0.0507
  769MPD2    C311404   4.453   4.085  14.987 -0.4389  0.0651  0.7439
  769MPD2    C411405   4.578   4.113  14.956  0.1346  0.2293  0.3268
  769MPD2    C511406   4.621   4.080  14.832  0.1512  0.1018 -0.1327
  769MPD2     H11407   4.268   4.016  14.926  0.1020 -3.0494 -0.7251
  769MPD2    H111408   4.658   4.138  15.024  1.6954 -1.5313 -0.8708
  769MPD2    H211409   4.577   3.998  14.640 -0.3345 -0.0161  0.2240
  769MPD2    H311410   4.725   4.090  14.802 -0.1280  0.1782 -1.0727
  769MPD2     N11411   4.401   4.100  15.120  0.2651  0.0252 -0.8573
  769MPD2    H511412   4.303   4.080  15.142  0.3919 -0.5631 -0.8319
  769MPD2    N111413   4.316   3.963  14.661 -0.5844  0.3169 -0.5168
  769MPD2    H711414   4.338   3.933  14.567 -2.8577 -2.8160 -0.0267
  770MPD2     C11415   3.653   3.239  14.597  0.1398 -0.4664  0.3071
  770MPD2    C111416   3.796   3.254  14.622  0.3541 -0.1666 -0.0392
  770MPD2    C211417   3.853   3.375  14.596 -0.7287  0.5973  0.8834
  770MPD2    C311418   3.780   3.486  14.557 -0.3556  0.2496  0.5913
  770MPD2    C411419   3.642   3.479  14.548 -0.4075  0.1179  0.0126
  770MPD2    C511420   3.583   3.355  14.569 -0.7986  0.3223  0.2204
  770MPD2     H11421   3.959   3.395  14.600 -0.5058 -0.6732  1.1751
  770MPD2    H111422   3.585   3.570  14.540  0.3721  0.7316  1.3786
  770MPD2    H211423   3.600   3.145  14.595  0.5046 -0.7096  2.4922
  770MPD2    H311424   3.476   3.350  14.552 -0.4800  0.5044 -1.8626
  770MPD2     N11425   3.844   3.609  14.547 -0.4319 -0.4906 -0.0432
  770MPD2    H511426   3.945   3.605  14.550 -0.5027 -3.3345 -2.0449
  770MPD2    N111427   3.865   3.140  14.660 -0.0863 -0.2661  0.1721
  770MPD2    H711428   3.808   3.057  14.669 -1.5429  0.6340 -0.7722
  771MPD2     C11429   0.466   1.911  13.900  0.4570  0.4589 -1.3610
  771MPD2    C111430   0.377   2.008  13.855 -0.5993  0.0118 -0.5788
  771MPD2    C211431   0.247   1.970  13.837  0.0645 -0.6630  0.2616
  771MPD2    C311432   0.213   1.837  13.833 -0.1220 -0.0077 -0.0931
  771MPD2    C411433   0.304   1.736  13.869 -0.5495 -0.0662  0.2535
  771MPD2    C511434   0.427   1.779  13.903 -0.1030 -0.6351  0.0170
  771MPD2     H11435   0.180   2.047  13.800 -0.7968 -1.4587  0.1607
  771MPD2    H111436   0.281   1.630  13.878 -0.2825 -0.0601  0.9876
  771MPD2    H211437   0.567   1.936  13.931 -0.3824  1.9135  0.2148
  771MPD2    H311438   0.501   1.708  13.939 -0.5864 -0.6968  0.8697
  771MPD2     N11439   0.075   1.809  13.808 -1.0728 -0.4821  0.0616
  771MPD2    H511440   0.022   1.894  13.789  0.2998  0.0110 -1.5703
  771MPD2    N111441   0.408   2.142  13.831  0.2728 -0.4344 -0.3377
  771MPD2    H711442   0.340   2.197  13.781 -0.2891 -2.2184 -1.5451
  772MPD2     C11443   0.031   2.747  13.684  0.3466 -0.5379 -0.8751
  772MPD2    C111444   0.051   2.613  13.722  0.0071  0.2970 -0.5508
  772MPD2    C211445   4.684   2.528  13.744  0.3437  0.0295  0.4215
  772MPD2    C311446   4.553   2.573  13.733 -0.1589 -0.2586  0.3066
  772MPD2    C411447   4.535   2.699  13.680 -0.2432 -0.0729  0.2635
  772MPD2    C511448   4.638   2.786  13.661 -0.1203  0.1093 -0.1031
  772MPD2     H11449   4.711   2.429  13.777  0.2448  0.4434  1.7687
  772MPD2    H111450   4.435   2.740  13.671  0.2350  0.9059 -0.6780
  772MPD2    H211451   0.114   2.815  13.670  0.9300 -1.5357 -2.2876
  772MPD2    H311452   4.613   2.888  13.633 -3.9201  0.0444  3.1095
  772MPD2     N11453   4.441   2.483  13.759 -0.1036 -0.1002 -0.4496
  772MPD2    H511454   4.349   2.506  13.724 -0.2437 -0.1902 -0.1381
  772MPD2    N111455   0.177   2.557  13.740 -0.4541  0.0457 -0.2002
  772MPD2    H711456   0.188   2.456  13.734  0.6550  0.1863 -0.6406
  773MPD2     C11457   3.984   2.962   0.339  0.6974  0.2425 -0.6732
  773MPD2    C111458   4.009   2.909   0.214  0.5458  0.0716 -0.1258
  773MPD2    C211459   4.093   2.797   0.207  0.2083  0.5246  0.1509
  773MPD2    C311460   4.154   2.747   0.326  0.1146 -0.4295 -0.2324
  773MPD2    C411461   4.127   2.809   0.445  0.3662  0.3481  0.0359
  773MPD2    C511462   4.042   2.910   0.448  0.1960 -0.0840 -0.3153
  773MPD2     H11463   4.108   2.752   0.110 -4.3546 -1.8226  0.5426
  773MPD2    H111464   4.178   2.789   0.539 -1.6536 -0.6326  0.9361
  773MPD2    H211465   3.910   3.042   0.341  0.4867  0.0516 -0.8278
  773MPD2    H311466   4.010   2.956   0.541 -2.3265 -0.8554 -0.8187
  773MPD2     N11467   4.239   2.636   0.320  0.2474 -0.6245  0.3873
  773MPD2    H511468   4.245   2.589   0.230 -0.0500 -0.6353  0.3743
  773MPD2    N111469   3.970   2.976   0.094  0.0819  0.1930 -0.3117
  773MPD2    H711470   3.993   2.938   0.003 -0.8658  1.8883 -1.2482
  774MPD2     C11471   3.202   1.367  13.607  0.1022 -0.5846  0.2823
  774MPD2    C111472   3.301   1.463  13.633 -0.9290  0.4473  0.2522
  774MPD2    C211473   3.321   1.561  13.541 -0.1930 -0.7465  0.0842
  774MPD2    C311474   3.236   1.569  13.430  0.0843 -0.0742 -0.2570
  774MPD2    C411475   3.151   1.476  13.393 -0.3747 -0.0541  0.2592
  774MPD2    C511476   3.129   1.376  13.489  0.1561 -0.0551 -0.0462
  774MPD2     H11477   3.382   1.648  13.557 -1.0066  0.3203 -2.5845
  774MPD2    H111478   3.099   1.490  13.299 -0.2478  2.0111  0.4940
  774MPD2    H211479   3.200   1.292  13.685 -1.9183  0.8837  1.6420
  774MPD2    H311480   3.053   1.301  13.471 -0.6168  0.3136  1.6847
  774MPD2     N11481   3.246   1.685  13.351  0.0059 -0.0436  0.5239
  774MPD2    H511482   3.320   1.752  13.370 -2.3553  2.6515  0.2715
  774MPD2    N111483   3.366   1.447  13.759  0.3593  0.5863 -0.3295
  774MPD2    H711484   3.331   1.381  13.827  0.5001  0.2929 -0.5431
  775MPD2     C11485   4.580   4.047  15.683  0.4387  0.6214 -0.0008
  775MPD2    C111486   4.615   4.164  15.746 -0.0704 -0.0223 -0.0007
  775MPD2    C211487   4.699   4.250  15.685 -0.4645 -0.4458  0.5807
  775MPD2    C311488   0.015   4.222  15.553  0.6876  0.5350 -0.2781
  775MPD2    C411489   4.719   4.101  15.494 -0.1547  0.1262 -0.5218
  775MPD2    C511490   4.631   4.019  15.560 -0.3842  0.1779 -0.1880
  775MPD2     H11491   4.729   4.341  15.737 -2.0679  0.0558  0.6133
  775MPD2    H111492   0.021   4.082  15.395 -5.0160  0.8727 -2.5503
  775MPD2    H211493   4.522   3.975  15.738  2.0825 -0.1466  0.7378
  775MPD2    H311494   4.608   3.928  15.507  0.0241  0.5889 -1.0706
  775MPD2     N11495   0.109   4.307  15.490  0.5307  0.4050 -0.2951
  775MPD2    H511496   0.170   4.278  15.414  1.2921 -2.1924  1.3187
  775MPD2    N111497   4.560   4.182  15.875  0.5913 -0.5076 -0.2550
  775MPD2    H711498   4.495   4.109  15.900  4.2431 -3.1343  1.5590
  776MPD2     C11499   3.731   4.416  11.976  0.0359  0.0279 -0.4928
  776MPD2    C111500   3.769   4.360  11.855 -0.9451 -0.5734 -0.1934
  776MPD2    C211501   3.803   4.440  11.747  0.4965  0.7143 -0.0886
  776MPD2    C311502   3.796   4.577  11.757  0.1083  0.2221 -0.2866
  776MPD2    C411503   3.760   4.631  11.878 -0.8222 -0.1135 -0.1613
  776MPD2    C511504   3.733   4.548  11.984  0.4742  0.2861 -0.1331
  776MPD2     H11505   3.842   4.385  11.662  1.8049 -1.9141  2.2484
  776MPD2    H111506   3.753   0.001  11.891  2.1194 -0.0532  0.9664
  776MPD2    H211507   3.698   4.358  12.061  0.3202 -1.0804 -1.1412
  776MPD2    H311508   3.687   4.587  12.074 -0.3415 -1.4948  0.2183
  776MPD2     N11509   3.824   4.660  11.652 -0.1666 -0.0196 -0.4029
  776MPD2    H511510   3.844   0.018  11.682 -2.6853  1.1311 -2.3449
  776MPD2    N111511   3.778   4.218  11.853  0.6875 -0.3993  0.5059
  776MPD2    H711512   3.740   4.170  11.933  1.1902 -1.1161  0.3134
  777MPD2     C11513   4.142   1.229   0.256  0.4039  0.0813  0.4995
  777MPD2    C111514   4.022   1.237   0.326  0.8609  0.2221 -0.0826
  777MPD2    C211515   3.915   1.152   0.282  1.1375  0.1621  0.6948
  777MPD2    C311516   3.937   1.071   0.165  0.6155 -0.4414 -0.3031
  777MPD2    C411517   4.058   1.072   0.098  0.0572  0.2238 -0.0613
  777MPD2    C511518   4.161   1.146   0.144 -0.3407  0.6183  0.9111
  777MPD2     H11519   3.822   1.139   0.336  1.7459 -2.5098  1.0851
  777MPD2    H111520   4.077   1.008   0.012  0.9765  0.5215 -0.0810
  777MPD2    H211521   4.226   1.285   0.294  0.4224 -0.4351  1.2179
  777MPD2    H311522   4.254   1.133   0.091  0.2200  0.6676  1.8894
  777MPD2     N11523   3.841   0.973   0.118  0.4307 -0.4474 -0.3002
  777MPD2    H511524   3.881   0.901   0.058 -1.5871 -0.8787 -1.1165
  777MPD2    N111525   4.015   1.304   0.451 -0.2568  0.6959 -0.2122
  777MPD2    H711526   4.096   1.361   0.473 -0.5883  1.1361 -0.1329
  778MPD2     C11527   0.305   1.921  15.031 -0.0387 -0.1553  0.0751
  778MPD2    C111528   0.328   1.819  14.938 -0.1137 -0.3805  0.8360
  778MPD2    C211529   0.405   1.843  14.832  0.1343 -0.6898 -0.3188
  778MPD2    C311530   0.455   1.971  14.816  0.0433  0.4185 -0.2244
  778MPD2    C411531   0.453   2.062  14.914 -0.1433 -0.0751 -0.3070
  778MPD2    C511532   0.366   2.046  15.017 -0.2674 -0.1069  1.1745
  778MPD2     H11533   0.435   1.767  14.760 -2.7026 -0.6967 -1.5027
  778MPD2    H111534   0.502   2.159  14.910  1.2653 -0.8584 -1.8767
  778MPD2    H211535   0.232   1.909  15.110 -0.5862 -0.0679 -0.4074
  778MPD2    H311536   0.348   2.120  15.095  0.8500  0.7142  0.6333
  778MPD2     N11537   0.525   1.994  14.697  0.1649  0.2520  0.3039
  778MPD2    H511538   0.536   1.922  14.626 -0.2697  0.8344 -0.3545
  778MPD2    N111539   0.286   1.686  14.956  0.4518  0.2647 -0.2616
  778MPD2    H711540   0.304   1.616  14.884  1.8382 -1.2386  1.5606
  779MPD2     C11541   4.732   0.725  13.806  0.4798 -0.6757 -0.2999
  779MPD2    C111542   0.075   0.718  13.916  0.5831 -0.2678 -0.1418
  779MPD2    C211543   0.125   0.836  13.967 -0.3923  0.2072 -0.0015
  779MPD2    C311544   0.100   0.954  13.904 -0.2309  0.2368  0.4704
  779MPD2    C411545   0.015   0.961  13.795 -0.0583 -0.5998  0.2574
  779MPD2    C511546   4.711   0.838  13.736  0.2942 -0.1331 -0.7960
  779MPD2     H11547   0.174   0.836  14.064  1.9605 -1.5030 -1.1871
  779MPD2    H111548   4.733   1.055  13.745 -1.4820 -1.9629 -1.7236
  779MPD2    H211549   4.685   0.634  13.769  0.8712 -1.3736  0.9320
  779MPD2    H311550   4.657   0.834  13.642 -3.5382  0.1919  1.3886
  779MPD2     N11551   0.154   1.069  13.970  0.1271  0.5915  0.0621
  779MPD2    H511552   0.218   1.049  14.046  1.9854 -0.6234 -1.8397
  779MPD2    N111553   0.107   0.593  13.979 -0.0326 -0.1376 -0.0261
  779MPD2    H711554   0.144   0.594  14.073 -1.2591  0.5105  0.4555
  780MPD2     C11555   4.245   0.849   1.084 -0.2204  0.7958 -0.5126
  780MPD2    C111556   4.222   0.803   0.956  1.0338  0.6496  0.8266
  780MPD2    C211557   4.326   0.810   0.872  0.9409 -0.2035 -0.2804
  780MPD2    C311558   4.448   0.872   0.896 -0.1602  0.0953  0.0864
  780MPD2    C411559   4.458   0.939   1.024 -0.1465  0.0780 -0.1340
  780MPD2    C511560   4.363   0.917   1.113  0.5431 -0.2158 -0.1231
  780MPD2     H11561   4.320   0.778   0.769  1.6069 -0.1375 -0.3388
  780MPD2    H111562   4.540   1.005   1.052 -1.8954  1.4170  1.7971
  780MPD2    H211563   4.170   0.853   1.162  2.3717  0.2078  2.0324
  780MPD2    H311564   4.369   0.977   1.203 -1.9094 -1.7457  1.0632
  780MPD2     N11565   4.538   0.880   0.790  0.1560  0.3926  0.2989
  780MPD2    H511566   4.513   0.826   0.708  0.3163  0.1119  0.4363
  780MPD2    N111567   4.091   0.746   0.912 -0.8389 -0.4729 -0.2157
  780MPD2    H711568   4.025   0.733   0.988  0.4546 -0.4730  0.9248
  781MPD2     C11569   0.890   2.800  12.035  0.1817  0.1159  0.3430
  781MPD2    C111570   1.022   2.767  12.043 -1.0371 -0.6025 -0.1643
  781MPD2    C211571   1.102   2.818  11.935  0.1995  0.1188 -0.6989
  781MPD2    C311572   1.056   2.908  11.842 -0.0512  0.4735  0.5524
  781MPD2    C411573   0.919   2.928  11.841 -0.2011  0.0830 -0.1741
  781MPD2    C511574   0.840   2.881  11.939 -0.7884 -0.6243  0.0322
  781MPD2     H11575   1.207   2.790  11.929 -0.0270 -0.3468 -2.6829
  781MPD2    H111576   0.879   2.989  11.761 -0.3036  0.6253  0.2878
  781MPD2    H211577   0.815   2.776  12.109 -0.0125 -0.1975  0.0402
  781MPD2    H311578   0.734   2.901  11.938 -0.6988 -0.0407  1.8709
  781MPD2     N11579   1.139   2.960  11.737 -0.3027 -0.1169  0.3762
  781MPD2    H511580   1.118   3.052  11.700  1.4314 -0.3531 -1.1969
  781MPD2    N111581   1.084   2.692  12.142  0.1273 -0.9085 -0.0004
  781MPD2    H711582   1.183   2.670  12.136 -0.4773 -3.0726 -2.2065
  782MPD2     C11583   3.856   2.784  10.017  0.6880 -0.5089  0.3836
  782MPD2    C111584   3.977   2.804  10.075  0.3807 -0.1655  0.0618
  782MPD2    C211585   4.044   2.927  10.058  0.6557 -0.0631 -0.6572
  782MPD2    C311586   3.995   3.022   9.970  0.3731  0.3862  0.5627
  782MPD2    C411587   3.875   3.000   9.910 -0.0547  0.0124 -0.8617
  782MPD2    C511588   3.811   2.878   9.927  0.8062  0.3934 -0.3354
  782MPD2     H11589   4.138   2.956  10.105  0.7371  0.1258 -0.9311
  782MPD2    H111590   3.829   3.072   9.843  1.7874  0.5793 -1.5229
  782MPD2    H211591   3.799   2.694  10.035  0.0518 -0.2281 -0.2366
  782MPD2    H311592   3.722   2.860   9.867  0.0245 -0.4518  1.0674
  782MPD2     N11593   4.058   3.148   9.964  0.5318  0.0399 -0.4065
  782MPD2    H511594   4.147   3.165  10.011 -0.2098  1.9206  0.3177
  782MPD2    N111595   4.019   2.707  10.172  0.2248 -0.0749  0.2000
  782MPD2    H711596   3.956   2.630  10.193  1.0781 -0.9267 -0.3986
  783MPD2     C11597   3.711   2.553  11.008 -0.0677  0.1979 -0.2800
  783MPD2    C111598   3.784   2.659  10.972 -0.4824 -0.4348  0.1468
  783MPD2    C211599   3.855   2.647  10.856 -0.6098 -0.4594  0.2613
  783MPD2    C311600   3.852   2.537  10.776  0.0760 -0.3219  0.0861
  783MPD2    C411601   3.779   2.425  10.816  0.2092  0.5950 -0.5383
  783MPD2    C511602   3.715   2.435  10.937 -0.3598 -0.2461  1.0993
  783MPD2     H11603   3.927   2.726  10.839 -0.6436 -0.9717 -2.1652
  783MPD2    H111604   3.777   2.328  10.769  0.1107 -1.0091  2.7686
  783MPD2    H211605   3.643   2.560  11.093  0.9416  1.7830  0.3994
  783MPD2    H311606   3.669   2.345  10.974 -0.8284 -0.1565  0.7281
  783MPD2     N11607   3.941   2.518  10.660  0.1113  0.3652 -0.1879
  783MPD2    H511608   4.007   2.593  10.644  0.2655  0.3226  0.2434
  783MPD2    N111609   3.792   2.767  11.060 -0.8392 -0.7008 -0.2742
  783MPD2    H711610   3.741   2.762  11.147 -1.0615 -2.7187 -0.5221
  784MPD2     C11611   2.199   3.352   0.337  0.2907 -0.2836 -1.2567
  784MPD2    C111612   2.214   3.469   0.413 -0.5290  0.2404  0.2154
  784MPD2    C211613   2.121   3.570   0.399 -0.3300  0.1555  0.0608
  784MPD2    C311614   2.010   3.552   0.319  0.2073  0.4986  0.5186
  784MPD2    C411615   1.999   3.435   0.245 -0.6852 -0.6933 -0.6847
  784MPD2    C511616   2.092   3.339   0.253  0.7426 -1.0049 -0.5722
  784MPD2     H11617   2.139   3.664   0.450 -1.6349 -0.2437  1.2520
  784MPD2    H111618   1.923   3.423   0.169 -0.5469 -2.9977 -0.4575
  784MPD2    H211619   2.272   3.272   0.333 -1.0404 -1.5123 -1.1490
  784MPD2    H311620   2.086   3.248   0.194  1.1431 -0.2009 -1.8455
  784MPD2     N11621   1.902   3.648   0.320 -0.1600  0.0004 -0.3579
  784MPD2    H511622   1.926   3.738   0.362  3.7554 -1.2418  0.1196
  784MPD2    N111623   2.312   3.488   0.510 -0.6954 -0.3310  0.0689
  784MPD2    H711624   2.289   3.564   0.573  3.0785  2.2905 -1.6663
  785MPD2     C11625   2.436   2.424  11.570  0.6344 -0.3867  0.8220
  785MPD2    C111626   2.345   2.524  11.607  0.1952  0.1422 -0.3208
  785MPD2    C211627   2.213   2.482  11.631  0.0425  0.3503  0.1916
  785MPD2    C311628   2.175   2.348  11.609 -0.1903 -0.1176  0.4197
  785MPD2    C411629   2.262   2.253  11.561 -0.6187  0.2263 -1.0884
  785MPD2    C511630   2.396   2.295  11.549  0.3864 -0.0786 -0.1084
  785MPD2     H11631   2.138   2.556  11.655 -2.4116 -3.1073  3.0069
  785MPD2    H111632   2.238   2.149  11.545 -2.1601  0.4037  0.0804
  785MPD2    H211633   2.541   2.446  11.562  0.8110 -1.3350  0.5537
  785MPD2    H311634   2.466   2.222  11.510  0.4286 -0.7878  1.2786
  785MPD2     N11635   2.039   2.322  11.619  0.5725 -0.0873 -0.0927
  785MPD2    H511636   1.984   2.400  11.653  0.7109 -0.1502  0.2727
  785MPD2    N111637   2.393   2.657  11.615  0.1431  0.4832  0.1442
  785MPD2    H711638   2.492   2.667  11.598  0.8388 -2.5952  2.3218
  786MPD2     C11639   0.996   4.647  14.690  0.8245  1.9710  0.5038
  786MPD2    C111640   0.924   4.531  14.722 -0.5387 -0.6470  0.0783
  786MPD2    C211641   0.919   4.476  14.847 -0.8922  0.6610 -0.5434
  786MPD2    C311642   0.969   4.558  14.953  0.5896 -0.1565 -0.1271
  786MPD2    C411643   1.039   4.671  14.920  0.0963 -0.1493  0.3146
  786MPD2    C511644   1.056   4.714  14.792  0.0601 -0.2176 -1.1333
  786MPD2     H11645   0.876   4.379  14.868  0.1786  0.8150  2.3421
  786MPD2    H111646   1.073   0.003  14.996 -0.0894  0.0943  0.1758
  786MPD2    H211647   1.024   4.684  14.592  3.7688  2.9509  1.6945
  786MPD2    H311648   1.125   0.059  14.774 -0.7874  0.6610 -0.3918
  786MPD2     N11649   0.961   4.528  15.090  0.1110  0.2953  0.0379
  786MPD2    H511650   1.014   4.587  15.154  0.3452  0.1471 -0.0223
  786MPD2    N111651   0.858   4.459  14.622 -0.2751  0.7370 -0.4215
  786MPD2    H711652   0.799   4.388  14.665  3.2444 -0.8243  1.8124
  787MPD2     C11653   0.627   3.736  14.416  0.2185  0.2110  0.6801
  787MPD2    C111654   0.735   3.822  14.407  0.5508 -0.1710  0.2460
  787MPD2    C211655   0.860   3.783  14.456  0.0310  0.4909 -0.0590
  787MPD2    C311656   0.882   3.655  14.505 -0.6226  0.2380 -0.2081
  787MPD2    C411657   0.770   3.566  14.513 -0.0064  0.4832  0.1121
  787MPD2    C511658   0.654   3.605  14.460  0.7349  0.5463  0.6654
  787MPD2     H11659   0.942   3.852  14.442  0.2101  0.2845 -0.0216
  787MPD2    H111660   0.790   3.464  14.544  0.4369  0.6774  0.4692
  787MPD2    H211661   0.531   3.762  14.374  0.4247  2.5750  1.6972
  787MPD2    H311662   0.571   3.535  14.469  1.0894  0.1974  1.1818
  787MPD2     N11663   1.012   3.620  14.552  0.0397 -0.1138  0.1512
  787MPD2    H511664   1.085   3.691  14.545  1.2340 -1.3449  0.1380
  787MPD2    N111665   0.715   3.949  14.357  0.2650  0.0142 -0.5236
  787MPD2    H711666   0.618   3.980  14.360  0.4519  0.2987  2.9056
  788MPD2     C11667   3.062   3.419   0.746 -0.2758  0.0507  0.0566
  788MPD2    C111668   3.030   3.377   0.617  0.2294  0.2355 -0.1048
  788MPD2    C211669   2.950   3.453   0.537 -0.8178 -0.3000  0.1145
  788MPD2    C311670   2.902   3.576   0.587  0.4363 -0.1504  0.3759
  788MPD2    C411671   2.950   3.620   0.711  0.8307 -0.4956 -0.2481
  788MPD2    C511672   3.014   3.536   0.791 -0.3564  0.2990 -0.1375
  788MPD2     H11673   2.921   3.418   0.439 -1.3216  0.1755  0.0950
  788MPD2    H111674   2.929   3.717   0.754 -1.2429 -1.2182  0.3433
  788MPD2    H211675   3.125   3.366   0.816  1.3854 -1.6756 -2.7641
  788MPD2    H311676   3.040   3.574   0.890  0.6112 -4.0299  1.2651
  788MPD2     N11677   2.813   3.653   0.514 -0.1215 -0.0194 -0.0572
  788MPD2    H511678   2.805   3.750   0.540  1.1535 -0.0196  0.3407
  788MPD2    N111679   3.068   3.250   0.557 -0.2586  0.4374 -0.2559
  788MPD2    H711680   3.053   3.238   0.457  1.1474  0.4194 -0.4613
  789MPD2     C11681   3.116   2.717  16.389  0.0503 -0.6603 -0.3172
  789MPD2    C111682   3.038   2.746  16.282  0.1315  0.1573 -0.0196
  789MPD2    C211683   2.933   2.840  16.293 -0.6264  0.1062 -0.2016
  789MPD2    C311684   2.912   2.905  16.416 -0.1496  1.2777  0.1285
  789MPD2    C411685   2.991   2.873  16.522 -0.2069  0.0277  0.5217
  789MPD2    C511686   3.099   2.788  16.508  0.2174  0.4944  0.7167
  789MPD2     H11687   2.874   2.863  16.205  2.2337 -0.6213 -2.3076
  789MPD2    H111688   2.958   2.909  16.618 -1.0473 -0.3457  0.3677
  789MPD2    H211689   3.192   2.640  16.381 -0.5510 -1.2793 -0.0315
  789MPD2    H311690   3.163   2.754  16.588 -0.9022  1.4165  2.0187
  789MPD2     N11691   2.808   2.998  16.437 -0.2297  0.5171  0.5050
  789MPD2    H511692   2.811   3.036  16.531  0.1340 -2.1411  1.5726
  789MPD2    N111693   3.061   2.690  16.151  0.1985  0.5844 -0.3754
  789MPD2    H711694   2.993   2.704  16.076 -1.1848 -1.3317  0.5230
  790MPD2     C11695   4.229   4.361  13.604  0.4991 -0.0627 -0.4592
  790MPD2    C111696   4.165   4.239  13.613  0.6217 -0.6479  0.4657
  790MPD2    C211697   4.152   4.151  13.510 -0.3710 -0.4917 -0.0927
  790MPD2    C311698   4.236   4.174  13.404 -0.1135 -0.0494 -0.6412
  790MPD2    C411699   4.311   4.284  13.395  0.1596 -0.7720  0.6254
  790MPD2    C511700   4.311   4.380  13.492 -0.3758 -0.6088 -0.3079
  790MPD2     H11701   4.097   4.059  13.526 -0.8256 -0.3330 -0.7544
  790MPD2    H111702   4.380   4.305  13.315 -0.8305  1.5461  0.3716
  790MPD2    H211703   4.243   4.435  13.682 -1.7830 -0.6668  0.5345
  790MPD2    H311704   4.369   4.469  13.474 -1.9566  1.1493  3.4882
  790MPD2     N11705   4.232   4.070  13.302  0.5036 -0.1273  0.2772
  790MPD2    H511706   4.159   4.000  13.307  1.4268 -1.0451  1.0185
  790MPD2    N111707   4.105   4.209  13.740  0.1425 -0.6173  0.5390
  790MPD2    H711708   4.072   4.285  13.799  2.0050 -0.1457  0.9698
  791MPD2     C11709   3.713   3.753  13.253 -0.5312  0.8222 -0.0440
  791MPD2    C111710   3.771   3.747  13.124  0.1911  0.5606 -0.2733
  791MPD2    C211711   3.690   3.723  13.015  0.0364 -0.1290  0.9395
  791MPD2    C311712   3.550   3.709  13.030 -0.1354  0.0227  1.0019
  791MPD2    C411713   3.493   3.720  13.154  0.5663 -0.5209  0.2208
  791MPD2    C511714   3.578   3.732  13.262  0.3948  0.1970  0.0515
  791MPD2     H11715   3.726   3.706  12.914  1.9571  1.2253  1.4085
  791MPD2    H111716   3.386   3.706  13.169  0.1651  0.5138 -1.6459
  791MPD2    H211717   3.775   3.765  13.342 -1.0008 -0.1976  0.4244
  791MPD2    H311718   3.530   3.731  13.359 -0.2111 -1.0564 -0.2711
  791MPD2     N11719   3.483   3.680  12.912  0.3315  0.5787  0.4478
  791MPD2    H511720   3.540   3.668  12.829 -1.0181  1.7677 -0.6385
  791MPD2    N111721   3.914   3.749  13.117  0.1678  0.4402 -0.1341
  791MPD2    H711722   3.959   3.758  13.208 -0.5136  0.3616  0.2051
  792MPD2     C11723   3.576   4.220  11.519 -0.1192 -0.3363  0.0499
  792MPD2    C111724   3.619   4.166  11.400 -0.6922 -0.2703 -0.4279
  792MPD2    C211725   3.555   4.065  11.340 -0.1909  0.3479 -0.2308
  792MPD2    C311726   3.434   4.021  11.391 -0.1067  0.1594  0.1784
  792MPD2    C411727   3.387   4.082  11.504 -1.2862 -0.4337  0.5839
  792MPD2    C511728   3.458   4.176  11.568  0.2052 -0.4130 -0.2248
  792MPD2     H11729   3.603   4.012  11.258 -2.2742 -0.0111 -1.2094
  792MPD2    H111730   3.285   4.064  11.537 -1.9955 -0.0450 -1.3536
  792MPD2    H211731   3.630   4.296  11.573  0.4227 -1.2707  0.8306
  792MPD2    H311732   3.433   4.220  11.664 -0.4198  0.8749 -0.9783
  792MPD2     N11733   3.361   3.918  11.335 -0.0152  0.1308 -0.4812
  792MPD2    H511734   3.277   3.894  11.388 -0.4000  1.0400 -0.6800
  792MPD2    N111735   3.724   4.239  11.331 -0.2525  0.2521 -0.9913
  792MPD2    H711736   3.772   4.310  11.386 -0.4257 -1.7763  1.7503
  793MPD2     C11737   2.939   3.975  10.577 -0.7829 -0.0596 -0.2033
  793MPD2    C111738   3.051   4.026  10.638  0.4964  0.0585  0.2030
  793MPD2    C211739   3.079   3.981  10.765  0.0690 -0.0693  0.3366
  793MPD2    C311740   2.994   3.893  10.840 -0.0421  0.3973 -0.5440
  793MPD2    C411741   2.882   3.858  10.783 -0.4041 -0.3827  0.3330
  793MPD2    C511742   2.856   3.904  10.654  0.5267 -0.5460 -0.2614
  793MPD2     H11743   3.175   4.012  10.806  0.2052 -0.6121  0.4275
  793MPD2    H111744   2.812   3.796  10.837 -0.9562 -0.0254  0.0237
  793MPD2    H211745   2.901   4.005  10.480  0.4005  0.1077 -0.6162
  793MPD2    H311746   2.757   3.885  10.614  1.1443 -0.1808 -1.9704
  793MPD2     N11747   3.047   3.837  10.957 -0.3872 -0.0461  0.2356
  793MPD2    H511748   3.141   3.868  10.978  0.9216 -2.6333 -1.8769
  793MPD2    N111749   3.145   4.106  10.567  0.2169  0.0132  0.0939
  793MPD2    H711750   3.231   4.130  10.614  1.6258 -1.9514 -1.4683
  794MPD2     C11751   3.711   3.744  17.434 -0.6058  0.6656  0.0374
  794MPD2    C111752   3.731   3.625  17.354 -0.7874  0.4292  0.4359
  794MPD2    C211753   3.727   3.645  17.213  0.0777 -0.0455 -0.6072
  794MPD2    C311754   3.695   3.768  17.163 -0.0316 -0.2249  0.0873
  794MPD2    C411755   3.676   3.876  17.244 -0.4122  0.1363  0.2876
  794MPD2    C511756   3.679   3.873  17.384  0.1351  0.6137  0.0035
  794MPD2     H11757   3.748   3.568  17.141  1.4088  0.5063 -0.8118
  794MPD2    H111758   3.646   3.973  17.207  0.2163  0.7314  1.3296
  794MPD2    H211759   3.701   3.737  17.541  0.8021  3.4346  0.3587
  794MPD2    H311760   3.668   3.960  17.449 -0.5878  0.3975  0.1725
  794MPD2     N11761   3.677   3.790  17.026  0.4835 -1.1542 -0.1838
  794MPD2    H511762   3.654   3.886  17.002  1.1318 -1.0616 -0.4348
  794MPD2    N111763   3.769   3.497  17.402  0.0813  0.1555 -0.3917
  794MPD2    H711764   3.794   3.435  17.326 -0.7853 -2.1653  1.2061
  795MPD2     C11765   1.597   0.740  13.963 -0.2026 -0.9740 -0.1937
  795MPD2    C111766   1.527   0.669  13.864  0.7352 -0.0773 -1.1457
  795MPD2    C211767   1.569   0.547  13.832  0.1464 -0.5960  0.9999
  795MPD2    C311768   1.670   0.487  13.914  0.1378  0.4254 -0.1480
  795MPD2    C411769   1.735   0.549  14.018 -0.1229 -0.3598 -0.8451
  795MPD2    C511770   1.686   0.673  14.043 -0.7959 -0.3972  0.1339
  795MPD2     H11771   1.511   0.496  13.757 -0.3796  0.3372  0.7619
  795MPD2    H111772   1.800   0.505  14.094 -0.2369  0.6762 -0.1510
  795MPD2    H211773   1.571   0.839  14.001 -3.2740 -2.9970  3.0710
  795MPD2    H311774   1.723   0.724  14.131  0.9229  1.1331 -1.4830
  795MPD2     N11775   1.714   0.348  13.894  0.0673  0.3447 -0.6243
  795MPD2    H511776   1.758   0.306  13.975 -2.9000 -1.2685  0.1572
  795MPD2    N111777   1.407   0.718  13.808 -0.4799 -0.2172  0.3718
  795MPD2    H711778   1.344   0.657  13.758 -1.0259  0.2064  0.5450
  796MPD2     C11779   0.929   2.625  15.693 -0.4366  0.0126  0.1817
  796MPD2    C111780   0.999   2.709  15.779 -0.0083 -0.0140 -0.6778
  796MPD2    C211781   0.968   2.846  15.766 -0.0444 -0.0271  0.0081
  796MPD2    C311782   0.876   2.893  15.675  0.2012  0.1299  0.0913
  796MPD2    C411783   0.832   2.807  15.578 -0.4978  1.0528 -0.1115
  796MPD2    C511784   0.856   2.676  15.591  0.1830  0.2207  0.4892
  796MPD2     H11785   1.001   2.913  15.845  0.9179 -2.5458  1.7620
  796MPD2    H111786   0.756   2.837  15.506 -1.8161 -1.2629  0.3309
  796MPD2    H211787   0.958   2.521  15.705 -2.0191 -0.3893  0.5455
  796MPD2    H311788   0.810   2.611  15.518 -1.8418  1.5608  0.5897
  796MPD2     N11789   0.860   3.029  15.665 -0.8428 -0.6873  0.0031
  796MPD2    H511790   0.906   3.091  15.731 -2.3657  2.1873 -1.6280
  796MPD2    N111791   1.081   2.652  15.884  0.5544  0.3051 -0.7820
  796MPD2    H711792   1.084   2.551  15.890 -0.9439  0.3003 -0.1931
  797MPD2     C11793   2.272   2.136  16.883  0.3175  0.5287  0.4385
  797MPD2    C111794   2.395   2.171  16.839 -0.0875 -0.1857 -0.1877
  797MPD2    C211795   2.406   2.304  16.812  0.7227  0.3701 -0.3779
  797MPD2    C311796   2.305   2.397  16.815 -0.0662 -0.0738  0.1307
  797MPD2    C411797   2.180   2.352  16.853 -0.9795 -0.5198 -0.1832
  797MPD2    C511798   2.170   2.223  16.895 -0.1281  0.0281  0.1840
  797MPD2     H11799   2.506   2.334  16.781  0.9658  0.5753  0.5890
  797MPD2    H111800   2.092   2.414  16.866 -1.3162 -0.7596 -1.2848
  797MPD2    H211801   2.253   2.035  16.918  1.2193  0.0831 -0.3237
  797MPD2    H311802   2.080   2.198  16.950 -0.4620  0.0360 -0.3473
  797MPD2     N11803   2.334   2.525  16.768 -0.1732 -0.1868 -0.5082
  797MPD2    H511804   2.427   2.546  16.734 -0.8296 -0.0255 -2.2109
  797MPD2    N111805   2.494   2.078  16.807 -0.2916 -0.0370  0.8571
  797MPD2    H711806   2.579   2.120  16.770 -0.5018  0.4698  0.9559
  798MPD2     C11807   2.822   2.459  16.293  0.9018  0.2659 -0.0834
  798MPD2    C111808   2.717   2.448  16.384  0.7329  0.6330 -0.0752
  798MPD2    C211809   2.713   2.330  16.465  0.2225 -0.0495 -0.0066
  798MPD2    C311810   2.811   2.230  16.445 -0.2700 -0.3813  0.0659
  798MPD2    C411811   2.917   2.249  16.358  0.7654  0.7374  0.4587
  798MPD2    C511812   2.921   2.363  16.282  0.3471 -0.1417 -0.4305
  798MPD2     H11813   2.633   2.318  16.538  0.8818  0.2931  0.7721
  798MPD2    H111814   2.999   2.179  16.345  0.2775  0.2064  0.2811
  798MPD2    H211815   2.831   2.550  16.234  0.0311 -0.3438 -1.1433
  798MPD2    H311816   3.003   2.379  16.214 -0.3249 -0.5477 -1.3301
  798MPD2     N11817   2.784   2.109  16.523 -0.2816 -0.2491  0.3309
  798MPD2    H511818   2.703   2.103  16.583 -0.9876  0.0057 -0.5949
  798MPD2    N111819   2.636   2.558  16.400 -0.2020 -0.0356 -0.0443
  798MPD2    H711820   2.635   2.623  16.321 -2.4618 -1.1869 -0.9708
  799MPD2     C11821   1.034   3.795  14.148  0.3562 -0.7559 -0.1340
  799MPD2    C111822   0.969   3.698  14.070 -0.3144  0.4214 -0.1562
  799MPD2    C211823   0.933   3.736  13.942 -0.6131  0.1172  0.7794
  799MPD2    C311824   0.963   3.862  13.896  0.3752 -0.1849  0.0332
  799MPD2    C411825   1.041   3.949  13.967 -0.4626  0.4394 -0.0438
  799MPD2    C511826   1.073   3.915  14.096  0.6134  0.1170 -0.1254
  799MPD2     H11827   0.879   3.664  13.881 -0.2917  1.6204 -1.3051
  799MPD2    H111828   1.070   4.050  13.941  0.4397 -0.4030 -2.3527
  799MPD2    H211829   1.052   3.775  14.253  0.5831  1.3852  0.2294
  799MPD2    H311830   1.124   3.985  14.161  0.5626  0.4140 -0.4030
  799MPD2     N11831   0.943   3.899  13.762 -0.8337  0.1560  0.6366
  799MPD2    H511832   0.963   3.995  13.737 -0.9222  0.1450  0.5214
  799MPD2    N111833   0.939   3.568  14.116 -0.6410  0.4565 -0.8708
  799MPD2    H711834   0.878   3.507  14.063  3.6871 -2.6008 -2.3736
  800MPD2     C11835   1.063   4.505  13.614 -0.7965 -0.3629 -0.0540
  800MPD2    C111836   1.196   4.487  13.620 -0.2308 -0.4276  0.3901
  800MPD2    C211837   1.258   4.431  13.511 -0.3661  0.1105  0.4711
  800MPD2    C311838   1.182   4.387  13.406  0.0152  0.2854 -0.7432
  800MPD2    C411839   1.048   4.399  13.408  0.3064  0.4162 -0.3711
  800MPD2    C511840   0.983   4.454  13.512 -0.1923 -0.7562  1.0676
  800MPD2     H11841   1.365   4.447  13.498 -0.6600  0.6140 -1.2092
  800MPD2    H111842   0.978   4.378  13.328  2.2072 -1.1305 -1.6218
  800MPD2    H211843   1.014   4.547  13.701  1.9408  0.8410  0.9104
  800MPD2    H311844   0.882   4.488  13.495  0.4479 -0.3172 -1.8824
  800MPD2     N11845   1.246   4.346  13.288  0.4426  0.0537 -0.0164
  800MPD2    H511846   1.347   4.344  13.293  0.5541  0.7818 -2.1128
  800MPD2    N111847   1.272   4.523  13.736  0.3357  0.6170  0.2457
  800MPD2    H711848   1.230   4.593  13.798  0.8798  2.0302 -0.9847
  801MPD2     C11849   1.349   0.452  14.096 -0.2175  0.4359  0.2963
  801MPD2    C111850   1.380   0.350  14.185  0.3395  0.3057  0.0651
  801MPD2    C211851   1.370   0.371  14.322  0.2338  0.1652 -0.3327
  801MPD2    C311852   1.314   0.488  14.370  0.0762 -0.3927  0.2425
  801MPD2    C411853   1.291   0.592  14.283  0.7585  0.0481 -0.3628
  801MPD2    C511854   1.304   0.568  14.147  0.1092 -0.3304  0.0245
  801MPD2     H11855   1.391   0.286  14.386  2.1826  1.6381  1.0257
  801MPD2    H111856   1.253   0.685  14.323 -0.0583 -1.2444  1.8608
  801MPD2    H211857   1.365   0.447  13.989  1.0953  1.4135  0.4435
  801MPD2    H311858   1.292   0.655  14.083 -1.2506  0.4425  1.3129
  801MPD2     N11859   1.260   0.507  14.503  0.1047 -0.4539 -0.4778
  801MPD2    H511860   1.207   0.590  14.529  1.2865  0.0203  0.4012
  801MPD2    N111861   1.409   0.221  14.136  0.5092  0.4776 -0.4282
  801MPD2    H711862   1.440   0.155  14.207 -0.5509  0.7894  0.3380
  802MPD2     C11863   0.223   1.065  16.982 -0.0613  0.5210  0.4574
  802MPD2    C111864   0.308   1.118  17.078 -0.0736 -0.0477 -0.0232
  802MPD2    C211865   0.424   1.055  17.098  0.1276 -0.0784 -0.2688
  802MPD2    C311866   0.457   0.949  17.022 -0.2458 -0.2527 -0.6294
  802MPD2    C411867   0.377   0.891  16.927 -0.2466 -0.3396 -0.1177
  802MPD2    C511868   0.261   0.954  16.906 -0.2838  0.3258  0.5252
  802MPD2     H11869   0.508   1.087  17.159 -1.1055  0.4583  1.1475
  802MPD2    H111870   0.412   0.813  16.860  0.3680  0.7657 -1.0860
  802MPD2    H211871   0.138   1.119  16.942 -0.0316 -0.4372 -0.9178
  802MPD2    H311872   0.193   0.923  16.828 -1.1030 -0.5482  1.5874
  802MPD2     N11873   0.590   0.905  17.046  0.2479  0.7467  0.3402
  802MPD2    H511874   0.662   0.959  17.093  1.2100 -0.5781  0.3758
  802MPD2    N111875   0.273   1.229  17.159  0.0777 -0.8678  0.0005
  802MPD2    H711876   0.351   1.269  17.211 -0.6491 -1.8183  1.8501
  803MPD2     C11877   1.974   4.013  11.544 -0.3215  0.4414  1.2347
  803MPD2    C111878   2.055   4.113  11.593  0.1771  0.1585 -0.1231
  803MPD2    C211879   2.100   4.092  11.726 -0.3716  0.3708 -0.0959
  803MPD2    C311880   2.075   3.975  11.796 -0.0431  0.3601 -0.7983
  803MPD2    C411881   1.996   3.880  11.744 -0.4042  0.5952  0.8415
  803MPD2    C511882   1.953   3.902  11.619  0.1260  0.5266 -0.4193
  803MPD2     H11883   2.141   4.180  11.773 -0.1910  1.0987 -1.5983
  803MPD2    H111884   1.996   3.786  11.798 -1.1265 -0.6704 -1.3479
  803MPD2    H211885   1.936   4.029  11.444  2.2010  1.3247  0.4227
  803MPD2    H311886   1.893   3.830  11.565  0.1681 -0.6366  1.0888
  803MPD2     N11887   2.122   3.949  11.930  0.6223 -0.1126 -0.3201
  803MPD2    H511888   2.106   3.859  11.973  0.7155  0.7975  1.6066
  803MPD2    N111889   2.107   4.222  11.525 -0.2200  0.3249 -0.0110
  803MPD2    H711890   2.170   4.279  11.580  0.6092  0.0677 -0.7059
  804MPD2     C11891   1.292   0.810  16.606  0.2993 -0.3571  0.4783
  804MPD2    C111892   1.324   0.812  16.742 -0.3479 -0.3764 -0.3062
  804MPD2    C211893   1.386   0.919  16.797 -0.2065 -0.7472 -0.2877
  804MPD2    C311894   1.425   1.029  16.729 -0.1025 -0.0254  0.2449
  804MPD2    C411895   1.410   1.019  16.594 -0.4499 -0.1732 -0.2194
  804MPD2    C511896   1.340   0.916  16.539  0.5820 -0.1570 -0.3818
  804MPD2     H11897   1.412   0.908  16.901  1.3036 -0.4769 -0.6438
  804MPD2    H111898   1.448   1.097  16.528 -0.0763 -0.6864 -0.6062
  804MPD2    H211899   1.252   0.726  16.551  2.3081 -2.3297  2.0945
  804MPD2    H311900   1.332   0.918  16.431 -1.4416  0.2228 -0.2203
  804MPD2     N11901   1.498   1.146  16.778  0.0699 -0.1796 -0.0058
  804MPD2    H511902   1.519   1.217  16.708  0.8704  1.3593  1.7991
  804MPD2    N111903   1.299   0.700  16.831  0.5381 -0.3366  0.0996
  804MPD2    H711904   1.323   0.722  16.928  0.7287 -0.3614  0.0577
  805MPD2     C11905   0.428   3.623  15.225 -0.0706  0.1579 -0.1947
  805MPD2    C111906   0.449   3.742  15.159  0.0890  0.1308 -0.5349
  805MPD2    C211907   0.581   3.794  15.154  0.7993  0.0748  0.0198
  805MPD2    C311908   0.684   3.726  15.204  0.6612  0.1621 -0.2156
  805MPD2    C411909   0.668   3.600  15.257 -0.1366  0.4946  0.5144
  805MPD2    C511910   0.536   3.550  15.267 -0.0188  0.6993  0.2653
  805MPD2     H11911   0.599   3.894  15.116  0.2602  0.3141  0.3926
  805MPD2    H111912   0.739   3.531  15.302 -0.0085 -0.0511 -0.5429
  805MPD2    H211913   0.330   3.578  15.239  0.1545 -0.1392  0.4190
  805MPD2    H311914   0.514   3.453  15.310  0.0577  1.6731  2.4818
  805MPD2     N11915   0.809   3.797  15.214 -0.0477  0.7325 -0.0308
  805MPD2    H511916   0.829   3.877  15.155  1.3782 -1.1978 -2.1564
  805MPD2    N111917   0.352   3.822  15.099 -0.5237  0.7836  0.0761
  805MPD2    H711918   0.386   3.900  15.044  0.7192  0.8522  0.9615
  806MPD2     C11919   0.524   2.986   0.316  0.1606  0.1934 -0.2672
  806MPD2    C111920   0.661   2.972   0.310 -0.4796 -0.6571 -0.2374
  806MPD2    C211921   0.730   3.066   0.234 -0.0638  0.6185  0.5377
  806MPD2    C311922   0.670   3.176   0.171 -0.3920  0.2760 -0.0435
  806MPD2    C411923   0.535   3.182   0.173  0.0671 -0.0727  0.4588
  806MPD2    C511924   0.471   3.089   0.243 -0.2715  0.4636  0.2236
  806MPD2     H11925   0.838   3.066   0.239 -0.0802  0.0652  0.8732
  806MPD2    H111926   0.476   3.258   0.124 -1.1852 -0.4832  1.3456
  806MPD2    H211927   0.459   2.921   0.374 -0.5050  1.0517 -0.0446
  806MPD2    H311928   0.362   3.096   0.240 -0.1352  1.1935 -2.8613
  806MPD2     N11929   0.750   3.271   0.108  0.2315 -0.1179  0.3773
  806MPD2    H511930   0.849   3.266   0.089  0.7074  0.4412  2.6989
  806MPD2    N111931   0.734   2.873   0.386  0.2922  0.2407  0.6369
  806MPD2    H711932   0.683   2.832   0.462 -1.0095 -0.7492 -0.7838
  807MPD2     C11933   0.663   2.504   1.021  0.8965  1.2363 -0.4297
  807MPD2    C111934   0.750   2.422   0.951 -1.2772  1.2844 -0.3516
  807MPD2    C211935   0.777   2.293   0.991  0.2720 -0.1408 -0.2542
  807MPD2    C311936   0.727   2.249   1.112  0.2162 -0.6459  0.4075
  807MPD2    C411937   0.646   2.332   1.183  0.1913  0.6468 -0.0196
  807MPD2    C511938   0.619   2.455   1.140  0.3259 -0.0900 -0.3752
  807MPD2     H11939   0.847   2.231   0.935 -0.1388 -0.9139  0.0873
  807MPD2    H111940   0.620   2.300   1.284 -0.7323 -0.7095 -0.6885
  807MPD2    H211941   0.641   2.608   1.002 -1.9506  0.2682 -2.4100
  807MPD2    H311942   0.554   2.516   1.201  0.6843  0.6581 -0.7409
  807MPD2     N11943   0.769   2.128   1.174 -0.6677  0.3620 -0.0853
  807MPD2    H511944   0.747   2.121   1.272 -0.2339 -0.2680 -0.0315
  807MPD2    N111945   0.824   2.460   0.837  0.1860  0.2116  0.1989
  807MPD2    H711946   0.900   2.402   0.802 -0.9519 -0.2828 -1.4567
  808MPD2     C11947   0.773   1.103   9.411 -0.2305  0.1532  1.5924
  808MPD2    C111948   0.899   1.083   9.471 -0.2717  0.0288  0.7490
  808MPD2    C211949   0.979   1.196   9.498  0.7487  0.6210 -0.6834
  808MPD2    C311950   0.924   1.317   9.456  0.5856 -0.2076  0.2080
  808MPD2    C411951   0.797   1.328   9.408  0.1378  0.4976  0.2195
  808MPD2    C511952   0.723   1.223   9.379 -0.4770 -0.0243  0.3700
  808MPD2     H11953   1.079   1.178   9.536  0.9385 -0.6839 -1.8130
  808MPD2    H111954   0.759   1.429   9.396  0.9719  0.6859 -0.8527
  808MPD2    H211955   0.701   1.024   9.394  1.5780 -1.3364  0.8267
  808MPD2    H311956   0.623   1.232   9.337 -0.2471  2.1685  0.2487
  808MPD2     N11957   0.991   1.441   9.471  0.2544 -0.3146  0.0175
  808MPD2    H511958   0.950   1.522   9.426 -0.2220  0.3332  1.5822
  808MPD2    N111959   0.952   0.956   9.506 -0.5672 -0.6710  0.7408
  808MPD2    H711960   1.038   0.951   9.559  0.8109  1.3256 -1.3310
  809MPD2     C11961   1.417   1.722   8.728  0.0455 -0.4646  0.4758
  809MPD2    C111962   1.501   1.760   8.830 -0.2982  0.7216  0.4853
  809MPD2    C211963   1.448   1.761   8.963 -0.5806  0.7439 -0.3249
  809MPD2    C311964   1.320   1.715   8.999  0.7373 -0.3164  0.8831
  809MPD2    C411965   1.249   1.667   8.894  0.0685 -0.0616  0.1185
  809MPD2    C511966   1.292   1.678   8.761 -0.9282  0.4376  0.4053
  809MPD2     H11967   1.521   1.792   9.037 -0.2354 -1.3314  0.1939
  809MPD2    H111968   1.151   1.627   8.916 -0.2388  1.5825  1.7398
  809MPD2    H211969   1.438   1.752   8.626  0.2431  0.5064  0.8014
  809MPD2    H311970   1.215   1.674   8.684 -2.1204  2.4514  1.5121
  809MPD2     N11971   1.261   1.709   9.129  0.5449  0.2430  0.6994
  809MPD2    H511972   1.174   1.657   9.140  0.3897  0.3139 -0.2227
  809MPD2    N111973   1.634   1.805   8.809  0.6212 -0.8251  0.0328
  809MPD2    H711974   1.685   1.818   8.896 -0.0981  3.1463 -0.1454
  810MPD2     C11975   0.485   3.868  10.942 -0.1957 -0.4389 -0.1155
  810MPD2    C111976   0.589   3.860  10.848  0.0476 -0.3082  0.0855
  810MPD2    C211977   0.580   3.926  10.730 -0.3949 -0.3904 -0.5162
  810MPD2    C311978   0.464   4.004  10.703 -0.4969  0.2983  0.1083
  810MPD2    C411979   0.362   4.006  10.797  0.3935 -0.1332  0.4077
  810MPD2    C511980   0.370   3.937  10.917  0.0545  0.3847 -0.4106
  810MPD2     H11981   0.667   3.925  10.666  0.1219 -0.2251  0.1967
  810MPD2    H111982   0.272   4.064  10.779  1.6684  1.4610 -0.8093
  810MPD2    H211983   0.496   3.823  11.040 -0.1987 -1.2319 -0.4786
  810MPD2    H311984   0.289   3.948  10.988  0.7276  3.4980 -0.0839
  810MPD2     N11985   0.447   4.072  10.582 -0.3010  0.0724  0.6008
  810MPD2    H511986   0.351   4.086  10.553 -0.3511 -1.0126  0.2426
  810MPD2    N111987   0.713   3.810  10.887  0.0359 -0.0530 -0.6083
  810MPD2    H711988   0.787   3.807  10.818 -1.0803 -2.2062 -1.7267
  811MPD2     C11989   1.375   3.614  10.541 -0.1689 -0.2096 -0.4931
  811MPD2    C111990   1.293   3.704  10.597  0.1562 -0.3479 -0.2243
  811MPD2    C211991   1.264   3.823  10.529 -0.4381  0.0617 -0.0529
  811MPD2    C311992   1.322   3.847  10.400 -0.8854 -0.1704 -0.3508
  811MPD2    C411993   1.413   3.758  10.350 -1.0108 -0.4461 -0.7089
  811MPD2    C511994   1.439   3.640  10.423  0.4066 -0.2611 -0.0029
  811MPD2     H11995   1.190   3.892  10.568 -0.3868  0.3422 -0.4444
  811MPD2    H111996   1.463   3.778  10.256  1.3979 -0.7915  0.4774
  811MPD2    H211997   1.397   3.518  10.585  0.7372 -0.6252 -1.8478
  811MPD2    H311998   1.509   3.567  10.385  0.8987  0.3248 -0.2263
  811MPD2     N11999   1.277   3.957  10.329  0.0942  0.4155  0.9088
  811MPD2    H512000   1.230   4.026  10.384 -0.7014  1.4801 -1.1022
  811MPD2    N112001   1.246   3.679  10.731 -0.0841 -0.0428  0.0380
  811MPD2    H712002   1.244   3.581  10.758  0.7111 -0.5481 -1.7863
  812MPD2     C12003   0.147   4.247  11.898  0.7039 -0.4719 -0.3299
  812MPD2    C112004   0.119   4.314  12.021  0.0534 -0.0617 -0.0436
  812MPD2    C212005   0.146   4.241  12.138 -0.6151 -0.1260 -0.3427
  812MPD2    C312006   0.153   4.097  12.128  0.1763 -0.4921  0.0950
  812MPD2    C412007   0.161   4.031  12.011 -0.2158 -0.5986 -0.1368
  812MPD2    C512008   0.150   4.109  11.894  0.0400  0.5915  0.0353
  812MPD2     H12009   0.147   4.290  12.234  0.2410  0.4629 -0.6549
  812MPD2    H112010   0.185   3.929  11.985 -0.7539 -1.1967  1.7573
  812MPD2    H212011   0.130   4.290  11.800 -2.9169  3.0020  1.8454
  812MPD2    H312012   0.149   4.063  11.796 -0.3711 -0.1702  0.3883
  812MPD2     N12013   0.144   4.017  12.245  0.0018 -0.4376 -0.6995
  812MPD2    H512014   0.137   3.917  12.231  1.6296 -0.2506 -2.7295
  812MPD2    N112015   0.096   4.454  12.024  0.5261 -0.5448  0.2245
  812MPD2    H712016   0.115   4.497  11.934  0.1720  2.7061  1.7198
  813MPD2     C12017   4.092   0.982  12.676  0.4294 -0.2436 -0.1038
  813MPD2    C112018   4.029   1.100  12.698 -0.1971 -0.1060  0.2209
  813MPD2    C212019   3.930   1.105  12.795  0.3930  0.1916 -0.7357
  813MPD2    C312020   3.887   0.989  12.861  0.3828  0.0122  0.3572
  813MPD2    C412021   3.939   0.872  12.810 -0.4664  0.4839  0.1973
  813MPD2    C512022   4.038   0.867  12.723  0.7116  0.0865 -0.1932
  813MPD2     H12023   3.887   1.198  12.829  2.0297  0.6540  0.0322
  813MPD2    H112024   3.885   0.785  12.845 -2.4620  0.6652 -2.5208
  813MPD2    H212025   4.179   0.976  12.612  0.4313 -4.1151  0.2469
  813MPD2    H312026   4.064   0.767  12.690 -0.4451  0.0239 -0.9378
  813MPD2     N12027   3.792   1.004  12.962 -0.2964  0.1445  0.2896
  813MPD2    H512028   3.758   1.096  12.987  0.6182 -0.1511  2.6891
  813MPD2    N112029   4.070   1.229  12.653  0.3719  0.1677  0.2768
  813MPD2    H712030   4.009   1.303  12.686 -0.5991  0.6452 -2.6151
  814MPD2     C12031   4.053   2.050  12.592  0.5339  1.2469 -0.2171
  814MPD2    C112032   4.098   2.140  12.496  0.0756 -0.3889 -0.5992
  814MPD2    C212033   4.176   2.243  12.532 -0.3634 -0.6936 -0.4131
  814MPD2    C312034   4.213   2.262  12.657 -0.1792  0.2731  0.0505
  814MPD2    C412035   4.168   2.173  12.756 -0.1386 -0.0611  0.1391
  814MPD2    C512036   4.080   2.080  12.721 -0.1806 -0.4643 -0.3729
  814MPD2     H12037   4.220   2.303  12.453  0.3999  0.1483  0.6577
  814MPD2    H112038   4.191   2.188  12.861  1.4962  2.5121 -0.5835
  814MPD2    H212039   4.002   1.957  12.569 -1.4068  2.1855  0.3091
  814MPD2    H312040   4.050   1.998  12.785 -0.7196  1.5463  1.9385
  814MPD2     N12041   4.297   2.368  12.690 -0.1123 -0.6387  0.0669
  814MPD2    H512042   4.346   2.365  12.779 -1.1695 -0.2222  0.6718
  814MPD2    N112043   4.081   2.097  12.361 -0.1252  0.4077 -0.2357
  814MPD2    H712044   4.126   2.141  12.282  1.3904 -2.6136 -1.0634
  815MPD2     C12045   0.085   1.240  11.386  0.7538  0.3438 -0.2848
  815MPD2    C112046   0.040   1.128  11.444 -0.3008 -0.2591 -0.1421
  815MPD2    C212047   4.695   1.133  11.558  0.1032  0.7913  0.9410
  815MPD2    C312048   4.667   1.259  11.616 -0.3004  0.7152  0.0542
  815MPD2    C412049   4.720   1.375  11.560  0.4433  0.0761 -0.0109
  815MPD2    C512050   0.063   1.361  11.447  0.9241 -0.2757 -0.5408
  815MPD2     H12051   4.668   1.039  11.605 -0.1166 -0.2775 -1.3087
  815MPD2    H112052   4.696   1.471  11.603  1.0257 -0.0278  0.5429
  815MPD2    H212053   0.145   1.230  11.296  1.5459  0.2870  0.2569
  815MPD2    H312054   0.110   1.451  11.409  0.4387  1.0147  1.9168
  815MPD2     N12055   4.577   1.249  11.722 -0.2195  0.1154  0.0735
  815MPD2    H512056   4.536   1.161  11.751  1.6306  0.0513  2.4591
  815MPD2    N112057   0.079   1.009  11.368  0.7375  0.5545  0.0848
  815MPD2    H712058   0.126   1.010  11.278 -0.6901 -0.9107 -0.6965
  816MPD2     C12059   0.195   0.472  17.377  0.8406  0.0494  0.1506
  816MPD2    C112060   0.128   0.414  17.279  0.7225 -0.4501 -0.2777
  816MPD2    C212061   0.202   0.330  17.199  0.7457 -0.4854 -0.2224
  816MPD2    C312062   0.338   0.317  17.201 -0.3248  0.6036  0.3731
  816MPD2    C412063   0.405   0.376  17.308 -0.3671 -0.5433  0.4015
  816MPD2    C512064   0.326   0.449  17.393 -0.3268 -0.4800 -0.4298
  816MPD2     H12065   0.150   0.271  17.124 -1.8022 -0.0276  1.2071
  816MPD2    H112066   0.512   0.375  17.326 -0.7989 -0.5545  2.9143
  816MPD2    H212067   0.148   0.548  17.439 -2.4163 -2.0383  0.2759
  816MPD2    H312068   0.387   0.505  17.463 -0.9465 -0.6219  0.2229
  816MPD2     N12069   0.404   0.243  17.106  0.7900 -0.2861 -0.5360
  816MPD2    H512070   0.349   0.189  17.040 -0.6559 -0.1656  0.5713
  816MPD2    N112071   4.733   0.455  17.251 -0.0979  0.1151 -0.1146
  816MPD2    H712072   4.700   0.528  17.313 -0.1959  1.5086 -1.8428
  817MPD2     C12073   4.003   1.092   9.125 -0.6004  0.0694  0.4049
  817MPD2    C112074   3.902   0.995   9.119  0.1109 -0.2007 -0.0334
  817MPD2    C212075   3.789   1.008   9.046  0.2756  0.4578 -0.5188
  817MPD2    C312076   3.764   1.132   8.988  0.2364 -0.0768 -0.3970
  817MPD2    C412077   3.858   1.233   8.995  0.1578  0.2426  0.6884
  817MPD2    C512078   3.978   1.212   9.062  0.1276  0.2550 -0.1983
  817MPD2     H12079   3.726   0.921   9.030 -2.3242  2.5668 -1.9159
  817MPD2    H112080   3.852   1.329   8.945 -1.1077  0.8797  2.0842
  817MPD2    H212081   4.099   1.077   9.173 -1.9499  1.0883  3.4155
  817MPD2    H312082   4.058   1.285   9.058  1.3905 -1.2007 -1.0128
  817MPD2     N12083   3.645   1.150   8.920 -0.3447  0.0060  0.2423
  817MPD2    H512084   3.588   1.066   8.916 -0.7524  0.3561 -1.3211
  817MPD2    N112085   3.923   0.875   9.188 -0.2517  0.1341  0.3565
  817MPD2    H712086   3.854   0.801   9.179 -2.1834  1.8317  1.4491
  818MPD2     C12087   3.750   2.119   9.886  0.1998  0.2456 -1.0579
  818MPD2    C112088   3.640   2.050   9.922  0.4338  0.7527  0.9314
  818MPD2    C212089   3.620   1.923   9.868  0.0181 -0.1347  0.7548
  818MPD2    C312090   3.699   1.871   9.765 -0.3396  0.1243  0.8405
  818MPD2    C412091   3.809   1.941   9.730  0.3477 -0.1767  0.3408
  818MPD2    C512092   3.836   2.060   9.791  0.0910  0.5680 -0.1217
  818MPD2     H12093   3.536   1.865   9.907 -0.1238 -0.1377  0.4473
  818MPD2    H112094   3.873   1.909   9.648  0.7581  1.7565 -0.1129
  818MPD2    H212095   3.775   2.215   9.930  0.5267  1.1389 -3.1803
  818MPD2    H312096   3.918   2.122   9.756 -0.6607  0.5178 -1.9640
  818MPD2     N12097   3.661   1.756   9.692 -0.3422  0.0684 -0.0689
  818MPD2    H512098   3.732   1.703   9.643  0.7318  4.0112 -2.7792
  818MPD2    N112099   3.530   2.102  10.001 -0.3620 -0.1015 -0.1410
  818MPD2    H712100   3.453   2.039  10.023 -1.1662  0.5585 -1.0357
  819MPD2     C12101   1.281   3.646  15.176  0.1574  0.4827 -0.0772
  819MPD2    C112102   1.238   3.530  15.236 -0.6862  0.2587 -0.3561
  819MPD2    C212103   1.312   3.472  15.338 -0.0491  0.1063 -0.9253
  819MPD2    C312104   1.433   3.534  15.375  0.1791 -0.7865 -0.0313
  819MPD2    C412105   1.465   3.666  15.324 -0.4771 -0.6264  0.8055
  819MPD2    C512106   1.382   3.720  15.228 -1.0487 -0.5511  0.4527
  819MPD2     H12107   1.276   3.390  15.399  1.6473 -0.4150 -0.6266
  819MPD2    H112108   1.540   3.734  15.361  1.0769 -2.3226  0.7867
  819MPD2    H212109   1.215   3.695  15.104 -0.2889  1.3619  0.9229
  819MPD2    H312110   1.406   3.820  15.192  0.1855 -1.0954 -0.2427
  819MPD2     N12111   1.522   3.462  15.459  0.2380  0.3333 -0.4647
  819MPD2    H512112   1.499   3.364  15.478  0.1280  0.3522 -0.4992
  819MPD2    N112113   1.113   3.479  15.188 -0.0525 -0.1274 -0.0345
  819MPD2    H712114   1.057   3.531  15.121  0.0588  0.0560  0.0169
  820MPD2     C12115   0.333   3.498  14.566  0.0478 -0.0602 -0.1605
  820MPD2    C112116   0.388   3.591  14.648 -0.5145  0.1501 -0.4199
  820MPD2    C212117   0.496   3.562  14.727  0.2855  0.0364  0.0438
  820MPD2    C312118   0.548   3.427  14.715  0.6030  0.1865  0.0871
  820MPD2    C412119   0.491   3.330  14.631  0.0367  0.3010  0.0649
  820MPD2    C512120   0.380   3.370  14.556 -0.1539 -0.0394  0.2879
  820MPD2     H12121   0.538   3.642  14.788  0.2643 -1.5010  2.1035
  820MPD2    H112122   0.521   3.227  14.620 -0.4705 -0.1895  3.2984
  820MPD2    H212123   0.248   3.529  14.506 -0.9243 -2.6525 -0.1201
  820MPD2    H312124   0.348   3.293  14.487  1.6878 -1.0840  0.5980
  820MPD2     N12125   0.647   3.380  14.801 -0.3941 -0.7693 -0.0642
  820MPD2    H512126   0.674   3.282  14.803 -0.8061 -0.9050 -0.9373
  820MPD2    N112127   0.308   3.705  14.664  1.3168 -0.0428  0.3561
  820MPD2    H712128   0.215   3.697  14.624  0.9644 -0.9660  1.3504
  821MPD2     C12129   1.396   4.711  12.661  0.1542 -0.0242  0.1664
  821MPD2    C112130   1.481   4.636  12.746  0.7174 -1.0872  0.7812
  821MPD2    C212131   1.603   4.686  12.776 -0.3998  0.0389 -0.2749
  821MPD2    C312132   1.648   0.068  12.720 -0.1472 -0.0481 -0.4590
  821MPD2    C412133   1.571   0.131  12.628  0.1985 -0.7530  0.9070
  821MPD2    C512134   1.442   0.091  12.600 -0.5456  0.1380  0.5984
  821MPD2     H12135   1.662   4.628  12.846  0.0994  0.9002  0.0118
  821MPD2    H112136   1.611   0.223  12.587 -0.1737  0.1006  2.4688
  821MPD2    H212137   1.297   4.677  12.634  0.1937 -1.1478  1.4274
  821MPD2    H312138   1.380   0.138  12.524  0.7469  0.1554 -0.4341
  821MPD2     N12139   1.768   0.130  12.753 -0.3612  0.0415 -0.5187
  821MPD2    H512140   1.797   0.215  12.707  2.0636 -0.9598 -0.8507
  821MPD2    N112141   1.445   4.506  12.793  0.1928 -0.3438 -0.6324
  821MPD2    H712142   1.503   4.464  12.864  2.8453 -0.3022 -2.7585
  822MPD2     C12143   2.124   4.685  15.518  0.1770  0.3816 -0.5033
  822MPD2    C112144   2.112   4.648  15.651 -0.1155  0.1253 -0.0891
  822MPD2    C212145   2.032   4.725  15.735 -0.2460  0.3884  0.4515
  822MPD2    C312146   1.985   0.111  15.692 -0.1400 -0.3853 -0.1440
  822MPD2    C412147   2.005   0.146  15.559 -0.1782  0.4164  0.5963
  822MPD2    C512148   2.064   0.062  15.469 -0.3516  0.5623  0.2873
  822MPD2     H12149   2.031   4.710  15.842  3.8246 -0.6721  0.3366
  822MPD2    H112150   1.963   0.240  15.524 -1.7785 -0.0510  1.2856
  822MPD2    H212151   2.182   4.625  15.448  1.4295 -1.4800  2.1489
  822MPD2    H312152   2.077   0.110  15.373 -1.1681 -0.1149 -0.1606
  822MPD2     N12153   1.930   0.205  15.785  0.6784 -0.2091 -0.1937
  822MPD2    H512154   1.912   0.159  15.874  1.6673  1.5278  0.8995
  822MPD2    N112155   2.180   4.541  15.711 -0.2937  1.1468 -0.2942
  822MPD2    H712156   2.173   4.537  15.813  0.8363 -1.1975 -0.3064
  823MPD2     C12157   1.619   0.577  16.521  0.6832  0.1138  0.0547
  823MPD2    C112158   1.644   0.471  16.436 -0.5899 -0.6945 -0.3127
  823MPD2    C212159   1.661   0.343  16.481 -0.1732  0.1762 -0.0158
  823MPD2    C312160   1.657   0.321  16.618  0.0311 -0.1926  0.1455
  823MPD2    C412161   1.616   0.416  16.704 -0.2174  0.4034  0.0473
  823MPD2    C512162   1.592   0.540  16.656 -0.1229  0.3127  0.4969
  823MPD2     H12163   1.683   0.260  16.416  0.6149 -0.2453  0.7905
  823MPD2    H112164   1.597   0.397  16.809 -1.3126 -1.9840 -0.5964
  823MPD2    H212165   1.596   0.676  16.483  2.6561  1.4554  2.2945
  823MPD2    H312166   1.561   0.620  16.722  0.7166 -0.2645  1.5982
  823MPD2     N12167   1.684   0.195  16.672  1.1906 -0.0283 -0.4423
  823MPD2    H512168   1.698   0.197  16.773 -0.9888  0.3724 -0.1463
  823MPD2    N112169   1.667   0.503  16.301  0.2058  0.1397  0.0621
  823MPD2    H712170   1.657   0.598  16.267 -0.7420  0.2189  0.5504
  824MPD2     C12171   2.364   3.774  15.515  0.2421 -0.3637  0.2909
  824MPD2    C112172   2.461   3.842  15.577 -0.0844 -0.3949  0.5506
  824MPD2    C212173   2.585   3.785  15.577 -0.8168  0.2159  0.4664
  824MPD2    C312174   2.606   3.654  15.529  1.3038 -0.2901 -0.2290
  824MPD2    C412175   2.504   3.587  15.469 -0.2445 -0.3571  0.0805
  824MPD2    C512176   2.388   3.650  15.461 -0.2242 -0.2316 -0.1870
  824MPD2     H12177   2.681   3.823  15.611 -1.2480  0.8945  0.9241
  824MPD2    H112178   2.507   3.493  15.415 -0.5396  0.5049 -1.4351
  824MPD2    H212179   2.261   3.801  15.499  0.0693  0.1637  2.4070
  824MPD2    H312180   2.304   3.601  15.413  1.8257 -0.5700 -3.4274
  824MPD2     N12181   2.733   3.596  15.521  0.3048  0.2325 -0.5873
  824MPD2    H512182   2.808   3.662  15.537  0.6936 -0.2447 -0.4514
  824MPD2    N112183   2.430   3.974  15.623  0.2237 -0.6012  0.5715
  824MPD2    H712184   2.333   4.004  15.618 -0.3386 -2.6706 -1.0301
  825MPD2     C12185   3.397   3.499  15.016 -0.9278 -0.0023 -0.0349
  825MPD2    C112186   3.320   3.588  15.093 -0.0485  0.6094 -0.2441
  825MPD2    C212187   3.318   3.725  15.058 -0.1645 -0.2241 -0.0635
  825MPD2    C312188   3.400   3.768  14.952 -0.0057 -0.4510 -0.5596
  825MPD2    C412189   3.469   3.674  14.873  0.8758  0.1348 -0.5249
  825MPD2    C512190   3.465   3.544  14.906 -0.2262  0.0850 -0.1527
  825MPD2     H12191   3.261   3.786  15.127 -0.2588  0.1910 -0.5137
  825MPD2    H112192   3.526   3.721  14.793  0.0759 -0.7474 -1.5993
  825MPD2    H212193   3.396   3.398  15.056  1.0895 -0.4169 -1.0281
  825MPD2    H312194   3.511   3.467  14.845 -0.7989 -1.5316  1.4688
  825MPD2     N12195   3.420   3.906  14.929 -0.2047 -0.4817  0.5674
  825MPD2    H512196   3.465   3.935  14.843 -1.2031 -0.6206  0.0080
  825MPD2    N112197   3.236   3.529  15.194 -0.0881  0.6478 -0.1830
  825MPD2    H712198   3.236   3.429  15.209  1.7471  0.6157 -0.3830
  826MPD2     C12199   2.848   3.297  13.454 -0.3410 -0.1788 -0.3587
  826MPD2    C112200   2.813   3.345  13.328  0.1162  0.5742  0.0182
  826MPD2    C212201   2.788   3.479  13.313 -0.4282 -0.3633  0.7043
  826MPD2    C312202   2.800   3.559  13.423  0.2031 -0.1653  0.4187
  826MPD2    C412203   2.839   3.513  13.548 -0.3123 -0.0163 -0.8400
  826MPD2    C512204   2.858   3.377  13.565 -0.0644  0.4377 -0.3611
  826MPD2     H12205   2.750   3.516  13.219  1.3835 -0.0930  0.0733
  826MPD2    H112206   2.866   3.585  13.624 -2.2914  0.4180 -0.5539
  826MPD2    H212207   2.851   3.190  13.469 -0.1350 -0.7140 -4.3887
  826MPD2    H312208   2.869   3.327  13.661  0.8693 -1.3831 -1.4298
  826MPD2     N12209   2.755   3.692  13.412  0.0383  0.1186 -0.2561
  826MPD2    H512210   2.717   3.719  13.322 -0.3585  2.0127  0.4928
  826MPD2    N112211   2.806   3.249  13.221  0.0644 -0.0569 -0.5166
  826MPD2    H712212   2.833   3.154  13.244 -0.8925  0.0687  1.1010
  827MPD2     C12213   3.467   0.601  10.112 -0.8186  1.0044 -0.3010
  827MPD2    C112214   3.401   0.481  10.141  0.0762 -0.4962  0.3240
  827MPD2    C212215   3.275   0.458  10.099 -0.0270 -0.6531  0.5626
  827MPD2    C312216   3.219   0.535  10.006 -0.8814 -0.0353  0.4644
  827MPD2    C412217   3.282   0.652   9.966 -0.2099 -0.7635 -1.2892
  827MPD2    C512218   3.405   0.682  10.020 -0.0672 -0.0516  0.1507
  827MPD2     H12219   3.230   0.362  10.122 -1.9185  0.3138  0.9441
  827MPD2    H112220   3.237   0.718   9.892  0.4218 -1.6344 -2.4433
  827MPD2    H212221   3.560   0.624  10.163 -0.8947  0.0792  0.2567
  827MPD2    H312222   3.451   0.776   9.993 -0.8625 -0.0147 -1.0448
  827MPD2     N12223   3.096   0.493   9.954 -0.8960 -0.1962  0.2723
  827MPD2    H512224   3.071   0.399   9.986 -0.5306  0.3460  2.1882
  827MPD2    N112225   3.467   0.383  10.230  0.3236 -0.5121  0.1340
  827MPD2    H712226   3.554   0.409  10.276 -0.8782  0.4242  1.8850
  828MPD2     C12227   2.184   0.461  12.193 -0.8030 -0.6936  0.1503
  828MPD2    C112228   2.088   0.456  12.091 -0.0564 -0.3863 -0.2112
  828MPD2    C212229   2.140   0.457  11.964 -0.4423 -0.6738  0.1527
  828MPD2    C312230   2.277   0.431  11.935 -0.1139 -0.0054 -0.8850
  828MPD2    C412231   2.366   0.434  12.042 -0.3527 -0.0976  0.1578
  828MPD2    C512232   2.314   0.445  12.168  0.3407  0.3742  0.2703
  828MPD2     H12233   2.067   0.469  11.885 -1.0280  0.1801  0.8310
  828MPD2    H112234   2.473   0.428  12.029 -0.2533 -1.3449  1.5591
  828MPD2    H212235   2.161   0.486  12.296 -0.3528 -0.7731  0.2709
  828MPD2    H312236   2.379   0.449  12.254 -0.7511 -0.4376  1.1407
  828MPD2     N12237   2.332   0.397  11.813  0.3389  0.1413 -0.3623
  828MPD2    H512238   2.430   0.370  11.813  0.2475 -0.2373  2.1103
  828MPD2    N112239   1.956   0.486  12.112  0.7369 -0.5103  0.3009
  828MPD2    H712240   1.906   0.514  12.028 -0.1779  0.4955  1.1800
  829MPD2     C12241   1.355   0.363  11.565 -0.2843  0.2577  0.0067
  829MPD2    C112242   1.281   0.421  11.663  0.2411  0.0475  0.0602
  829MPD2    C212243   1.337   0.489  11.772  0.0816 -0.0246  0.3179
  829MPD2    C312244   1.479   0.492  11.785 -0.4196 -0.1009 -0.7856
  829MPD2    C412245   1.551   0.435  11.683 -0.3212  0.0670  0.4332
  829MPD2    C512246   1.493   0.375  11.574 -0.0500 -0.4507 -0.3935
  829MPD2     H12247   1.269   0.539  11.840 -2.1971 -3.9527  0.9172
  829MPD2    H112248   1.659   0.434  11.693 -0.2142  0.4175 -0.7318
  829MPD2    H212249   1.304   0.303  11.490  1.0729 -1.0737  0.1360
  829MPD2    H312250   1.559   0.329  11.502  1.2986  1.4928 -0.3927
  829MPD2     N12251   1.541   0.545  11.896 -0.0859  0.0501  0.2100
  829MPD2    H512252   1.642   0.550  11.900 -0.1090  1.1172 -0.6648
  829MPD2    N112253   1.144   0.392  11.649 -0.5136  0.7272 -0.2309
  829MPD2    H712254   1.116   0.345  11.563 -1.7801 -1.3422  1.3264
  830MPD2     C12255   2.217   3.111  15.710  0.0858 -0.1449 -0.6809
  830MPD2    C112256   2.137   3.130  15.604  0.1762 -0.3352 -0.5766
  830MPD2    C212257   2.191   3.157  15.480 -0.2997  0.4703 -0.4197
  830MPD2    C312258   2.328   3.174  15.468  0.0376 -0.8867 -0.0652
  830MPD2    C412259   2.405   3.168  15.577 -0.0455 -0.1424  0.3419
  830MPD2    C512260   2.351   3.138  15.700  0.1135 -0.9958 -0.1665
  830MPD2     H12261   2.123   3.169  15.396  0.0325  1.9260 -0.4763
  830MPD2    H112262   2.511   3.186  15.569 -0.1383 -0.1315 -0.8765
  830MPD2    H212263   2.173   3.090  15.807 -0.3647 -0.2340 -0.9038
  830MPD2    H312264   2.413   3.127  15.788  0.4330 -0.4691 -0.3303
  830MPD2     N12265   2.400   3.214  15.357  0.6216  0.3506 -0.9170
  830MPD2    H512266   2.488   3.261  15.375  0.0555  1.3701 -0.8059
  830MPD2    N112267   1.996   3.112  15.632  0.1935  0.0321 -0.6024
  830MPD2    H712268   1.983   3.066  15.721  0.7353  1.0167 -0.0155
  831MPD2     C12269   2.176   0.303  16.195  0.0412  0.3476  0.3753
  831MPD2    C112270   2.165   0.193  16.111  0.5635  0.2869 -1.0367
  831MPD2    C212271   2.058   0.109  16.117 -0.9483  0.6611  0.0348
  831MPD2    C312272   1.954   0.138  16.202  0.4266  0.5648 -0.8596
  831MPD2    C412273   1.974   0.229  16.303 -0.2913  0.1695 -0.2409
  831MPD2    C512274   2.081   0.315  16.301  0.5646 -0.0585  0.3554
  831MPD2     H12275   2.044   0.022  16.054  0.0931 -0.7512  1.7412
  831MPD2    H112276   1.897   0.250  16.377 -0.1359 -0.0562 -0.0129
  831MPD2    H212277   2.251   0.380  16.182  0.5627 -0.0005  1.3175
  831MPD2    H312278   2.091   0.386  16.383  3.2830  0.2778 -0.2648
  831MPD2     N12279   1.839   0.059  16.194  0.2519 -0.1698 -0.5670
  831MPD2    H512280   1.777   0.061  16.274  3.2251  1.4011  1.7259
  831MPD2    N112281   2.254   0.180  16.006  0.2048 -0.4318  0.5571
  831MPD2    H712282   2.326   0.251  16.002  0.0707 -0.2798  0.8862
  832MPD2     C12283   0.765   1.243  16.788  0.8075 -0.0789 -0.3379
  832MPD2    C112284   0.720   1.375  16.784  0.6611  1.1458  0.1657
  832MPD2    C212285   0.594   1.406  16.740  0.5246 -0.2202 -0.7399
  832MPD2    C312286   0.503   1.303  16.704  0.2934 -0.1544  0.1030
  832MPD2    C412287   0.550   1.167  16.708  0.1907 -0.1398  0.0856
  832MPD2    C512288   0.675   1.139  16.756  0.8846  0.1177  0.0184
  832MPD2     H12289   0.557   1.508  16.739 -0.9239 -0.7472 -0.8487
  832MPD2    H112290   0.487   1.082  16.684  2.8131 -2.2725  0.7529
  832MPD2    H212291   0.857   1.216  16.838  1.2612  0.3032 -0.9694
  832MPD2    H312292   0.706   1.036  16.749  1.7172  0.3269  0.6948
  832MPD2     N12293   0.368   1.320  16.654  0.1293 -0.5444  0.0501
  832MPD2    H512294   0.321   1.235  16.627 -3.2851  1.6200 -0.7869
  832MPD2    N112295   0.810   1.470  16.843  0.2809  0.2712  0.4329
  832MPD2    H712296   0.894   1.434  16.888  0.0045 -0.0650  0.6771
  833MPD2     C12297   2.189   2.423  12.362 -0.3519  0.0024  0.0541
  833MPD2    C112298   2.304   2.500  12.383 -0.4258 -0.1644  0.1212
  833MPD2    C212299   2.431   2.441  12.355  0.4092  0.8196  0.0593
  833MPD2    C312300   2.441   2.306  12.330  0.4604  0.4797 -0.3780
  833MPD2    C412301   2.323   2.236  12.325  0.3029 -0.0327  0.0893
  833MPD2    C512302   2.197   2.285  12.338  0.5302  0.4708  0.1468
  833MPD2     H12303   2.522   2.499  12.353  1.4151 -0.8728 -1.9737
  833MPD2    H112304   2.316   2.128  12.313  1.9206  0.0907 -2.0072
  833MPD2    H212305   2.093   2.471  12.378  0.8240  2.4411 -0.1603
  833MPD2    H312306   2.110   2.223  12.323  0.4039  0.1722  2.1277
  833MPD2     N12307   2.567   2.236  12.302  0.4869  0.4502 -0.7748
  833MPD2    H512308   2.566   2.135  12.294 -2.5126  0.4917 -0.9633
  833MPD2    N112309   2.286   2.637  12.423  0.1794 -0.4265 -0.2459
  833MPD2    H712310   2.191   2.666  12.441  0.5181 -0.1092  0.9734
  834MPD2     C12311   2.520   1.957  11.500  0.0209  0.3920  0.5744
  834MPD2    C112312   2.652   1.999  11.472 -0.1416  0.6013 -0.1330
  834MPD2    C212313   2.719   2.068  11.572  0.2530 -0.3862  0.4221
  834MPD2    C312314   2.671   2.071  11.701  0.1381  0.0608  0.3201
  834MPD2    C412315   2.549   2.012  11.721  0.0334  0.4913 -0.3574
  834MPD2    C512316   2.465   1.962  11.625  0.2838  0.7992  0.4624
  834MPD2     H12317   2.819   2.107  11.557  1.3470 -3.0021  0.7894
  834MPD2    H112318   2.519   1.993  11.824  1.7839 -1.7943 -0.2818
  834MPD2    H212319   2.460   1.905  11.426  2.7009 -0.9245 -0.6993
  834MPD2    H312320   2.372   1.913  11.651 -0.1610  0.1123 -2.4430
  834MPD2     N12321   2.750   2.131  11.805 -0.0774  0.5331  0.3305
  834MPD2    H512322   2.845   2.156  11.781 -0.0594  0.2581  0.1127
  834MPD2    N112323   2.698   1.982  11.337 -0.0102  0.4455  0.0254
  834MPD2    H712324   2.654   1.907  11.283  0.0464 -1.5180  2.7095
  835MPD2     C12325   2.894   0.018  10.838  0.7451 -0.6623  0.1183
  835MPD2    C112326   2.866   0.153  10.840 -0.2815  0.1678  0.8397
  835MPD2    C212327   2.915   0.226  10.949 -0.7372  0.3564 -0.2110
  835MPD2    C312328   2.990   0.173  11.047  0.0351 -0.5356  0.3907
  835MPD2    C412329   3.014   0.043  11.043  0.2482  0.0155 -0.1631
  835MPD2    C512330   2.973   4.700  10.935 -0.4907 -0.0636 -0.2632
  835MPD2     H12331   2.898   0.333  10.947 -0.1314  0.4352 -0.9456
  835MPD2    H112332   3.070   4.732  11.122  0.9706 -0.6325 -1.0576
  835MPD2    H212333   2.853   4.686  10.765  1.6388  0.9386 -1.8808
  835MPD2    H312334   2.983   4.593  10.941  1.0548  0.0130 -1.4819
  835MPD2     N12335   3.031   0.245  11.162  0.2489  0.0760  0.3844
  835MPD2    H512336   3.076   0.181  11.227  0.7714  0.6675  0.6046
  835MPD2    N112337   2.794   0.233  10.743 -0.3019 -0.6522  0.2350
  835MPD2    H712338   2.771   0.327  10.774  0.1071  0.0692 -1.6297
  836MPD2     C12339   2.529   0.593  11.378  0.1047 -0.5389  0.5097
  836MPD2    C112340   2.616   0.626  11.481  0.5305  0.3051  0.1743
  836MPD2    C212341   2.562   0.686  11.593 -0.4623 -0.1231 -0.9176
  836MPD2    C312342   2.419   0.695  11.615  0.5341  0.0336  0.4046
  836MPD2    C412343   2.343   0.678  11.506  0.9975  0.4041  0.3108
  836MPD2    C512344   2.397   0.626  11.387  0.1818  0.1244  0.8528
  836MPD2     H12345   2.631   0.719  11.670 -1.0035 -2.3442  0.5182
  836MPD2    H112346   2.242   0.717  11.500  0.2814 -1.3993  0.3836
  836MPD2    H212347   2.560   0.548  11.284 -0.1652  0.7652 -0.1957
  836MPD2    H312348   2.335   0.608  11.301  0.2142  1.2184  0.5960
  836MPD2     N12349   2.350   0.747  11.723 -0.1907 -0.4249 -0.6512
  836MPD2    H512350   2.249   0.753  11.718 -0.2227  0.5665  1.0605
  836MPD2    N112351   2.751   0.590  11.463 -0.7746  0.1918  0.0189
  836MPD2    H712352   2.776   0.541  11.377 -2.0879 -1.3071  0.5055
  837MPD2     C12353   0.980   4.626  10.470 -0.4384 -0.0356 -0.1718
  837MPD2    C112354   1.010   4.616  10.332  0.1315 -0.6599  0.0964
  837MPD2    C212355   0.951   4.706  10.248  0.8856  0.2884  0.4388
  837MPD2    C312356   0.876   0.070  10.293 -0.0736  0.3831 -1.4069
  837MPD2    C412357   0.839   0.081  10.429  0.0242 -0.9637  0.6499
  837MPD2    C512358   0.889   4.723  10.514 -0.0691  0.9319 -0.6214
  837MPD2     H12359   0.963   4.684  10.142  0.3138  2.3138 -0.0473
  837MPD2    H112360   0.786   0.170  10.463 -0.1266 -0.2284 -1.5070
  837MPD2    H212361   1.013   4.562  10.552 -0.9947  0.2079  0.2458
  837MPD2    H312362   0.867   4.737  10.619  0.5008 -1.1076 -0.2434
  837MPD2     N12363   0.813   0.140  10.189  1.1969 -0.3789  0.0169
  837MPD2    H512364   0.839   0.114  10.095 -2.0722 -2.1254 -0.4146
  837MPD2    N112365   1.081   4.521  10.266  0.5283  0.5454 -0.6308
  837MPD2    H712366   1.094   4.539  10.167  2.1484  0.8339 -0.3698
  838MPD2     C12367   4.185   3.576  11.286 -0.3566  0.2346  0.0183
  838MPD2    C112368   4.311   3.550  11.319  0.4764  0.1225 -0.4656
  838MPD2    C212369   4.344   3.490  11.444  0.4692 -0.4009 -0.0119
  838MPD2    C312370   4.244   3.438  11.523 -0.8414  1.0615 -0.1042
  838MPD2    C412371   4.109   3.461  11.485 -0.4257  0.4376  0.5230
  838MPD2    C512372   4.083   3.533  11.368 -0.2499  0.0021  0.4433
  838MPD2     H12373   4.451   3.473  11.456  0.6319  1.0658  0.5990
  838MPD2    H112374   4.023   3.428  11.541 -0.2295 -0.0730  0.5201
  838MPD2    H212375   4.145   3.631  11.202  2.0859  0.3292 -1.0797
  838MPD2    H312376   3.983   3.547  11.330 -0.9658  1.0940  2.7688
  838MPD2     N12377   4.273   3.376  11.648  0.6458  0.5244  0.4541
  838MPD2    H512378   4.367   3.382  11.685  0.5220  0.0396  0.8556
  838MPD2    N112379   4.421   3.564  11.234 -0.0018 -0.4055 -0.9043
  838MPD2    H712380   4.510   3.540  11.276 -0.7022 -2.3703 -0.5442
  839MPD2     C12381   4.408   3.049  11.581  0.5575  0.7865  0.3112
  839MPD2    C112382   4.373   3.014  11.452  0.3101  0.6099  0.9081
  839MPD2    C212383   4.439   3.074  11.344  0.3201 -0.1610 -0.5678
  839MPD2    C312384   4.549   3.161  11.361  0.0850  0.3037 -0.6630
  839MPD2    C412385   4.580   3.194  11.488 -0.2172 -0.3111 -0.7338
  839MPD2    C512386   4.511   3.140  11.601 -0.3254 -0.1843 -0.0818
  839MPD2     H12387   4.404   3.049  11.245  1.8963  1.8876 -1.6455
  839MPD2    H112388   4.661   3.263  11.505 -1.6436  1.3512 -0.7753
  839MPD2    H212389   4.369   2.990  11.664  1.5583  0.0100  0.2231
  839MPD2    H312390   4.533   3.170  11.703 -0.6096  0.5568 -0.2414
  839MPD2     N12391   4.612   3.236  11.260 -0.1597  0.0280 -0.0533
  839MPD2    H512392   4.685   3.302  11.284  0.1087 -0.1090 -0.4897
  839MPD2    N112393   4.266   2.923  11.421  0.5205 -0.6194 -0.3171
  839MPD2    H712394   4.251   2.910  11.322 -1.8839 -1.8623  0.2084
  840MPD2     C12395   4.096   0.292  10.237 -0.0180 -0.4082 -0.2308
  840MPD2    C112396   4.029   0.321  10.355  0.4851  0.4695 -0.7624
  840MPD2    C212397   4.089   0.412  10.442  0.4146  1.2836 -0.2063
  840MPD2    C312398   4.209   0.477  10.413 -0.1612 -0.6647 -0.8114
  840MPD2    C412399   4.262   0.454  10.293 -0.2664  0.1097  0.2791
  840MPD2    C512400   4.207   0.363  10.203  0.6241 -0.1230 -0.5956
  840MPD2     H12401   4.032   0.436  10.530 -2.3765  0.8368 -1.9053
  840MPD2    H112402   4.356   0.503  10.269 -1.0246  1.0194 -0.8174
  840MPD2    H212403   4.060   0.234  10.154 -0.1184  1.6418 -1.6167
  840MPD2    H312404   4.250   0.355  10.104 -0.6326 -2.3292 -0.9612
  840MPD2     N12405   4.274   0.570  10.498  0.4816  0.7436  0.1606
  840MPD2    H512406   4.354   0.614  10.454 -0.1836  0.5208 -1.2849
  840MPD2    N112407   3.904   0.263  10.377 -0.1434  0.2249 -0.6907
  840MPD2    H712408   3.867   0.199  10.307 -1.4235  0.3027 -0.0809
  841MPD2     C12409   3.518   0.707  14.617 -0.0809  0.9659 -0.3960
  841MPD2    C112410   3.546   0.581  14.665  0.0473 -0.6959  0.7402
  841MPD2    C212411   3.663   0.550  14.730  0.7784 -0.1405  0.8117
  841MPD2    C312412   3.759   0.650  14.748  0.1847  0.5989 -0.3103
  841MPD2    C412413   3.735   0.775  14.701 -0.4555  0.1411 -0.3534
  841MPD2    C512414   3.625   0.797  14.627  0.2077 -0.0162 -0.4717
  841MPD2     H12415   3.677   0.458  14.784 -0.2397 -0.9757 -0.3557
  841MPD2    H112416   3.811   0.853  14.705 -1.3060  0.8112  2.6193
  841MPD2    H212417   3.431   0.758  14.578 -1.7928 -1.0814  0.7300
  841MPD2    H312418   3.616   0.902  14.601  2.3613  0.2198 -0.2603
  841MPD2     N12419   3.879   0.622  14.822  0.0123  0.5535  0.2613
  841MPD2    H512420   3.886   0.527  14.857 -0.5333  0.9105  1.3422
  841MPD2    N112421   3.443   0.482  14.679 -0.2836 -0.4245  0.3699
  841MPD2    H712422   3.470   0.400  14.731  0.4267 -2.0496 -2.5402
  842MPD2     C12423   4.380   1.583  16.603  0.1173 -0.4154 -0.1366
  842MPD2    C112424   4.254   1.537  16.575 -0.3296 -0.4751  1.0610
  842MPD2    C212425   4.217   1.408  16.615 -0.6432  0.6889  0.5283
  842MPD2    C312426   4.291   1.336  16.707 -0.2959  0.1723  0.6050
  842MPD2    C412427   4.413   1.394  16.751  0.4743  0.0823 -0.0740
  842MPD2    C512428   4.451   1.517  16.697  0.3790 -0.6002 -0.0408
  842MPD2     H12429   4.123   1.364  16.584 -0.7034 -0.7694  2.7676
  842MPD2    H112430   4.473   1.346  16.828 -0.3363 -0.4440  0.2384
  842MPD2    H212431   4.410   1.679  16.562  1.0331  0.0899  1.7382
  842MPD2    H312432   4.539   1.572  16.729  0.5056  0.2353 -1.8712
  842MPD2     N12433   4.254   1.222  16.783 -0.2526  0.3575 -0.3622
  842MPD2    H512434   4.318   1.196  16.857  0.2459 -1.2310 -1.3352
  842MPD2    N112435   4.175   1.616  16.487  0.4367  0.1613 -0.0991
  842MPD2    H712436   4.217   1.707  16.474 -0.1941  0.1844 -2.0156
  843MPD2     C12437   1.503   2.594  17.549 -0.2089  0.1767  0.3918
  843MPD2    C112438   1.531   2.636  17.420  0.2493  0.1844 -0.8620
  843MPD2    C212439   1.636   2.721  17.395 -0.3818 -0.5491 -0.3174
  843MPD2    C312440   1.724   2.735  17.498  0.6014 -0.1738 -0.3426
  843MPD2    C412441   1.704   2.688  17.622  0.0783  0.3122 -0.0561
  843MPD2    C512442   1.586   2.626  17.653 -0.2128 -0.3568 -0.2334
  843MPD2     H12443   1.664   2.756  17.297  1.0533  1.1845  0.7063
  843MPD2    H112444   1.764   2.730  17.702  0.8689  1.3257 -1.1853
  843MPD2    H212445   1.409   2.540  17.557  1.3848 -2.4960  1.2531
  843MPD2    H312446   1.567   2.587   0.006  0.5842 -1.5606 -0.5503
  843MPD2     N12447   1.849   2.790  17.479 -0.4637  0.0479 -0.0405
  843MPD2    H512448   1.912   2.792  17.559  0.2059 -2.3319 -0.4972
  843MPD2    N112449   1.454   2.579  17.321 -0.7530 -0.1312 -0.0108
  843MPD2    H712450   1.363   2.537  17.338 -2.2082  2.1192 -2.2144
  844MPD2     C12451   0.075   1.025  16.196 -0.3121  0.7610  0.4631
  844MPD2    C112452   0.205   0.969  16.214 -0.4490 -0.5727 -0.6668
  844MPD2    C212453   0.318   1.042  16.241  0.5486  0.0559 -0.3900
  844MPD2    C312454   0.302   1.180  16.254  0.6253 -0.2584  0.2655
  844MPD2    C412455   0.176   1.236  16.233 -0.1614  0.6052 -0.1900
  844MPD2    C512456   0.064   1.161  16.215 -0.2585 -0.7243 -0.8182
  844MPD2     H12457   0.414   0.995  16.255  1.3610  1.2108 -2.0382
  844MPD2    H112458   0.174   1.344  16.231 -2.1932  0.5825  0.5013
  844MPD2    H212459   4.720   0.977  16.164  0.6983  0.8333 -2.5466
  844MPD2    H312460   4.708   1.212  16.192  1.9969  4.0037  0.5789
  844MPD2     N12461   0.418   1.264  16.281 -0.0432  0.5362  0.1412
  844MPD2    H512462   0.506   1.214  16.285  0.2068  1.0170  0.5528
  844MPD2    N112463   0.231   0.840  16.172 -0.1032 -0.2234  1.1747
  844MPD2    H712464   0.326   0.807  16.183  0.6059  1.5354  0.4330
  845MPD2     C12465   0.611   2.242  16.440  0.0487  0.3086  0.9945
  845MPD2    C112466   0.648   2.168  16.554  0.0503  0.0974  0.4103
  845MPD2    C212467   0.663   2.032  16.530  0.1780  0.9726  0.4071
  845MPD2    C312468   0.611   1.966  16.421  0.7836  0.2332  0.2272
  845MPD2    C412469   0.569   2.043  16.316  0.2966  0.0817  0.5738
  845MPD2    C512470   0.573   2.178  16.323 -0.9060  0.5080  0.0955
  845MPD2     H12471   0.686   1.974  16.619  1.0784  0.3960 -0.1973
  845MPD2    H112472   0.539   1.999  16.221  1.2863 -0.9225  0.7263
  845MPD2    H212473   0.613   2.351  16.434  2.2134  0.0727 -2.5206
  845MPD2    H312474   0.551   2.231  16.231  1.3023  0.2042 -0.5958
  845MPD2     N12475   0.616   1.830  16.408  0.5152 -0.3659 -0.4153
  845MPD2    H512476   0.570   1.782  16.332 -0.4839  0.4080 -0.2870
  845MPD2    N112477   0.671   2.235  16.677  0.2554  0.5856  0.3574
  845MPD2    H712478   0.663   2.336  16.672 -3.4331  0.2054 -1.4505
  846MPD2     C12479   1.479   2.906  13.446  0.5144  0.3031 -0.1820
  846MPD2    C112480   1.531   2.787  13.490 -0.7278 -0.0299  0.6173
  846MPD2    C212481   1.531   2.758  13.625  0.2955  0.6113 -0.6995
  846MPD2    C312482   1.458   2.837  13.708 -0.2722 -0.5803  0.5271
  846MPD2    C412483   1.402   2.957  13.667 -0.3428  0.6116  0.1051
  846MPD2    C512484   1.408   2.986  13.533 -0.0192  0.2885 -0.0064
  846MPD2     H12485   1.568   2.664  13.666  2.0404  1.1010 -1.1547
  846MPD2    H112486   1.352   3.028  13.731 -2.2507 -1.1242  0.5311
  846MPD2    H212487   1.476   2.943  13.345  0.9888 -1.9460 -1.0191
  846MPD2    H312488   1.357   3.075  13.501  0.5004  0.9697  1.0573
  846MPD2     N12489   1.435   2.796  13.840 -0.2044  0.1946  0.9438
  846MPD2    H512490   1.468   2.702  13.858 -0.4399 -0.1492 -0.4461
  846MPD2    N112491   1.601   2.697  13.409 -0.2099 -0.0980 -0.2537
  846MPD2    H712492   1.647   2.625  13.463  1.6564  0.8118 -0.6540
  847MPD2     C12493   2.416   3.152  14.040  0.3859 -0.5323  0.6018
  847MPD2    C112494   2.424   3.291  14.084 -0.2226 -0.4476 -0.5436
  847MPD2    C212495   2.531   3.318  14.168  0.2681  0.0389  0.1191
  847MPD2    C312496   2.629   3.228  14.209 -0.7737 -0.2502 -0.0685
  847MPD2    C412497   2.617   3.095  14.163  0.0806 -0.3893 -0.3913
  847MPD2    C512498   2.511   3.058  14.088  0.1388 -0.8964  0.0359
  847MPD2     H12499   2.543   3.419  14.205 -0.4009  0.3387 -0.4816
  847MPD2    H112500   2.694   3.021  14.179  1.1625  0.5870 -1.1470
  847MPD2    H212501   2.336   3.112  13.979 -1.2142 -0.6113  2.7509
  847MPD2    H312502   2.505   2.956  14.051 -1.9811 -0.6090 -0.4328
  847MPD2     N12503   2.728   3.269  14.307 -0.7721 -0.0909 -0.5229
  847MPD2    H512504   2.782   3.193  14.347  1.9582  0.8931 -2.3026
  847MPD2    N112505   2.330   3.393  14.068 -0.2928  0.0562 -0.0840
  847MPD2    H712506   2.361   3.483  14.103 -1.4199  0.4869 -0.1907
  848MPD2     C12507   4.638   1.656  16.062 -0.1176 -1.8003 -0.2078
  848MPD2    C112508   4.716   1.706  16.167  0.3032 -0.4825 -0.5264
  848MPD2    C212509   0.044   1.828  16.154 -0.3111  0.4350  0.3493
  848MPD2    C312510   0.026   1.911  16.039 -0.6056 -0.3924  0.5433
  848MPD2    C412511   4.672   1.868  15.947  0.1513 -0.0309  0.1686
  848MPD2    C512512   4.616   1.746  15.957  0.6643 -0.4274  0.2586
  848MPD2     H12513   0.100   1.869  16.238  0.0660  0.0935  0.2647
  848MPD2    H112514   4.657   1.931  15.859  0.2796  1.1505  0.9888
  848MPD2    H212515   4.591   1.559  16.051 -0.6823 -1.8099  2.1842
  848MPD2    H312516   4.565   1.703  15.872  0.2777  1.0639 -0.2462
  848MPD2     N12517   0.069   2.046  16.024 -0.4884  0.3919 -1.1764
  848MPD2    H512518   0.028   2.094  15.945 -0.6899  1.4313 -0.4318
  848MPD2    N112519   4.729   1.645  16.291 -0.1530 -0.2720  0.4501
  848MPD2    H712520   0.047   1.685  16.367 -1.3548  0.0167  1.1568
  849MPD2     C12521   3.592   0.913  14.017  0.4051 -0.0672 -0.3977
  849MPD2    C112522   3.662   1.030  14.046  0.0714 -0.3564 -0.0247
  849MPD2    C212523   3.741   1.039  14.159  0.0163 -0.1261  0.4845
  849MPD2    C312524   3.744   0.931  14.250 -0.2222 -0.0447 -0.0043
  849MPD2    C412525   3.664   0.821  14.215 -0.0592 -0.1454  0.4789
  849MPD2    C512526   3.591   0.808  14.105 -0.0024  0.8950  0.3503
  849MPD2     H12527   3.806   1.123  14.180 -0.0286 -0.3624  1.5890
  849MPD2    H112528   3.672   0.735  14.280 -3.7366 -0.6404  0.2388
  849MPD2    H212529   3.537   0.895  13.925  0.2546 -2.0923  0.0820
  849MPD2    H312530   3.537   0.715  14.097  2.2170 -0.5194  2.0501
  849MPD2     N12531   3.844   0.908  14.350  0.1606  0.3971  0.9550
  849MPD2    H512532   3.842   0.820  14.401  0.1302 -1.8480 -2.8560
  849MPD2    N112533   3.675   1.135  13.953 -0.0436 -0.1378  0.6849
  849MPD2    H712534   3.748   1.203  13.974  0.2329  0.4882 -2.2729
  850MPD2     C12535   2.034   4.215  14.427  0.0182 -0.3779 -0.0197
  850MPD2    C112536   2.021   4.276  14.550  0.0901 -0.5220  0.3075
  850MPD2    C212537   2.140   4.317  14.618  0.4218  0.2290 -0.4312
  850MPD2    C312538   2.267   4.290  14.566 -0.1768 -0.7339  0.4012
  850MPD2    C412539   2.277   4.244  14.437 -0.2321 -0.8442 -0.1747
  850MPD2    C512540   2.160   4.200  14.375  0.1523  0.4781  0.0016
  850MPD2     H12541   2.130   4.362  14.716 -0.7159 -0.2994 -0.3036
  850MPD2    H112542   2.372   4.213  14.397 -0.4642  1.6366 -2.5947
  850MPD2    H212543   1.947   4.171  14.380 -0.1341 -0.2501  0.1431
  850MPD2    H312544   2.167   4.152  14.278 -2.3229 -2.2397  1.1477
  850MPD2     N12545   2.387   4.303  14.644 -0.2575  0.4652  0.0591
  850MPD2    H512546   2.467   4.265  14.595 -1.3821 -0.6695 -0.9309
  850MPD2    N112547   1.892   4.277  14.606 -0.2049 -0.0140  0.7530
  850MPD2    H712548   1.826   4.270  14.530  0.0833 -0.3996  0.5397
  851MPD2     C12549   2.452   4.070  15.186  0.0914  0.4744  0.4992
  851MPD2    C112550   2.365   4.005  15.097 -0.0532 -0.5576  0.7554
  851MPD2    C212551   2.389   3.870  15.062 -0.1079  0.1651  0.4035
  851MPD2    C312552   2.490   3.802  15.124  1.0660  0.1431 -0.4959
  851MPD2    C412553   2.567   3.863  15.224  0.6478 -0.5620 -0.5779
  851MPD2    C512554   2.546   4.001  15.250 -0.7039  0.3901  0.5154
  851MPD2     H12555   2.327   3.818  14.990  2.0894 -1.6164 -0.1935
  851MPD2    H112556   2.643   3.817  15.287 -1.2730 -2.4124  0.3692
  851MPD2    H212557   2.434   4.168  15.228 -1.1428  0.7925 -0.7488
  851MPD2    H312558   2.603   4.049  15.329 -1.7255 -0.8571  2.0086
  851MPD2     N12559   2.506   3.669  15.081 -0.4115  0.2923  0.0139
  851MPD2    H512560   2.450   3.632  15.005 -0.9825 -3.1646  2.1079
  851MPD2    N112561   2.249   4.079  15.053 -0.1517  0.8136 -0.1430
  851MPD2    H712562   2.240   4.174  15.090 -1.8880  0.0082  1.4858
  852MPD2     C12563   1.705   2.261  10.946  0.0890 -0.2975 -0.2592
  852MPD2    C112564   1.764   2.363  11.021 -0.6302  0.1323  0.3261
  852MPD2    C212565   1.860   2.444  10.957  0.4425 -0.5572  0.1037
  852MPD2    C312566   1.900   2.432  10.824 -0.0438 -0.3214 -0.0685
  852MPD2    C412567   1.834   2.337  10.753  0.2238  0.0558 -0.4720
  852MPD2    C512568   1.735   2.258  10.815 -0.1755  0.3043  0.2178
  852MPD2     H12569   1.908   2.524  11.013 -3.4230  1.2378  0.8641
  852MPD2    H112570   1.846   2.332  10.646  0.8611 -2.0787 -0.3108
  852MPD2    H212571   1.630   2.194  10.987 -1.0779  0.8828 -0.4775
  852MPD2    H312572   1.681   2.182  10.761  0.8590 -0.2868  0.0145
  852MPD2     N12573   1.998   2.516  10.767  0.0070 -0.1123 -0.3702
  852MPD2    H512574   2.035   2.590  10.826  0.6461 -0.4003 -0.4066
  852MPD2    N112575   1.744   2.384  11.158 -0.4938  0.0489  0.1337
  852MPD2    H712576   1.784   2.469  11.196  0.7291  0.3149 -1.7598
  853MPD2     C12577   4.034   1.630  12.220  0.8624  0.3967 -0.2486
  853MPD2    C112578   3.907   1.670  12.183 -0.0378  0.6305 -0.0184
  853MPD2    C212579   3.869   1.665  12.050  0.1170 -0.4965 -0.3469
  853MPD2    C312580   3.960   1.626  11.950  0.2358 -0.1070 -0.2798
  853MPD2    C412581   4.083   1.591  11.995 -0.0934  0.6562  0.4642
  853MPD2    C512582   4.119   1.586  12.124  0.5684 -0.2246 -0.2902
  853MPD2     H12583   3.764   1.686  12.029  0.9358  0.5348 -3.2967
  853MPD2    H112584   4.157   1.552  11.926 -0.1481 -1.6457  1.7000
  853MPD2    H212585   4.062   1.611  12.324  2.3205  1.5459 -0.4394
  853MPD2    H312586   4.216   1.543  12.147  0.7686 -0.8555 -2.3002
  853MPD2     N12587   3.934   1.602  11.815  0.9308  0.3017 -0.1535
  853MPD2    H512588   4.010   1.580  11.751  2.3063  1.2781  1.1503
  853MPD2    N112589   3.815   1.700  12.286 -0.2927  0.7580 -0.3639
  853MPD2    H712590   3.847   1.693  12.382 -3.2045  1.5260  0.6728
  854MPD2     C12591   0.880   2.423  12.698 -0.4074  0.2074  0.1364
  854MPD2    C112592   0.811   2.332  12.774 -0.9090 -0.0517 -0.4011
  854MPD2    C212593   0.878   2.258  12.875  0.9290  0.0774  0.1138
  854MPD2    C312594   1.007   2.293  12.902  0.1036 -0.1991  0.6938
  854MPD2    C412595   1.071   2.384  12.835  0.1311  0.0336 -0.2416
  854MPD2    C512596   1.009   2.452  12.733 -0.2593  0.3927  0.4628
  854MPD2     H12597   0.825   2.177  12.925 -1.2820  0.9177 -0.8544
  854MPD2    H112598   1.172   2.411  12.862 -0.9745  1.2831  2.6639
  854MPD2    H212599   0.835   2.481  12.618 -2.4075 -1.4704  0.0256
  854MPD2    H312600   1.055   2.532  12.676 -1.9629  1.2027  0.2039
  854MPD2     N12601   1.088   2.234  12.997 -0.6650  0.2042 -0.1501
  854MPD2    H512602   1.189   2.245  12.994 -0.5469 -1.2173 -1.2376
  854MPD2    N112603   0.676   2.310  12.744  0.6087  0.2227  0.4421
  854MPD2    H712604   0.636   2.356  12.662 -0.6934 -0.3740  0.7307
  855MPD2     C12605   0.872   1.832  13.881  0.1811 -0.1316 -0.7764
  855MPD2    C112606   0.956   1.748  13.818  0.6138  0.3440  0.3255
  855MPD2    C212607   1.037   1.803  13.718 -0.1171  0.2226 -0.0888
  855MPD2    C312608   1.037   1.935  13.683 -0.1579  0.5820 -0.1043
  855MPD2    C412609   0.950   2.017  13.755 -0.1088 -0.1155  0.7900
  855MPD2    C512610   0.872   1.968  13.858  0.0988 -0.1427  0.5769
  855MPD2     H12611   1.098   1.732  13.662 -1.1582  0.2174 -1.2329
  855MPD2    H112612   0.948   2.123  13.733  0.3302 -0.1048  0.8020
  855MPD2    H212613   0.810   1.794  13.962 -1.2465  1.0674 -1.3142
  855MPD2    H312614   0.805   2.030  13.916 -1.0889 -0.1574 -0.7696
  855MPD2     N12615   1.102   1.999  13.574  0.0111 -0.2808  0.1103
  855MPD2    H512616   1.088   2.099  13.563 -0.7712 -0.6528 -2.1287
  855MPD2    N112617   0.968   1.617  13.854  0.7329  0.0594 -0.1079
  855MPD2    H712618   1.047   1.562  13.822  0.9595 -0.4911  1.3967
  856MPD2     C12619   3.297   1.897  13.883  0.6222  0.0889 -0.1789
  856MPD2    C112620   3.285   2.029  13.932  0.3649  0.3619 -0.9754
  856MPD2    C212621   3.159   2.092  13.929  0.5103  0.1630  0.1031
  856MPD2    C312622   3.058   2.024  13.857 -0.7676 -0.8473 -0.8328
  856MPD2    C412623   3.073   1.902  13.790 -0.7207 -0.0470  0.0403
  856MPD2    C512624   3.194   1.833  13.806 -0.2412 -0.2089 -0.3110
  856MPD2     H12625   3.150   2.185  13.985 -3.1495 -0.4061  0.4449
  856MPD2    H112626   2.999   1.851  13.730  0.3616 -1.8850  0.2572
  856MPD2    H212627   3.388   1.839  13.880  2.2919  2.8154 -1.8910
  856MPD2    H312628   3.202   1.734  13.763  0.5808 -0.3716  0.2141
  856MPD2     N12629   2.930   2.078  13.835 -0.4457  0.3059 -0.7939
  856MPD2    H512630   2.858   2.012  13.809  0.9053 -1.0937 -0.9843
  856MPD2    N112631   3.384   2.097  14.003 -0.0785 -0.0082 -0.1972
  856MPD2    H712632   3.364   2.184  14.052  1.6967 -1.8070  3.7070
  857MPD2     C12633   4.548   0.357  12.648 -0.5494 -0.1110  0.0431
  857MPD2    C112634   4.670   0.313  12.702  1.0069 -0.3473  0.3175
  857MPD2    C212635   0.002   0.390  12.787  0.0516  0.6941 -0.2124
  857MPD2    C312636   4.678   0.508  12.828 -0.0625  0.6135 -0.3486
  857MPD2    C412637   4.555   0.557  12.782 -0.0469  0.7677  0.8506
  857MPD2    C512638   4.490   0.483  12.685 -0.4567 -0.8097  0.0083
  857MPD2     H12639   0.100   0.369  12.829  0.4295  2.0647 -0.4169
  857MPD2    H112640   4.513   0.654  12.804 -3.2538 -0.9814  2.4498
  857MPD2    H212641   4.492   0.289  12.585 -0.0927  2.1815 -2.8342
  857MPD2    H312642   4.396   0.512  12.641 -0.7749 -0.4552  0.9301
  857MPD2     N12643   0.022   0.585  12.913  0.7450  0.2348 -0.1081
  857MPD2    H512644   0.109   0.540  12.941  0.3243  0.2193  1.1735
  857MPD2    N112645   4.708   0.187  12.658 -0.3783 -0.2407  0.4150
  857MPD2    H712646   4.628   0.130  12.630 -0.7296  0.2519  0.4044
  858MPD2     C12647   0.445   4.367  16.374 -0.1386 -0.7240 -0.2876
  858MPD2    C112648   0.514   4.248  16.394  0.7961 -0.1763  0.4811
  858MPD2    C212649   0.521   4.202  16.531  0.1712 -0.2854  0.5355
  858MPD2    C312650   0.451   4.270  16.630 -0.3833  0.9792 -0.3251
  858MPD2    C412651   0.381   4.388  16.601 -0.3734  0.0662  0.4860
  858MPD2    C512652   0.381   4.430  16.474  0.0684  0.9155  0.5260
  858MPD2     H12653   0.565   4.105  16.552  0.7314 -0.4198 -1.2707
  858MPD2    H112654   0.333   4.445  16.679  1.2808  1.7198  0.2820
  858MPD2    H212655   0.448   4.406  16.273 -0.3009 -0.7305 -0.2951
  858MPD2    H312656   0.320   4.515  16.444  1.9887  2.3685  0.7031
  858MPD2     N12657   0.434   4.211  16.759 -0.1658 -0.0131  0.2781
  858MPD2    H512658   0.376   4.265  16.822 -0.9242 -0.6924  0.1619
  858MPD2    N112659   0.566   4.181  16.281 -0.3907  0.2627  0.0430
  858MPD2    H712660   0.573   4.227  16.191  0.7289 -1.6162 -0.8355
  859MPD2     C12661   3.705   1.239  15.812 -0.0446 -0.0964  0.0768
  859MPD2    C112662   3.839   1.242  15.826  0.5377  0.0571 -0.2199
  859MPD2    C212663   3.906   1.126  15.861  0.2827 -0.4066 -1.1378
  859MPD2    C312664   3.842   1.009  15.884 -0.1581 -0.1254 -0.1927
  859MPD2    C412665   3.704   1.004  15.868  0.0792  0.0142  0.0035
  859MPD2    C512666   3.631   1.121  15.841 -0.1628  0.4159  0.3053
  859MPD2     H12667   4.014   1.121  15.863  0.2990  0.5042  0.4018
  859MPD2    H112668   3.644   0.929  15.919 -0.5583  0.7248  0.2991
  859MPD2    H212669   3.648   1.327  15.786  0.2011  0.1031  0.2139
  859MPD2    H312670   3.522   1.122  15.845 -0.0822  2.3027  1.5034
  859MPD2     N12671   3.914   0.889  15.915  0.7673  0.4681 -0.1502
  859MPD2    H512672   3.864   0.802  15.899 -0.3232  1.6319 -3.1507
  859MPD2    N112673   3.901   1.366  15.786 -0.0139 -0.4486 -0.2138
  859MPD2    H712674   3.842   1.440  15.751  1.0081 -0.0974 -1.2045
  860MPD2     C12675   1.703   1.586  11.619 -0.7236  0.2253  0.2009
  860MPD2    C112676   1.762   1.546  11.737 -0.0524  0.1429  0.1594
  860MPD2    C212677   1.680   1.505  11.835 -0.7728 -0.1398  0.3029
  860MPD2    C312678   1.541   1.505  11.822 -0.4031 -0.4634  0.7611
  860MPD2    C412679   1.487   1.547  11.697  0.6863 -0.1922 -0.1811
  860MPD2    C512680   1.569   1.588  11.596  0.5591 -0.0897  0.3144
  860MPD2     H12681   1.732   1.474  11.925 -1.2220  1.6659  1.1923
  860MPD2    H112682   1.380   1.562  11.690  0.5336 -1.9221 -1.5619
  860MPD2    H212683   1.769   1.616  11.537 -2.0118 -1.4281 -1.4426
  860MPD2    H312684   1.527   1.625  11.503  1.5032 -2.2123 -0.9693
  860MPD2     N12685   1.466   1.487  11.943 -0.0156  0.5057 -0.1853
  860MPD2    H512686   1.521   1.484  12.029 -1.1045  1.6000  0.5392
  860MPD2    N112687   1.899   1.544  11.761  0.6384 -0.0366  1.4313
  860MPD2    H712688   1.925   1.518  11.856  2.6271 -1.0398  0.6171
  861MPD2     C12689   0.239   4.314  10.869  0.1426  0.3860  0.2310
  861MPD2    C112690   0.142   4.360  10.947 -0.0284  0.3354  0.4056
  861MPD2    C212691   0.038   4.426  10.885 -0.4566  0.1709 -0.4581
  861MPD2    C312692   0.036   4.444  10.742  0.4342  0.0312 -0.7226
  861MPD2    C412693   0.146   4.402  10.668  0.2637  0.2587  0.6390
  861MPD2    C512694   0.247   4.341  10.737 -0.3397  0.0386  0.3657
  861MPD2     H12695   4.689   4.463  10.940  0.1526  1.3143 -0.2843
  861MPD2    H112696   0.149   4.412  10.560 -2.7267  1.8372  0.7084
  861MPD2    H212697   0.315   4.242  10.898 -0.3550 -0.1675  0.1653
  861MPD2    H312698   0.336   4.306  10.687 -0.9751 -1.4849  0.3018
  861MPD2     N12699   4.675   4.515  10.663  0.1166  0.8510 -0.3039
  861MPD2    H512700   4.697   4.516  10.564  1.8978 -0.9801  0.0946
  861MPD2    N112701   0.148   4.356  11.083 -0.1769  0.7629 -0.0778
  861MPD2    H712702   0.064   4.388  11.130 -0.7594  0.5318 -0.9654
  862MPD2     C12703   4.266   4.510  10.096  0.5054  0.0554  0.3482
  862MPD2    C112704   4.346   4.467  10.189 -0.0589 -0.6403  0.0397
  862MPD2    C212705   4.365   4.337  10.216 -0.1105 -0.2412 -0.1330
  862MPD2    C312706   4.301   4.242  10.148  0.1749  0.0945 -0.5727
  862MPD2    C412707   4.209   4.279  10.060 -0.1200  0.4580  0.4033
  862MPD2    C512708   4.188   4.416  10.027 -0.6369  0.4742 -0.2466
  862MPD2     H12709   4.429   4.305  10.298 -1.4943 -0.2175  0.9484
  862MPD2    H112710   4.160   4.203  10.001  1.3984  0.3799 -0.7353
  862MPD2    H212711   4.265   4.617  10.078  2.4087 -0.5088 -3.2593
  862MPD2    H312712   4.132   4.447   9.940  0.6220 -0.6916 -1.4716
  862MPD2     N12713   4.300   4.103  10.187  0.2685 -0.3017  0.0390
  862MPD2    H512714   4.217   4.052  10.158 -0.2865  0.5855  0.0381
  862MPD2    N112715   4.423   4.562  10.264 -0.0498  0.4047 -0.3259
  862MPD2    H712716   4.498   4.519  10.318  0.3490 -0.8487 -1.9100
  863MPD2     C12717   3.464   2.845  16.490  0.2512 -0.2972 -0.0634
  863MPD2    C112718   3.448   2.944  16.583 -0.5225  0.3668 -0.5967
  863MPD2    C212719   3.547   2.962  16.677 -0.4833 -0.4925  0.3826
  863MPD2    C312720   3.651   2.878  16.681 -0.7251  0.5491 -0.6461
  863MPD2    C412721   3.671   2.781  16.584  0.2921  0.2462  0.6048
  863MPD2    C512722   3.575   2.760  16.489  0.0822 -0.4833  0.1594
  863MPD2     H12723   3.539   3.048  16.741  1.6700  0.2478 -0.3270
  863MPD2    H112724   3.762   2.723  16.589 -0.8870 -1.6055  0.5079
  863MPD2    H212725   3.385   2.822  16.420 -0.0181  1.2948 -0.2803
  863MPD2    H312726   3.579   2.686  16.410  0.0843 -1.0954  0.7376
  863MPD2     N12727   3.746   2.891  16.786 -0.2926  0.1455  0.7571
  863MPD2    H512728   3.818   2.821  16.794 -0.6676 -0.4637 -1.1689
  863MPD2    N112729   3.335   3.035  16.568  0.6271  0.1336  0.7176
  863MPD2    H712730   3.279   3.003  16.490  1.0041 -4.3835  2.2623
  864MPD2     C12731   4.126   4.330  17.396  0.2372 -0.8475  0.0511
  864MPD2    C112732   4.164   4.250  17.287 -0.4525  0.6553 -0.0451
  864MPD2    C212733   4.261   4.310  17.200 -0.2993 -0.3320 -0.4206
  864MPD2    C312734   4.308   4.438  17.213 -0.3973  0.3915 -0.2649
  864MPD2    C412735   4.263   4.515  17.318 -0.7785  0.2451 -0.1054
  864MPD2    C512736   4.173   4.461  17.409  0.1526  0.4954 -0.5858
  864MPD2     H12737   4.291   4.257  17.111  0.9038 -0.2408 -0.0686
  864MPD2    H112738   4.295   4.617  17.331  1.8774 -0.8267  1.6833
  864MPD2    H212739   4.049   4.302  17.466 -0.1140 -0.8381 -0.3268
  864MPD2    H312740   4.148   4.528  17.490  2.0826  0.0761  0.3549
  864MPD2     N12741   4.389   4.507  17.120 -0.0360  0.4298  0.2579
  864MPD2    H512742   4.393   4.607  17.136  1.2704 -0.2500  4.2849
  864MPD2    N112743   4.110   4.123  17.271 -0.0515 -0.4500 -0.7698
  864MPD2    H712744   4.034   4.097  17.333 -0.9104 -1.1428 -2.1236
  865MPD2     C12745   4.550   0.110  16.294 -0.1336  0.4082  0.6350
  865MPD2    C112746   4.497   0.010  16.369 -0.2178  0.1931 -0.4285
  865MPD2    C212747   4.470   0.037  16.504 -0.1048  0.6489  0.5004
  865MPD2    C312748   4.493   0.166  16.550 -0.1007 -0.6749  0.5394
  865MPD2    C412749   4.544   0.263  16.466  0.2191  0.3224 -0.3987
  865MPD2    C512750   4.563   0.232  16.338  1.0045  0.1907  0.5849
  865MPD2     H12751   4.419   4.699  16.565  0.5989 -0.0377  0.2463
  865MPD2    H112752   4.565   0.363  16.502 -0.6565 -0.2403  1.7129
  865MPD2    H212753   4.577   0.092  16.190 -1.6624  1.3799  0.0744
  865MPD2    H312754   4.594   0.312  16.272  0.5641 -1.9752 -2.2306
  865MPD2     N12755   4.458   0.212  16.678  0.2197  0.5686  0.5343
  865MPD2    H512756   4.438   0.310  16.690  0.9646  0.6574  1.0244
  865MPD2    N112757   4.478   4.621  16.305 -0.6775 -0.2915 -0.4155
  865MPD2    H712758   4.502   4.616  16.206 -1.8559 -0.3080 -0.6980
  866MPD2     C12759   0.971   4.673  11.218  0.0600 -0.1202  0.2275
  866MPD2    C112760   0.947   4.670  11.082 -0.7709 -0.1787 -0.0541
  866MPD2    C212761   0.821   4.693  11.035 -0.1803  0.4609 -0.0520
  866MPD2    C312762   0.717   4.716  11.120 -0.6722  0.1074 -0.2570
  866MPD2    C412763   0.740   4.723  11.253 -0.0307 -0.7318  0.6979
  866MPD2    C512764   0.863   4.691  11.304 -0.5379 -0.2985 -0.3628
  866MPD2     H12765   0.796   4.693  10.930  2.3815  0.6887 -0.6575
  866MPD2    H112766   0.668   0.017  11.328 -0.4381 -1.1030  0.4623
  866MPD2    H212767   1.068   4.651  11.262  0.3731 -0.0620 -0.4413
  866MPD2    H312768   0.883   4.702  11.410 -1.5807 -0.9724 -0.1020
  866MPD2     N12769   0.589   0.017  11.065  0.6761  0.2981 -1.1053
  866MPD2    H512770   0.513   0.034  11.131  1.8640 -0.6630  0.5291
  866MPD2    N112771   1.060   4.651  10.999  0.3200 -0.3378  0.5714
  866MPD2    H712772   1.148   4.669  11.046 -0.4513  1.1714  1.4439
  867MPD2     C12773   3.830   4.357  16.687 -0.5159 -0.1412 -0.3618
  867MPD2    C112774   3.699   4.307  16.690  0.1752 -0.6161 -0.3907
  867MPD2    C212775   3.593   4.396  16.674 -0.7801  0.2907  0.3428
  867MPD2    C312776   3.625   4.529  16.642  0.3134 -0.6603  0.5420
  867MPD2    C412777   3.761   4.569  16.617 -0.7530  0.4857 -0.1397
  867MPD2    C512778   3.861   4.482  16.643  0.1559  0.0524  0.8066
  867MPD2     H12779   3.488   4.370  16.674  0.4466 -4.5819 -0.1317
  867MPD2    H112780   3.782   4.671  16.588 -1.2692  0.4782 -0.5526
  867MPD2    H212781   3.912   4.290  16.712 -2.1789 -1.8886  0.3896
  867MPD2    H312782   3.967   4.504  16.639  0.0174  0.5499 -0.0965
  867MPD2     N12783   3.538   4.634  16.624 -0.0755 -0.2805 -0.4701
  867MPD2    H512784   3.577   4.724  16.596 -1.6924  0.4857 -0.2442
  867MPD2    N112785   3.675   4.168  16.721 -0.1414 -0.2657 -0.2093
  867MPD2    H712786   3.750   4.106  16.749  0.5129  1.2932  1.4816
  868MPD2     C12787   4.608   3.191  12.795  0.4667  0.3721 -0.0715
  868MPD2    C112788   4.690   3.175  12.906 -0.5471 -0.3391  0.0256
  868MPD2    C212789   4.626   3.204  13.027 -0.4754  0.3344  0.2042
  868MPD2    C312790   4.487   3.218  13.031  0.3321 -0.1579 -0.8173
  868MPD2    C412791   4.417   3.209  12.914 -0.1947 -0.1584 -0.0904
  868MPD2    C512792   4.473   3.192  12.797  0.1087 -0.0868 -0.0372
  868MPD2     H12793   4.672   3.205  13.125  0.9392 -1.6538 -0.4448
  868MPD2    H112794   4.309   3.222  12.915  0.0521  1.7647  0.7812
  868MPD2    H212795   4.656   3.171  12.699  1.2923  1.2403  0.1724
  868MPD2    H312796   4.414   3.199  12.706 -0.1218 -1.8483 -0.0079
  868MPD2     N12797   4.431   3.237  13.161  0.5444 -0.1678 -0.5502
  868MPD2    H512798   4.491   3.233  13.243 -1.2721  0.5303  0.8181
  868MPD2    N112799   0.090   3.149  12.883  1.2229  0.3662 -0.9371
  868MPD2    H712800   0.119   3.137  12.786  0.1256 -0.0392 -1.2289
  869MPD2     C12801   1.131   0.874   0.080 -0.3141  0.4724 -0.5301
  869MPD2    C112802   1.064   0.960  17.741  0.7321 -0.0872 -0.6036
  869MPD2    C212803   1.150   1.051  17.670 -0.0824  0.3394 -0.2905
  869MPD2    C312804   1.285   1.075  17.702 -0.5003  0.2214 -0.0144
  869MPD2    C412805   1.339   0.987   0.053 -0.8044 -0.4785  0.2584
  869MPD2    C512806   1.268   0.884   0.097 -0.5179 -0.1796  0.6167
  869MPD2     H12807   1.101   1.122  17.604  2.0147  0.7361 -1.4411
  869MPD2    H112808   1.447   0.993   0.066 -1.0333 -0.5131  2.1768
  869MPD2    H212809   1.079   0.794   0.131  1.1732 -0.4013 -0.4062
  869MPD2    H312810   1.309   0.810   0.166  0.3895  1.4660  1.8555
  869MPD2     N12811   1.352   1.193  17.664 -0.1652 -0.2730 -0.2526
  869MPD2    H512812   1.437   1.211  17.716 -1.1820 -0.4844  1.4632
  869MPD2    N112813   0.921   0.958  17.730  0.0371  0.6158  0.2227
  869MPD2    H712814   0.868   0.892   0.040  0.1905 -1.5757 -2.2138
  870MPD2     C12815   0.823   0.287   1.445 -0.8227  0.6891 -0.2438
  870MPD2    C112816   0.772   0.179   1.375 -0.4290 -0.3251 -0.4493
  870MPD2    C212817   0.680   0.194   1.272  0.2732 -0.6364  0.2552
  870MPD2    C312818   0.634   0.317   1.241 -0.0284 -0.0623 -0.0369
  870MPD2    C412819   0.692   0.435   1.305 -0.2755 -0.0922 -0.5361
  870MPD2    C512820   0.782   0.413   1.400 -0.3167 -0.5598 -0.7775
  870MPD2     H12821   0.630   0.116   1.216  0.8933 -2.7931  2.6956
  870MPD2    H112822   0.671   0.538   1.279  3.1265  0.4744 -1.0514
  870MPD2    H212823   0.904   0.284   1.517 -1.0280  1.9310  0.0478
  870MPD2    H312824   0.827   0.504   1.440 -0.1522 -1.2894  0.6940
  870MPD2     N12825   0.534   0.321   1.140  0.0412 -0.3278  0.1843
  870MPD2    H512826   0.493   0.232   1.114 -4.1387  2.1148 -1.5568
  870MPD2    N112827   0.828   0.051   1.401  0.5676  0.5159  0.3884
  870MPD2    H712828   0.899   0.040   1.473  0.8445 -1.6787 -0.2099
  871MPD2     C12829   1.997   4.453  16.236 -0.1742  0.4533 -0.2889
  871MPD2    C112830   1.971   4.368  16.345  0.1143  1.4160  0.2646
  871MPD2    C212831   1.969   4.232  16.327 -0.1288 -0.0125 -0.2645
  871MPD2    C312832   2.019   4.188  16.209 -0.5405 -0.6927 -0.0988
  871MPD2    C412833   2.062   4.268  16.108  0.0840  0.2144  0.8185
  871MPD2    C512834   2.047   4.397  16.119  0.5797 -0.1114 -0.5861
  871MPD2     H12835   1.950   4.160  16.406 -2.2906 -0.4894 -1.2120
  871MPD2    H112836   2.089   4.232  16.009  0.3904  0.7128  0.7197
  871MPD2    H212837   1.993   4.561  16.244  0.2219  0.4296  0.1952
  871MPD2    H312838   2.085   4.457  16.037  2.0951 -0.9812 -0.5259
  871MPD2     N12839   2.028   4.049  16.190 -0.0602  0.1042 -0.1308
  871MPD2    H512840   1.989   3.993  16.265 -1.6221 -1.2252 -1.9155
  871MPD2    N112841   1.941   4.428  16.470  0.3935  0.2081 -0.2212
  871MPD2    H712842   1.975   4.523  16.486  0.2409  0.6491 -2.4773
  872MPD2     C12843   2.944   1.742  14.274 -0.1688  0.8236 -0.0558
  872MPD2    C112844   2.972   1.734  14.141 -0.5466 -0.8319  0.1004
  872MPD2    C212845   2.873   1.756  14.045 -0.0609 -0.3108 -0.2508
  872MPD2    C312846   2.739   1.778  14.093  0.1494 -0.2618 -0.3411
  872MPD2    C412847   2.715   1.775  14.226  0.0425 -0.3060 -0.2516
  872MPD2    C512848   2.819   1.763  14.319  0.1222 -0.0386  0.2091
  872MPD2     H12849   2.900   1.750  13.940  0.7830  0.2282 -0.0648
  872MPD2    H112850   2.616   1.783  14.269 -0.5732  0.6525 -1.8741
  872MPD2    H212851   3.022   1.733  14.348 -0.2354  2.7306  0.2596
  872MPD2    H312852   2.805   1.756  14.427  0.6624  0.4037  0.3065
  872MPD2     N12853   2.630   1.798  14.011  0.0558 -0.6693 -0.7049
  872MPD2    H512854   2.538   1.787  14.052 -0.2120  0.6834 -0.9601
  872MPD2    N112855   3.098   1.700  14.096  0.0610 -0.3925  0.3728
  872MPD2    H712856   3.106   1.684  13.996 -1.5454 -0.5367  0.2680
  873MPD2     C12857   4.649   1.189   0.425 -0.4908 -0.0087  0.1467
  873MPD2    C112858   4.561   1.195   0.538 -0.0162  0.2069  0.3745
  873MPD2    C212859   4.431   1.140   0.540 -0.4024  0.2995 -0.1210
  873MPD2    C312860   4.396   1.061   0.425  0.3218  0.0663 -0.3045
  873MPD2    C412861   4.491   1.043   0.326 -0.1583 -0.3364 -0.2740
  873MPD2    C512862   4.611   1.113   0.320 -0.4938  0.5252 -0.4483
  873MPD2     H12863   4.360   1.164   0.619 -0.4559  0.7727 -0.3080
  873MPD2    H112864   4.471   0.990   0.233  1.4357  0.5415 -1.1084
  873MPD2    H212865   0.000   1.251   0.432 -0.1411 -0.4537 -0.2850
  873MPD2    H312866   4.667   1.097   0.229 -2.1045  0.1662 -1.3632
  873MPD2     N12867   4.277   0.982   0.425  0.0244  0.6612 -0.2449
  873MPD2    H512868   4.267   0.924   0.342 -0.1384 -1.5860  1.3591
  873MPD2    N112869   4.608   1.270   0.648  0.7259  0.5501 -0.1199
  873MPD2    H712870   4.699   1.316   0.644  1.5151 -0.8097  2.2282
  874MPD2     C12871   4.114   2.268  15.990  0.0445 -0.5738 -1.0427
  874MPD2    C112872   4.175   2.201  16.095  0.0951  0.4185  0.4859
  874MPD2    C212873   4.304   2.236  16.130  0.2482  0.2613 -0.3783
  874MPD2    C312874   4.373   2.335  16.068  0.1130 -0.3119 -0.5278
  874MPD2    C412875   4.310   2.408  15.977  0.5414  0.0897 -0.5068
  874MPD2    C512876   4.184   2.377  15.938  0.4775 -0.2081 -0.0959
  874MPD2     H12877   4.354   2.179  16.207  0.2514  1.3224  0.4155
  874MPD2    H112878   4.359   2.496  15.935  0.2990  0.0224 -0.9333
  874MPD2    H212879   4.016   2.238  15.957 -0.5258  0.4355 -0.2748
  874MPD2    H312880   4.137   2.434  15.859  1.8936  0.8244 -0.1702
  874MPD2     N12881   4.508   2.353  16.100  0.6594  0.2577 -0.3215
  874MPD2    H512882   4.552   2.284  16.160 -0.3604 -0.1196 -0.0074
  874MPD2    N112883   4.099   2.104  16.163 -0.1651  0.4449 -0.2764
  874MPD2    H712884   4.008   2.074  16.131 -0.8301  2.6904 -0.5521
  875MPD2     C12885   4.714   0.332  14.672 -0.2500  0.0991 -0.2054
  875MPD2    C112886   0.061   0.386  14.580 -0.1278 -0.6209 -0.0018
  875MPD2    C212887   0.176   0.448  14.633  0.5747 -0.0427 -0.0296
  875MPD2    C312888   0.206   0.449  14.770 -0.1751  0.0481  0.0364
  875MPD2    C412889   0.116   0.389  14.854 -0.3322  0.2470  0.2055
  875MPD2    C512890   4.733   0.357  14.804  0.3718 -0.2731 -0.2271
  875MPD2     H12891   0.245   0.490  14.561 -1.6617  2.6600 -0.5629
  875MPD2    H112892   0.138   0.405  14.959  0.5988 -1.3419  0.2460
  875MPD2    H212893   4.617   0.291  14.649 -1.2321  0.2570  3.7217
  875MPD2    H312894   4.660   0.331  14.880 -0.2716 -2.3617 -1.5624
  875MPD2     N12895   0.325   0.498  14.826  0.3164  0.5259 -0.0459
  875MPD2    H512896   0.349   0.471  14.921 -1.5836 -0.7381  0.0614
  875MPD2    N112897   0.034   0.391  14.442  0.3962 -0.0915 -0.3703
  875MPD2    H712898   0.107   0.440  14.392  2.5753 -1.3006  1.6130
  876MPD2     C12899   3.898   1.837  15.917 -0.5177 -0.2940  0.2177
  876MPD2    C112900   4.033   1.833  15.926  0.4322 -0.1882 -1.3757
  876MPD2    C212901   4.098   1.724  15.995  0.3087 -0.0173  0.9248
  876MPD2    C312902   4.021   1.633  16.062 -0.1387 -0.1398 -0.2005
  876MPD2    C412903   3.885   1.644  16.045 -0.3691  0.3831 -0.2900
  876MPD2    C512904   3.821   1.741  15.973  0.2135  0.0927 -0.2892
  876MPD2     H12905   4.203   1.704  16.012  0.5732 -0.1871 -0.9557
  876MPD2    H112906   3.819   1.577  16.100 -0.4055  2.3547  2.0692
  876MPD2    H212907   3.845   1.923  15.879 -1.5810 -0.6781  0.8324
  876MPD2    H312908   3.713   1.745  15.963  0.2403 -0.5951 -0.8504
  876MPD2     N12909   4.083   1.520  16.120  0.4540 -0.0044 -0.0662
  876MPD2    H512910   4.184   1.532  16.127  0.6312 -1.5012 -0.2278
  876MPD2    N112911   4.100   1.941  15.860  0.0849  0.2125 -0.4164
  876MPD2    H712912   4.046   2.014  15.815  1.9348  1.1048 -1.2009
  877MPD2     C12913   4.096   2.077  15.164  0.1097  0.8901 -0.1646
  877MPD2    C112914   4.228   2.050  15.195 -0.0015  0.0190 -0.1172
  877MPD2    C212915   4.311   2.004  15.100 -0.4131  0.8572 -0.4925
  877MPD2    C312916   4.265   2.002  14.966 -1.1442 -0.1452  0.1291
  877MPD2    C412917   4.136   2.036  14.941  0.1030 -0.7717 -0.4629
  877MPD2    C512918   4.052   2.073  15.038  0.5137 -0.1332 -0.9966
  877MPD2     H12919   4.414   1.979  15.123 -1.2212 -1.8213  0.1961
  877MPD2    H112920   4.099   2.036  14.839 -1.2412 -3.4636  0.0177
  877MPD2    H212921   4.024   2.112  15.236 -1.3759  0.1128 -1.2849
  877MPD2    H312922   3.950   2.099  15.014  0.5321  1.3895  0.5531
  877MPD2     N12923   4.336   1.963  14.849 -0.7151  0.0552 -0.2965
  877MPD2    H512924   4.290   1.975  14.759 -0.2458 -1.0166 -0.6778
  877MPD2    N112925   4.280   2.065  15.325 -0.4152 -0.4831  0.0222
  877MPD2    H712926   4.379   2.043  15.337  0.2701  1.9614 -1.1847
  878MPD2     C12927   4.196   1.108  13.050 -0.9453  0.8903  0.6435
  878MPD2    C112928   4.170   1.241  13.076  0.2165 -0.7820  0.1190
  878MPD2    C212929   4.095   1.279  13.187 -0.0634  0.0130 -0.5545
  878MPD2    C312930   4.038   1.179  13.271  0.7034 -0.5302 -0.3507
  878MPD2    C412931   4.065   1.044  13.241  0.4112  0.6266 -0.6694
  878MPD2    C512932   4.146   1.012  13.134  0.6237  0.0798  0.6844
  878MPD2     H12933   4.083   1.385  13.205 -0.5463  0.0041 -0.8278
  878MPD2    H112934   4.026   0.965  13.303 -0.4650  1.0948 -0.6298
  878MPD2    H212935   4.246   1.068  12.962 -1.2574  0.9592  0.4338
  878MPD2    H312936   4.160   0.910  13.101  1.9471  0.0617  1.3008
  878MPD2     N12937   3.960   1.232  13.374 -0.2908 -0.3060 -0.3807
  878MPD2    H512938   3.968   1.329  13.401  0.4961 -0.1146 -1.2712
  878MPD2    N112939   4.220   1.334  12.981 -0.0552  0.6081 -0.6113
  878MPD2    H712940   4.253   1.290  12.896  0.0312 -1.0050  0.2556
  879MPD2     C12941   4.490   2.013  17.409 -0.6760  0.7564  0.3532
  879MPD2    C112942   4.551   2.081  17.303  0.2929  0.0450 -0.4513
  879MPD2    C212943   4.496   2.075  17.177 -0.1712  0.1574 -0.1576
  879MPD2    C312944   4.382   1.992  17.148 -0.9183 -0.3099  0.2704
  879MPD2    C412945   4.327   1.922  17.251 -0.2900 -0.1230  0.7530
  879MPD2    C512946   4.380   1.938  17.379 -0.4410 -0.0664  0.9309
  879MPD2     H12947   4.539   2.126  17.091 -1.2832 -2.4313 -2.2339
  879MPD2    H112948   4.230   1.873  17.245  0.3020 -0.9900 -1.5997
  879MPD2    H212949   4.517   2.019  17.513 -4.0544 -2.9448  1.4832
  879MPD2    H312950   4.331   1.889  17.462 -0.6380 -0.3063  0.6726
  879MPD2     N12951   4.311   2.008  17.027  0.3817  0.4011 -0.1818
  879MPD2    H512952   4.223   1.957  17.029  0.9612 -0.6068  0.1049
  879MPD2    N112953   4.652   2.168  17.337  0.0433 -0.4435  0.0553
  879MPD2    H712954   4.662   2.179  17.438 -1.0925  0.2463  0.0920
  880MPD2     C12955   0.875   4.023   0.296 -0.0767  0.7314  0.6475
  880MPD2    C112956   0.962   4.131   0.276 -0.0733 -0.5707 -0.2235
  880MPD2    C212957   1.098   4.104   0.281  0.3479 -0.9462  0.0061
  880MPD2    C312958   1.140   3.969   0.283 -0.6298 -0.7336  1.2876
  880MPD2    C412959   1.050   3.868   0.269  0.5345 -0.0906 -0.5945
  880MPD2    C512960   0.919   3.895   0.283  0.3765 -0.5926  0.0039
  880MPD2     H12961   1.174   4.182   0.276 -2.1809  1.5042  0.1130
  880MPD2    H112962   1.072   3.762   0.258  0.0836 -0.1053 -1.4220
  880MPD2    H212963   0.769   4.041   0.313 -0.2086  0.8434 -0.2848
  880MPD2    H312964   0.842   3.819   0.277 -0.1920 -0.0963  0.9453
  880MPD2     N12965   1.283   3.957   0.286 -0.4981  0.2857  0.1146
  880MPD2    H512966   1.331   4.046   0.294 -1.8879  0.7784  2.9659
  880MPD2    N112967   0.908   4.261   0.256  0.7673 -0.0754  0.3548
  880MPD2    H712968   0.808   4.266   0.272  0.5656 -3.3279  0.0914
  881MPD2     C12969   0.864   0.414  17.356 -0.5131 -0.3244 -0.5447
  881MPD2    C112970   0.968   0.326  17.371 -0.8660 -0.6610  0.1226
  881MPD2    C212971   0.939   0.217  17.450 -0.4416 -0.5658  0.3444
  881MPD2    C312972   0.831   0.203  17.535  0.0074 -0.2610 -0.9899
  881MPD2    C412973   0.736   0.302  17.527 -0.1455  0.6133 -0.6687
  881MPD2    C512974   0.753   0.398  17.433  0.3216  0.4959  0.7332
  881MPD2     H12975   1.024   0.152  17.465 -0.4573 -0.9624 -1.2493
  881MPD2    H112976   0.650   0.314  17.593  0.4807 -0.1534  0.2913
  881MPD2    H212977   0.867   0.481  17.270  2.4740 -1.1918 -1.1274
  881MPD2    H312978   0.680   0.479  17.442  0.1474  0.6602 -2.1537
  881MPD2     N12979   0.826   0.115  17.639  0.6906  0.5782  0.2986
  881MPD2    H512980   0.752   0.140  17.703 -1.3656 -1.0976 -1.4480
  881MPD2    N112981   1.077   0.324  17.281 -0.4611  0.2575 -0.4925
  881MPD2    H712982   1.125   0.235  17.276 -0.3521  0.2837 -0.0090
  882MPD2     C12983   4.395   1.407  14.289  0.4234 -0.3077  0.2013
  882MPD2    C112984   4.339   1.514  14.359  0.7884  0.2183  0.2940
  882MPD2    C212985   4.213   1.508  14.394 -0.4239  0.4994 -0.0049
  882MPD2    C312986   4.134   1.400  14.361  0.0106 -0.2077 -0.4314
  882MPD2    C412987   4.187   1.297  14.287 -0.0420 -0.0739 -0.0914
  882MPD2    C512988   4.317   1.293  14.257 -0.0806 -0.0790 -0.4757
  882MPD2     H12989   4.166   1.593  14.443 -0.9751 -1.5010  2.9449
  882MPD2    H112990   4.123   1.210  14.272  2.2658 -2.0722  1.6221
  882MPD2    H212991   4.497   1.413  14.254  0.7541  0.5435  1.3201
  882MPD2    H312992   4.362   1.204  14.213 -0.0221 -1.1666  1.8070
  882MPD2     N12993   3.998   1.386  14.406  0.6559  0.0405  0.1564
  882MPD2    H512994   3.945   1.304  14.378 -0.1482  0.8544 -0.6621
  882MPD2    N112995   4.427   1.620  14.388  0.0923 -0.2610 -0.1756
  882MPD2    H712996   4.526   1.597  14.382 -0.2416 -1.0558 -2.4077
  883MPD2     C12997   1.396   2.161  15.941  0.6093 -0.2544  0.1584
  883MPD2    C112998   1.484   2.230  15.858  0.1892 -0.5641 -0.9828
  883MPD2    C212999   1.597   2.289  15.909 -0.0783  0.3402 -0.2801
  883MPD2    C313000   1.626   2.264  16.040 -1.0762  0.4699 -0.0659
  883MPD2    C413001   1.534   2.212  16.131  0.0236 -0.1600  0.1498
  883MPD2    C513002   1.419   2.157  16.081  0.5831  0.0457 -0.5265
  883MPD2     H13003   1.662   2.351  15.849 -1.0153 -1.0021 -2.6811
  883MPD2    H113004   1.555   2.213  16.237  0.4841 -2.2381  0.0860
  883MPD2    H213005   1.307   2.114  15.901  0.0926 -0.6785  1.8253
  883MPD2    H313006   1.346   2.111  16.148  0.3899 -0.7720 -1.3050
  883MPD2     N13007   1.754   2.302  16.088 -0.6148 -0.0549 -0.1274
  883MPD2    H513008   1.812   2.361  16.029  2.6998 -2.1937  0.9247
  883MPD2    N113009   1.446   2.265  15.722  0.0582  0.3842  0.1082
  883MPD2    H713010   1.519   2.305  15.663 -1.0207  1.7392 -0.3256
  884MPD2     C13011   3.628   2.526  14.853  0.6061 -0.1222  1.5494
  884MPD2    C113012   3.646   2.639  14.929 -0.2637 -0.2632  0.6097
  884MPD2    C213013   3.544   2.693  15.002  0.0734 -0.4344  0.2032
  884MPD2    C313014   3.416   2.640  14.999  0.2891 -0.6880  0.8991
  884MPD2    C413015   3.395   2.526  14.927 -0.8677  0.5252 -0.1781
  884MPD2    C513016   3.502   2.463  14.861  0.4207  0.2270  0.2528
  884MPD2     H13017   3.557   2.785  15.058 -3.6162  0.3260 -0.1728
  884MPD2    H113018   3.298   2.479  14.921 -0.0128 -1.4999  2.0655
  884MPD2    H213019   3.702   2.494  14.780 -0.8492  1.8053 -0.7667
  884MPD2    H313020   3.475   2.381  14.795  2.7497 -0.2064 -0.1604
  884MPD2     N13021   3.315   2.718  15.065  0.2544 -0.1494 -0.3875
  884MPD2    H513022   3.344   2.805  15.108 -0.3967  1.3759 -3.0454
  884MPD2    N113023   3.765   2.705  14.922 -0.3358  0.0899 -0.1816
  884MPD2    H713024   3.776   2.775  14.994  2.3417  0.1623 -0.6327
  885MPD2     C13025   1.541   3.129   0.045 -0.3134 -0.3450  0.1612
  885MPD2    C113026   1.667   3.085  17.742  0.8314  0.4168 -0.6563
  885MPD2    C213027   1.677   3.072  17.604  0.3523  0.4816  0.4914
  885MPD2    C313028   1.572   3.104  17.524 -0.3451  0.1047  0.2564
  885MPD2    C413029   1.453   3.143  17.576  0.1478 -0.0810  0.0128
  885MPD2    C513030   1.440   3.158  17.706  0.0010 -0.1339  0.2580
  885MPD2     H13031   1.770   3.036  17.562 -0.3398 -1.1520  0.3649
  885MPD2    H113032   1.365   3.160  17.515  0.8791 -0.2321 -1.0997
  885MPD2    H213033   1.530   3.133   0.153  1.4238 -0.1971  0.3475
  885MPD2    H313034   1.344   3.190  17.743  0.6795  1.5453  0.5465
  885MPD2     N13035   1.588   3.080  17.385 -0.9478  0.1851 -0.3715
  885MPD2    H513036   1.672   3.033  17.354  0.0319  0.6496  1.5730
  885MPD2    N113037   1.770   3.054   0.089  0.0928  0.8223  0.3452
  885MPD2    H713038   1.752   3.076   0.187 -0.4369 -3.4814  1.2117
  886MPD2     C13039   3.136   0.969  14.569 -0.2814  0.4895  0.2619
  886MPD2    C113040   3.204   0.982  14.684 -0.4079 -0.2387  0.8072
  886MPD2    C213041   3.206   1.109  14.743  0.0464  0.3231 -0.2516
  886MPD2    C313042   3.130   1.215  14.695 -0.2142 -0.0071 -0.3895
  886MPD2    C413043   3.059   1.195  14.579 -0.0308  0.2630  0.0165
  886MPD2    C513044   3.060   1.071  14.514 -0.5222 -0.6867  0.1855
  886MPD2     H13045   3.239   1.121  14.845  1.6075 -2.0933 -0.4739
  886MPD2    H113046   2.993   1.269  14.535 -0.5118  0.4204  1.0157
  886MPD2    H213047   3.130   0.870  14.524 -2.1499  0.5927  0.2652
  886MPD2    H313048   3.004   1.058  14.422  1.7184 -3.2515 -0.8225
  886MPD2     N13049   3.117   1.340  14.758  0.2749 -0.2176  0.1572
  886MPD2    H513050   3.091   1.415  14.696  1.8521  0.6864  0.5787
  886MPD2    N113051   3.268   0.873  14.753 -0.3912  0.1952  0.3917
  886MPD2    H713052   3.240   0.776  14.741 -1.4677  0.9599 -3.1814
  887MPD2     C13053   3.763   0.995  15.368  0.3066 -0.1108  0.9864
  887MPD2    C113054   3.632   1.011  15.320  0.3374 -0.2230  0.3723
  887MPD2    C213055   3.557   1.116  15.369 -0.3195  0.5317 -0.0676
  887MPD2    C313056   3.619   1.214  15.444  0.7863 -0.0107 -0.2596
  887MPD2    C413057   3.750   1.196  15.489  0.2148  0.1434 -0.2003
  887MPD2    C513058   3.805   1.078  15.461  0.3766 -0.2748  0.2328
  887MPD2     H13059   3.453   1.134  15.344 -0.3277  0.5532 -0.0181
  887MPD2    H113060   3.802   1.267  15.552  1.6460 -0.6333 -0.5122
  887MPD2    H213061   3.830   0.915  15.338  1.6349  1.9710 -1.6979
  887MPD2    H313062   3.901   1.061  15.508  0.5922  1.6113  0.4582
  887MPD2     N13063   3.545   1.334  15.472  0.4811  0.6983  0.2895
  887MPD2    H513064   3.452   1.342  15.431  0.3928 -1.6033  0.0525
  887MPD2    N113065   3.568   0.918  15.245 -0.9742 -0.0826  0.5065
  887MPD2    H713066   3.473   0.937  15.214 -1.0684  0.7729  1.3278
  888MPD2     C13067   0.703   1.562  14.754 -0.4679  0.5106  0.3718
  888MPD2    C113068   0.662   1.587  14.885  0.0533 -0.1745  0.7298
  888MPD2    C213069   0.708   1.700  14.946  0.0878 -0.0748 -0.4663
  888MPD2    C313070   0.778   1.795  14.877 -0.4222 -0.7846 -0.3368
  888MPD2    C413071   0.830   1.770  14.751  0.1141 -0.1165 -0.2861
  888MPD2    C513072   0.797   1.643  14.701 -0.5337  0.2753 -0.6142
  888MPD2     H13073   0.673   1.711  15.048  1.2461  1.2925 -0.2209
  888MPD2    H113074   0.887   1.839  14.690 -1.9024 -0.3895 -2.4812
  888MPD2    H213075   0.692   1.463  14.709  0.5900  0.8083 -0.5414
  888MPD2    H313076   0.842   1.612  14.608 -0.4836  0.4812 -0.6570
  888MPD2     N13077   0.808   1.913  14.948 -0.3414  0.6989  0.3653
  888MPD2    H513078   0.758   1.922  15.036 -0.1565 -2.5150  0.8169
  888MPD2    N113079   0.608   1.484  14.966 -0.9849 -0.0739  0.3393
  888MPD2    H713080   0.610   1.491  15.067 -1.6705 -0.4117  0.3791
  889MPD2     C13081   4.401   0.960  13.439 -0.6503 -0.2772 -0.0914
  889MPD2    C113082   4.527   1.013  13.436 -0.2961 -0.2273 -0.0711
  889MPD2    C213083   4.547   1.135  13.492 -0.1493  0.0395  0.5171
  889MPD2    C313084   4.437   1.208  13.544  0.1272  0.0950 -0.4570
  889MPD2    C413085   4.311   1.159  13.538 -0.1507  0.6517 -0.0290
  889MPD2    C513086   4.300   1.040  13.481 -0.0892  0.0683 -0.6554
  889MPD2     H13087   4.639   1.188  13.472 -1.8769  2.8745  0.1721
  889MPD2    H113088   4.220   1.210  13.566 -1.7353 -1.5781 -1.0946
  889MPD2    H213089   4.381   0.875  13.374 -0.2382  0.0692 -0.6709
  889MPD2    H313090   4.200   1.004  13.459  0.1256 -1.8986  1.6083
  889MPD2     N13091   4.465   1.340  13.584 -1.2357 -1.4194 -0.8214
  889MPD2    H513092   4.560   1.376  13.586 -0.7312 -2.6849 -2.0086
  889MPD2    N113093   4.620   0.962  13.341 -0.5075 -0.1617 -0.4464
  889MPD2    H713094   4.584   0.891  13.279 -0.5398 -2.0426  1.7027
  890MPD2     C13095   4.146   2.478  14.683  0.6615 -0.0071  0.0421
  890MPD2    C113096   4.242   2.545  14.756 -0.4711 -0.2385 -0.2538
  890MPD2    C213097   4.241   2.541  14.894 -0.6408  0.2788 -0.4402
  890MPD2    C313098   4.137   2.480  14.966  0.2193  0.0907  0.0809
  890MPD2    C413099   4.040   2.418  14.889  0.3764 -0.3419  0.7661
  890MPD2    C513100   4.050   2.414  14.756  0.1652  0.0424 -0.1642
  890MPD2     H13101   4.321   2.580  14.956  0.4353 -1.0310 -1.0146
  890MPD2    H113102   3.950   2.376  14.932  0.0765 -0.3123  0.1667
  890MPD2    H213103   4.138   2.483  14.575 -0.2080  0.2290  0.1155
  890MPD2    H313104   3.970   2.368  14.699  1.3716 -2.1080 -0.1026
  890MPD2     N13105   4.138   2.477  15.108  0.0731  0.0562  0.5158
  890MPD2    H513106   4.225   2.505  15.153  0.0309 -0.8732  1.1615
  890MPD2    N113107   4.348   2.604  14.689 -0.6056  0.4752 -0.2868
  890MPD2    H713108   4.354   2.591  14.589 -0.8016  0.0045 -0.2379
  891MPD2     C13109   1.990   1.301  15.766  0.3627  0.3680 -0.3566
  891MPD2    C113110   2.049   1.430  15.753 -1.1973  0.0354 -1.4135
  891MPD2    C213111   2.145   1.464  15.849 -0.8195 -0.0302 -0.2775
  891MPD2    C313112   2.179   1.379  15.952 -0.2543  0.2167  0.1462
  891MPD2    C413113   2.117   1.259  15.969  0.1655  0.4496 -0.5178
  891MPD2    C513114   2.025   1.220  15.870 -0.4626  0.2233 -0.6372
  891MPD2     H13115   2.205   1.554  15.839  2.7305 -2.3802 -0.3459
  891MPD2    H113116   2.147   1.197  16.053  0.6790  0.8190 -0.4278
  891MPD2    H213117   1.925   1.260  15.690 -0.1784  1.2577 -0.3726
  891MPD2    H313118   1.984   1.121  15.883  0.8737 -0.1340  0.7983
  891MPD2     N13119   2.275   1.433  16.040  0.0822  0.1672  0.1080
  891MPD2    H513120   2.295   1.529  16.013 -0.0905  0.8222  2.3468
  891MPD2    N113121   2.005   1.520  15.656  0.5159 -0.0039  0.0032
  891MPD2    H713122   1.959   1.482  15.574 -0.8682  0.7093  0.4544
  892MPD2     C13123   3.518   2.070  14.923 -0.5259 -0.4737  0.1279
  892MPD2    C113124   3.441   2.047  14.809 -0.3438  0.4901 -0.5033
  892MPD2    C213125   3.487   1.938  14.730 -0.5615 -0.3307 -0.5333
  892MPD2    C313126   3.590   1.856  14.765 -0.2703 -0.1202 -0.7661
  892MPD2    C413127   3.666   1.883  14.876 -0.4539 -0.0362  0.1783
  892MPD2    C513128   3.636   1.999  14.953 -0.3327  0.0085  0.3761
  892MPD2     H13129   3.435   1.921  14.636 -1.5974 -2.0522  0.3522
  892MPD2    H113130   3.755   1.830  14.907  0.5386  0.4943 -1.7630
  892MPD2    H213131   3.500   2.161  14.979 -0.2491 -0.0388 -0.4954
  892MPD2    H313132   3.708   2.040  15.022 -0.4958 -0.8623  1.0663
  892MPD2     N13133   3.604   1.732  14.707 -0.3712  0.5802 -0.1938
  892MPD2    H513134   3.672   1.673  14.753 -0.2024  0.6422 -0.3646
  892MPD2    N113135   3.322   2.116  14.773  0.5158  0.1091 -0.4729
  892MPD2    H713136   3.275   2.089  14.687  0.2998  0.1985 -0.3840
  893MPD2     C13137   0.930   1.290   1.443  0.0015  0.0892 -0.0569
  893MPD2    C113138   0.808   1.256   1.401  0.1871 -0.5729  0.1004
  893MPD2    C213139   0.695   1.302   1.466 -0.0753  0.5560 -0.3807
  893MPD2    C313140   0.702   1.385   1.574 -0.2548  0.2293 -0.8346
  893MPD2    C413141   0.821   1.433   1.614  0.6575 -0.6961 -0.3527
  893MPD2    C513142   0.936   1.382   1.551  0.4191  0.2314  0.0886
  893MPD2     H13143   0.600   1.277   1.421  0.5059  2.7599 -2.8306
  893MPD2    H113144   0.843   1.505   1.692 -1.0465 -1.4811  0.8360
  893MPD2    H213145   1.017   1.255   1.388 -1.0714 -3.8529  0.7144
  893MPD2    H313146   1.037   1.416   1.567  0.4305  0.4326 -0.3959
  893MPD2     N13147   0.584   1.433   1.638 -0.3659  0.0318  0.4238
  893MPD2    H513148   0.604   1.494   1.717  2.3485 -0.5489  0.1712
  893MPD2    N113149   0.801   1.158   1.300  0.4421 -0.1317  0.1628
  893MPD2    H713150   0.891   1.129   1.263 -0.4677 -0.0361 -2.1129
  894MPD2     C13151   3.392   3.351   0.456 -0.2133 -0.5583  0.2346
  894MPD2    C113152   3.402   3.393   0.588 -0.5166 -0.0932 -0.1517
  894MPD2    C213153   3.362   3.517   0.618 -0.0728 -0.8622  0.3872
  894MPD2    C313154   3.329   3.603   0.519 -0.1647  0.1625 -0.1045
  894MPD2    C413155   3.311   3.561   0.391  0.4180 -0.8558 -0.0181
  894MPD2    C513156   3.337   3.433   0.357 -0.2661  0.8463 -0.6759
  894MPD2     H13157   3.354   3.558   0.718  1.1486  3.5530 -1.2897
  894MPD2    H113158   3.263   3.621   0.314  0.9660  0.3628  0.5773
  894MPD2    H213159   3.422   3.249   0.434  2.0731  0.6150 -2.0461
  894MPD2    H313160   3.331   3.394   0.256  0.2891 -2.2752  0.4963
  894MPD2     N13161   3.280   3.730   0.559 -0.4749 -0.4670 -0.2342
  894MPD2    H513162   3.283   3.740   0.660  0.1869 -2.1394 -0.0858
  894MPD2    N113163   3.446   3.310   0.689  0.1894  0.5337 -0.8798
  894MPD2    H713164   3.440   3.345   0.784  1.3088  0.1036 -0.6457
  895MPD2     C13165   3.086   0.513  13.577  0.1704  0.1889  0.6181
  895MPD2    C113166   2.985   0.478  13.662  0.2416 -0.2819 -0.8348
  895MPD2    C213167   2.984   0.344  13.703  0.1099 -0.5149  0.5955
  895MPD2    C313168   3.073   0.252  13.658 -0.4006  0.3211 -0.3367
  895MPD2    C413169   3.167   0.288  13.567  0.2496  0.1087  0.0271
  895MPD2    C513170   3.171   0.422  13.527  1.0400 -0.3689 -0.0659
  895MPD2     H13171   2.901   0.310  13.763  0.9234 -0.7038  1.6151
  895MPD2    H113172   3.235   0.216  13.523  0.5422  0.5702 -0.2656
  895MPD2    H213173   3.085   0.615  13.538 -1.7968  0.6407  1.8283
  895MPD2    H313174   3.238   0.459  13.450  0.5060  3.1292  1.1535
  895MPD2     N13175   3.052   0.116  13.688  0.0232  0.3622 -0.2832
  895MPD2    H513176   3.105   0.050  13.632 -0.4912  0.5955 -1.0436
  895MPD2    N113177   2.872   0.565  13.682 -0.2211  0.2610 -0.3813
  895MPD2    H713178   2.787   0.519  13.713 -0.6430  1.5569  0.3928
  896MPD2     C13179   4.397   4.204   1.520 -0.2218 -0.2752  0.1733
  896MPD2    C113180   4.381   4.136   1.403 -0.0073  0.2269  0.1869
  896MPD2    C213181   4.271   4.052   1.395  0.1224 -0.3465 -0.3766
  896MPD2    C313182   4.191   4.026   1.502  0.4592  0.9238 -0.8289
  896MPD2    C413183   4.217   4.087   1.625 -0.1086  0.7833  0.6198
  896MPD2    C513184   4.320   4.175   1.628 -0.1376  0.8778  0.1427
  896MPD2     H13185   4.249   3.999   1.303 -0.3065 -1.3211  0.2824
  896MPD2    H113186   4.158   4.071   1.715 -1.0163  1.8471  0.2048
  896MPD2    H213187   4.479   4.270   1.545 -0.5171  1.1316 -2.5735
  896MPD2    H313188   4.335   4.235   1.717 -0.5620 -0.1321  0.9073
  896MPD2     N13189   4.070   3.950   1.482  0.4239  0.0567  0.3054
  896MPD2    H513190   4.068   3.897   1.396 -1.6756 -1.2870  1.1756
  896MPD2    N113191   4.482   4.149   1.304 -0.7133  0.1463  0.3225
  896MPD2    H713192   4.561   4.210   1.324 -1.1098  0.3165  1.3996
  897MPD2     C13193   1.253   1.314  10.803  0.0735 -0.5616  0.7459
  897MPD2    C113194   1.190   1.325  10.683  0.3089  0.5403  1.0530
  897MPD2    C213195   1.091   1.232  10.652 -0.7149 -0.0551  0.5089
  897MPD2    C313196   1.062   1.127  10.732  0.3566  0.7430  0.3425
  897MPD2    C413197   1.131   1.115  10.851  0.6775  0.6091 -0.0042
  897MPD2    C513198   1.217   1.213  10.885 -0.0589  0.9203  0.2557
  897MPD2     H13199   1.029   1.238  10.563 -0.5069  1.8180  0.4899
  897MPD2    H113200   1.104   1.040  10.925 -3.0437  1.0505 -0.9207
  897MPD2    H213201   1.316   1.389  10.849  2.5969 -0.3913 -2.9792
  897MPD2    H313202   1.271   1.212  10.979  0.4528  0.2440 -0.0468
  897MPD2     N13203   0.962   1.035  10.686 -0.2601  0.2207  0.1079
  897MPD2    H513204   0.921   1.051  10.595 -1.4278 -0.0725  0.5799
  897MPD2    N113205   1.231   1.426  10.604  0.2757 -0.8082 -0.3032
  897MPD2    H713206   1.299   1.489  10.644 -0.5521 -0.2050  0.1477
  898MPD2     C13207   2.664   1.855  17.172 -0.2613 -0.2216 -0.1656
  898MPD2    C113208   2.752   1.827  17.277  0.2032  0.0266  0.2245
  898MPD2    C213209   2.826   1.934  17.323  0.1454  0.0008  0.5484
  898MPD2    C313210   2.810   2.064  17.284  0.3115  0.1026 -0.1442
  898MPD2    C413211   2.728   2.087  17.176 -0.6452 -0.7957  0.5340
  898MPD2    C513212   2.655   1.984  17.128 -0.2975  0.7109  0.0804
  898MPD2     H13213   2.894   1.915  17.405  1.1746  0.4911 -0.1909
  898MPD2    H113214   2.704   2.186  17.140  1.0441 -0.2644  0.8577
  898MPD2    H213215   2.590   1.786  17.131 -1.9067 -0.1347  2.6488
  898MPD2    H313216   2.576   1.994  17.055 -0.2925 -0.5785 -0.1068
  898MPD2     N13217   2.899   2.152  17.347 -0.0901  0.3179  0.0436
  898MPD2    H513218   2.944   2.109  17.427 -1.5597 -0.3310  0.5197
  898MPD2    N113219   2.784   1.700  17.332  0.2042 -0.4406  0.0321
  898MPD2    H713220   2.849   1.693  17.410  1.2559 -0.8728 -0.8844
  899MPD2     C13221   3.961   2.368  16.969 -0.5067  0.0268  0.1059
  899MPD2    C113222   3.971   2.446  17.078  0.5784  0.5194 -0.5076
  899MPD2    C213223   3.980   2.397  17.213 -0.0021 -0.1697  0.3032
  899MPD2    C313224   3.975   2.254  17.222  0.4906  0.3705 -0.7579
  899MPD2    C413225   3.962   2.179  17.110  0.4594  0.1282 -0.3666
  899MPD2    C513226   3.956   2.235  16.989 -1.6150  0.0732 -0.0604
  899MPD2     H13227   3.986   2.467  17.296 -1.9581  0.3100  0.0263
  899MPD2    H113228   3.952   2.071  17.109  1.7340  0.0314 -1.3169
  899MPD2    H213229   3.933   2.414  16.875  3.7908  1.7335 -0.3497
  899MPD2    H313230   3.916   2.174  16.908 -1.5140  0.6332 -0.5284
  899MPD2     N13231   3.950   2.191  17.346  0.0181  0.0496 -0.7230
  899MPD2    H513232   3.925   2.093  17.349 -1.8359  0.5037 -1.4109
  899MPD2    N113233   3.947   2.586  17.059  0.0810 -0.3380  0.0788
  899MPD2    H713234   3.921   2.624  16.969  0.6042  1.0542  0.5049
  900MPD2     C13235   3.986   3.883  12.444 -0.1558  0.1064 -0.1948
  900MPD2    C113236   3.878   3.808  12.478 -0.0328 -0.2065  0.1253
  900MPD2    C213237   3.754   3.847  12.435 -0.9350 -1.0473 -0.1095
  900MPD2    C313238   3.737   3.950  12.346 -0.1097 -0.0034  0.3186
  900MPD2    C413239   3.845   4.024  12.311  0.0073  0.3670  0.2495
  900MPD2    C513240   3.969   3.988  12.357  0.1166  0.0269  0.3309
  900MPD2     H13241   3.669   3.781  12.445 -0.9538 -1.0263 -0.1308
  900MPD2    H113242   3.831   4.114  12.252  0.9542  1.4495  1.6741
  900MPD2    H213243   4.086   3.866  12.480 -1.1722 -3.3341  0.9667
  900MPD2    H313244   4.050   4.056  12.334  1.3583 -1.7147 -0.4355
  900MPD2     N13245   3.599   3.980  12.314 -0.5668  0.1515 -0.3004
  900MPD2    H513246   3.529   3.931  12.368 -1.8556 -0.8990 -2.9041
  900MPD2    N113247   3.890   3.693  12.554  0.7052 -0.0342  0.5383
  900MPD2    H713248   3.984   3.659  12.568  0.1103 -1.5705  0.8695
  901MPD2     C13249   3.363   2.798  12.748  0.1828 -0.6403  0.0313
  901MPD2    C113250   3.471   2.798  12.665  0.1775 -0.2710 -0.6952
  901MPD2    C213251   3.549   2.909  12.662  0.1965  0.1261 -0.1727
  901MPD2    C313252   3.527   3.023  12.741  0.8072 -0.1344  0.4393
  901MPD2    C413253   3.410   3.030  12.814 -0.3682  0.3127  0.7894
  901MPD2    C513254   3.335   2.917  12.822 -0.0017  0.9436 -0.5553
  901MPD2     H13255   3.644   2.912  12.609  0.1085  0.6721 -0.3004
  901MPD2    H113256   3.391   3.113  12.881  0.3532  0.3744  0.9181
  901MPD2    H213257   3.300   2.711  12.760  1.0029 -1.4959 -1.7388
  901MPD2    H313258   3.252   2.922  12.891 -2.4438  0.5065 -3.4629
  901MPD2     N13259   3.623   3.127  12.744  0.0897  0.3679 -0.1170
  901MPD2    H513260   3.698   3.112  12.678  0.9240 -0.2684  0.9727
  901MPD2    N113261   3.510   2.677  12.605  0.0461  0.3760  0.0088
  901MPD2    H713262   3.468   2.593  12.643  0.5088 -0.2061 -0.7650
  902MPD2     C13263   2.889   1.096  12.457 -0.2137 -0.2169  0.3465
  902MPD2    C113264   2.850   1.187  12.361  1.3658  0.0432  0.5227
  902MPD2    C213265   2.906   1.177  12.232  0.1492 -0.0964  0.0052
  902MPD2    C313266   3.013   1.092  12.210  0.2892  1.2034 -0.1900
  902MPD2    C413267   3.044   0.998  12.302  0.4215 -0.1581 -0.2739
  902MPD2    C513268   2.976   1.004  12.423  0.3409 -0.3102 -0.1914
  902MPD2     H13269   2.878   1.252  12.159  2.2990 -0.7846 -1.5125
  902MPD2    H113270   3.125   0.927  12.289  1.3033  0.5712  1.1745
  902MPD2    H213271   2.853   1.096  12.559 -1.3730 -2.2168 -0.0631
  902MPD2    H313272   3.005   0.927  12.494 -0.9231  0.9595  1.6835
  902MPD2     N13273   3.080   1.104  12.093  0.5707  0.7307  0.6116
  902MPD2    H513274   3.041   1.166  12.022 -2.6887 -1.2857  0.6289
  902MPD2    N113275   2.751   1.283  12.391 -0.0239 -0.1159 -0.5720
  902MPD2    H713276   2.724   1.284  12.489  0.4471  1.1274 -0.4517
  903MPD2     C13277   2.985   1.526  11.531  0.3525 -0.3157 -0.1048
  903MPD2    C113278   2.945   1.426  11.609 -0.0495  0.3363  0.4790
  903MPD2    C213279   2.810   1.414  11.632 -0.2717 -0.1486  0.0807
  903MPD2    C313280   2.722   1.509  11.574  1.0820 -0.5002 -0.1458
  903MPD2    C413281   2.771   1.595  11.476 -0.3852 -0.5061  0.0952
  903MPD2    C513282   2.902   1.606  11.460  0.2175  0.6646  0.0452
  903MPD2     H13283   2.782   1.336  11.701 -2.7624  0.9697  0.3057
  903MPD2    H113284   2.716   1.675  11.428 -0.6267 -0.8703 -0.2316
  903MPD2    H213285   3.090   1.545  11.509  0.3679  2.1637  2.1976
  903MPD2    H313286   2.942   1.682  11.393 -0.9103  0.1011 -1.2582
  903MPD2     N13287   2.582   1.485  11.596 -0.2342 -0.1188  0.1108
  903MPD2    H513288   2.564   1.403  11.652  2.2991  0.3569  1.6410
  903MPD2    N113289   3.033   1.334  11.671 -0.3968  0.2641  0.3834
  903MPD2    H713290   2.985   1.275  11.739  0.7081 -0.4968  0.5006
  904MPD2     C13291   2.354   0.689  14.070 -0.0392 -0.2496  0.0363
  904MPD2    C113292   2.367   0.569  13.999  0.4481  0.0638 -0.2483
  904MPD2    C213293   2.494   0.520  13.990 -0.0039  0.2867 -0.2198
  904MPD2    C313294   2.606   0.583  14.036 -0.5665  0.7459  0.3978
  904MPD2    C413295   2.590   0.688  14.119 -0.2164 -0.0503  0.4201
  904MPD2    C513296   2.465   0.747  14.132 -0.3762 -0.7323 -0.2836
  904MPD2     H13297   2.495   0.431  13.928  0.6134  0.2757 -0.1913
  904MPD2    H113298   2.663   0.738  14.181  0.8288  0.5290 -1.2878
  904MPD2    H213299   2.258   0.737  14.082 -0.1545  0.1796 -2.7477
  904MPD2    H313300   2.450   0.835  14.193  1.6743 -0.5610 -0.0137
  904MPD2     N13301   2.732   0.515  14.018 -0.3980 -0.3683 -0.8026
  904MPD2    H513302   2.730   0.425  13.970 -0.4325 -1.3432  1.0243
  904MPD2    N113303   2.258   0.501  13.939  0.1977  0.2217 -0.6973
  904MPD2    H713304   2.276   0.425  13.874  1.5393  0.5727 -0.7248
  905MPD2     C13305   2.416   0.283  13.239 -0.8037  0.7669  0.3294
  905MPD2    C113306   2.397   0.276  13.375 -0.2132  0.3075 -0.2916
  905MPD2    C213307   2.463   0.176  13.442  0.7954  0.1280  0.0164
  905MPD2    C313308   2.563   0.097  13.381 -0.6824 -0.4608 -0.0129
  905MPD2    C413309   2.577   0.110  13.247  0.9207 -0.2414  0.0964
  905MPD2    C513310   2.501   0.200  13.178  0.0164 -0.3688 -0.1127
  905MPD2     H13311   2.440   0.162  13.547 -2.2110  1.5441 -0.4813
  905MPD2    H113312   2.641   0.040  13.193  2.6170  1.4348 -0.0519
  905MPD2    H213313   2.354   0.352  13.182 -0.9998 -0.5616 -1.0585
  905MPD2    H313314   2.511   0.208  13.071 -2.6356 -0.5694 -0.3723
  905MPD2     N13315   2.652   0.010  13.447  0.3710 -0.7674 -0.5567
  905MPD2    H513316   2.731   4.714  13.392  0.1959 -1.6735 -0.2679
  905MPD2    N113317   2.299   0.362  13.435  0.4001  0.5409  0.1850
  905MPD2    H713318   2.239   0.417  13.374  1.7894 -0.2717 -1.8934
  906MPD2     C13319   4.446   0.866  11.285  0.6707 -0.3294  0.0208
  906MPD2    C113320   4.356   0.806  11.203 -0.3636  0.5582  0.4994
  906MPD2    C213321   4.254   0.727  11.259  0.8253 -0.6940  0.2969
  906MPD2    C313322   4.249   0.706  11.391 -0.2330 -0.1307 -0.0303
  906MPD2    C413323   4.344   0.766  11.467 -0.4620  0.4384  0.1653
  906MPD2    C513324   4.449   0.840  11.425 -0.1425 -0.1632  0.0377
  906MPD2     H13325   4.170   0.681  11.208  1.0623  0.4601 -1.0997
  906MPD2    H113326   4.339   0.740  11.572 -0.4659 -0.5720 -0.0852
  906MPD2    H213327   4.526   0.924  11.239 -0.1908  1.0212  0.2224
  906MPD2    H313328   4.521   0.880  11.495 -0.1647 -1.1728  0.6319
  906MPD2     N13329   4.141   0.635  11.458  0.3347 -0.3455 -0.0734
  906MPD2    H513330   4.157   0.629  11.558  1.5524 -2.2331 -0.3870
  906MPD2    N113331   4.349   0.819  11.065 -0.3231 -0.0902 -0.4342
  906MPD2    H713332   4.271   0.781  11.011 -1.8973  1.7017  0.5893
  907MPD2     C13333   3.301   4.703  15.241 -0.5272  0.8540  0.3493
  907MPD2    C113334   3.375   4.588  15.262 -0.1265  0.2803 -0.1348
  907MPD2    C213335   3.447   4.562  15.377 -0.1612 -0.0406 -0.2822
  907MPD2    C313336   3.431   4.657  15.481  0.4399 -0.3887  0.3091
  907MPD2    C413337   3.353   0.029  15.466  0.3127  0.6880 -0.2105
  907MPD2    C513338   3.302   0.058  15.344  0.8850  0.2619 -0.7477
  907MPD2     H13339   3.499   4.469  15.395 -1.3746 -0.4744  1.0259
  907MPD2    H113340   3.347   0.111  15.537  1.9127 -0.2819  1.0105
  907MPD2    H213341   3.256   4.711  15.143 -0.4857  1.2813  0.3642
  907MPD2    H313342   3.245   0.151  15.341  2.7100  1.2720 -3.4881
  907MPD2     N13343   3.518   4.646  15.596 -0.5877  0.1629 -0.1385
  907MPD2    H513344   3.587   4.571  15.589  0.3814  1.1327 -0.8707
  907MPD2    N113345   3.379   4.491  15.165 -0.0370 -0.2692 -0.5905
  907MPD2    H713346   3.448   4.418  15.177 -0.1571 -0.3073 -0.1404
  908MPD2     C13347   0.768   1.610   9.740 -0.1501 -0.1414 -0.6488
  908MPD2    C113348   0.818   1.490   9.781 -0.4938 -0.0888  0.1954
  908MPD2    C213349   0.932   1.481   9.861  0.3774  0.0603  0.5533
  908MPD2    C313350   0.988   1.594   9.904 -0.0424 -0.0851 -0.5322
  908MPD2    C413351   0.948   1.708   9.844 -1.0017 -0.0577 -0.0470
  908MPD2    C513352   0.842   1.721   9.765  0.0996 -0.5566  0.0384
  908MPD2     H13353   0.960   1.386   9.904  1.0492 -0.4720 -1.0435
  908MPD2    H113354   1.004   1.799   9.859 -1.2521 -0.0637  0.8972
  908MPD2    H213355   0.674   1.623   9.689 -0.6798 -0.5585  0.2078
  908MPD2    H313356   0.820   1.815   9.717 -2.3654  0.4892  3.2133
  908MPD2     N13357   1.077   1.590  10.010 -0.2673 -0.5215 -0.0413
  908MPD2    H513358   1.094   1.496  10.045 -0.7493 -0.4703  0.3281
  908MPD2    N113359   0.731   1.377   9.753  0.0576  0.0863  0.2767
  908MPD2    H713360   0.643   1.407   9.712  0.1276 -2.2208 -1.5876
  909MPD2     C13361   1.545   3.470  11.451 -0.4419 -0.6261 -0.0814
  909MPD2    C113362   1.560   3.600  11.485 -0.4636  0.5458  0.2314
  909MPD2    C213363   1.481   3.662  11.579 -0.0025  0.1586 -0.5596
  909MPD2    C313364   1.385   3.593  11.637 -0.8068  0.3391 -0.0372
  909MPD2    C413365   1.362   3.457  11.610  0.3444  0.2509 -0.0223
  909MPD2    C513366   1.442   3.404  11.514 -0.5099 -0.6314 -0.5223
  909MPD2     H13367   1.485   3.770  11.584  0.8469  0.3236 -4.2189
  909MPD2    H113368   1.296   3.394  11.669  0.5351  0.0294 -0.0466
  909MPD2    H213369   1.602   3.417  11.375  0.6439 -0.6421  0.7641
  909MPD2    H313370   1.424   3.305  11.474  0.3968 -0.5706 -1.0830
  909MPD2     N13371   1.304   3.670  11.723  0.2276  0.6138  0.1228
  909MPD2    H513372   1.321   3.770  11.726  0.9466  0.5500 -1.9243
  909MPD2    N113373   1.657   3.686  11.427 -0.3838  0.8382 -0.5873
  909MPD2    H713374   1.646   3.786  11.443  1.8737  1.0108 -0.1816
  910MPD2     C13375   2.604   0.600  15.823  0.1847  0.6100  0.6202
  910MPD2    C113376   2.649   0.514  15.726  0.4284 -0.4431 -0.4045
  910MPD2    C213377   2.598   0.529  15.596 -0.3516  0.2648 -1.1079
  910MPD2    C313378   2.510   0.634  15.566 -0.5507 -0.1943 -0.5062
  910MPD2    C413379   2.484   0.732  15.662  0.2340  0.1924  0.1858
  910MPD2    C513380   2.540   0.718  15.788  0.1068  0.3938 -0.6500
  910MPD2     H13381   2.620   0.444  15.533 -1.0226 -0.3467 -0.5203
  910MPD2    H113382   2.431   0.820  15.626 -1.4762 -0.1343  1.9197
  910MPD2    H213383   2.629   0.590  15.929  0.3820  2.3192  0.7406
  910MPD2    H313384   2.526   0.785  15.872  0.8083  1.3778 -1.3157
  910MPD2     N13385   2.457   0.659  15.441 -0.7989  0.9554  0.2988
  910MPD2    H513386   2.402   0.744  15.434 -0.0431  1.1647 -2.8619
  910MPD2    N113387   2.718   0.395  15.755  0.2687  0.2914  0.0642
  910MPD2    H713388   2.748   0.349  15.670  0.8011  0.1328  0.3382
  911MPD2     C13389   0.609   1.041  15.961  0.1217  0.7441 -0.4476
  911MPD2    C113390   0.642   1.168  15.952 -0.8671 -0.2147 -0.4174
  911MPD2    C213391   0.545   1.265  15.937 -0.2605 -0.8806 -0.3030
  911MPD2    C313392   0.410   1.231  15.920  0.1338 -0.1009 -0.2316
  911MPD2    C413393   0.376   1.096  15.934 -0.9218 -0.2126 -0.2828
  911MPD2    C513394   0.478   1.007  15.952  0.2929 -0.4018 -1.2113
  911MPD2     H13395   0.574   1.369  15.930 -1.1533 -0.6530 -0.7139
  911MPD2    H113396   0.270   1.072  15.945 -0.3228 -2.0984  1.3423
  911MPD2    H213397   0.688   0.966  15.966 -2.5940 -2.0378  0.3198
  911MPD2    H313398   0.440   0.906  15.955  0.2078 -0.3316  0.0531
  911MPD2     N13399   0.307   1.323  15.902 -0.4966 -0.0233 -0.2339
  911MPD2    H513400   0.212   1.290  15.909 -0.5465  0.1774  0.0474
  911MPD2    N113401   0.780   1.197  15.972  0.1186  0.1013  1.2511
  911MPD2    H713402   0.841   1.119  15.997  1.3944  0.6056 -0.2692
  912MPD2     C13403   4.704   1.076  15.481  0.7189  0.2258  0.1946
  912MPD2    C113404   4.714   1.091  15.617  0.3957  0.4519  0.1235
  912MPD2    C213405   0.035   0.992  15.694  0.4159 -0.3042 -0.3813
  912MPD2    C313406   0.083   0.874  15.638 -0.6568 -0.7382  0.1541
  912MPD2    C413407   0.064   0.848  15.500 -0.1510  0.0475  0.2051
  912MPD2    C513408   0.015   0.959  15.430 -0.0460 -0.9509  0.2915
  912MPD2     H13409   0.059   0.989  15.800  1.3015  0.0102 -0.5739
  912MPD2    H113410   0.104   0.764  15.444  0.6457 -0.2026  1.1555
  912MPD2    H213411   4.678   1.147  15.404  1.4365  0.8666  0.5372
  912MPD2    H313412   0.013   0.940  15.323 -3.1837  0.0297  0.1754
  912MPD2     N13413   0.139   0.775  15.727  0.6080 -0.0706 -0.6026
  912MPD2    H513414   0.119   0.800  15.823 -2.0780 -1.4176 -0.8034
  912MPD2    N113415   4.684   1.222  15.668  0.1149 -0.2365 -0.5162
  912MPD2    H713416   4.667   1.288  15.593  1.3017  1.1110  0.3969
  913MPD2     C13417   0.618   2.037  11.069 -0.2258 -0.1172  0.4709
  913MPD2    C113418   0.737   2.089  11.014 -0.0582 -1.2287  0.5565
  913MPD2    C213419   0.746   2.103  10.881 -0.6966 -0.7400 -0.9418
  913MPD2    C313420   0.645   2.071  10.792 -0.4331  0.1315  0.7822
  913MPD2    C413421   0.529   2.014  10.848  0.2418  0.0907 -0.1965
  913MPD2    C513422   0.517   2.002  10.979  0.0579  0.0917 -0.2367
  913MPD2     H13423   0.836   2.148  10.841 -0.6225 -0.3596 -0.3531
  913MPD2    H113424   0.443   1.986  10.789  2.1033 -1.9542 -1.9549
  913MPD2    H213425   0.604   2.028  11.176  2.7015  1.5773  0.9904
  913MPD2    H313426   0.427   1.952  11.011  0.6216  0.8735  2.5873
  913MPD2     N13427   0.643   2.109  10.655 -0.7400  0.1632  0.0158
  913MPD2    H513428   0.555   2.084  10.612 -0.7038  1.2001 -0.6544
  913MPD2    N113429   0.835   2.137  11.112 -0.3444  0.3384  0.0793
  913MPD2    H713430   0.815   2.117  11.210  0.1898 -3.5683 -0.5820
  914MPD2     C13431   4.140   2.660  11.867 -0.1726 -0.3476 -0.2748
  914MPD2    C113432   4.127   2.751  11.972 -0.2050  0.3517 -0.0887
  914MPD2    C213433   4.062   2.701  12.082  0.0641  0.0401 -0.3686
  914MPD2    C313434   4.019   2.573  12.088  0.5727  0.6789 -0.0381
  914MPD2    C413435   4.030   2.489  11.979 -0.7159 -0.0092  0.4247
  914MPD2    C513436   4.090   2.535  11.868  0.0257 -0.1628  0.2782
  914MPD2     H13437   4.032   2.767  12.163  0.9425 -0.1363  0.1006
  914MPD2    H113438   3.999   2.386  11.967 -3.2570  0.8488 -0.3647
  914MPD2    H213439   4.196   2.689  11.779  1.5253 -1.8139  0.3197
  914MPD2    H313440   4.100   2.469  11.783  3.4109  0.3811  0.2540
  914MPD2     N13441   3.947   2.543  12.206  0.3281  0.0644  0.5246
  914MPD2    H513442   3.933   2.618  12.272  1.1779  0.3207  0.4067
  914MPD2    N113443   4.161   2.893  11.959 -0.0998 -0.3685  0.2986
  914MPD2    H713444   4.180   2.927  11.865 -1.4560  0.0022  0.1481
  915MPD2     C13445   1.845   2.720  15.352  0.0583  0.2797 -0.3322
  915MPD2    C113446   1.704   2.724  15.329  0.0658  0.0497  0.7835
  915MPD2    C213447   1.627   2.768  15.435  0.3749 -0.7062 -0.3629
  915MPD2    C313448   1.679   2.815  15.554 -0.4630  0.3869  0.2206
  915MPD2    C413449   1.818   2.820  15.570 -0.6806 -0.0239  0.2508
  915MPD2    C513450   1.899   2.775  15.462 -0.0853 -0.2238  0.3242
  915MPD2     H13451   1.519   2.767  15.429  0.3329 -0.6253  0.3066
  915MPD2    H113452   1.872   2.858  15.655  1.6911 -0.3136 -1.1187
  915MPD2    H213453   1.906   2.677  15.273  0.3356  0.1173 -0.0301
  915MPD2    H313454   2.006   2.789  15.472 -0.6666  2.9508  2.3602
  915MPD2     N13455   1.595   2.869  15.656  0.4211  0.4524  0.0280
  915MPD2    H513456   1.494   2.865  15.652  0.4496 -0.3559  0.0335
  915MPD2    N113457   1.660   2.661  15.212  0.3033  0.3215  0.4011
  915MPD2    H713458   1.733   2.617  15.156 -1.2300  0.4145 -1.6996
  916MPD2     C13459   4.266   1.070  15.718  0.1173 -0.2270 -0.3228
  916MPD2    C113460   4.355   1.053  15.823  0.5372 -0.1097 -0.1964
  916MPD2    C213461   4.433   0.938  15.808 -0.2502  0.4262  0.4081
  916MPD2    C313462   4.417   0.848  15.709 -1.0441 -0.0458 -0.5878
  916MPD2    C413463   4.327   0.872  15.608 -0.5945 -0.1106 -0.2123
  916MPD2    C513464   4.244   0.976  15.621  0.1481  0.3865  1.1848
  916MPD2     H13465   4.499   0.914  15.890 -0.3693 -0.9175  0.1094
  916MPD2    H113466   4.304   0.800  15.530 -0.8581 -0.4131  0.1421
  916MPD2    H213467   4.211   1.163  15.721  0.3191 -0.0369 -2.9385
  916MPD2    H313468   4.168   0.986  15.545  0.4200 -1.2389  0.7105
  916MPD2     N13469   4.491   0.728  15.709 -0.1959 -0.1333 -0.3967
  916MPD2    H513470   4.524   0.693  15.799  1.1493  0.6283 -0.5943
  916MPD2    N113471   4.350   1.132  15.940 -0.4543 -0.2579  0.3945
  916MPD2    H713472   4.267   1.191  15.942  0.1173  0.6588 -2.6053
  917MPD2     C13473   4.611   2.785  11.210 -0.9809  0.0620  0.2242
  917MPD2    C113474   4.701   2.838  11.294  1.0032 -0.3496  0.0358
  917MPD2    C213475   0.056   2.926  11.245 -0.8261  0.9396 -0.1209
  917MPD2    C313476   0.056   2.967  11.111 -0.1667 -0.2893  0.1369
  917MPD2    C413477   4.695   2.915  11.028  0.0566  0.4011  0.0961
  917MPD2    C513478   4.610   2.812  11.073  0.5153  0.3637  0.0238
  917MPD2     H13479   0.127   2.964  11.317 -1.1064  1.9279 -0.3710
  917MPD2    H113480   4.687   2.940  10.923 -0.6749 -0.2974 -0.0179
  917MPD2    H213481   4.533   2.719  11.246  0.5265 -2.3089 -0.8622
  917MPD2    H313482   4.542   2.773  10.998  2.2691 -4.9470  1.1293
  917MPD2     N13483   0.147   3.056  11.053 -0.6612  0.4636 -0.1242
  917MPD2    H513484   0.123   3.103  10.966  1.1274  0.7402 -0.4808
  917MPD2    N113485   4.679   2.813  11.433 -0.0704  0.2076  0.1625
  917MPD2    H713486   4.609   2.742  11.453 -1.5693  1.8271  0.7365
  918MPD2     C13487   4.695   3.490  12.136 -0.2733 -0.5832 -0.3364
  918MPD2    C113488   0.066   3.453  12.061  0.4356 -0.0159 -0.8350
  918MPD2    C213489   0.065   3.318  12.015  0.1841  0.5001 -0.1078
  918MPD2    C313490   4.692   3.240  12.020  0.4527  0.0023  0.3718
  918MPD2    C413491   4.580   3.290  12.083  0.0681  0.0265 -0.8804
  918MPD2    C513492   4.580   3.410  12.137 -0.3803  0.0754  0.7132
  918MPD2     H13493   0.147   3.264  11.970  0.1059  1.4087 -1.3600
  918MPD2    H113494   4.486   3.236  12.086  0.1502 -0.2360 -2.5975
  918MPD2    H213495   4.703   3.586  12.185 -0.3458 -1.0420  0.5610
  918MPD2    H313496   4.488   3.434  12.190  0.9821  0.3602  2.9013
  918MPD2     N13497   4.692   3.110  11.959  0.3800 -0.0916 -0.1476
  918MPD2    H513498   0.043   3.075  11.923  0.9976 -0.7530  1.9913
  918MPD2    N113499   0.181   3.531  12.053 -0.2403 -0.2394  0.5192
  918MPD2    H713500   0.264   3.490  12.010 -0.0474  0.3747  0.3046
  919MPD2     C13501   0.753   2.345  11.997 -0.9728 -0.6082 -0.4329
  919MPD2    C113502   0.659   2.255  11.949 -0.5873 -0.2139 -0.3664
  919MPD2    C213503   0.603   2.268  11.827  0.0663 -0.0149  0.0408
  919MPD2    C313504   0.634   2.377  11.750  0.3914  0.0460 -0.2488
  919MPD2    C413505   0.717   2.475  11.800  1.4887 -0.2035  0.7025
  919MPD2    C513506   0.761   2.467  11.929 -0.2398 -0.3752 -0.2341
  919MPD2     H13507   0.534   2.190  11.797 -1.1548  1.0238  0.1858
  919MPD2    H113508   0.718   2.570  11.747  2.3175 -0.1242  0.8634
  919MPD2    H213509   0.816   2.327  12.083 -0.9898  0.2804 -0.2306
  919MPD2    H313510   0.831   2.545  11.958 -2.5345  1.8982 -0.8340
  919MPD2     N13511   0.571   2.402  11.627  0.3891 -0.1499  0.3961
  919MPD2    H513512   0.604   2.477  11.567  0.2781 -0.9593 -0.6658
  919MPD2    N113513   0.632   2.135  12.009  0.1830 -0.0838  0.0140
  919MPD2    H713514   0.596   2.064  11.946 -0.5129  1.3115 -1.1724
  920MPD2     C13515   0.666   2.535  10.639  0.3627  0.0536  0.2383
  920MPD2    C113516   0.528   2.494  10.650  0.3580 -0.1160  0.3100
  920MPD2    C213517   0.477   2.452  10.771  0.1273  0.1585 -0.0246
  920MPD2    C313518   0.568   2.447  10.883 -0.0115 -0.0121  0.2430
  920MPD2    C413519   0.698   2.480  10.867  0.1093  0.1159  0.0198
  920MPD2    C513520   0.747   2.532  10.746 -0.2935  0.1611  0.7170
  920MPD2     H13521   0.372   2.425  10.775  0.5389 -1.2829  1.2752
  920MPD2    H113522   0.769   2.473  10.949  1.3337 -2.0739 -1.2149
  920MPD2    H213523   0.706   2.568  10.544  0.1128 -0.7550 -0.1513
  920MPD2    H313524   0.849   2.566  10.735 -0.6966  0.8947 -0.7847
  920MPD2     N13525   0.519   2.405  11.006  0.8320 -0.7347 -0.1201
  920MPD2    H513526   0.422   2.375  11.016  0.1546  1.3152 -0.5804
  920MPD2    N113527   0.438   2.515  10.543 -0.8418 -0.5219 -0.2779
  920MPD2    H713528   0.350   2.465  10.549 -1.6131  0.7436 -1.1834
  921MPD2     C13529   1.628   1.899  16.000  0.5984 -1.1464 -0.1305
  921MPD2    C113530   1.604   1.832  15.881 -0.3150 -0.0364 -0.1472
  921MPD2    C213531   1.507   1.731  15.883 -0.5771 -0.3692  0.3660
  921MPD2    C313532   1.433   1.696  15.991  0.8246  0.4955 -0.1583
  921MPD2    C413533   1.466   1.760  16.111  0.0491  0.6013  0.2288
  921MPD2    C513534   1.561   1.854  16.112 -0.2885  0.6777  0.2799
  921MPD2     H13535   1.489   1.672  15.794  0.5635  0.3954 -0.3678
  921MPD2    H113536   1.414   1.742  16.204  0.2526 -2.0341 -0.1621
  921MPD2    H213537   1.710   1.969  16.008  0.8371 -1.5232  0.7638
  921MPD2    H313538   1.578   1.908  16.205  0.5920  0.9529 -0.0433
  921MPD2     N13539   1.343   1.584  15.983  0.0232  0.5466  0.5008
  921MPD2    H513540   1.339   1.530  15.898  4.8456 -1.2620  1.4407
  921MPD2    N113541   1.679   1.863  15.765 -0.4065  0.0690  0.0499
  921MPD2    H713542   1.756   1.926  15.782 -1.1268  0.3482  2.2841
  922MPD2     C13543   2.191   3.591  16.988 -0.1195  0.2414  0.2263
  922MPD2    C113544   2.125   3.700  16.931  0.2370  0.9481 -0.0812
  922MPD2    C213545   1.986   3.708  16.949 -0.1273 -0.9389  0.0311
  922MPD2    C313546   1.918   3.604  17.007 -0.4817  0.3353 -0.5290
  922MPD2    C413547   1.977   3.506  17.077  0.1892  0.4060 -0.5294
  922MPD2    C513548   2.111   3.497  17.055 -0.1821 -0.3285  0.3960
  922MPD2     H13549   1.928   3.785  16.900 -1.4211 -1.7841  0.2592
  922MPD2    H113550   1.927   3.419  17.117  3.1210 -0.9066  0.2722
  922MPD2    H213551   2.296   3.566  16.981 -0.5928 -2.7302  3.5052
  922MPD2    H313552   2.155   3.402  17.082  2.4454  1.0114  0.9471
  922MPD2     N13553   1.781   3.603  16.987  0.0284 -0.3553 -0.1169
  922MPD2    H513554   1.744   3.673  16.923  0.5116 -0.0261 -0.0366
  922MPD2    N113555   2.195   3.811  16.866 -0.1133  0.2703  0.0878
  922MPD2    H713556   2.141   3.896  16.854  0.5777  1.1092  2.7223
  923MPD2     C13557   2.790   1.097   8.938 -0.2135 -0.3474 -0.4069
  923MPD2    C113558   2.844   1.217   8.983  0.3007  0.2606  0.0489
  923MPD2    C213559   2.970   1.212   9.037 -0.3129  0.6916 -0.6107
  923MPD2    C313560   3.042   1.090   9.042 -0.0011  0.1657  0.7242
  923MPD2    C413561   2.978   0.973   9.011 -0.2120  0.5895  0.1123
  923MPD2    C513562   2.854   0.979   8.960  0.4512 -0.5040 -0.6073
  923MPD2     H13563   3.006   1.312   9.059  0.4957  0.5209 -1.1585
  923MPD2    H113564   3.018   0.875   9.031  0.2190  0.6347 -0.5489
  923MPD2    H213565   2.687   1.102   8.906 -0.0142 -1.0423 -1.1270
  923MPD2    H313566   2.803   0.887   8.933 -0.4909 -0.0470 -0.3599
  923MPD2     N13567   3.176   1.085   9.092 -0.2558 -0.5555  0.2323
  923MPD2    H513568   3.209   0.990   9.110  0.0460  0.0813  3.0035
  923MPD2    N113569   2.759   1.328   8.984 -0.1448  0.1723 -0.4357
  923MPD2    H713570   2.665   1.302   8.956  0.4826  1.9494 -4.3207
  924MPD2     C13571   3.887   4.153  15.404  0.3333  0.0216 -0.3402
  924MPD2    C113572   3.867   4.133  15.539 -0.0331 -0.0215 -0.5919
  924MPD2    C213573   3.899   4.233  15.629 -0.2554 -0.1130  0.5644
  924MPD2    C313574   3.923   4.360  15.578  0.1510 -0.0611 -0.2583
  924MPD2    C413575   3.948   4.374  15.439  0.7852  0.1732 -0.1842
  924MPD2    C513576   3.936   4.268  15.353  0.7803  0.0733 -0.7558
  924MPD2     H13577   3.882   4.218  15.735 -0.5385 -0.5817  0.4540
  924MPD2    H113578   3.966   4.473  15.398  1.4312  0.4382  0.7407
  924MPD2    H213579   3.867   4.065  15.343 -0.9903 -1.0674  1.6618
  924MPD2    H313580   3.946   4.276  15.245  2.0101  0.1047 -0.6356
  924MPD2     N13581   3.931   4.475  15.665 -0.6308 -0.2552 -0.1488
  924MPD2    H513582   3.961   4.565  15.628  0.1725  0.2945  1.8487
  924MPD2    N113583   3.791   4.018  15.582 -0.4030  0.4673 -0.5571
  924MPD2    H713584   3.747   3.957  15.514 -3.5308  1.4176  0.6514
  925MPD2     C13585   1.891   1.792  14.101 -0.2297 -0.4052 -1.2650
  925MPD2    C113586   2.025   1.776  14.132 -0.0472 -0.0726  0.7576
  925MPD2    C213587   2.063   1.772  14.262  0.2823  0.3731  0.7832
  925MPD2    C313588   1.972   1.794  14.368  0.7428  0.8405 -0.7321
  925MPD2    C413589   1.841   1.828  14.344 -0.5872 -0.1732 -0.7983
  925MPD2    C513590   1.807   1.823  14.209  0.1732  0.3689  0.5436
  925MPD2     H13591   2.166   1.749  14.284  0.3074  0.5983  0.9063
  925MPD2    H113592   1.776   1.844  14.429 -3.2479 -1.3089 -2.6238
  925MPD2    H213593   1.856   1.791  13.999 -1.2195  0.9025 -0.9480
  925MPD2    H313594   1.706   1.854  14.188 -0.1403  0.7876  2.7918
  925MPD2     N13595   2.009   1.786  14.504 -0.1361 -0.0773 -0.0669
  925MPD2    H513596   1.936   1.815  14.567  1.9655  0.7944  1.9817
  925MPD2    N113597   2.131   1.768  14.031  0.0791 -0.3225  0.4074
  925MPD2    H713598   2.225   1.761  14.069  0.6757  2.7378 -0.4729
  926MPD2     C13599   1.018   0.124  13.627 -0.0845 -0.2654 -0.3849
  926MPD2    C113600   1.031   0.249  13.686  0.5216  0.0617  0.1333
  926MPD2    C213601   1.131   0.333  13.633 -0.7123  0.5585 -0.2985
  926MPD2    C313602   1.225   0.281  13.548  0.1026  0.3780  0.7474
  926MPD2    C413603   1.214   0.155  13.497 -0.7206  0.4273 -1.1459
  926MPD2    C513604   1.098   0.085  13.526  1.0276 -0.3727 -0.5824
  926MPD2     H13605   1.143   0.432  13.676  0.5033  1.1795 -2.0671
  926MPD2    H113606   1.279   0.117  13.419  0.5178 -0.3568  0.2640
  926MPD2    H213607   0.930   0.062  13.639 -0.2192  0.0655  0.3311
  926MPD2    H313608   1.073   4.724  13.488  0.6140  0.3432 -2.1244
  926MPD2     N13609   1.331   0.359  13.500  0.1126 -0.6337 -0.1468
  926MPD2    H513610   1.396   0.301  13.448  0.7177 -0.8266  0.8321
  926MPD2    N113611   0.930   0.299  13.763  0.6157  0.2966 -0.5680
  926MPD2    H713612   0.928   0.399  13.781 -0.1233  0.2712 -0.5464
  927MPD2     C13613   1.124   2.831  17.665  0.2591 -0.0901  0.1762
  927MPD2    C113614   0.998   2.832  17.614 -0.1219 -0.3755  0.1887
  927MPD2    C213615   0.971   2.849  17.482  1.1149 -0.4795 -0.8799
  927MPD2    C313616   1.081   2.858  17.398  0.1974  0.2687  0.5637
  927MPD2    C413617   1.210   2.849  17.442 -0.5937 -0.3213  0.1016
  927MPD2    C513618   1.233   2.843  17.581 -0.4736 -0.8657 -0.4657
  927MPD2     H13619   0.878   2.841  17.427  0.5359  0.6549 -0.0555
  927MPD2    H113620   1.297   2.848  17.378  0.7397  2.8121  1.8591
  927MPD2    H213621   1.142   2.813   0.024  0.5447 -0.0901  0.1278
  927MPD2    H313622   1.336   2.837  17.614  0.1452  1.8021 -1.9303
  927MPD2     N13623   1.051   2.873  17.258 -0.2267  0.2525  0.4954
  927MPD2    H513624   0.960   2.899  17.222 -0.1349  0.2998  0.3010
  927MPD2    N113625   0.896   2.816  17.709  0.5077 -0.2194  0.1958
  927MPD2    H713626   0.925   2.800   0.059  0.1561  2.0086  0.6810
  928MPD2     C13627   3.014   0.781   0.594  0.1171 -0.6691  0.5804
  928MPD2    C113628   3.004   0.864   0.485  0.0377  0.1904 -0.3344
  928MPD2    C213629   3.094   0.844   0.383  0.6819 -0.1069  0.1777
  928MPD2    C313630   3.189   0.749   0.392  0.2663  0.2464  0.2449
  928MPD2    C413631   3.189   0.657   0.493  0.5221  0.4136 -0.3281
  928MPD2    C513632   3.098   0.673   0.595 -0.2851 -0.1852 -0.3725
  928MPD2     H13633   3.101   0.920   0.305  2.1129 -0.7322 -0.3000
  928MPD2    H113634   3.260   0.576   0.502 -3.3539 -2.5322  4.0509
  928MPD2    H213635   2.952   0.791   0.683 -0.8509 -1.9059  0.0511
  928MPD2    H313636   3.105   0.608   0.682  1.5780  1.0185  0.3703
  928MPD2     N13637   3.277   0.750   0.283  0.2478  0.3480 -0.0092
  928MPD2    H513638   3.256   0.810   0.205 -2.8285  0.0387  0.5602
  928MPD2    N113639   2.910   0.969   0.492  0.0861  0.0385 -0.0396
  928MPD2    H713640   2.845   0.978   0.570  0.3233 -0.7470  0.2415
  929MPD2     C13641   3.830   1.180  10.213  0.3272  0.2761 -0.3492
  929MPD2    C113642   3.718   1.129  10.157  0.6343 -0.4600  0.3859
  929MPD2    C213643   3.690   1.159  10.032 -0.8725 -0.1156 -0.3596
  929MPD2    C313644   3.763   1.261   9.961 -0.0565  0.4288 -0.3138
  929MPD2    C413645   3.877   1.307  10.018  0.4372 -0.2329  0.0885
  929MPD2    C513646   3.913   1.261  10.145 -1.1037 -0.7197 -0.0090
  929MPD2     H13647   3.591   1.138   9.993 -0.2596 -2.2162 -0.7703
  929MPD2    H113648   3.953   1.373   9.977 -0.5772 -0.2587 -1.8154
  929MPD2    H213649   3.854   1.153  10.315 -0.6002 -1.8613 -0.7099
  929MPD2    H313650   4.003   1.297  10.195 -0.4434 -0.3988 -1.4281
  929MPD2     N13651   3.736   1.305   9.827  0.5241  0.3564  0.5131
  929MPD2    H513652   3.805   1.369   9.788 -1.1504  1.7041 -0.2350
  929MPD2    N113653   3.640   1.038  10.234 -0.4613 -0.0004 -0.3035
  929MPD2    H713654   3.681   0.990  10.314  2.6070  1.0980 -1.2076
  930MPD2     C13655   1.035   3.073  13.666 -0.2831 -0.3354 -0.1221
  930MPD2    C113656   1.061   3.190  13.604  0.4175  0.7212  0.7456
  930MPD2    C213657   1.080   3.181  13.462 -0.2972  0.2567 -0.1081
  930MPD2    C313658   1.087   3.063  13.389 -0.4243 -0.1789 -0.1914
  930MPD2    C413659   1.065   2.945  13.452  0.8436  0.1761 -0.6117
  930MPD2    C513660   1.041   2.961  13.590 -0.5339 -0.0440  0.1249
  930MPD2     H13661   1.099   3.274  13.409 -0.6441 -0.0997 -0.8427
  930MPD2    H113662   1.057   2.848  13.402  0.7312 -1.9271  3.4775
  930MPD2    H213663   0.993   3.058  13.765  1.1322  0.2010  0.5634
  930MPD2    H313664   1.016   2.871  13.645  0.6819 -1.5524 -1.7790
  930MPD2     N13665   1.105   3.065  13.250 -0.7756 -0.0275 -0.3075
  930MPD2    H513666   1.127   2.983  13.194  0.9687  0.6262 -0.6031
  930MPD2    N113667   1.050   3.315  13.671 -0.1635 -0.1685 -0.4478
  930MPD2    H713668   1.058   3.388  13.601 -0.4142  0.1065 -0.1848
  931MPD2     C13669   0.455   2.424   0.608  0.2425 -0.0594 -0.0643
  931MPD2    C113670   0.563   2.429   0.514  0.6075  0.3702  0.1159
  931MPD2    C213671   0.664   2.330   0.532  0.0811  1.2380  0.5390
  931MPD2    C313672   0.659   2.240   0.636 -0.0322 -0.1906  0.1939
  931MPD2    C413673   0.551   2.243   0.724 -0.1540 -0.0286 -0.2582
  931MPD2    C513674   0.451   2.332   0.712 -0.0080 -0.2150  0.3284
  931MPD2     H13675   0.754   2.331   0.471 -1.3259 -0.5033 -1.5828
  931MPD2    H113676   0.541   2.176   0.809 -0.7938 -0.7648 -0.9132
  931MPD2    H213677   0.376   2.498   0.609  0.6277  0.3665 -0.8121
  931MPD2    H313678   0.374   2.335   0.788  1.2430 -2.5848  1.6801
  931MPD2     N13679   0.754   2.139   0.660  0.2077 -0.2151 -0.2623
  931MPD2    H513680   0.733   2.072   0.734 -0.8652  2.2988  1.6875
  931MPD2    N113681   0.553   2.514   0.401  0.0901  0.5572 -0.3099
  931MPD2    H713682   0.469   2.571   0.403 -0.2485  0.0568 -0.2073
  932MPD2     C13683   2.599   1.629  10.604 -0.4760 -1.3236 -0.3362
  932MPD2    C113684   2.677   1.624  10.714  0.5246 -0.1294 -0.1884
  932MPD2    C213685   2.739   1.506  10.750 -0.4207 -0.0972  0.0967
  932MPD2    C313686   2.719   1.388  10.673  0.1758  0.3351  0.3022
  932MPD2    C413687   2.630   1.395  10.568 -0.7380  0.2864  0.7963
  932MPD2    C513688   2.571   1.512  10.534 -0.4639  0.6174  1.1675
  932MPD2     H13689   2.807   1.497  10.834 -0.3764  0.9085  0.1595
  932MPD2    H113690   2.607   1.304  10.514 -0.1644  0.4867  0.2081
  932MPD2    H213691   2.552   1.716  10.561  2.2603 -0.4143 -1.4491
  932MPD2    H313692   2.516   1.507  10.440  0.7141 -2.0748  0.6147
  932MPD2     N13693   2.776   1.262  10.705  0.2213 -0.9581 -0.2567
  932MPD2    H513694   2.769   1.190  10.633 -0.3188 -1.9871  0.8202
  932MPD2    N113695   2.675   1.737  10.798 -0.5544  0.3309 -0.5900
  932MPD2    H713696   2.625   1.820  10.769 -0.9270  0.0802 -0.6666
  933MPD2     C13697   2.501   1.300  17.644  0.6560 -0.4789  0.4196
  933MPD2    C113698   2.539   1.395  17.736 -0.7185 -0.0096  0.3204
  933MPD2    C213699   2.530   1.532  17.708  0.0081  0.5584 -0.5537
  933MPD2    C313700   2.482   1.564  17.585  0.2135  0.5761 -0.0447
  933MPD2    C413701   2.451   1.470  17.491  0.6428  0.7725  0.3428
  933MPD2    C513702   2.467   1.338  17.515  0.0135 -0.0048 -0.3718
  933MPD2     H13703   2.569   1.611   0.024 -1.2439  1.0447 -0.3984
  933MPD2    H113704   2.430   1.484  17.385 -2.4599  2.1043  1.1236
  933MPD2    H213705   2.521   1.196  17.667  1.7013 -0.3917 -0.0996
  933MPD2    H313706   2.454   1.269  17.432  1.1309  0.5760 -1.0161
  933MPD2     N13707   2.466   1.702  17.552 -0.9134  0.2870 -0.1031
  933MPD2    H513708   2.485   1.771  17.624 -0.9906 -0.4205  0.5902
  933MPD2    N113709   2.593   1.350   0.115  0.2217 -0.6407 -0.6547
  933MPD2    H713710   2.605   1.253   0.142 -2.6927 -0.0681  2.7964
  934MPD2     C13711   3.955   3.737   1.796 -0.6308 -0.0535  0.0593
  934MPD2    C113712   4.027   3.641   1.732  0.1565  0.0576 -0.2175
  934MPD2    C213713   3.965   3.535   1.673  0.0219  0.2631 -0.6603
  934MPD2    C313714   3.830   3.528   1.663 -0.1628  0.2498 -0.6040
  934MPD2    C413715   3.755   3.624   1.727 -0.5077 -0.4895  0.1577
  934MPD2    C513716   3.818   3.722   1.799 -0.4455 -0.3584 -0.8265
  934MPD2     H13717   4.022   3.462   1.618 -0.6616  0.2039 -1.2803
  934MPD2    H113718   3.647   3.617   1.731 -0.3576 -1.8612  2.0418
  934MPD2    H213719   3.986   3.822   1.855 -0.5143 -0.2144  0.2292
  934MPD2    H313720   3.749   3.778   1.861 -0.0714  0.5458 -1.2345
  934MPD2     N13721   3.767   3.428   1.579 -0.1930  0.0215 -0.4531
  934MPD2    H513722   3.667   3.441   1.562 -0.3422 -1.8927 -1.0449
  934MPD2    N113723   4.172   3.643   1.720 -0.0978  0.2592 -0.1181
  934MPD2    H713724   4.206   3.587   1.643  0.7761  0.1416  0.3532
  935MPD2     C13725   4.333   2.876   1.146 -0.1885 -0.2895  0.1184
  935MPD2    C113726   4.228   2.849   1.057 -0.0933 -1.0412 -0.0715
  935MPD2    C213727   4.106   2.913   1.083  0.0171  0.3388  0.2079
  935MPD2    C313728   4.102   3.011   1.175  0.8904  1.1844 -0.3975
  935MPD2    C413729   4.209   3.034   1.260  0.1307 -0.5628  0.0331
  935MPD2    C513730   4.319   2.959   1.249  0.0528 -0.2627  0.6036
  935MPD2     H13731   4.019   2.884   1.025 -0.5505 -2.5564  2.5158
  935MPD2    H113732   4.208   3.114   1.333 -0.2172 -0.5572  0.0210
  935MPD2    H213733   4.436   2.843   1.140  0.3188  1.2083  0.5052
  935MPD2    H313734   4.396   2.996   1.316 -1.0496  0.0337  1.7118
  935MPD2     N13735   3.982   3.073   1.208 -0.3157 -0.0567 -0.2538
  935MPD2    H513736   3.981   3.125   1.295 -0.1543 -0.0647 -0.2476
  935MPD2    N113737   4.232   2.749   0.961 -0.6985 -0.8829 -0.9044
  935MPD2    H713738   4.144   2.724   0.918 -1.9157 -1.4756  1.9263
  936MPD2     C13739   3.156   4.731  12.148 -0.1390  0.2880  0.7480
  936MPD2    C113740   3.251   4.700  12.244 -0.4265 -0.2414  0.2407
  936MPD2    C213741   3.379   0.018  12.236 -0.7928  0.1056 -0.1375
  936MPD2    C313742   3.420   0.089  12.127 -0.5970 -0.4632  0.3783
  936MPD2    C413743   3.330   0.103  12.023 -0.3840 -0.7866 -0.0490
  936MPD2    C513744   3.196   0.072  12.046 -0.3735 -0.1726  0.0398
  936MPD2     H13745   3.447   0.008  12.320 -3.8937  1.1313  2.4842
  936MPD2    H113746   3.368   0.135  11.927 -1.4623  1.8161  0.3900
  936MPD2    H213747   3.054   4.696  12.147 -0.8362  2.3700 -0.7855
  936MPD2    H313748   3.123   0.100  11.971 -0.2843  0.2491  0.1111
  936MPD2     N13749   3.549   0.138  12.136  0.0392  0.2516 -0.3402
  936MPD2    H513750   3.593   0.108  12.223  1.4134  0.3111 -1.0074
  936MPD2    N113751   3.228   4.625  12.364  0.3266 -0.1401  0.1553
  936MPD2    H713752   3.303   4.608  12.430  1.1881 -1.9645 -1.2701
  937MPD2     C13753   0.907   1.560  11.760 -0.1610  0.2788 -0.0169
  937MPD2    C113754   0.857   1.688  11.769 -1.0717  0.4667 -0.1255
  937MPD2    C213755   0.918   1.786  11.704  0.6925 -0.4428  0.3917
  937MPD2    C313756   1.005   1.767  11.603 -0.2893 -0.3700  0.2372
  937MPD2    C413757   1.040   1.637  11.584  0.0892  0.3856  0.3191
  937MPD2    C513758   1.001   1.535  11.666  0.3691 -0.5269  0.5319
  937MPD2     H13759   0.886   1.888  11.723 -1.2819 -0.8369 -0.8206
  937MPD2    H113760   1.103   1.619  11.497 -0.6487  1.9259 -0.5331
  937MPD2    H213761   0.872   1.480  11.825 -2.2597  0.6337 -0.6934
  937MPD2    H313762   1.036   1.436  11.643 -0.6853 -0.7557 -0.1025
  937MPD2     N13763   1.072   1.873  11.534  0.4481 -0.0457 -0.0168
  937MPD2    H513764   1.034   1.967  11.545 -2.3029 -1.0213 -1.3039
  937MPD2    N113765   0.772   1.728  11.876  0.6325 -0.0780  0.0803
  937MPD2    H713766   0.727   1.817  11.860 -0.2871 -0.8771 -1.6599
  938MPD2     C13767   3.571   2.917   0.147 -0.1278  0.1371 -0.4599
  938MPD2    C113768   3.562   2.970   0.275 -0.0593 -0.1690 -0.7221
  938MPD2    C213769   3.508   2.885   0.372  0.0758  0.3120 -0.0172
  938MPD2    C313770   3.459   2.759   0.343  0.5615 -0.3024  0.4084
  938MPD2    C413771   3.465   2.714   0.217 -0.3155 -0.5234 -0.2329
  938MPD2    C513772   3.513   2.794   0.118 -0.1652 -0.0150  0.1413
  938MPD2     H13773   3.520   2.923   0.472 -2.1035 -0.6477  0.6049
  938MPD2    H113774   3.423   2.616   0.199  0.7219 -0.9458 -0.3611
  938MPD2    H213775   3.614   2.977   0.067  1.5715 -0.9032 -0.3200
  938MPD2    H313776   3.513   2.757   0.016 -2.7192 -2.0033  0.8705
  938MPD2     N13777   3.411   2.667   0.441  0.1282  0.3964 -0.0394
  938MPD2    H513778   3.385   2.576   0.405 -1.5037  1.3608 -1.3260
  938MPD2    N113779   3.607   3.101   0.310  0.8021 -0.2687 -0.2588
  938MPD2    H713780   3.610   3.128   0.407 -3.8742  0.7285 -0.4194
  939MPD2     C13781   4.425   3.847   0.813  0.0964  0.3993  0.1870
  939MPD2    C113782   4.341   3.932   0.741  0.2985  0.1851 -0.3725
  939MPD2    C213783   4.326   3.918   0.605  0.2421  0.6040 -0.0282
  939MPD2    C313784   4.403   3.827   0.540 -0.1695  0.9691  0.3312
  939MPD2    C413785   4.485   3.742   0.607  0.5613 -0.2618  0.0765
  939MPD2    C513786   4.492   3.750   0.742  0.4644  0.4250  0.3854
  939MPD2     H13787   4.259   3.982   0.549  1.1608  0.6414 -1.0822
  939MPD2    H113788   4.533   3.662   0.552 -0.9242 -1.9768  1.2676
  939MPD2    H213789   4.444   3.857   0.919 -0.8612  0.1458  0.3886
  939MPD2    H313790   4.561   3.680   0.789 -0.5190  0.1973  1.4946
  939MPD2     N13791   4.380   3.825   0.401  0.2270 -0.1594 -0.1838
  939MPD2    H513792   4.326   3.904   0.368 -0.1131 -0.6351 -0.7495
  939MPD2    N113793   4.280   4.025   0.822  0.7401  0.3023  0.1857
  939MPD2    H713794   4.293   4.015   0.922  0.1309 -0.7756  0.1508
  940MPD2     C13795   4.005   4.513  13.368  0.4058 -1.1419  0.0049
  940MPD2    C113796   3.871   4.495  13.338 -0.5167 -1.0029 -0.4310
  940MPD2    C213797   3.830   4.504  13.207  0.9854 -0.0717 -0.2178
  940MPD2    C313798   3.915   4.551  13.113 -0.1548 -1.0885  0.2980
  940MPD2    C413799   4.050   4.563  13.135 -0.4731 -0.4263  0.0669
  940MPD2    C513800   4.094   4.544  13.267  0.4373  0.6341 -0.4627
  940MPD2     H13801   3.723   4.501  13.187  0.4337 -0.2839  2.7235
  940MPD2    H113802   4.115   4.601  13.057  2.3726  0.0494  2.6484
  940MPD2    H213803   4.051   4.510  13.466  1.7906 -0.4537 -0.6206
  940MPD2    H313804   4.201   4.555  13.281  0.4643  0.9974 -0.9386
  940MPD2     N13805   3.873   4.546  12.981 -0.2905 -0.3166  0.5011
  940MPD2    H513806   3.935   4.568  12.903 -0.4133  1.7745  1.0074
  940MPD2    N113807   3.769   4.470  13.439 -0.5427 -0.0802  0.0066
  940MPD2    H713808   3.676   4.457  13.402 -0.5193  0.6428 -0.2933
  941MPD2     C13809   2.241   4.414   9.661 -0.2490 -0.2025 -0.2591
  941MPD2    C113810   2.377   4.401   9.692  0.0069 -0.0538  0.3047
  941MPD2    C213811   2.419   4.292   9.758  0.5879 -1.1186  0.2019
  941MPD2    C313812   2.321   4.204   9.810  0.1679  0.6661 -0.5502
  941MPD2    C413813   2.191   4.216   9.773 -0.0395  1.1545  1.0754
  941MPD2    C513814   2.148   4.321   9.697 -0.4721  1.0797 -0.0986
  941MPD2     H13815   2.525   4.276   9.774  1.5852  3.5545 -1.6701
  941MPD2    H113816   2.120   4.145   9.814  0.3959 -0.8660 -1.6776
  941MPD2    H213817   2.202   4.503   9.613 -0.7851  0.5789  1.6478
  941MPD2    H313818   2.046   4.337   9.665 -0.0770  0.9628 -1.4199
  941MPD2     N13819   2.349   4.097   9.892  0.2775 -0.3531  0.4694
  941MPD2    H513820   2.276   4.026   9.893 -0.4143  0.3686  0.4372
  941MPD2    N113821   2.460   4.498   9.624  0.3548 -0.2445 -0.2631
  941MPD2    H713822   2.418   4.575   9.572  2.1122  3.0650  3.1799
  942MPD2     C13823   1.901   1.544   9.496 -0.2763 -0.2183 -0.9947
  942MPD2    C113824   1.952   1.611   9.606  0.5713 -0.4701  0.4507
  942MPD2    C213825   2.052   1.551   9.674 -0.1141 -0.0817 -0.1993
  942MPD2    C313826   2.125   1.439   9.626  0.2472 -0.3560 -0.0397
  942MPD2    C413827   2.075   1.380   9.512  0.0515  0.3115  0.0320
  942MPD2    C513828   1.962   1.429   9.452  0.4646 -0.3368 -0.0859
  942MPD2     H13829   2.072   1.602   9.768 -1.2636  2.7605 -1.4895
  942MPD2    H113830   2.122   1.293   9.468 -1.2768 -1.3983  1.9845
  942MPD2    H213831   1.809   1.569   9.445 -0.6585 -0.2507 -0.3161
  942MPD2    H313832   1.922   1.369   9.371 -0.5108  0.1269  0.0562
  942MPD2     N13833   2.225   1.372   9.697 -0.2564  0.6313 -0.6280
  942MPD2    H513834   2.264   1.292   9.648 -2.4374 -0.8271 -0.0174
  942MPD2    N113835   1.893   1.734   9.648  0.0270  0.0989  0.3196
  942MPD2    H713836   1.908   1.772   9.741 -1.4675  3.9781 -1.0064
  943MPD2     C13837   1.152   3.376  10.022 -0.4230 -0.0314 -0.0351
  943MPD2    C113838   1.274   3.341   9.973 -0.1748  0.3261 -0.0292
  943MPD2    C213839   1.373   3.436   9.960  0.2978 -0.5943  0.6360
  943MPD2    C313840   1.353   3.566  10.000  0.1936  0.0802  0.1779
  943MPD2    C413841   1.227   3.602  10.051  0.6912  0.1747  0.0928
  943MPD2    C513842   1.132   3.504  10.067 -0.5644 -0.0665 -0.8762
  943MPD2     H13843   1.468   3.409   9.914  0.3200 -2.6705  1.9118
  943MPD2    H113844   1.209   3.703  10.088 -1.9556 -1.1121  2.2215
  943MPD2    H213845   1.072   3.303  10.021  1.1060 -1.6794 -0.5169
  943MPD2    H313846   1.034   3.523  10.109  0.3716  1.9421  0.3815
  943MPD2     N13847   1.450   3.670   9.976  0.4133  0.4046 -0.2532
  943MPD2    H513848   1.425   3.766   9.999  0.0167  0.3590 -0.4947
  943MPD2    N113849   1.291   3.202   9.936  0.1727 -0.0381 -0.2366
  943MPD2    H713850   1.210   3.144   9.952 -0.5313  0.0068 -3.6542
  944MPD2     C13851   1.445   3.259  11.051  0.3224 -0.0233 -1.2216
  944MPD2    C113852   1.322   3.264  11.125  1.0656 -0.4049  0.1622
  944MPD2    C213853   1.285   3.386  11.186 -0.3271  0.7642 -0.1821
  944MPD2    C313854   1.360   3.505  11.173 -0.2498  0.3351  0.2989
  944MPD2    C413855   1.472   3.492  11.082  0.5442 -0.2232  0.4834
  944MPD2    C513856   1.520   3.369  11.037  0.9251  0.2180  0.5302
  944MPD2     H13857   1.192   3.392  11.240  0.4416  2.9643  0.8872
  944MPD2    H113858   1.526   3.585  11.064  0.7368 -0.6335 -0.9894
  944MPD2    H213859   1.485   3.174  10.996  0.8914 -1.3605  1.2573
  944MPD2    H313860   1.610   3.364  10.977  1.3640 -1.1093  1.3157
  944MPD2     N13861   1.297   3.616  11.228  0.5400 -0.1963 -0.5089
  944MPD2    H513862   1.212   3.596  11.281  0.9526  1.2924  0.7407
  944MPD2    N113863   1.257   3.143  11.129 -0.0878 -0.0828  0.1354
  944MPD2    H713864   1.308   3.064  11.091  0.9258  1.0260 -0.8160
    1TMC1    C113865   0.282   3.861  14.273 -0.5990 -0.0677 -0.5405
    1TMC1    C213866   0.178   3.775  14.303 -0.0559  0.2027 -0.1497
    1TMC1    C313867   0.146   3.687  14.203  0.6383 -0.2613 -0.3085
    1TMC1    C413868   0.348   3.866  14.152 -0.5282  0.0795 -0.2955
    1TMC1    C513869   0.306   3.769  14.063 -0.1546 -0.4628 -0.7273
    1TMC1    C613870   0.210   3.675  14.081 -0.9574 -0.4567  0.1358
    1TMC1     C13871   0.310   3.962  14.367  0.0896 -0.9451  0.1199
    1TMC1     O13872   0.429   3.984  14.377 -0.2116  0.1672 -0.7696
    1TMC1     H13873   0.135   3.761  14.402 -0.8805 -0.8958 -0.6685
    1TMC1    H113874   0.420   3.945  14.133 -1.2300  0.5848 -0.8634
    1TMC1    H213875   0.165   3.611  14.005  1.5746 -1.0687 -0.8503
    1TMC1    C713876   0.347   3.781  13.925 -0.1790 -0.2822  0.0299
    1TMC1    C813877   0.070   3.574  14.242  0.1395  0.3952  0.0294
    1TMC1    O113878   0.348   3.683  13.854  0.4999  0.2181  0.0528
    1TMC1    O213879   4.717   3.600  14.321  0.1340  0.2024 -0.2553
    1TMC1    O313880   0.394   3.897  13.889 -0.4879 -0.0179 -0.3870
    1TMC1    H313881   0.394   3.972  13.952  0.1064 -0.5714  0.2723
    1TMC1    O513882   0.159   3.479  14.261 -0.5106 -0.4266 -0.1464
    1TMC1    H513883   0.240   3.489  14.207 -1.5144 -0.8599 -1.7606
    2MPD2     C13884   0.186   4.353  14.665 -0.0990 -0.9008 -0.0716
    2MPD2    C113885   0.072   4.309  14.598 -0.2427  0.3389  0.0110
    2MPD2    C213886   0.082   4.194  14.517 -0.1043  0.2544  0.5840
    2MPD2    C313887   0.206   4.130  14.504 -0.0878  0.4998 -0.4038
    2MPD2    C413888   0.318   4.175  14.573  0.6502  0.6351  0.0570
    2MPD2    C513889   0.300   4.282  14.663  0.0241 -0.2461  0.7539
    2MPD2     H13890   4.728   4.150  14.477  1.0722 -0.3599 -1.4346
    2MPD2    H113891   0.409   4.118  14.558  1.6797  2.3014 -0.0378
    2MPD2    H213892   0.176   4.438  14.731  1.6453  2.1649 -3.7964
    2MPD2    H313893   0.382   4.321  14.721 -0.3932  0.2449  1.0105
    2MPD2     N13894   0.202   4.015  14.424  0.0109 -0.0316  0.5100
    2MPD2    H513895   0.111   3.984  14.390  2.2762 -2.4081 -3.3482
    2MPD2    N113896   4.687   4.375  14.626  0.9083  0.0149 -0.1536
    2MPD2    H713897   4.683   4.423  14.715  0.3167 -0.5966  0.1534
    3TMC2    C113898   4.452   4.383  14.643  0.3291  0.1992 -0.3025
    3TMC2    C213899   4.455   4.399  14.778  1.0219  0.2317  0.4092
    3TMC2    C313900   4.342   4.408  14.845  0.0499  0.2648 -0.4234
    3TMC2    C413901   4.338   4.395  14.568 -0.1084  0.0967  0.3663
    3TMC2    C513902   4.227   4.419  14.645 -0.4259  0.0169  0.0963
    3TMC2    C613903   4.226   4.425  14.779 -0.0512 -0.2445  0.0763
    3TMC2     C13904   4.566   4.336  14.566 -0.3148 -0.0976  0.2298
    3TMC2     O13905   4.550   4.295  14.454 -0.3235  0.0207 -0.1607
    3TMC2     H13906   4.543   4.371  14.836  0.3821  0.0173  1.2890
    3TMC2    H113907   4.341   4.368  14.463 -1.0671 -1.2192  0.6641
    3TMC2    H213908   4.137   4.463  14.827  0.7913 -0.0467  1.4888
    3TMC2    C713909   4.104   4.465  14.582  0.2194  0.0977  0.1342
    3TMC2    C813910   4.355   4.419  14.988 -0.3914 -0.1053 -1.0056
    3TMC2    O113911   3.993   4.441  14.633  0.4335 -0.2272  0.3853
    3TMC2    O213912   4.451   4.478  15.039  0.0854  0.0737 -0.3963
    3TMC2    O513913   4.240   4.386  15.049  0.3747  0.5288 -0.1392
    3TMC2    H513914   4.194   4.326  14.987  2.0123  0.2278 -1.0645
    4TMC2    C113915   4.073   0.296  13.763 -0.7984  0.1701 -0.1786
    4TMC2    C213916   4.149   0.407  13.727 -0.0311  0.1741  0.7649
    4TMC2    C313917   4.271   0.412  13.801 -0.0569 -0.3121 -1.9662
    4TMC2    C413918   4.091   0.242  13.886 -0.6295  0.1397 -0.3452
    4TMC2    C513919   4.194   0.261  13.968 -0.3531 -0.4031  0.1430
    4TMC2    C613920   4.299   0.344  13.921 -0.6728 -0.4527  0.2277
    4TMC2     C13921   3.929   0.313  13.737 -0.3883 -0.9502  1.0136
    4TMC2     O13922   3.849   0.266  13.820 -0.7143  0.5560 -0.5598
    4TMC2     H13923   4.130   0.481  13.651 -0.2691 -1.9346 -1.2525
    4TMC2    H113924   4.021   0.168  13.922  0.1263 -0.3488  0.1025
    4TMC2    H213925   4.393   0.339  13.974 -1.5844 -1.1321  1.7564
    4TMC2    C713926   4.190   0.196  14.104 -0.0171 -0.1838 -0.0985
    4TMC2    C813927   4.386   0.490  13.753 -0.7233 -0.0538 -0.0668
    4TMC2    O113928   4.297   0.188  14.163  0.3557 -0.0176 -0.4151
    4TMC2    O213929   4.375   0.525  13.636 -0.6287  0.4159  0.0488
    4TMC2    O513930   4.399   0.582  13.851  0.0144 -0.1108 -0.1180
    4TMC2    H513931   4.408   0.553  13.944 -0.6195  4.0719  1.2451
    5MPD2     C13932   3.540   0.380  13.408  0.3478 -0.5327 -0.5404
    5MPD2    C113933   3.654   0.402  13.347 -0.0491  1.1539  0.4669
    5MPD2    C213934   3.777   0.396  13.413 -0.5817 -0.9186  0.3332
    5MPD2    C313935   3.782   0.358  13.547  0.0249 -0.6189  0.8745
    5MPD2    C413936   3.665   0.342  13.617 -0.2466  0.0544  0.0050
    5MPD2    C513937   3.551   0.338  13.539 -0.3622 -0.0208  0.5148
    5MPD2     H13938   3.865   0.420  13.354  0.9486 -1.6664  2.3183
    5MPD2    H113939   3.667   0.317  13.723 -0.8154  0.1421  0.0381
    5MPD2    H213940   3.444   0.402  13.364  0.3913  0.7917  0.0284
    5MPD2    H313941   3.460   0.316  13.593  1.0131 -2.7445  1.7384
    5MPD2     N13942   3.909   0.355  13.606 -0.1603  0.0709  0.2665
    5MPD2    H513943   3.986   0.376  13.542  0.3636  0.5788  1.0634
    5MPD2    N113944   3.638   0.451  13.215  0.6949  0.5259 -0.2309
    5MPD2    H713945   3.544   0.454  13.176  0.7695 -3.2670 -0.6638
    6MPD1     C13946   2.785   1.750  12.016  0.5698 -0.2727 -0.4425
    6MPD1    C113947   2.884   1.682  11.944  0.5356 -0.3193  0.1711
    6MPD1    C213948   2.971   1.606  12.017 -0.3380 -0.2126  0.1220
    6MPD1    C313949   2.962   1.585  12.151 -0.0081 -0.3138 -0.5446
    6MPD1    C413950   2.854   1.638  12.218 -0.3434  0.6657  0.2042
    6MPD1    C513951   2.772   1.727  12.152 -0.1754  0.0545 -1.1312
    6MPD1     H13952   3.058   1.560  11.972  1.3474  2.3749  0.7645
    6MPD1    H113953   2.834   1.637  12.324 -0.2237  0.2944  0.2254
    6MPD1    H213954   2.721   1.816  11.959  0.8636 -0.0487 -0.5155
    6MPD1    H313955   2.682   1.771  12.193 -2.2670 -1.9677 -3.5528
    6MPD1     N13956   3.044   1.497  12.222 -0.2627 -0.0875  0.1605
    6MPD1    H513957   3.028   1.486  12.321  0.3603 -0.5832  0.2133
    6MPD1    N113958   2.909   1.697  11.801 -0.7146 -0.8350 -1.0113
    6MPD1    H613959   2.826   1.711  11.745 -2.9834 -1.3592  2.2355
    6MPD1    H713960   2.966   1.623  11.760 -1.0038 -1.3292 -0.5298
    7MPD2     C13961   3.075   1.084  12.865 -0.1412 -0.3020  0.0508
    7MPD2    C113962   3.185   1.057  12.781 -0.4321 -0.0763 -0.4972
    7MPD2    C213963   3.277   0.955  12.808  0.4509  0.3961  0.7901
    7MPD2    C313964   3.251   0.864  12.909 -0.1866  0.6463  0.6097
    7MPD2    C413965   3.142   0.892  12.988 -0.2745  0.3973  0.1883
    7MPD2    C513966   3.055   0.996  12.967  0.0569  0.1895  0.3228
    7MPD2     H13967   3.363   0.949  12.743 -0.6383  1.8291 -0.7943
    7MPD2    H113968   3.127   0.829  13.074  1.9751 -3.8241 -2.5086
    7MPD2    H213969   3.003   1.164  12.855  0.1073 -0.1247 -0.3343
    7MPD2    H313970   2.972   1.017  13.034  0.9678  1.3486  1.0694
    7MPD2     N13971   3.322   0.744  12.937  0.2115 -0.2764 -0.0272
    7MPD2    H513972   3.305   0.704  13.029 -1.1960 -1.5211 -0.8370
    7MPD2    N113973   3.224   1.144  12.673 -0.4977 -0.1257  0.6051
    7MPD2    H713974   3.307   1.113  12.623 -0.2139  0.5962  0.6317
    8TMC3    C113975   3.478   0.575  12.885  0.2384  0.0805 -0.3137
    8TMC3    C213976   3.545   0.574  13.003  0.2005  0.2237 -0.1859
    8TMC3    C313977   3.675   0.535  13.003  0.2647 -0.2465  0.2074
    8TMC3    C413978   3.540   0.524  12.772  0.6651  0.5997 -0.7672
    8TMC3    C513979   3.681   0.516  12.763 -0.8436  0.4513 -0.0458
    8TMC3    C613980   3.741   0.510  12.884 -0.2921  0.0138 -0.1912
    8TMC3     C13981   3.412   0.699  12.851  0.3023 -0.0239  0.0578
    8TMC3     O13982   3.437   0.743  12.742 -0.0991  0.0868 -0.7988
    8TMC3     H13983   3.504   0.615  13.094 -0.1831 -0.3149 -0.1180
    8TMC3    H113984   3.483   0.531  12.680  0.4474  0.2778 -0.6591
    8TMC3    H213985   3.843   0.473  12.889 -0.1513  0.2056 -1.6888
    8TMC3    C713986   3.748   0.582  12.657 -0.1986  0.1540 -0.1436
    8TMC3    C813987   3.736   0.473  13.117  0.0893 -0.1847 -0.4774
    8TMC3    O113988   3.856   0.547  12.617  0.3725 -0.5179  0.0281
    8TMC3    O213989   3.857   0.439  13.113  0.3258  0.0694 -0.2801
    9TMC3    C113990   3.213   1.366  12.287 -0.6593  0.4840  0.6320
    9TMC3    C213991   3.342   1.324  12.270  0.7705  0.3495 -0.8777
    9TMC3    C313992   3.408   1.271  12.372 -0.6301  0.0171  0.3715
    9TMC3    C413993   3.151   1.353  12.409 -0.6437  0.7052  0.5428
    9TMC3    C513994   3.230   1.302  12.511  0.3535 -0.2294  0.1044
    9TMC3    C613995   3.360   1.257  12.496 -0.0261  0.7699 -0.5250
    9TMC3     C13996   3.144   1.429  12.176 -0.8411  0.0062 -0.0569
    9TMC3     O13997   3.197   1.412  12.064  0.3993 -0.1722  0.0375
    9TMC3     H13998   3.390   1.334  12.174  0.6345  0.0181 -0.9775
    9TMC3    H113999   3.048   1.370  12.435 -1.2699  0.0625 -1.5372
    9TMC3    H214000   3.421   1.217  12.576  0.2550  0.7725 -0.7406
    9TMC3    C714001   3.157   1.253  12.628  0.2578 -0.1511 -0.8656
    9TMC3    C814002   3.529   1.191  12.341 -0.0354  0.0184  0.5533
    9TMC3    O114003   3.044   1.284  12.657  0.4864 -0.2775  0.1780
    9TMC3    O214004   3.604   1.227  12.251  0.0237  0.6741  0.1420
   10MPD2     C14005   3.842   0.803  12.460  0.2184  0.5270  0.4693
   10MPD2    C114006   3.725   0.795  12.533 -0.0305 -0.3011  0.7543
   10MPD2    C214007   3.625   0.892  12.517  0.7570 -0.1415 -0.0646
   10MPD2    C314008   3.644   0.999  12.434  0.2220 -0.0049  0.6264
   10MPD2    C414009   3.765   1.011  12.367 -0.5659  0.3997  0.2462
   10MPD2    C514010   3.858   0.916  12.380  0.0727 -0.1409  1.2040
   10MPD2     H14011   3.531   0.874  12.568 -0.2394  0.5937 -1.6332
   10MPD2    H114012   3.776   1.088  12.292  0.0888 -0.3011 -0.3875
   10MPD2    H214013   3.929   0.740  12.475 -0.0511 -0.1648 -0.8508
   10MPD2    H314014   3.947   0.932  12.319  0.7381  1.1521  2.5108
   10MPD2     N14015   3.539   1.086  12.424 -0.1593 -0.3336  0.0492
   10MPD2    H514016   3.458   1.055  12.477 -1.4182  1.0458 -1.0581
   10MPD2    N114017   3.682   0.695  12.623 -0.6312 -0.4136  0.4742
   10MPD2    H714018   3.584   0.698  12.647 -1.5174 -3.2515 -2.7817
   11MPD2     C14019   3.930   4.617  14.410  0.0012 -0.2363 -0.4655
   11MPD2    C114020   4.067   4.635  14.409 -0.1465 -0.9249 -0.0263
   11MPD2    C214021   4.120   0.002  14.330 -0.4837  1.0205 -0.0311
   11MPD2    C314022   4.033   0.068  14.248  0.1761 -0.6302  0.0390
   11MPD2    C414023   3.903   0.031  14.240 -0.6559 -1.1672  0.4791
   11MPD2    C514024   3.848   4.675  14.322  0.3526  0.0280  0.4702
   11MPD2     H14025   4.222   0.036  14.339  0.3709 -1.4602 -0.1429
   11MPD2    H114026   3.838   0.061  14.159 -0.2845 -0.4437  0.4488
   11MPD2    H214027   3.884   4.533  14.462 -2.7741 -0.0552 -2.6178
   11MPD2    H314028   3.747   4.644  14.300  0.9300 -0.1074 -1.9736
   11MPD2     N14029   4.062   0.171  14.148 -0.5401 -0.0129  0.3922
   11MPD2    H514030   3.981   0.205  14.098 -1.1315  0.4582  1.6815
   11MPD2    N114031   4.150   4.553  14.481  0.0176 -0.2161  0.0702
   11MPD2    H714032   4.250   4.559  14.461  0.0600 -1.4828 -0.1220
    1MPD1     C14033   2.351   1.938  16.063  0.5773 -0.7173  0.2567
    1MPD1    C114034   2.264   1.849  16.011 -0.3786  0.7681 -0.0192
    1MPD1    C214035   2.151   1.805  16.087  0.2367  0.3077  0.3445
    1MPD1    C314036   2.111   1.880  16.194  0.5481 -0.2530  0.7048
    1MPD1    C414037   2.192   1.984  16.232  0.4009 -0.5261 -0.1549
    1MPD1    C514038   2.315   1.998  16.178 -0.2969 -0.0985  0.3788
    1MPD1     H14039   2.108   1.710  16.057  1.0368 -0.3793  1.3429
    1MPD1    H114040   2.162   2.021  16.330  0.4274 -1.9500  0.3929
    1MPD1    H214041   2.454   1.951  16.030 -0.0482  0.6323 -1.1740
    1MPD1    H314042   2.383   2.068  16.224 -1.5958  0.7217  1.0510
    1MPD1     N14043   2.001   1.852  16.279 -0.0336  0.4631  0.2443
    1MPD1    H514044   1.994   1.921  16.353 -1.0733 -0.7819  1.2923
    1MPD1    N114045   2.292   1.789  15.892  0.1021  0.6102 -0.3219
    1MPD1    H614046   2.204   1.763  15.847  0.2449  0.5832 -0.5861
    1MPD1    H714047   2.354   1.846  15.835 -2.0425  1.8051 -1.4679
    2MPD1     C14048   1.320   1.119  16.249  0.1818 -0.1162  0.8392
    2MPD1    C114049   1.460   1.115  16.225 -0.0842  0.0254  0.0835
    2MPD1    C214050   1.532   1.220  16.295 -0.1923  0.2115  0.0215
    2MPD1    C314051   1.476   1.324  16.355 -0.2166 -0.3864  0.3745
    2MPD1    C414052   1.341   1.320  16.381 -0.7468  0.2623 -0.0082
    2MPD1    C514053   1.265   1.219  16.326 -0.0749  0.2656 -0.1280
    2MPD1     H14054   1.639   1.224  16.282 -0.3490  1.6559 -0.8702
    2MPD1    H114055   1.290   1.398  16.438 -2.3128 -0.1072 -0.9019
    2MPD1    H214056   1.247   1.047  16.213  0.7426  0.2978 -1.1519
    2MPD1    H314057   1.157   1.214  16.331 -0.2084  2.2301 -1.1722
    2MPD1     N14058   1.559   1.429  16.396  0.4962 -0.1610  0.5325
    2MPD1    H514059   1.655   1.422  16.363  1.1034 -1.2985  2.5576
    2MPD1    N114060   1.527   1.014  16.156  0.3389 -0.0750 -0.3396
    2MPD1    H614061   1.614   1.056  16.123  1.7690 -1.5682  1.5219
    2MPD1    H714062   1.478   0.988  16.072 -0.9503 -0.6105  0.5799
    3TMC3    C114063   1.621   1.646  16.468 -0.8326 -0.0549 -0.6582
    3TMC3    C214064   1.590   1.761  16.529 -0.0642  0.5287  0.0640
    3TMC3    C314065   1.664   1.872  16.510 -0.4873 -0.2484 -0.2826
    3TMC3    C414066   1.730   1.641  16.379 -0.1071 -0.0581 -0.1197
    3TMC3    C514067   1.804   1.756  16.361  0.4213 -0.1854 -0.0694
    3TMC3    C614068   1.772   1.877  16.433 -0.1599 -0.0984 -0.4271
    3TMC3     C14069   1.517   1.541  16.458  0.5011 -0.2917 -0.8825
    3TMC3     O14070   1.408   1.567  16.508  0.5352 -0.1799 -0.2869
    3TMC3     H14071   1.501   1.755  16.590 -0.6941 -2.9177 -1.1786
    3TMC3    H114072   1.761   1.551  16.328 -0.9904 -0.4369  0.0057
    3TMC3    H214073   1.829   1.968  16.422 -0.3673 -0.3823 -3.7146
    3TMC3    C714074   1.918   1.745  16.272  0.7158  0.3853  0.0217
    3TMC3    C814075   1.641   1.974  16.607 -0.1454 -0.5781  0.2157
    3TMC3    O114076   1.936   1.642  16.209  0.2220 -0.1315 -0.3057
    3TMC3    O214077   1.571   1.956  16.704  0.3701  0.4193 -0.2333
    4MPD1     C14078   1.716   2.440  16.800 -0.3733 -0.2725 -0.7501
    4MPD1    C114079   1.701   2.455  16.664 -0.0097  0.1798 -0.0208
    4MPD1    C214080   1.703   2.342  16.590  0.1348 -0.3038  0.3585
    4MPD1    C314081   1.683   2.216  16.647 -0.0737  0.6952 -0.1870
    4MPD1    C414082   1.697   2.206  16.783 -0.3020  0.1028 -0.0369
    4MPD1    C514083   1.715   2.318  16.859  0.6663  0.5123  0.3301
    4MPD1     H14084   1.711   2.347  16.482 -1.6792 -0.6702  0.2106
    4MPD1    H114085   1.706   2.105  16.819  0.8852 -0.1474 -1.0482
    4MPD1    H214086   1.735   2.521  16.870  0.4508 -0.2668 -0.9856
    4MPD1    H314087   1.744   2.307  16.963 -0.0658  2.2059  0.7150
    4MPD1     N14088   1.683   2.098  16.565  0.3896 -0.0676  0.3896
    4MPD1    H514089   1.710   2.112  16.468 -2.6534  0.9990 -0.2832
    4MPD1    N114090   1.738   2.578  16.599 -0.5137 -0.4029 -0.6932
    4MPD1    H614091   1.703   2.573  16.504  0.3125  1.5584 -1.0983
    4MPD1    H714092   1.710   2.659  16.654 -0.1937 -0.9925  0.3420
    1TCq1    O114093   3.638   0.626  11.117 -0.4389 -0.0318 -0.2277
    1TCq1    C114094   3.687   0.749  11.151  0.2074  0.1852 -0.5359
    1TCq1    O214095   3.742   0.778  11.255  0.0101 -0.8832 -0.5347
    1TCq1    C214096   3.597   0.841  11.090 -0.8645 -0.1543  0.1274
    1TCq1    C314097   3.541   0.797  10.970 -0.2939 -0.2221  0.1435
    1TCq1    C414098   3.435   0.874  10.926  0.3844  0.3097 -0.2835
    1TCq1    C514099   3.380   0.976  11.002  0.0703  0.2556  0.0943
    1TCq1    C614100   3.445   1.017  11.119  0.3090  0.0165  0.3246
    1TCq1    C714101   3.556   0.955  11.162 -0.9283 -0.5921  0.7720
    1TCq1    C814102   3.428   1.152  11.168 -0.0514  0.2590  0.0122
    1TCq1    O414103   3.519   1.210  11.226  0.0787 -0.1473  0.2823
    1TCq1    C914104   3.366   0.831  10.816  0.7510 -0.4608  1.2325
    1TCq1    O514105   3.431   0.765  10.733 -0.3764 -0.1519 -0.1219
    1TCq1    O614106   3.247   0.875  10.804  0.2148 -0.0818  0.2165
    1TCq1    H114107   3.567   0.617  11.050 -0.2566  1.3067 -0.5885
    1TCq1    H214108   3.594   0.734  10.899 -0.6933  0.4212 -0.7307
    1TCq1    H314109   3.283   1.019  10.976  0.1262 -0.9760 -2.1972
    1TCq1    H414110   3.579   0.985  11.263 -3.5545  1.1630  0.8382
    2MPD1     C14111   3.146   1.574  11.195  0.2498 -0.4989  0.0240
    2MPD1    C114112   3.069   1.465  11.150  0.2915  0.4817 -0.2150
    2MPD1    C214113   3.124   1.337  11.152  0.1723  0.0747  0.3799
    2MPD1    C314114   3.254   1.315  11.179  0.1311 -0.1517 -0.6983
    2MPD1    C414115   3.335   1.423  11.211  0.0695 -0.0408  0.1012
    2MPD1    C514116   3.281   1.553  11.210 -0.7520 -0.2014  0.1448
    2MPD1     H14117   3.056   1.254  11.139 -0.0497  0.6019 -1.7420
    2MPD1    H114118   3.436   1.409  11.245 -1.6182 -0.6583  4.7927
    2MPD1    H214119   3.102   1.671  11.214  0.8911 -0.0696 -0.7141
    2MPD1    H314120   3.345   1.630  11.253 -0.2420 -1.8402  2.3700
    2MPD1     N14121   3.301   1.190  11.171  0.0435  0.2450  0.2758
    2MPD1    H514122   3.228   1.124  11.147 -0.8902  1.2612  0.3480
    2MPD1    N114123   2.933   1.479  11.131  0.3417  0.0160 -0.1990
    2MPD1    H614124   2.901   1.412  11.061  0.9916 -1.2015  0.6515
    2MPD1    H714125   2.916   1.575  11.103  0.5109 -0.2399 -1.1811
    1TMC1    C114126   0.375   3.377   0.481 -0.1943 -0.5987  0.2966
    1TMC1    C214127   0.278   3.470   0.507 -0.5262  0.3646 -0.1602
    1TMC1    C314128   0.168   3.434   0.580  0.4590 -0.3064 -0.2085
    1TMC1    C414129   0.363   3.256   0.522 -0.0913 -0.7642 -0.1068
    1TMC1    C514130   0.252   3.217   0.587  0.1489 -0.2464 -0.1583
    1TMC1    C614131   0.154   3.305   0.620  0.0181  0.5924  0.1411
    1TMC1     C14132   0.499   3.434   0.440 -0.7000 -0.4107  0.5284
    1TMC1     O14133   0.493   3.558   0.420  0.2519 -0.1702  0.3467
    1TMC1     H14134   0.288   3.578   0.502 -2.1707  0.5128 -0.2524
    1TMC1    H114135   0.445   3.187   0.506  1.8756  1.1708  1.5851
    1TMC1    H214136   0.058   3.278   0.662 -0.1416 -1.3616 -1.5246
    1TMC1    C714137   0.231   3.075   0.614 -0.0681  0.0787 -0.2907
    1TMC1    C814138   0.086   3.538   0.635  0.9894 -0.9986 -0.6548
    1TMC1    O114139   0.273   2.982   0.544 -0.0345 -0.1092 -0.3757
    1TMC1    O214140   0.073   3.640   0.573 -1.0688  0.0523 -0.2668
    1TMC1    O314141   0.175   3.062   0.733 -0.1166  0.0780 -0.0628
    1TMC1    H314142   0.169   3.150   0.775  1.7562  0.1953 -0.0574
    1TMC1    O514143   0.091   3.538   0.770 -0.1945 -0.0517 -0.1003
    1TMC1    H514144   0.117   3.452   0.809 -0.5738 -0.6685 -1.1902
    2MPD1     C14145   1.012   3.428   0.433 -0.2911 -0.6649  0.7126
    2MPD1    C114146   0.966   3.299   0.445 -0.0522 -0.1568  0.0794
    2MPD1    C214147   0.829   3.277   0.442  0.2121 -0.1707 -0.5784
    2MPD1    C314148   0.737   3.376   0.444 -0.2185 -0.3387 -0.2833
    2MPD1    C414149   0.788   3.502   0.410 -0.4630  0.5796  0.3728
    2MPD1    C514150   0.924   3.531   0.412 -0.3008  0.1140 -0.0103
    2MPD1     H14151   0.793   3.176   0.458 -1.0222  0.5614  1.2472
    2MPD1    H114152   0.736   3.595   0.393 -0.8709  0.2209 -0.3237
    2MPD1    H214153   1.116   3.459   0.433 -0.6358  0.4628 -0.8163
    2MPD1    H314154   0.950   3.635   0.397 -1.5019 -0.0261 -3.1720
    2MPD1     N14155   0.605   3.345   0.463  0.0729  0.1209  0.3874
    2MPD1    H514156   0.593   3.253   0.504  1.4927 -0.1171  0.2492
    2MPD1    N114157   1.049   3.184   0.449 -0.5048  0.5568 -0.1029
    2MPD1    H614158   1.145   3.215   0.464 -0.0049 -2.1244  2.3498
    2MPD1    H714159   1.024   3.126   0.529  0.9638  0.2235  0.1193
    1MPD1     C14160   0.041   1.803  10.857  0.0009 -0.2659  0.5039
    1MPD1    C114161   0.164   1.752  10.819 -0.6277  0.2356 -0.0340
    1MPD1    C214162   0.258   1.731  10.919  0.0675 -0.8115  0.4586
    1MPD1    C314163   0.227   1.749  11.052 -0.3700 -0.0910  0.2388
    1MPD1    C414164   0.108   1.805  11.090 -0.1360 -0.0210  0.4668
    1MPD1    C514165   0.013   1.829  10.989  0.4643  0.2433  0.4206
    1MPD1     H14166   0.355   1.685  10.899 -0.2501 -1.1123 -0.3848
    1MPD1    H114167   0.069   1.812  11.191  2.9603  0.9548  1.5889
    1MPD1    H214168   4.697   1.819  10.787  1.7947 -1.0839 -1.7512
    1MPD1    H314169   4.650   1.868  11.009  0.6843  0.9152  0.2131
    1MPD1     N14170   0.327   1.718  11.147  0.2096 -0.7391 -0.4131
    1MPD1    H514171   0.417   1.682  11.115  0.4363 -0.5987  0.0574
    1MPD1    N114172   0.207   1.754  10.681  0.4334  0.0182  0.5650
    1MPD1    H614173   0.130   1.736  10.616  2.0427 -2.8364 -0.5541
    1MPD1    H714174   0.281   1.685  10.672 -0.8598 -1.4993  1.3405
    2MPD1     C14175   4.437   1.671  11.289  0.5050 -0.2270 -0.2626
    2MPD1    C114176   4.368   1.645  11.176  0.4343 -0.4394  0.1936
    2MPD1    C214177   4.439   1.592  11.072 -0.3893 -0.0937  0.3826
    2MPD1    C314178   4.573   1.553  11.088  0.4084 -0.6831 -0.5330
    2MPD1    C414179   4.638   1.572  11.209  0.0256  0.1854 -0.2923
    2MPD1    C514180   4.572   1.635  11.311 -0.3088  0.5592 -0.4428
    2MPD1     H14181   4.396   1.590  10.973 -0.6358  1.0149  0.4686
    2MPD1    H114182   0.009   1.561  11.212  0.1548  1.4309 -0.1492
    2MPD1    H214183   4.390   1.719  11.375  1.2492 -0.1762  0.1119
    2MPD1    H314184   4.619   1.654  11.406 -3.0577 -0.7214  1.1906
    2MPD1     N14185   4.647   1.498  10.985 -0.0314  0.0582 -0.1263
    2MPD1    H514186   0.004   1.463  11.004  0.8760  2.3778 -0.2237
    2MPD1    N114187   4.233   1.687  11.160 -0.4987 -0.0428 -0.0424
    2MPD1    H614188   4.183   1.706  11.247 -0.7725 -0.1139 -0.1839
    2MPD1    H714189   4.177   1.627  11.100 -1.0985 -0.0941  0.5738
    3MPD1     C14190   4.688   1.570   9.936  0.2860 -0.5273 -0.4959
    3MPD1    C114191   4.597   1.485   9.997  0.0176  0.1282 -0.4605
    3MPD1    C214192   4.604   1.455  10.137 -0.1336  0.2159 -0.2909
    3MPD1    C314193   4.709   1.511  10.211  0.0046  0.3219 -0.2666
    3MPD1    C414194   0.065   1.584  10.143  0.8000  0.0321  0.0565
    3MPD1    C514195   0.054   1.621  10.011  0.1291  0.0493  0.3257
    3MPD1     H14196   4.531   1.392  10.185  1.3868 -0.4515  1.1719
    3MPD1    H114197   0.157   1.614  10.191  0.5043  0.2069  0.5056
    3MPD1    H214198   4.678   1.592   9.831  2.5955 -1.1786 -0.8577
    3MPD1    H314199   0.134   1.671   9.958  1.1616 -1.4448  0.4867
    3MPD1     N14200   4.715   1.484  10.347  0.1854 -0.4917 -0.1807
    3MPD1    H514201   4.651   1.418  10.392 -0.1680 -0.8530 -1.2242
    3MPD1    N114202   4.501   1.431   9.916 -0.0114  0.1444  0.4258
    3MPD1    H614203   4.452   1.348   9.949  1.5078 -0.3603  1.4012
    3MPD1    H714204   4.540   1.408   9.825 -0.4604 -0.4226  0.3724
    4MPD2     C14205   0.993   1.462  11.205 -0.5372  0.3396  0.0881
    4MPD2    C114206   0.890   1.422  11.281  0.1139  0.5502  0.4755
    4MPD2    C214207   0.880   1.285  11.313 -0.2124 -0.3790 -0.1202
    4MPD2    C314208   0.968   1.188  11.270  0.2253 -0.4527  0.0710
    4MPD2    C414209   1.070   1.232  11.187  1.1847  0.1340  0.0202
    4MPD2    C514210   1.077   1.366  11.156  0.0899 -0.4028 -0.1832
    4MPD2     H14211   0.793   1.263  11.374 -1.4423 -0.5618 -1.9284
    4MPD2    H114212   1.149   1.168  11.150  1.4945  0.1677  0.6307
    4MPD2    H214213   1.019   1.565  11.189  0.2897 -0.0513 -1.0930
    4MPD2    H314214   1.155   1.399  11.089  0.5474 -0.4462  0.3285
    4MPD2     N14215   0.947   1.049  11.290  0.6130 -0.2694  0.7104
    4MPD2    H514216   1.008   0.984  11.243 -0.2277 -0.5161 -0.0395
    4MPD2    N114217   0.795   1.509  11.341  0.0455 -0.3766 -0.5493
    4MPD2    H714218   0.720   1.470  11.397  1.1042 -3.7086 -1.4176
    5TMC3    C114219   0.666   1.679  11.383  0.2351  0.0151 -0.2213
    5TMC3    C214220   0.558   1.703  11.309  0.0296 -0.3030  0.2440
    5TMC3    C314221   0.432   1.676  11.361 -1.0627  0.3271  0.2848
    5TMC3    C414222   0.650   1.622  11.506 -0.1385  0.6931  0.2993
    5TMC3    C514223   0.527   1.587  11.553  0.3985  0.4735  0.2448
    5TMC3    C614224   0.410   1.614  11.484  1.2676 -0.2055  0.1879
    5TMC3     C14225   0.779   1.637  11.306 -0.1852  0.2465  0.7507
    5TMC3     O14226   0.809   1.710  11.216 -0.4745 -0.1587 -0.0273
    5TMC3     H14227   0.567   1.744  11.209 -1.2822 -2.1735 -0.6337
    5TMC3    H114228   0.735   1.586  11.563  0.2160 -1.9921 -1.9021
    5TMC3    H214229   0.307   1.591  11.509  0.6393  0.1385 -2.0391
    5TMC3    C714230   0.539   1.443  11.596  0.3112 -0.4270 -0.8469
    5TMC3    C814231   0.311   1.717  11.285  0.4349 -0.4345 -0.1854
    5TMC3    O114232   0.647   1.388  11.574 -0.2104  0.0093 -0.2463
    5TMC3    O214233   0.210   1.739  11.347  0.1032 -0.3386 -0.4967
    6TMC3    C114234   4.718   1.445  10.771 -0.1853  0.3381 -0.8712
    6TMC3    C214235   4.706   1.463  10.638  0.1727  0.8058  0.1039
    6TMC3    C314236   0.079   1.426  10.560 -0.6701 -0.6634 -0.6022
    6TMC3    C414237   0.084   1.373  10.829 -0.9910 -0.1708  0.4301
    6TMC3    C514238   0.187   1.339  10.738 -0.1123 -0.7638 -0.0706
    6TMC3    C614239   0.183   1.361  10.607  0.0542 -0.3330 -0.3089
    6TMC3     C14240   4.606   1.489  10.854  0.5788 -0.1264 -0.3178
    6TMC3     O14241   4.502   1.523  10.800 -0.3891  0.6012 -0.4442
    6TMC3     H14242   4.640   1.540  10.601  1.4139  1.0949 -1.4735
    6TMC3    H114243   0.084   1.338  10.932  0.7335 -1.4022  0.0088
    6TMC3    H214244   0.264   1.319  10.550  1.6692 -0.1695  1.8881
    6TMC3    C714245   0.294   1.266  10.802 -0.5282  0.3232  0.3667
    6TMC3    C814246   0.086   1.497  10.431 -0.1014  0.0410  0.6908
    6TMC3    O114247   0.259   1.200  10.898  0.0009 -0.2427  0.1685
    6TMC3    O214248   0.191   1.542  10.396  0.0972  0.0156  0.8535
    7MPD2     C14249   0.319   0.977  11.654 -0.4879 -0.2329  0.2620
    7MPD2    C114250   0.435   1.015  11.589  0.3554  0.2311 -0.0454
    7MPD2    C214251   0.481   1.148  11.598  0.5908 -0.6062 -0.7256
    7MPD2    C314252   0.401   1.247  11.657 -0.7518 -0.5547  0.3998
    7MPD2    C414253   0.291   1.205  11.730 -0.0485 -0.6186  0.0596
    7MPD2    C514254   0.251   1.069  11.732 -0.1778  0.0430  0.3609
    7MPD2     H14255   0.565   1.181  11.538  0.5109 -0.6127 -0.8414
    7MPD2    H114256   0.226   1.282  11.772  2.2220  1.7957 -0.8660
    7MPD2    H214257   0.289   0.874  11.646 -3.0030  0.5680 -0.3720
    7MPD2    H314258   0.164   1.043  11.791 -1.9164 -2.3312 -3.2689
    7MPD2     N14259   0.426   1.387  11.639 -0.0748  0.4779 -0.2664
    7MPD2    H514260   0.361   1.457  11.675 -1.1082  0.3528 -1.9094
    7MPD2    N114261   0.523   0.934  11.518  0.2590 -0.4733  0.1442
    7MPD2    H714262   0.610   0.981  11.494  1.0277 -1.8858  0.1390
    8TMC3    C114263   0.604   0.767  11.376 -0.4879  0.1912 -0.5995
    8TMC3    C214264   0.579   0.764  11.242  0.2834 -0.1832  0.3807
    8TMC3    C314265   0.674   0.819  11.160  0.4606 -0.0821 -0.4118
    8TMC3    C414266   0.719   0.805  11.425 -0.3517 -0.2392  0.8543
    8TMC3    C514267   0.818   0.859  11.346  0.1939 -0.1297 -0.3961
    8TMC3    C614268   0.796   0.854  11.214  0.2870 -0.1094 -0.0539
    8TMC3     C14269   0.495   0.814  11.463 -0.6081 -0.1862  0.2277
    8TMC3     O14270   0.392   0.754  11.458  0.5115  0.0385 -0.0424
    8TMC3     H14271   0.475   0.747  11.214 -0.0618  0.3253  1.3544
    8TMC3    H114272   0.730   0.802  11.533 -0.7906 -2.2769  0.8509
    8TMC3    H214273   0.863   0.889  11.137 -0.4408  0.3342 -0.4853
    8TMC3    C714274   0.851   1.000  11.378  0.7382  0.1699 -0.4280
    8TMC3    C814275   0.617   0.918  11.071  0.2733 -0.8593 -0.0481
    8TMC3    O114276   0.771   1.058  11.455 -0.2263 -0.2698 -0.3883
    8TMC3    O214277   0.498   0.904  11.047 -0.0671 -0.0411 -0.0510
    9MPD2     C14278   0.785   1.221  10.944  0.6323 -0.9742  0.2676
    9MPD2    C114279   0.680   1.140  10.970  0.7625  0.7081 -0.9364
    9MPD2    C214280   0.559   1.165  10.910  0.2637  0.5158 -0.2173
    9MPD2    C314281   0.536   1.276  10.821  0.4412 -0.1324 -0.0895
    9MPD2    C414282   0.651   1.347  10.783  0.3978  0.2810  0.3512
    9MPD2    C514283   0.769   1.318  10.850 -0.2561  0.5131  0.6718
    9MPD2     H14284   0.478   1.098  10.936 -0.8171  1.9222  0.0024
    9MPD2    H114285   0.669   1.422  10.707 -2.9546 -0.2802 -0.9794
    9MPD2    H214286   0.886   1.188  10.969  1.5018  1.7153  0.2904
    9MPD2    H314287   0.857   1.371  10.814 -1.1957  0.5102 -1.6559
    9MPD2     N14288   0.415   1.307  10.762  0.6749  0.7023 -0.5142
    9MPD2    H514289   0.417   1.388  10.701 -1.2549  1.1707  0.0373
    9MPD2    N114290   0.698   1.028  11.050  0.1211 -0.8722 -0.7784
    9MPD2    H714291   0.791   1.027  11.091  0.1644  1.3396 -0.8193
    1MPD1     C14292   4.345   0.457   1.103  0.2800  0.6550 -0.4270
    1MPD1    C114293   4.238   0.376   1.090 -0.2104 -0.1094 -0.9264
    1MPD1    C214294   4.188   0.326   0.974  0.1783 -0.8067  0.5471
    1MPD1    C314295   4.257   0.365   0.857 -0.1888 -0.0449  0.0461
    1MPD1    C414296   4.366   0.455   0.868  0.7102  0.2059 -0.1234
    1MPD1    C514297   4.405   0.491   0.991  0.1293  0.1027  0.6287
    1MPD1     H14298   4.111   0.250   0.967 -1.3411  0.7504  0.4798
    1MPD1    H114299   4.420   0.493   0.782  1.1114 -1.2058 -0.4945
    1MPD1    H214300   4.371   0.515   1.191 -1.5320 -0.5875  0.9127
    1MPD1    H314301   4.489   0.560   0.997 -1.3807  1.9538  0.4028
    1MPD1     N14302   4.224   0.330   0.720 -0.0441 -0.0863 -0.6683
    1MPD1    H514303   4.275   0.371   0.642  0.6218 -0.6552 -0.5324
    1MPD1    N114304   4.181   0.330   1.207  0.6990 -0.0389  0.3552
    1MPD1    H614305   4.084   0.303   1.192 -0.2085  2.3560  2.0148
    1MPD1    H714306   4.194   0.396   1.283 -1.9095 -0.8302  1.5105
    2TMC2    C114307   4.186   0.346   0.332 -0.8027  0.1106 -0.4129
    2TMC2    C214308   4.195   0.232   0.264 -0.0728  0.6735 -0.2634
    2TMC2    C314309   4.173   0.119   0.337  0.3219  0.2427 -0.2307
    2TMC2    C414310   4.153   0.345   0.469  0.6466  0.5185 -0.2448
    2TMC2    C514311   4.132   0.230   0.534 -0.2199 -0.8961 -0.0225
    2TMC2    C614312   4.134   0.112   0.469  0.1598  0.6930  0.0254
    2TMC2     C14313   4.262   0.461   0.280  0.0596  0.2827  0.6698
    2TMC2     O14314   4.283   0.541   0.371  0.4557  0.0842 -0.6291
    2TMC2     H14315   4.217   0.231   0.158 -1.6984 -0.5382 -0.5821
    2TMC2    H114316   4.149   0.446   0.508 -0.2221  0.2837  0.2668
    2TMC2    H214317   4.107   0.020   0.519  1.7327  1.0737  1.5505
    2TMC2    C714318   4.142   0.230   0.682 -0.4781 -0.4384  0.8220
    2TMC2    C814319   4.169   4.736   0.252  0.0927 -0.8605  0.8502
    2TMC2    O114320   4.079   0.150   0.748  0.3488  0.1884  0.2558
    2TMC2    O214321   4.142   4.729   0.131  0.1361  0.2335  1.2635
    2TMC2    O514322   4.213   4.624   0.324  0.1137  0.0737  0.4111
    2TMC2    H514323   4.266   4.651   0.403  0.0746 -0.5153  0.6378
    3MPD1     C14324   4.626   0.692  17.739 -0.0391 -0.1800  0.6111
    3MPD1    C114325   4.574   0.580  17.676  0.1511 -0.1012 -0.3103
    3MPD1    C214326   4.483   0.498  17.736  0.0628 -0.2532 -0.1245
    3MPD1    C314327   4.425   0.530   0.114 -0.5357 -0.1655  0.1578
    3MPD1    C414328   4.470   0.647   0.174 -0.1921  0.2903 -1.0456
    3MPD1    C514329   4.573   0.718   0.114 -0.3296 -0.1000  0.2811
    3MPD1     H14330   4.448   0.408  17.686  0.5781  0.4148 -1.6949
    3MPD1    H114331   4.443   0.676   0.275  0.2605 -3.7231  0.2383
    3MPD1    H214332   4.712   0.746  17.702  0.8277  0.2639  3.3407
    3MPD1    H314333   4.608   0.805   0.169 -1.5349  1.4109 -1.3749
    3MPD1     N14334   4.327   0.437   0.162  0.4870  0.5838 -0.1701
    3MPD1    H514335   4.307   0.352   0.109  3.6231 -1.8746  2.5812
    3MPD1    N114336   4.639   0.533  17.562  0.2199  0.4753  0.7505
    3MPD1    H614337   4.595   0.456  17.513 -0.6136  1.4246 -0.0173
    3MPD1    H714338   4.661   0.606  17.494  4.1562 -0.8663  0.5894
    1TMC1    C114339   2.302   3.631  12.622 -0.4051  0.2550 -0.0465
    1TMC1    C214340   2.200   3.685  12.543  0.1100 -0.1904 -0.0632
    1TMC1    C314341   2.123   3.588  12.484  0.7323 -0.4447  0.0885
    1TMC1    C414342   2.321   3.501  12.640  0.1855 -0.0906 -0.2121
    1TMC1    C514343   2.226   3.408  12.589 -1.3213 -0.6864 -0.0189
    1TMC1    C614344   2.129   3.450  12.502  0.3726 -0.2929 -0.5877
    1TMC1     C14345   2.399   3.730  12.669 -0.5083  0.5135  0.2807
    1TMC1     O14346   2.380   3.849  12.647  0.1761  0.1410 -0.3811
    1TMC1     H14347   2.185   3.790  12.518  0.5814 -0.8691 -3.1203
    1TMC1    H114348   2.368   3.462  12.729 -0.0337  0.6933  0.2474
    1TMC1    H214349   2.071   3.380  12.443 -0.1556 -0.5797  0.2650
    1TMC1    C714350   2.233   3.274  12.637  0.6568 -0.8504 -0.1280
    1TMC1    C814351   2.037   3.631  12.381  0.6341 -0.4757 -0.3482
    1TMC1    O114352   2.328   3.229  12.704  0.4842  0.6168  0.9238
    1TMC1    O214353   2.026   3.569  12.276 -0.4038 -0.1105  0.4154
    1TMC1    O314354   2.119   3.212  12.623  0.3962 -0.3311  0.6115
    1TMC1    H314355   2.037   3.265  12.606 -0.8039 -1.9737  1.3071
    1TMC1    O514356   1.957   3.727  12.425  1.0558  0.3033 -0.5622
    1TMC1    H514357   1.981   3.743  12.518  0.5777 -2.4802  0.0494
    2MPD2     C14358   2.604   3.888  12.822 -0.8577  0.3363 -0.1425
    2MPD2    C114359   2.599   3.752  12.813 -0.2703 -0.1395  0.0908
    2MPD2    C214360   2.698   3.678  12.872 -0.7296  0.4848 -0.0436
    2MPD2    C314361   2.799   3.736  12.951  0.0690 -0.0201  0.9244
    2MPD2    C414362   2.793   3.872  12.971  0.3566 -0.1598 -0.2217
    2MPD2    C514363   2.690   3.943  12.916 -0.2638  0.4733 -0.4197
    2MPD2     H14364   2.708   3.575  12.839  0.1674  0.2435  0.9557
    2MPD2    H114365   2.847   3.937  13.038  2.1311 -1.8119 -0.0524
    2MPD2    H214366   2.516   3.942  12.790 -2.4215 -1.8356  0.4373
    2MPD2    H314367   2.684   4.046  12.949 -0.3163 -0.4630  2.5650
    2MPD2     N14368   2.897   3.657  13.012  0.1702  0.2179  0.6660
    2MPD2    H514369   2.885   3.557  12.997  1.5328  0.0009  1.0160
    2MPD2    N114370   2.504   3.679  12.741 -0.0092  0.0146  0.0567
    2MPD2    H714371   2.513   3.579  12.750 -1.7692 -0.3310 -2.0548
    3TCq1    O114372   3.136   3.566  13.519  0.2281  0.3241  0.6184
    3TCq1    C114373   3.258   3.570  13.460 -0.1726 -0.1387  0.1040
    3TCq1    O214374   3.367   3.564  13.516 -0.8228  0.3124  0.3595
    3TCq1    C214375   3.230   3.559  13.325 -0.3725  0.0689  0.2866
    3TCq1    C314376   3.274   3.451  13.256  0.3421 -0.2541  0.4163
    3TCq1    C414377   3.213   3.422  13.138 -0.1190 -0.4334  0.1484
    3TCq1    C514378   3.108   3.492  13.098  0.1017  0.1644 -0.3793
    3TCq1    C614379   3.077   3.608  13.166 -0.7269 -0.5184  0.3729
    3TCq1    C714380   3.129   3.643  13.285 -0.0374  0.0809  0.6537
    3TCq1    C814381   2.983   3.702  13.107  0.1401 -0.5978  0.2139
    3TCq1    O414382   2.992   3.811  13.158  0.0295 -0.1456  0.8452
    3TCq1    C914383   3.272   3.317  13.056  0.2729  0.0688 -1.0594
    3TCq1    O514384   3.344   3.244  13.126 -0.3757  0.2142 -0.3668
    3TCq1    O614385   3.210   3.280  12.956  0.5474  0.3824  0.2297
    3TCq1    H114386   3.070   3.540  13.452  2.9846 -1.2304 -1.4916
    3TCq1    H214387   3.368   3.402  13.280  0.4005 -1.4457 -2.3229
    3TCq1    H314388   3.070   3.475  12.998 -2.0438  1.7878  0.1697
    3TCq1    H414389   3.101   3.729  13.345  0.5899 -0.3591  1.5856
    1MPD2     C14390   2.354   0.506  14.420 -0.2438  0.4559 -0.4726
    1MPD2    C114391   2.272   0.408  14.482 -0.2905  0.0486 -0.6757
    1MPD2    C214392   2.329   0.325  14.571 -0.6402  0.1394 -0.1764
    1MPD2    C314393   2.464   0.321  14.594 -0.1794  0.3654 -0.4264
    1MPD2    C414394   2.544   0.403  14.522 -0.0996  0.1334  0.0026
    1MPD2    C514395   2.490   0.499  14.439  0.3668 -0.2243 -0.1752
    1MPD2     H14396   2.268   0.251  14.621 -1.5738  1.1187  0.1404
    1MPD2    H114397   2.651   0.409  14.531 -0.0161 -1.9489  0.1886
    1MPD2    H214398   2.314   0.569  14.342 -0.7305  0.2727 -0.3708
    1MPD2    H314399   2.557   0.573  14.397  0.0693  0.5343  0.6987
    1MPD2     N14400   2.517   0.235  14.700  0.6482  0.3142 -0.0214
    1MPD2    H514401   2.615   0.208  14.691 -0.1510 -1.2114 -4.0650
    1MPD2    N114402   2.134   0.426  14.466  0.3029 -0.1868  0.6221
    1MPD2    H714403   2.102   0.504  14.409  2.2306  0.2418  0.1452
    2TMC3    C114404   1.900   0.364  14.493 -0.2936 -0.4654  0.5287
    2TMC3    C214405   1.833   0.264  14.555  0.9276  0.3616  0.5565
    2TMC3    C314406   1.716   0.292  14.617 -0.3579  0.2710 -0.4292
    2TMC3    C414407   1.852   0.496  14.487  0.2684 -0.1186 -0.0331
    2TMC3    C514408   1.728   0.520  14.548 -0.0752 -0.0613 -0.1788
    2TMC3    C614409   1.665   0.415  14.611 -0.1160  0.1365 -0.8067
    2TMC3     C14410   2.036   0.340  14.521  0.3918 -0.3405  0.1138
    2TMC3     O14411   2.051   0.271  14.618 -0.7042  0.3366 -0.0411
    2TMC3     H14412   1.862   0.161  14.535  2.2618  1.0826 -1.1869
    2TMC3    H114413   1.921   0.574  14.456  1.0058 -1.0106 -0.6563
    2TMC3    H214414   1.566   0.437  14.648  0.0397 -0.9797  0.2902
    2TMC3    C714415   1.659   0.634  14.508  0.7377  0.2271 -0.0731
    2TMC3    C814416   1.706   0.234  14.744  1.2617 -0.6158 -0.3147
    2TMC3    O114417   1.540   0.647  14.540  0.1632  0.5519  0.1653
    2TMC3    O214418   1.599   0.229  14.808 -0.3724  0.3773 -0.3739
    3TCq1    O114419   1.977   1.420  13.646 -0.3149 -0.6297 -0.1973
    3TCq1    C114420   2.082   1.418  13.728  0.4852  0.5383 -0.2353
    3TCq1    O214421   2.195   1.451  13.693  0.3790 -0.2845  0.3378
    3TCq1    C214422   2.052   1.372  13.866 -0.1851 -0.1081  0.0232
    3TCq1    C314423   2.146   1.405  13.962 -0.1074  0.5050 -0.0357
    3TCq1    C414424   2.123   1.363  14.091  0.5449  0.1674  0.4402
    3TCq1    C514425   2.011   1.301  14.125 -0.0755 -0.2315 -0.2266
    3TCq1    C614426   1.924   1.268  14.024  0.2807 -0.3397 -0.0185
    3TCq1    C714427   1.941   1.296  13.895  0.3796  0.3529  0.5590
    3TCq1    C814428   1.807   1.193  14.055  0.3533 -0.3075 -0.9557
    3TCq1    O414429   1.706   1.191  13.984 -0.0773  0.0210 -0.5346
    3TCq1    C914430   2.226   1.382  14.187 -0.2776  0.3940 -0.0694
    3TCq1    O514431   2.320   1.450  14.144 -0.5102 -0.1596  0.2044
    3TCq1    O614432   2.208   1.338  14.301 -0.8209  0.9000 -0.5625
    3TCq1    H114433   1.893   1.429  13.697 -0.5046 -3.6570  0.0270
    3TCq1    H214434   2.238   1.458  13.939  1.3357 -2.3966 -0.9538
    3TCq1    H314435   1.997   1.276  14.230  1.2895  0.8429  0.2049
    3TCq1    H414436   1.873   1.257  13.820 -0.6823  0.7253  1.3209
    4MPD2     C14437   1.591   1.050  14.204 -1.1224 -0.0412  0.1791
    4MPD2    C114438   1.730   1.035  14.224 -0.2186 -0.6818 -0.2267
    4MPD2    C214439   1.768   0.936  14.313  0.4911 -0.2684  1.1429
    4MPD2    C314440   1.681   0.841  14.371  0.3222 -0.3498 -0.5660
    4MPD2    C414441   1.545   0.864  14.348 -0.4276 -0.7118  0.3502
    4MPD2    C514442   1.507   0.961  14.265 -0.1552 -0.5959  0.2822
    4MPD2     H14443   1.873   0.923  14.340  1.3436  1.4236 -1.4023
    4MPD2    H114444   1.464   0.798  14.377 -2.0681  1.1030 -0.0444
    4MPD2    H214445   1.537   1.124  14.147 -2.5483 -0.2019  1.2934
    4MPD2    H314446   1.400   0.980  14.260 -0.0979 -1.0665 -2.3150
    4MPD2     N14447   1.738   0.729  14.440  0.4537 -0.2316  0.1624
    4MPD2    H514448   1.839   0.722  14.432  0.3340 -0.7672 -0.8176
    4MPD2    N114449   1.833   1.115  14.165 -0.4403  0.1015 -0.7582
    4MPD2    H714450   1.925   1.112  14.208 -1.6641 -0.9918  1.8016
    5TMC2    C114451   2.417   4.661  15.023 -0.1642 -0.3535 -0.1112
    5TMC2    C214452   2.500   4.713  15.123 -0.6534  0.8999 -0.1768
    5TMC2    C314453   2.584   0.075  15.079 -0.0911 -0.0718 -1.0599
    5TMC2    C414454   2.429   4.697  14.890  0.4033  0.2933  0.2141
    5TMC2    C514455   2.516   0.062  14.853 -0.2178  0.5500 -0.4035
    5TMC2    C614456   2.595   0.124  14.949  0.2595  0.7878  0.0654
    5TMC2     C14457   2.283   4.643  15.067 -0.7191 -0.1880 -0.1732
    5TMC2     O14458   2.266   4.599  15.178 -0.2135 -0.4808  0.5479
    5TMC2     H14459   2.472   4.686  15.224  0.3755 -1.5892 -0.5528
    5TMC2    H114460   2.365   4.645  14.820 -1.6269  1.0934  1.4800
    5TMC2    H214461   2.670   0.198  14.923  1.7518 -0.0497  2.0301
    5TMC2    C714462   2.441   0.155  14.779 -0.1409 -0.1371 -0.0025
    5TMC2    C814463   2.705   0.092  15.153 -0.8044  0.2275 -0.0774
    5TMC2    O114464   2.328   0.175  14.814  1.0456 -0.2071  0.2110
    5TMC2    O214465   2.762   0.200  15.158 -0.8180  0.4348 -0.0721
    5TMC2    O514466   2.761   4.706  15.174 -0.3963  0.2397  0.1494
    5TMC2    H514467   2.698   4.637  15.144 -0.4294  0.7238 -0.8847
    6MPD2     C14468   1.786   0.054  14.977 -0.5182  1.0645 -0.5368
    6MPD2    C114469   1.872   0.105  14.884  0.8705 -0.5343 -0.6072
    6MPD2    C214470   1.999   0.070  14.886  0.1688  0.0273  0.6864
    6MPD2    C314471   2.049   4.722  14.987  0.4987 -0.3331  0.1614
    6MPD2    C414472   1.964   4.685  15.092 -1.3949 -0.4932  0.5142
    6MPD2    C514473   1.828   4.710  15.076  0.5725 -0.4372 -0.4081
    6MPD2     H14474   2.062   0.114  14.810 -1.7219 -0.3820 -1.1367
    6MPD2    H114475   2.012   4.644  15.180 -0.9770 -0.1889  0.4264
    6MPD2    H214476   1.681   0.081  14.981 -0.8717 -0.4499  0.5701
    6MPD2    H314477   1.763   4.680  15.157  0.5360  0.6301 -0.0432
    6MPD2     N14478   2.192   4.706  14.979 -0.3080 -0.7028 -0.5353
    6MPD2    H514479   2.238   0.010  14.898 -2.7787  0.5812 -1.3022
    6MPD2    N114480   1.830   0.177  14.770  0.2686 -0.6289 -0.3915
    6MPD2    H714481   1.908   0.204  14.711 -1.1142  0.1663 -1.8645
  945NH4     N114482   2.138   4.556   1.480  0.0770  0.0928  0.4249
  945NH4     H214483   2.227   4.575   1.532 -0.4133  1.6946  0.6730
  945NH4     H314484   2.054   4.560   1.541  0.7531  1.3762  1.2694
  945NH4     H414485   2.141   4.454   1.460 -0.0377  0.3607 -0.9134
  945NH4     H514486   2.119   4.608   1.393 -1.1201 -1.7790 -0.4349
  946SOD     NA14487   4.666   3.620   7.834  0.3060  0.5027 -0.3276
  947SOD     NA14488   0.774   3.848  16.474  0.3876  0.0297 -0.2153
  948SOD     NA14489   0.511   3.400  13.610 -0.1143  0.0574 -0.8845
  949SOD     NA14490   3.793   3.246  16.688 -0.0817  0.2206 -0.1573
  950SOD     NA14491   3.481   1.665  10.224 -0.0489 -0.0186  0.2491
  951SOD     NA14492   3.566   3.245  13.146 -0.4632 -0.3093 -0.1050
  952SOD     NA14493   0.670   0.176  12.790  0.0133 -0.6922 -0.4217
  953SOL     OW14494   4.289   3.891   9.169 -0.4348  0.0299 -0.1906
  953SOL    HW114495   4.267   3.843   9.249  2.0314 -0.0629  0.4287
  953SOL    HW214496   4.342   3.969   9.188  0.3331 -0.4405 -0.3871
  954SOL     OW14497   3.138   1.553   9.841  0.4066 -0.0856 -0.4851
  954SOL    HW114498   3.169   1.463   9.856 -1.2588 -0.8598 -1.7208
  954SOL    HW214499   3.086   1.564   9.921  0.1486 -0.1648 -0.6439
  955SOL     OW14500   3.931   0.958   4.083 -0.1638  0.7098  0.1963
  955SOL    HW114501   3.993   1.031   4.083  0.1601  0.4339 -1.2646
  955SOL    HW214502   3.849   1.005   4.071  0.6610  2.1794  0.3001
  956SOL     OW14503   3.239   0.168   3.073 -0.1131 -0.2220  0.1018
  956SOL    HW114504   3.274   0.240   3.020 -1.5849 -0.8386 -1.6607
  956SOL    HW214505   3.204   0.216   3.148  1.4544  0.2124  0.5733
  957SOL     OW14506   4.601   1.537   2.702 -0.2661  0.5587  0.4517
  957SOL    HW114507   4.515   1.556   2.741 -1.2941 -2.3090 -0.3838
  957SOL    HW214508   4.661   1.591   2.753  1.1970 -0.7678  0.1081
  958SOL     OW14509   4.619   2.346  14.597 -0.0380  0.1722  0.0478
  958SOL    HW114510   4.596   2.416  14.535 -1.1892 -0.1447  0.1052
  958SOL    HW214511   4.528   2.329  14.623  0.3710 -0.8348  0.7890
  959SOL     OW14512   1.659   1.051  13.751 -0.1393  1.2588 -0.0371
  959SOL    HW114513   1.588   0.991  13.774  0.4905 -0.2836 -2.0944
  959SOL    HW214514   1.668   1.095  13.835  0.4623  1.4904 -0.2197
  960SOL     OW14515   3.215   0.086   6.094  0.5580  0.2365  0.4866
  960SOL    HW114516   3.295   0.112   6.050  0.0108 -1.5855 -1.5964
  960SOL    HW214517   3.197   0.160   6.152 -0.2982  1.4201 -1.2563
  961SOL     OW14518   2.150   0.564   7.508  0.5160 -0.7867 -0.2358
  961SOL    HW114519   2.133   0.480   7.550  1.0595 -0.2964  0.9605
  961SOL    HW214520   2.197   0.606   7.580  0.5517 -2.1505  0.5336
  962SOL     OW14521   0.755   0.260   2.619  0.2799 -0.0802 -0.2812
  962SOL    HW114522   0.694   0.333   2.616  1.9730  1.4259  1.6060
  962SOL    HW214523   0.739   0.217   2.702  1.6153  1.6766  0.8824
  963SOL     OW14524   2.188   0.285   2.821 -0.6017 -0.5330 -0.1978
  963SOL    HW114525   2.220   0.375   2.825 -0.9150 -0.3271 -2.4539
  963SOL    HW214526   2.112   0.287   2.763 -0.0504  4.0802 -0.7872
  964SOL     OW14527   3.395   0.302  13.078 -0.2785 -0.1604  0.7672
  964SOL    HW114528   3.353   0.226  13.118  0.0160 -1.8001 -2.0250
  964SOL    HW214529   3.344   0.287  12.999  2.4239  0.0213 -1.0200
  965SOL     OW14530   3.057   3.769   2.211 -0.3667  0.5649  0.1999
  965SOL    HW114531   3.138   3.722   2.189  0.2649  1.5675  0.3661
  965SOL    HW214532   3.080   3.791   2.301 -1.4855  0.4075  0.5206
  966SOL     OW14533   2.817   0.733  12.354  0.2314 -0.1239  0.2507
  966SOL    HW114534   2.818   0.820  12.314 -0.1874  0.5474  1.7207
  966SOL    HW214535   2.848   0.683  12.279  2.4786 -0.0589  1.1142
  967SOL     OW14536   1.724   1.109  16.002  0.0937 -0.1589  0.2711
  967SOL    HW114537   1.697   1.162  15.927 -0.8731  0.1091  0.8039
  967SOL    HW214538   1.775   1.174  16.050  0.9645 -0.1180 -0.7015
  968SOL     OW14539   2.020   1.853  17.186  0.3125 -0.0883  0.6876
  968SOL    HW114540   2.052   1.943  17.177  1.3146 -0.6153 -1.1768
  968SOL    HW214541   2.064   1.808  17.114 -0.1164  0.8656 -0.1798
  969SOL     OW14542   1.961   1.523   9.998  0.4779  0.1574 -0.2880
  969SOL    HW114543   2.035   1.486   9.949  0.5008 -1.2168  0.7820
  969SOL    HW214544   1.989   1.504  10.088 -0.7095  2.2557  0.5371
  970SOL     OW14545   2.130   1.616  10.658  0.2748 -0.7321  0.2527
  970SOL    HW114546   2.143   1.684  10.724  2.0449 -0.0170 -0.8193
  970SOL    HW214547   2.171   1.663  10.585 -2.1622  1.1337  0.0895
  971SOL     OW14548   2.143   0.406   6.205  0.1969 -0.7570  0.2418
  971SOL    HW114549   2.235   0.405   6.234  0.3888 -0.2159 -0.3393
  971SOL    HW214550   2.102   0.398   6.291  1.4753 -0.2075  0.9093
  972SOL     OW14551   3.472   1.844   2.620  0.2624 -0.4732 -0.1845
  972SOL    HW114552   3.440   1.773   2.676 -1.9735 -0.0404 -0.9072
  972SOL    HW214553   3.459   1.794   2.540 -1.1954 -0.4167  0.0231
  973SOL     OW14554   0.654   2.033  15.917 -0.7941 -0.3622  0.0724
  973SOL    HW114555   0.711   1.956  15.925 -0.3605 -0.0905 -0.3991
  973SOL    HW214556   0.566   2.003  15.942 -1.3757  2.1654  0.9798
  974SOL     OW14557   0.965   0.695   1.561 -0.3576  0.0656 -0.5779
  974SOL    HW114558   0.899   0.740   1.509  0.7442  0.2499 -1.8302
  974SOL    HW214559   0.924   0.639   1.627  0.5538 -0.2715 -0.2922
  975SOL     OW14560   4.691   2.797   9.243  0.7716  0.3315  0.1384
  975SOL    HW114561   4.729   2.881   9.270  0.3546 -0.8273  4.3517
  975SOL    HW214562   0.036   2.753   9.220  1.5058  2.5272 -1.4761
  976SOL     OW14563   2.932   2.788   3.896 -0.9402  0.0251 -0.0519
  976SOL    HW114564   2.906   2.823   3.981  0.0817  0.2087  0.1882
  976SOL    HW214565   3.001   2.728   3.923 -0.8454  1.1277  2.1793
  977SOL     OW14566   1.783   4.290   3.500 -0.4691  0.0421 -0.0922
  977SOL    HW114567   1.704   4.247   3.532  0.0069 -0.0155  1.0085
  977SOL    HW214568   1.818   4.341   3.573  0.1707 -0.4346 -0.0700
  978SOL     OW14569   1.268   0.419  15.431  0.3039  0.2541  0.1617
  978SOL    HW114570   1.314   0.339  15.458 -2.3456 -1.2637  0.2826
  978SOL    HW214571   1.337   0.473  15.395  0.1720 -0.2190 -0.8089
  979SOL     OW14572   0.065   2.694  15.773  0.0540 -0.1573  0.1794
  979SOL    HW114573   4.710   2.683  15.800  0.4270 -0.1817  1.4524
  979SOL    HW214574   0.078   2.620  15.714 -0.9956  1.6050 -2.2674
  980SOL     OW14575   3.040   1.467   3.772 -0.1242 -0.8355 -0.2506
  980SOL    HW114576   3.054   1.553   3.733  2.3760 -1.0813  0.0964
  980SOL    HW214577   3.054   1.409   3.697 -0.6679 -1.9344  0.4945
  981SOL     OW14578   2.071   4.579   9.425  0.2855  0.1162  0.3900
  981SOL    HW114579   2.008   4.590   9.497  0.4312  1.5537  0.3122
  981SOL    HW214580   2.031   4.627   9.352 -1.3985 -1.7491  0.0979
  982SOL     OW14581   3.332   1.662   6.838 -0.3406 -0.1352  0.0332
  982SOL    HW114582   3.349   1.578   6.880  1.1600 -0.4036 -1.1331
  982SOL    HW214583   3.249   1.654   6.791 -1.6657  2.7540  1.8462
  983SOL     OW14584   1.311   2.862   6.233  0.6961 -0.3594  0.1076
  983SOL    HW114585   1.251   2.790   6.254  0.5134  0.4837  2.5025
  983SOL    HW214586   1.351   2.831   6.152  0.7139 -0.4848  0.1650
  984SOL     OW14587   4.438   2.406   6.513  0.4207  0.1608  0.6455
  984SOL    HW114588   4.476   2.319   6.527  0.7225  0.2658  0.4659
  984SOL    HW214589   4.458   2.418   6.420  1.1480  0.4486  0.8381
  985SOL     OW14590   4.410   3.488   8.819 -0.3096 -0.3775  0.3174
  985SOL    HW114591   4.374   3.567   8.860  2.5398  1.4687 -0.7385
  985SOL    HW214592   4.342   3.470   8.755  1.4173  1.5671 -2.0852
  986SOL     OW14593   3.970   2.859   9.602 -0.5691  0.2736  0.2153
  986SOL    HW114594   3.972   2.955   9.598  1.0308  0.2701  0.6545
  986SOL    HW214595   4.040   2.851   9.666  0.0721 -2.0747 -0.7655
  987SOL     OW14596   2.338   0.732   5.010 -0.1068 -0.4328  0.0968
  987SOL    HW114597   2.268   0.669   4.992 -1.4739  1.3556 -0.8712
  987SOL    HW214598   2.355   0.753   4.918  1.3434 -2.4409 -0.0911
  988SOL     OW14599   1.282   1.842   2.006  0.5492 -0.1611 -0.2103
  988SOL    HW114600   1.377   1.836   2.004  0.6058  0.4011  0.6594
  988SOL    HW214601   1.258   1.888   1.926  0.5958  2.8848  1.5284
  989SOL     OW14602   1.917   2.995   9.810 -0.2389 -0.1093  0.4503
  989SOL    HW114603   1.850   2.935   9.778 -1.0430  1.5586 -1.0184
  989SOL    HW214604   1.861   3.063   9.848 -0.4564 -0.7226  1.2055
  990SOL     OW14605   2.321   0.066   1.274 -0.0785 -0.2215 -0.3289
  990SOL    HW114606   2.248   0.086   1.215  1.0508  2.2590 -0.8742
  990SOL    HW214607   2.310   0.124   1.349  1.1838  0.1261 -0.4175
  991SOL     OW14608   2.062   2.816  14.975 -0.0888 -0.3369 -0.1820
  991SOL    HW114609   2.000   2.885  14.950 -0.0359  0.2403  1.2545
  991SOL    HW214610   2.074   2.830  15.069 -1.2990 -0.4063 -0.0120
  992SOL     OW14611   3.477   1.382  10.037 -0.0572 -0.5136  0.4263
  992SOL    HW114612   3.468   1.342  10.124  0.2266 -1.5156 -0.0014
  992SOL    HW214613   3.560   1.429  10.044 -0.5568  0.4035  0.2037
  993SOL     OW14614   0.293   3.264   4.968  0.5132  0.8678 -0.1102
  993SOL    HW114615   0.318   3.235   5.056  0.4192  1.1208  0.0003
  993SOL    HW214616   0.350   3.341   4.957  2.1268 -0.0815  1.4912
  994SOL     OW14617   0.274   3.261  15.998 -0.0208  0.1834 -0.0290
  994SOL    HW114618   0.333   3.257  16.074  1.9099  2.1956 -1.4365
  994SOL    HW214619   0.233   3.347  16.009 -0.7039 -0.3601  1.6690
  995SOL     OW14620   4.266   2.743   8.561  0.0901 -0.1105  0.3116
  995SOL    HW114621   4.190   2.696   8.527 -0.1226  0.7118 -0.3606
  995SOL    HW214622   4.275   2.727   8.655 -0.5999  1.7357  0.7037
  996SOL     OW14623   2.120   4.265   4.532 -0.1117 -0.0209 -0.5206
  996SOL    HW114624   2.149   4.190   4.582  0.3822  0.6019  0.1178
  996SOL    HW214625   2.111   4.336   4.596 -1.6996  0.1713 -0.9412
  997SOL     OW14626   1.316   3.626   1.192  0.3985 -0.0401 -0.1212
  997SOL    HW114627   1.406   3.642   1.220  0.3582 -1.5474  0.8539
  997SOL    HW214628   1.272   3.683   1.255  0.4464 -0.3173  0.1634
  998SOL     OW14629   0.304   0.070   7.889  0.3154  0.0270  0.1062
  998SOL    HW114630   0.305   0.156   7.931  0.6771  0.0971 -0.0404
  998SOL    HW214631   0.269   0.024   7.965 -5.4996  0.4586 -2.3600
  999SOL     OW14632   4.475   1.843   0.488 -0.4580  0.0296 -0.2191
  999SOL    HW114633   4.456   1.895   0.410 -1.6343 -0.8293 -0.5153
  999SOL    HW214634   4.394   1.848   0.540  0.4173  0.2932  1.1215
 1000SOL     OW14635   1.644   0.893  17.556  1.0144  0.0185 -0.5955
 1000SOL    HW114636   1.610   0.811  17.592  2.4033  0.4627  1.7856
 1000SOL    HW214637   1.724   0.894  17.609  0.3173  0.5147  0.4488
 1001SOL     OW14638   2.378   2.646   3.013 -0.2444  0.0773  0.3171
 1001SOL    HW114639   2.459   2.691   3.038  0.8254 -1.5391 -0.2176
 1001SOL    HW214640   2.341   2.705   2.947 -0.9771 -0.6148  0.0985
 1002SOL     OW14641   1.602   0.684   1.333  0.1710  0.3558 -0.5643
 1002SOL    HW114642   1.507   0.675   1.335  0.0700  1.4866 -0.0834
 1002SOL    HW214643   1.615   0.740   1.257 -0.0762  0.4275 -0.5545
 1003SOL     OW14644   1.890   4.499   4.038  0.2681 -0.5978 -0.0050
 1003SOL    HW114645   1.896   4.595   4.033  2.9793 -0.6415  1.9975
 1003SOL    HW214646   1.978   4.477   4.007  0.2453 -2.0893  1.0038
 1004SOL     OW14647   1.270   1.045   4.740  0.6978  0.1924  0.0122
 1004SOL    HW114648   1.205   1.004   4.798  0.8258  1.5034  1.0690
 1004SOL    HW214649   1.276   1.134   4.773  0.5790 -0.5750  2.1184
 1005SOL     OW14650   0.508   4.724   6.373  0.3100  0.2844  0.5546
 1005SOL    HW114651   0.448   0.058   6.396  2.0059  1.8525  0.1904
 1005SOL    HW214652   0.552   0.023   6.296 -0.7857  1.5069  0.4965
 1006SOL     OW14653   3.003   0.664   1.970  0.0985  0.0100 -0.2944
 1006SOL    HW114654   3.093   0.661   1.937  0.9669  0.8164  1.9630
 1006SOL    HW214655   3.016   0.584   2.021 -1.3092 -0.2401 -0.3354
 1007SOL     OW14656   2.286   0.949   1.821 -0.2739 -0.2680  0.4443
 1007SOL    HW114657   2.357   0.979   1.878  1.0613  1.3824 -2.0986
 1007SOL    HW214658   2.303   1.008   1.748  1.0220 -0.7661  0.3395
 1008SOL     OW14659   2.779   2.291   2.506  0.0623 -0.0384  0.9662
 1008SOL    HW114660   2.827   2.256   2.431 -2.4733 -2.1306  0.3132
 1008SOL    HW214661   2.838   2.361   2.532 -1.0133  0.8421  1.0224
 1009SOL     OW14662   1.396   1.928   4.118 -0.4158  0.0180 -0.6014
 1009SOL    HW114663   1.487   1.925   4.088 -0.7934 -0.3929 -1.6975
 1009SOL    HW214664   1.400   1.968   4.205 -1.1672 -1.1233 -0.0492
 1010SOL     OW14665   2.267   2.824   2.441 -0.1629 -0.3952  0.3272
 1010SOL    HW114666   2.282   2.741   2.487 -1.5480  0.5117  2.4153
 1010SOL    HW214667   2.330   2.884   2.481  1.4374  1.0241 -4.3003
 1011SOL     OW14668   4.223   2.218   5.232 -0.3138 -0.2420  0.1130
 1011SOL    HW114669   4.199   2.134   5.192 -0.3856 -0.1037 -0.1379
 1011SOL    HW214670   4.263   2.199   5.316 -0.8379  0.3097  0.4823
 1012SOL     OW14671   1.184   0.760  10.823 -0.0267 -0.4417  0.8206
 1012SOL    HW114672   1.233   0.717  10.752  2.0082  1.9021  0.8054
 1012SOL    HW214673   1.102   0.789  10.782 -1.7953 -3.6971  2.0816
 1013SOL     OW14674   2.121   1.992   4.608  0.6599  0.1606 -0.4046
 1013SOL    HW114675   2.067   1.934   4.661  0.0608 -0.0041 -1.1986
 1013SOL    HW214676   2.209   1.954   4.616  1.0914  1.2310 -0.0188
 1014SOL     OW14677   4.558   3.922   6.046 -0.5696  0.3490  0.4369
 1014SOL    HW114678   4.577   3.972   6.125  0.4808 -0.4147  0.6633
 1014SOL    HW214679   4.647   3.919   6.011 -1.7928 -0.3042 -2.6204
 1015SOL     OW14680   3.919   3.377   8.087 -0.1145 -0.8097 -0.1838
 1015SOL    HW114681   3.998   3.344   8.130 -0.3464  0.2361  1.0523
 1015SOL    HW214682   3.852   3.310   8.100 -1.2441  0.1478 -1.0282
 1016SOL     OW14683   4.418   1.150   8.577 -0.0047  0.0368  0.3811
 1016SOL    HW114684   4.447   1.238   8.553  2.1343 -0.8534 -0.3002
 1016SOL    HW214685   4.365   1.125   8.502  1.3533  1.6327 -1.1415
 1017SOL     OW14686   1.580   1.048  12.257 -0.1667 -0.0150 -0.3980
 1017SOL    HW114687   1.564   1.101  12.335  4.3513 -0.7310  1.0112
 1017SOL    HW214688   1.494   1.020  12.224 -0.3477  1.0604 -0.8178
 1018SOL     OW14689   3.980   4.263  16.939 -0.3555  0.4953  0.2271
 1018SOL    HW114690   4.033   4.233  17.013 -0.4963  1.1277  0.5857
 1018SOL    HW214691   3.891   4.240  16.967  0.4830  0.7423  3.1345
 1019SOL     OW14692   3.645   1.104   3.990  0.2812 -0.8963 -0.6722
 1019SOL    HW114693   3.693   1.116   4.072 -0.8766  0.2200 -0.1487
 1019SOL    HW214694   3.560   1.136   4.020  0.5940 -0.5006 -0.2157
 1020SOL     OW14695   3.060   1.699   7.074  0.3224 -0.0475  0.5968
 1020SOL    HW114696   3.082   1.668   6.986 -1.5700  1.7925 -0.5371
 1020SOL    HW214697   3.103   1.624   7.116 -0.1693 -0.2439  0.7468
 1021SOL     OW14698   3.102   3.405  15.919 -0.3773  0.4801 -0.4626
 1021SOL    HW114699   3.050   3.485  15.912 -1.5769 -0.2876 -0.3569
 1021SOL    HW214700   3.090   3.384  16.012  3.4358  1.6614  0.2972
 1022SOL     OW14701   4.716   4.062   3.412  0.1525 -0.2132  0.0126
 1022SOL    HW114702   4.708   4.084   3.319 -0.5844 -1.0992 -0.1357
 1022SOL    HW214703   4.659   4.130   3.448 -0.1036 -0.0349 -0.7268
 1023SOL     OW14704   0.591   0.097  12.320 -0.1859 -0.2637 -0.0198
 1023SOL    HW114705   0.555   0.180  12.290 -0.0774  0.1195  0.9134
 1023SOL    HW214706   0.516   0.038  12.328  0.7613 -1.6232 -1.1815
 1024SOL     OW14707   3.292   4.163  16.364 -0.0057 -0.1965 -0.1749
 1024SOL    HW114708   3.367   4.185  16.419  0.1216  0.4233 -0.5903
 1024SOL    HW214709   3.248   4.091  16.408  0.9539 -1.0790 -0.6613
 1025SOL     OW14710   3.434   4.574   9.343 -0.5588 -0.1684  0.8647
 1025SOL    HW114711   3.508   4.514   9.351 -0.3715 -0.0295  0.1639
 1025SOL    HW214712   3.469   4.652   9.385  0.8182 -0.2993 -0.0355
 1026SOL     OW14713   0.761   4.288   7.563  0.4662  0.4325  0.1975
 1026SOL    HW114714   0.721   4.285   7.650 -0.1938 -1.9380 -0.1969
 1026SOL    HW214715   0.691   4.260   7.503  2.3274 -1.3019 -1.1793
 1027SOL     OW14716   1.771   4.733  10.645 -0.3583  0.0852 -0.1889
 1027SOL    HW114717   1.761   0.024  10.736  2.2207 -0.7818  0.3771
 1027SOL    HW214718   1.847   4.676  10.659 -0.4319  0.4204  1.6370
 1028SOL     OW14719   2.786   2.399   1.356  0.1222 -0.4997 -0.5242
 1028SOL    HW114720   2.730   2.388   1.432  0.6513 -0.2945 -0.1033
 1028SOL    HW214721   2.876   2.396   1.390 -0.0301 -0.0387 -0.0813
 1029SOL     OW14722   1.730   4.666   3.796 -0.0432  0.2926 -0.0305
 1029SOL    HW114723   1.746   4.713   3.714  4.7714  3.2229  2.6377
 1029SOL    HW214724   1.688   4.735   3.847 -0.8325  0.9534 -1.5734
 1030SOL     OW14725   4.698   2.488   2.591  0.2813 -0.2548 -0.3334
 1030SOL    HW114726   0.004   2.542   2.524  0.6923  2.6292  2.2595
 1030SOL    HW214727   4.697   2.402   2.550 -0.3741 -0.5488  0.3005
 1031SOL     OW14728   4.445   1.511   4.341  0.2673 -0.6233 -0.5819
 1031SOL    HW114729   4.516   1.550   4.392 -1.8232  1.2757  0.8893
 1031SOL    HW214730   4.455   1.566   4.264 -1.0308  1.4504  0.7102
 1032SOL     OW14731   4.221   0.160  16.296 -0.1114  0.3304 -0.1279
 1032SOL    HW114732   4.184   0.215  16.366  0.6155  1.1377 -0.3842
 1032SOL    HW214733   4.286   0.221  16.261 -0.2516  0.2330 -0.5565
 1033SOL     OW14734   2.123   4.245   2.274 -0.3974 -0.1631  0.1849
 1033SOL    HW114735   2.169   4.288   2.346  0.7824  0.2945 -0.8478
 1033SOL    HW214736   2.033   4.279   2.283 -0.4244 -0.9404  2.8188
 1034SOL     OW14737   0.055   4.042  10.271  0.0838  0.8240 -0.6478
 1034SOL    HW114738   0.100   4.126  10.260 -1.4293  1.3542 -2.7880
 1034SOL    HW214739   4.703   4.078  10.274  0.4842  1.8888 -1.4252
 1035SOL     OW14740   2.836   4.001  12.653  0.1369  0.4456  0.1110
 1035SOL    HW114741   2.788   3.949  12.716  0.3579 -0.4910 -0.4820
 1035SOL    HW214742   2.888   3.927  12.620 -0.4644  1.2183 -2.6238
 1036SOL     OW14743   3.838   1.073   5.403 -0.3606  0.0894  0.2787
 1036SOL    HW114744   3.762   1.076   5.461  0.0105 -0.9178  0.8156
 1036SOL    HW214745   3.804   1.096   5.317  1.3657  1.8745  0.0751
 1037SOL     OW14746   2.270   0.674   0.359 -0.5563  0.2379 -0.4695
 1037SOL    HW114747   2.283   0.617   0.284 -1.1487  0.0755 -0.4476
 1037SOL    HW214748   2.224   0.748   0.319 -0.7578  0.9196  1.0192
 1038SOL     OW14749   0.210   1.116   5.112  0.0930 -0.5107 -0.5760
 1038SOL    HW114750   0.244   1.079   5.193 -0.2537 -1.1769 -0.7364
 1038SOL    HW214751   0.204   1.043   5.051 -1.1392  1.1499 -2.4358
 1039SOL     OW14752   2.659   4.194   8.309  0.0034 -0.3989 -0.4257
 1039SOL    HW114753   2.744   4.169   8.273 -0.3879  0.8152 -2.1867
 1039SOL    HW214754   2.686   4.237   8.391  2.3776  0.6333 -1.7280
 1040SOL     OW14755   4.219   3.469   4.330  0.2892  0.0469 -0.1321
 1040SOL    HW114756   4.245   3.439   4.417  1.0004  0.9021 -0.0556
 1040SOL    HW214757   4.194   3.383   4.295  2.5680 -1.9099  2.9690
 1041SOL     OW14758   2.044   3.265   8.742  0.0799  0.0908  0.1733
 1041SOL    HW114759   1.984   3.221   8.682  2.3093 -1.7923 -0.6684
 1041SOL    HW214760   2.027   3.356   8.717  0.1363  0.6927  2.3723
 1042SOL     OW14761   4.607   3.696  11.511 -0.3538  0.2697  0.6180
 1042SOL    HW114762   4.537   3.664  11.569  0.0463 -0.6272  0.6102
 1042SOL    HW214763   4.626   3.781  11.550  0.8440 -0.0936  0.8367
 1043SOL     OW14764   2.076   1.150   5.138  0.2712 -0.0080  0.9376
 1043SOL    HW114765   2.062   1.138   5.232 -2.6547  0.1591  0.5004
 1043SOL    HW214766   2.148   1.088   5.121 -2.5049 -3.2791  1.0411
 1044SOL     OW14767   3.594   3.556   5.387  0.2714  0.5822  0.1709
 1044SOL    HW114768   3.644   3.636   5.403  1.1498  0.0254  0.2084
 1044SOL    HW214769   3.578   3.515   5.472  0.6252  3.1864  1.4800
 1045SOL     OW14770   4.441   0.304   9.312  0.0643  0.4079  0.5373
 1045SOL    HW114771   4.462   0.211   9.299  0.1655  0.1318  2.7062
 1045SOL    HW214772   4.374   0.312   9.380  0.0681 -0.6761  0.6793
 1046SOL     OW14773   2.487   0.565   2.272 -0.3447 -0.1001  0.1041
 1046SOL    HW114774   2.467   0.625   2.201  1.8543  1.2722  0.6308
 1046SOL    HW214775   2.449   0.488   2.230  0.5435 -0.9876  0.9034
 1047SOL     OW14776   2.520   0.687   9.864  0.5697 -0.4783 -0.1685
 1047SOL    HW114777   2.561   0.711   9.948  0.6023 -2.7369  0.4779
 1047SOL    HW214778   2.547   0.759   9.808 -1.0318 -0.2450 -0.6378
 1048SOL     OW14779   3.547   2.097   2.614 -0.1105 -0.1581 -0.0699
 1048SOL    HW114780   3.508   2.109   2.528 -1.6010  0.6489  0.7179
 1048SOL    HW214781   3.519   2.008   2.636 -0.4290 -0.6102 -2.3429
 1049SOL     OW14782   1.816   4.331  11.905 -0.1703 -0.1979 -0.4826
 1049SOL    HW114783   1.897   4.347  11.855 -0.6152  1.0630 -0.8194
 1049SOL    HW214784   1.793   4.250  11.860 -2.0681  0.6492 -1.0380
 1050SOL     OW14785   0.698   0.345  10.739  0.0834 -0.3388  0.2031
 1050SOL    HW114786   0.715   0.399  10.661  2.5455  1.3715  1.9278
 1050SOL    HW214787   0.608   0.333  10.710 -0.2781  0.4472  1.0081
 1051SOL     OW14788   4.654   4.100   2.537  0.1493 -0.5109  0.3107
 1051SOL    HW114789   4.650   4.076   2.444  0.2729  1.1786 -0.1300
 1051SOL    HW214790   4.574   4.152   2.543 -0.6765 -1.7230 -0.0929
 1052SOL     OW14791   3.100   0.543  12.797  0.1920  0.1320  0.5566
 1052SOL    HW114792   3.158   0.467  12.788  0.0461 -0.1481  1.8862
 1052SOL    HW214793   3.023   0.532  12.742  0.4974  0.1085  0.1295
 1053SOL     OW14794   0.282   2.133   2.003  0.3446  0.8421  0.0378
 1053SOL    HW114795   0.304   2.208   1.948  0.2807  0.2874 -0.7422
 1053SOL    HW214796   0.187   2.147   2.005 -0.0164 -1.4919 -1.2524
 1054SOL     OW14797   4.208   2.732   2.820  0.4482 -0.0356  0.0800
 1054SOL    HW114798   4.177   2.778   2.743  0.5087 -2.2494 -1.2713
 1054SOL    HW214799   4.283   2.682   2.787  1.4617  1.9591 -0.6787
 1055SOL     OW14800   4.128   0.301   4.176 -0.9973 -0.1037  0.3853
 1055SOL    HW114801   4.034   0.309   4.190 -0.9270  3.2986 -1.2327
 1055SOL    HW214802   4.142   0.206   4.168 -0.9904 -0.1550  1.0065
 1056SOL     OW14803   3.317   0.875   5.877 -0.8089 -0.0936 -0.8995
 1056SOL    HW114804   3.236   0.830   5.901 -0.2802  0.4946  2.0407
 1056SOL    HW214805   3.294   0.949   5.822  1.6592 -0.9125 -3.0089
 1057SOL     OW14806   3.083   3.199   2.657 -0.2431 -0.6818  0.0445
 1057SOL    HW114807   3.149   3.236   2.716  0.9596 -3.8245  0.6930
 1057SOL    HW214808   3.078   3.107   2.686 -0.2744 -1.0414 -1.0989
 1058SOL     OW14809   4.656   2.944   1.710  0.2759  0.0868 -0.5188
 1058SOL    HW114810   4.611   2.909   1.633  0.0672  0.8905 -0.7721
 1058SOL    HW214811   4.644   2.865   1.763 -2.7373  0.4002 -0.7130
 1059SOL     OW14812   3.604   1.179  14.738  0.5451  0.1724  0.0395
 1059SOL    HW114813   3.697   1.199  14.744  0.3673  0.6767  1.1573
 1059SOL    HW214814   3.585   1.136  14.822  0.8096  0.0975  0.0612
 1060SOL     OW14815   4.615   2.168  17.689 -0.0305  0.5040 -0.3769
 1060SOL    HW114816   4.679   2.236  17.712  0.7101 -0.1301 -0.5401
 1060SOL    HW214817   4.623   2.106   0.016  0.4164 -1.0459 -1.7654
 1061SOL     OW14818   1.606   3.990   1.347  0.1466  0.5250  0.8621
 1061SOL    HW114819   1.512   3.974   1.344 -0.0245  1.9231 -1.6148
 1061SOL    HW214820   1.615   4.064   1.286 -1.9870  1.7368  2.0034
 1062SOL     OW14821   4.443   2.427   1.213 -0.5568 -0.0153 -0.3927
 1062SOL    HW114822   4.429   2.382   1.296 -1.3038 -1.1270 -1.1105
 1062SOL    HW214823   4.454   2.517   1.245  1.7856 -0.4755  0.0720
 1063SOL     OW14824   4.311   1.588   3.253  0.2113 -0.4425 -0.1463
 1063SOL    HW114825   4.344   1.663   3.203 -1.2947 -0.1463 -0.6865
 1063SOL    HW214826   4.246   1.549   3.195 -0.3891  0.3745 -0.0215
 1064SOL     OW14827   1.789   1.229   1.989  0.2475  0.3851  0.2049
 1064SOL    HW114828   1.758   1.304   2.040 -0.2221  0.3737 -0.0595
 1064SOL    HW214829   1.712   1.172   1.989 -0.5557  1.4838 -0.2911
 1065SOL     OW14830   0.145   3.668   3.126 -0.6401  0.2337 -0.3199
 1065SOL    HW114831   0.077   3.707   3.180 -2.8035 -2.1628 -1.3296
 1065SOL    HW214832   0.114   3.693   3.038 -0.6515  0.0303 -0.3726
 1066SOL     OW14833   4.390   1.831   5.512 -0.1389 -0.6401 -0.5419
 1066SOL    HW114834   4.319   1.769   5.528 -1.2675  0.3315 -1.7821
 1066SOL    HW214835   4.409   1.881   5.591 -2.2652  0.2171 -0.5750
 1067SOL     OW14836   0.285   0.558   9.551 -0.7578 -0.5755  0.6248
 1067SOL    HW114837   0.306   0.531   9.640 -1.3830 -0.0654  0.9258
 1067SOL    HW214838   0.263   0.475   9.507 -1.0784 -0.6284  0.8857
 1068SOL     OW14839   1.014   1.060  11.696  0.1353 -0.0381  0.7239
 1068SOL    HW114840   1.024   0.976  11.651  4.1125  0.5551  0.5112
 1068SOL    HW214841   1.106   1.078  11.713  0.3927 -0.5383 -0.1385
 1069SOL     OW14842   3.272   3.019   2.030  0.6412  0.0138  0.0394
 1069SOL    HW114843   3.198   2.967   2.061 -0.0958  1.8145  1.3301
 1069SOL    HW214844   3.337   3.006   2.100 -2.2309 -0.6331  2.5823
 1070SOL     OW14845   0.919   4.554  14.046  0.7896  0.6348 -0.2400
 1070SOL    HW114846   0.907   4.515  13.959  3.2718  0.7192 -0.6166
 1070SOL    HW214847   0.939   4.479  14.102 -2.0059  0.1382  0.1092
 1071SOL     OW14848   4.449   4.071   7.038  0.0499 -0.9682 -0.2952
 1071SOL    HW114849   4.442   4.072   7.134 -1.5705  2.1635 -0.4383
 1071SOL    HW214850   4.453   3.976   7.032 -0.6667 -1.1418  1.8019
 1072SOL     OW14851   0.929   0.967  16.105  0.2542 -0.0694 -0.0392
 1072SOL    HW114852   0.940   0.983  16.198  1.5067  1.9603 -0.5293
 1072SOL    HW214853   0.914   0.873  16.094  0.3258 -0.3890  2.6976
 1073SOL     OW14854   3.730   2.060   6.959  0.0315 -0.1961  0.5537
 1073SOL    HW114855   3.786   2.129   6.995  2.2814 -1.0941 -1.2524
 1073SOL    HW214856   3.650   2.095   6.998 -0.2950 -0.4797  0.1365
 1074SOL     OW14857   0.194   0.638   2.894 -0.0073 -0.2325 -0.3086
 1074SOL    HW114858   0.109   0.598   2.910  0.7469 -2.6001 -2.1641
 1074SOL    HW214859   0.244   0.567   2.935  2.1294  1.5928  0.2583
 1075SOL     OW14860   2.414   0.929   1.336 -0.0128  0.3157  0.2487
 1075SOL    HW114861   2.494   0.880   1.351 -1.1805 -2.9113 -3.9702
 1075SOL    HW214862   2.416   0.946   1.241 -2.0218 -1.9094 -0.2106
 1076SOL     OW14863   1.639   0.991   4.967 -0.1730 -0.2460  0.9706
 1076SOL    HW114864   1.597   0.908   4.948 -0.5615  0.1303  0.2081
 1076SOL    HW214865   1.569   1.047   5.001 -0.3034 -0.0970  0.4465
 1077SOL     OW14866   1.937   3.600  15.541 -0.2276 -0.4488 -0.0151
 1077SOL    HW114867   1.979   3.686  15.549 -2.3552  0.5940  0.0743
 1077SOL    HW214868   1.854   3.637  15.510  0.7121 -0.1230 -2.1067
 1078SOL     OW14869   0.068   0.021   7.696  0.2578  0.9682 -0.2125
 1078SOL    HW114870   0.086   0.013   7.790 -2.1064  2.3629  0.3580
 1078SOL    HW214871   0.053   0.114   7.681 -1.6082  0.9289  1.3893
 1079SOL     OW14872   1.096   4.005   2.177  0.1806 -0.4160 -0.8283
 1079SOL    HW114873   1.080   4.056   2.097  0.2301  1.6330  0.4804
 1079SOL    HW214874   1.059   4.057   2.248  2.3240  0.1989 -0.1943
 1080SOL     OW14875   4.287   3.009   3.829  0.0140 -0.1162  0.0536
 1080SOL    HW114876   4.345   2.944   3.791 -0.5667 -0.2062 -0.6627
 1080SOL    HW214877   4.318   3.091   3.791  1.5617 -1.0234 -0.6330
 1081SOL     OW14878   1.316   0.220   7.382  0.2537  0.6039  0.0874
 1081SOL    HW114879   1.401   0.213   7.425  1.0617  1.0705 -1.4238
 1081SOL    HW214880   1.311   0.315   7.392 -0.2004  0.4493  1.3066
 1082SOL     OW14881   3.567   2.592   2.295  0.1806  0.4657 -0.2474
 1082SOL    HW114882   3.587   2.528   2.226  0.7235  0.5467 -0.1653
 1082SOL    HW214883   3.478   2.564   2.318 -0.5452 -0.1394 -3.8118
 1083SOL     OW14884   0.744   0.429  13.115  0.3359  0.4941 -0.1997
 1083SOL    HW114885   0.807   0.371  13.155  1.9148  1.2267 -1.6362
 1083SOL    HW214886   0.708   0.355  13.067 -0.3863 -1.3419  3.1555
 1084SOL     OW14887   2.133   2.336   9.631 -0.1495  0.2849  0.4417
 1084SOL    HW114888   2.138   2.363   9.539  2.3916 -1.4185  0.1075
 1084SOL    HW214889   2.068   2.399   9.661 -0.8014 -0.4389  0.5604
 1085SOL     OW14890   0.420   2.349  12.176  0.1028 -0.5429 -0.0359
 1085SOL    HW114891   0.374   2.324  12.257  2.0401  0.1778  1.2908
 1085SOL    HW214892   0.488   2.281  12.172  2.1214  1.6872 -3.9147
 1086SOL     OW14893   1.691   3.250  11.703  0.1595 -0.2308  0.1320
 1086SOL    HW114894   1.714   3.296  11.622  0.9472 -0.3883  0.2654
 1086SOL    HW214895   1.744   3.171  11.695  2.7333  1.3313  2.0585
 1087SOL     OW14896   4.511   0.036   9.372 -0.1779  0.4461 -0.3049
 1087SOL    HW114897   4.551   0.053   9.457  0.2197 -0.0500 -0.3980
 1087SOL    HW214898   4.498   4.678   9.372  1.5872  0.2031 -0.3509
 1088SOL     OW14899   3.732   3.045   5.143  0.9419 -0.0608 -0.4759
 1088SOL    HW114900   3.808   3.102   5.131  0.2969  1.3785  2.2411
 1088SOL    HW214901   3.734   3.010   5.054 -0.3706  3.9060 -2.0317
 1089SOL     OW14902   2.299   0.774   9.122  0.6646 -0.0681  0.2407
 1089SOL    HW114903   2.220   0.790   9.071  1.0552 -1.1319 -0.6917
 1089SOL    HW214904   2.300   0.678   9.122  1.7413 -0.0529  0.4648
 1090SOL     OW14905   3.963   1.827   8.058 -0.1675  0.2001  0.0153
 1090SOL    HW114906   4.039   1.882   8.079 -0.2670  0.2171  0.3201
 1090SOL    HW214907   4.002   1.741   8.041 -0.7247  0.5098 -2.9540
 1091SOL     OW14908   1.163   4.366   7.495 -0.1157  0.3754  0.0573
 1091SOL    HW114909   1.212   4.414   7.562 -0.8746  0.5934  0.4503
 1091SOL    HW214910   1.233   4.333   7.439 -1.3614 -2.3973  0.1552
 1092SOL     OW14911   3.005   2.092   6.259 -0.3297 -0.0842 -0.4705
 1092SOL    HW114912   3.048   2.044   6.331 -1.4161 -1.7319 -0.9141
 1092SOL    HW214913   3.085   2.120   6.215 -1.1179  3.2710  0.2844
 1093SOL     OW14914   2.126   4.655  16.498  0.8240 -0.6699 -0.0698
 1093SOL    HW114915   2.197   4.656  16.434  1.2667 -0.7965  0.4189
 1093SOL    HW214916   2.113   0.012  16.513  0.1041 -0.8632  0.5242
 1094SOL     OW14917   1.090   2.308  13.539  0.0434 -0.4809  0.1069
 1094SOL    HW114918   1.106   2.335  13.630  0.9489 -0.1371 -0.1552
 1094SOL    HW214919   1.017   2.361  13.508  1.4273  0.1126 -2.1432
 1095SOL     OW14920   1.106   4.656  16.467 -0.8625  0.2845 -0.5550
 1095SOL    HW114921   1.183   4.616  16.507 -0.8061  1.4267  0.5022
 1095SOL    HW214922   1.148   4.719  16.408 -1.5194  2.7853  1.6581
 1096SOL     OW14923   0.307   3.388   8.857  0.3981  0.3660  0.4050
 1096SOL    HW114924   0.294   3.319   8.923 -1.4794  2.1617  1.9254
 1096SOL    HW214925   0.398   3.409   8.876  0.9645 -0.7474 -1.0631
 1097SOL     OW14926   2.971   0.499   0.243 -0.6119 -0.2633 -0.5052
 1097SOL    HW114927   3.021   0.441   0.300 -1.3880 -1.2279 -0.7969
 1097SOL    HW214928   3.037   0.565   0.221  0.7560 -1.0937  1.1001
 1098SOL     OW14929   3.835   0.187   1.670  0.1203 -0.8565 -0.1732
 1098SOL    HW114930   3.779   0.229   1.605  0.1384 -1.7370 -0.7641
 1098SOL    HW214931   3.913   0.243   1.671 -0.3412 -0.2221 -0.2254
 1099SOL     OW14932   3.907   2.592   2.568 -0.6072  0.2728  0.1977
 1099SOL    HW114933   3.861   2.648   2.506  0.1147  3.1567  2.2977
 1099SOL    HW214934   3.865   2.508   2.548 -1.1540  1.0366 -1.8200
 1100SOL     OW14935   0.705   2.946   4.127 -0.7592  0.7421 -0.1548
 1100SOL    HW114936   0.755   2.887   4.071  0.7871  0.5076  1.4382
 1100SOL    HW214937   0.763   2.939   4.204 -1.2113  0.7506  0.1862
 1101SOL     OW14938   3.656   3.473   4.503  0.1642  0.0471  0.2571
 1101SOL    HW114939   3.718   3.401   4.492 -1.2986 -0.9036 -1.8086
 1101SOL    HW214940   3.627   3.495   4.414  1.0252  0.8266  0.1732
 1102SOL     OW14941   1.447   3.287   8.383 -0.1755  0.4008  0.0658
 1102SOL    HW114942   1.424   3.213   8.326 -0.9281 -0.7812  1.9049
 1102SOL    HW214943   1.416   3.259   8.469  3.5163 -0.0521  1.2282
 1103SOL     OW14944   0.763   0.920   2.282  0.1003  0.1668  0.1895
 1103SOL    HW114945   0.840   0.879   2.243  2.7429  3.0742  2.2989
 1103SOL    HW214946   0.785   1.013   2.282  0.3108  0.1152  2.1932
 1104SOL     OW14947   4.107   1.249   1.921 -0.2464  0.3632 -0.0073
 1104SOL    HW114948   4.188   1.253   1.972  0.4945  0.3485 -1.1749
 1104SOL    HW214949   4.140   1.287   1.839  1.5370 -0.3804  0.3635
 1105SOL     OW14950   2.249   4.345  15.262 -0.1413  0.0778  0.0980
 1105SOL    HW114951   2.283   4.421  15.216  1.0958 -1.6105 -1.7674
 1105SOL    HW214952   2.233   4.389  15.346 -0.7043 -1.2591  0.6951
 1106SOL     OW14953   3.098   2.877   2.161 -0.9093 -0.4683  0.4835
 1106SOL    HW114954   3.131   2.854   2.247  1.4838  1.1900  0.0196
 1106SOL    HW214955   3.003   2.883   2.174 -0.6789  0.0654  1.9338
 1107SOL     OW14956   1.696   2.744   7.998 -0.7568  0.4608  0.0354
 1107SOL    HW114957   1.708   2.731   7.904 -2.0275 -0.2157 -0.0362
 1107SOL    HW214958   1.612   2.788   8.006 -0.7531  0.0687  2.3945
 1108SOL     OW14959   4.559   3.890   3.592 -0.1928  0.3737 -0.6318
 1108SOL    HW114960   4.548   3.925   3.681  0.0844 -0.5274 -0.2433
 1108SOL    HW214961   4.612   3.959   3.554 -0.3818  0.7003 -0.3056
 1109SOL     OW14962   3.611   1.615   5.808  0.3545 -0.1978 -0.1254
 1109SOL    HW114963   3.668   1.685   5.842  1.1884 -1.2971  0.7445
 1109SOL    HW214964   3.597   1.654   5.722 -0.2719  0.7358  0.4024
 1110SOL     OW14965   4.304   2.425   9.461 -0.2392 -0.2198 -0.0369
 1110SOL    HW114966   4.288   2.350   9.517  0.5711 -0.1518  0.2857
 1110SOL    HW214967   4.268   2.497   9.514 -2.1617  0.0330 -1.6937
 1111SOL     OW14968   0.499   2.123   3.086 -0.3555 -0.4174 -0.1909
 1111SOL    HW114969   0.409   2.127   3.055 -0.1695 -2.3806 -0.9936
 1111SOL    HW214970   0.549   2.152   3.010  0.2789 -0.6825  0.1181
 1112SOL     OW14971   1.766   3.170   9.932  0.0834  0.0715  0.7018
 1112SOL    HW114972   1.809   3.253   9.949  1.9751 -1.1201  1.8267
 1112SOL    HW214973   1.672   3.184   9.926  0.6213  2.5004 -1.5562
 1113SOL     OW14974   3.321   2.868   8.542  0.7658 -0.2804  0.5649
 1113SOL    HW114975   3.322   2.783   8.586  1.4318 -1.0674 -0.9906
 1113SOL    HW214976   3.413   2.891   8.555  0.2742  2.1543 -0.3028
 1114SOL     OW14977   0.237   0.479   7.122  0.1270 -0.3022  0.0004
 1114SOL    HW114978   0.320   0.504   7.079  0.3197 -1.7015 -0.4365
 1114SOL    HW214979   0.177   0.495   7.049  0.1687 -0.2570 -0.0250
 1115SOL     OW14980   0.235   3.851   4.995 -0.6691  0.2479  0.5752
 1115SOL    HW114981   0.327   3.857   4.968 -1.2240  0.7199 -1.2413
 1115SOL    HW214982   0.193   3.849   4.909 -0.3939  0.0363  0.4437
 1116SOL     OW14983   2.313   2.731  13.278  0.7960  0.0952  0.6754
 1116SOL    HW114984   2.314   2.653  13.224  1.6096  0.8576 -0.3955
 1116SOL    HW214985   2.219   2.751  13.269 -0.0467 -3.7357  1.1635
 1117SOL     OW14986   0.458   1.045   5.224  0.3604 -0.1871  0.8258
 1117SOL    HW114987   0.476   0.974   5.286  1.6551 -0.8334 -0.3096
 1117SOL    HW214988   0.497   0.999   5.150  1.5465  1.1328  0.6379
 1118SOL     OW14989   4.353   2.519  16.765  0.4686  0.0953 -0.3951
 1118SOL    HW114990   4.382   2.608  16.746 -0.5813  0.6282  0.5332
 1118SOL    HW214991   4.312   2.538  16.849  0.0846 -1.3624 -0.2650
 1119SOL     OW14992   1.929   0.123   1.499 -0.4178 -0.5717 -0.1412
 1119SOL    HW114993   1.839   0.153   1.489 -0.1567  0.6762  1.2690
 1119SOL    HW214994   1.937   0.142   1.592  0.4718 -1.8736  0.0670
 1120SOL     OW14995   1.684   0.721   7.313 -0.1647  0.3357 -1.0227
 1120SOL    HW114996   1.773   0.755   7.302  0.0630  0.4315  1.0676
 1120SOL    HW214997   1.634   0.787   7.267  0.7295  1.8430  0.1573
 1121SOL     OW14998   2.858   0.093   8.180  0.7504  0.7219 -0.0685
 1121SOL    HW114999   2.813   0.099   8.095  0.3342  0.7649  0.1548
 1121SOL    HW215000   2.885   0.001   8.178 -1.5777  0.1295 -5.1950
 1122SOL     OW15001   2.644   2.788   1.662  0.2014 -0.0718  0.2710
 1122SOL    HW115002   2.662   2.695   1.671  0.3631 -0.0170  0.5007
 1122SOL    HW215003   2.549   2.787   1.647  0.3888 -1.6469 -0.7964
 1123SOL     OW15004   3.271   0.635  13.182  0.1029 -0.0540  0.0482
 1123SOL    HW115005   3.202   0.569  13.171 -0.7586  0.9383 -0.4143
 1123SOL    HW215006   3.248   0.678  13.264 -0.7444 -1.4096  0.5315
 1124SOL     OW15007   3.229   1.370   1.409  0.5864  0.3269 -0.2254
 1124SOL    HW115008   3.314   1.389   1.450 -0.9152 -0.4588  3.2375
 1124SOL    HW215009   3.185   1.302   1.459  2.5065 -1.0107 -0.3301
 1125SOL     OW15010   1.388   0.736  14.747 -0.0066 -0.1734  0.3602
 1125SOL    HW115011   1.455   0.794  14.783  0.6196 -0.1866 -0.7852
 1125SOL    HW215012   1.440   0.699  14.676  1.5985 -0.0493  1.4560
 1126SOL     OW15013   1.617   1.252  10.504 -0.3032 -0.1338 -0.0910
 1126SOL    HW115014   1.569   1.263  10.586 -2.9849  0.3849 -1.7455
 1126SOL    HW215015   1.634   1.158  10.506 -0.4207 -0.1024  2.6272
 1127SOL     OW15016   4.082   0.001   7.397 -0.3018 -0.2772 -0.2419
 1127SOL    HW115017   4.146   0.072   7.401  0.1830 -0.7795  0.8030
 1127SOL    HW215018   4.001   0.052   7.399  0.5901  1.1939 -1.3493
 1128SOL     OW15019   2.461   1.266   8.285  0.0101  0.7100  0.5894
 1128SOL    HW115020   2.465   1.278   8.380  1.2238  2.5217  0.3162
 1128SOL    HW215021   2.436   1.173   8.282  3.0091 -0.0863  0.5530
 1129SOL     OW15022   2.828   2.921   4.546  0.1988  0.2998  0.0417
 1129SOL    HW115023   2.848   2.963   4.630  1.0530 -1.1936  0.5952
 1129SOL    HW215024   2.875   2.837   4.555  0.7563  0.4411 -1.5538
 1130SOL     OW15025   2.764   2.979   5.141  0.4364  0.0580  0.4884
 1130SOL    HW115026   2.755   2.904   5.200 -1.1404 -1.6603 -1.9216
 1130SOL    HW215027   2.694   3.033   5.176  0.4316 -0.5813  1.4519
 1131SOL     OW15028   3.664   1.836   3.132  0.5183  0.1365  0.3936
 1131SOL    HW115029   3.574   1.863   3.114  0.3279 -0.1638  0.8870
 1131SOL    HW215030   3.687   1.901   3.199 -0.5032 -0.4056  1.2829
 1132SOL     OW15031   1.420   1.545   7.267 -0.1035 -0.9266 -0.0074
 1132SOL    HW115032   1.411   1.610   7.337 -0.2366 -1.3857  0.4053
 1132SOL    HW215033   1.507   1.509   7.282 -0.7196 -1.8484  1.3745
 1133SOL     OW15034   1.926   2.340   3.344 -0.8401  0.0669 -0.2694
 1133SOL    HW115035   1.884   2.326   3.258 -2.7545 -2.3283  1.0430
 1133SOL    HW215036   1.890   2.418   3.385 -1.2023 -2.1010  3.5703
 1134SOL     OW15037   0.946   2.988   4.927 -0.0759 -0.1860  0.4211
 1134SOL    HW115038   0.983   2.938   4.854 -0.2814 -0.7455  0.7046
 1134SOL    HW215039   1.022   3.029   4.967  0.0318  1.7102 -1.7331
 1135SOL     OW15040   0.868   1.181   1.959  0.6761 -0.2086 -0.2095
 1135SOL    HW115041   0.839   1.160   1.870 -0.1074 -0.2322  0.0519
 1135SOL    HW215042   0.844   1.274   1.957  3.3737  0.4848 -0.6022
 1136SOL     OW15043   2.029   1.712  10.960 -0.0201 -0.4865 -0.1169
 1136SOL    HW115044   2.034   1.759  11.043 -0.4896  1.5163 -1.2136
 1136SOL    HW215045   2.098   1.646  10.964  1.2065  0.8264  0.5425
 1137SOL     OW15046   0.262   3.599   7.453 -0.2086  0.0667 -0.0852
 1137SOL    HW115047   0.280   3.692   7.441  0.1002 -0.2893 -2.3759
 1137SOL    HW215048   0.259   3.553   7.369 -0.0889 -0.4240  0.1773
 1138SOL     OW15049   1.230   0.602   3.672  0.3047 -0.2330  0.2086
 1138SOL    HW115050   1.304   0.634   3.621 -1.8413  1.1715 -2.0074
 1138SOL    HW215051   1.173   0.678   3.666  0.3016 -0.3877 -1.7257
 1139SOL     OW15052   0.173   0.359  13.162 -0.3738  0.2329 -0.1895
 1139SOL    HW115053   0.127   0.388  13.241  0.3917 -0.5803  0.5644
 1139SOL    HW215054   0.264   0.389  13.167  0.9909 -3.7116 -1.2020
 1140SOL     OW15055   1.529   1.495   3.148  0.3056  0.2058  0.1230
 1140SOL    HW115056   1.499   1.551   3.076 -0.8238  1.6701  1.7099
 1140SOL    HW215057   1.462   1.427   3.138 -0.4781  1.1977 -1.4194
 1141SOL     OW15058   1.218   3.209   9.001  0.3684 -0.2389  0.5712
 1141SOL    HW115059   1.296   3.213   9.055  1.8494 -1.1290 -1.4856
 1141SOL    HW215060   1.152   3.172   9.060 -0.9643 -1.1414 -1.4856
 1142SOL     OW15061   0.546   4.553   3.604 -0.1993 -0.0431 -0.0657
 1142SOL    HW115062   0.472   4.495   3.621  2.0671 -2.6822  0.7449
 1142SOL    HW215063   0.567   4.590   3.690  3.2546 -0.0141 -0.9297
 1143SOL     OW15064   1.419   0.571   0.762  0.1510 -0.0080  0.6070
 1143SOL    HW115065   1.505   0.564   0.804 -0.0925  0.8842  1.2644
 1143SOL    HW215066   1.372   0.617   0.832  0.1979 -0.0395  0.6587
 1144SOL     OW15067   2.356   1.284   8.578  0.1267  0.2556 -0.0540
 1144SOL    HW115068   2.314   1.240   8.652 -0.0765  2.6406  1.2621
 1144SOL    HW215069   2.392   1.363   8.619 -0.0706  0.7096 -0.7644
 1145SOL     OW15070   1.486   1.216  12.439 -0.1169 -0.3642  0.1245
 1145SOL    HW115071   1.447   1.196  12.524  1.1012 -1.6869  0.3606
 1145SOL    HW215072   1.522   1.304  12.451 -0.1368 -0.4793  0.9901
 1146SOL     OW15073   3.886   3.191   5.922  0.2316 -0.1953  0.6310
 1146SOL    HW115074   3.911   3.264   5.866 -1.9934  0.5252  0.5520
 1146SOL    HW215075   3.945   3.123   5.890 -1.8851 -1.6290 -0.2719
 1147SOL     OW15076   0.012   4.001   7.005 -0.0288 -0.4196  0.1854
 1147SOL    HW115077   0.098   4.032   6.976 -0.8678  2.2646  0.6489
 1147SOL    HW215078   4.734   3.931   6.941 -2.6950  0.9256 -0.6605
 1148SOL     OW15079   1.220   0.347   5.300 -0.1078  0.9049  0.4370
 1148SOL    HW115080   1.147   0.403   5.275 -0.2683  0.6285  0.2842
 1148SOL    HW215081   1.280   0.371   5.229  2.1707  1.6642  2.6372
 1149SOL     OW15082   4.388   1.698  10.011 -0.0966  0.1010  0.1087
 1149SOL    HW115083   4.435   1.617   9.992  1.5902  0.7872  1.4125
 1149SOL    HW215084   4.430   1.760   9.951 -0.3360  0.1731  0.0156
 1150SOL     OW15085   4.605   0.654  14.275  0.2637  0.1899 -0.8947
 1150SOL    HW115086   4.692   0.695  14.272  0.0612  0.8551  3.0721
 1150SOL    HW215087   4.555   0.735  14.281 -0.9711 -0.8981  3.0617
 1151SOL     OW15088   0.779   1.171  12.872  0.1621  0.6761  0.2528
 1151SOL    HW115089   0.735   1.139  12.793 -0.2352  0.3265  0.6191
 1151SOL    HW215090   0.735   1.255  12.883 -1.8709 -0.2219 -1.0633
 1152SOL     OW15091   0.388   4.168   3.949 -0.5163 -0.1170  0.3113
 1152SOL    HW115092   0.361   4.078   3.967  0.4109  0.0464  2.5953
 1152SOL    HW215093   0.428   4.170   3.862 -1.5798 -1.3289 -0.1982
 1153SOL     OW15094   2.565   4.632   4.101 -0.4712 -0.7102  0.2349
 1153SOL    HW115095   2.627   4.639   4.029 -1.5256 -0.0678 -0.6068
 1153SOL    HW215096   2.499   4.696   4.076  0.0486  0.5818  2.1303
 1154SOL     OW15097   3.991   4.430  10.266 -0.1826 -0.0391 -0.0268
 1154SOL    HW115098   4.022   4.514  10.299 -2.0589  0.6888 -0.1468
 1154SOL    HW215099   4.066   4.404  10.213  1.8319  1.0648  2.2842
 1155SOL     OW15100   3.536   1.165   3.640  0.2097  0.2422 -0.6263
 1155SOL    HW115101   3.546   1.114   3.560 -2.5035 -0.9547 -0.2128
 1155SOL    HW215102   3.459   1.216   3.614 -0.0123  0.7996  1.1150
 1156SOL     OW15103   1.079   2.685   7.968 -0.8073  0.7005 -0.4524
 1156SOL    HW115104   0.996   2.732   7.972 -0.9257  0.2134  2.7188
 1156SOL    HW215105   1.141   2.743   7.922  0.1375  0.2086  0.2088
 1157SOL     OW15106   4.646   3.192  16.143  0.2789 -0.0235  0.6636
 1157SOL    HW115107   4.722   3.172  16.199 -0.5812 -0.7661  1.5675
 1157SOL    HW215108   4.678   3.175  16.055 -1.9337  1.0065 -0.3198
 1158SOL     OW15109   1.293   2.601   3.391  0.3634 -0.3734 -0.1900
 1158SOL    HW115110   1.365   2.638   3.442 -0.7957  0.9963  0.4644
 1158SOL    HW215111   1.337   2.602   3.306 -0.9412  0.7258 -0.8650
 1159SOL     OW15112   4.106   3.299   6.396  0.3813 -0.2599  0.3748
 1159SOL    HW115113   4.171   3.232   6.420  0.4533 -0.1308  0.5368
 1159SOL    HW215114   4.155   3.350   6.332  1.3691 -0.9512  0.5682
 1160SOL     OW15115   3.650   2.180  14.516  0.2989 -0.0703  0.4605
 1160SOL    HW115116   3.696   2.096  14.514 -3.0629 -1.8368 -2.0731
 1160SOL    HW215117   3.691   2.215  14.595 -0.9707  1.0182  0.6212
 1161SOL     OW15118   3.908   3.846  16.073  0.2498 -0.3616 -0.1813
 1161SOL    HW115119   3.909   3.918  16.009 -0.9609  2.6714  3.1870
 1161SOL    HW215120   3.985   3.872  16.124  0.1961  1.8923 -1.2198
 1162SOL     OW15121   0.902   1.901   7.525 -0.4276  0.0661 -0.0473
 1162SOL    HW115122   0.972   1.847   7.563 -0.5380 -0.4867 -0.6308
 1162SOL    HW215123   0.895   1.971   7.590  0.7339 -0.6083  0.8140
 1163SOL     OW15124   0.319   3.966   3.127 -0.1573 -0.0601  0.1968
 1163SOL    HW115125   0.363   3.967   3.212  1.3890 -0.5366 -0.6048
 1163SOL    HW215126   0.331   3.874   3.102  1.9390  0.6725 -1.4457
 1164SOL     OW15127   3.779   4.304   2.018  0.1008  0.3298  0.0866
 1164SOL    HW115128   3.862   4.351   2.022 -0.7048  1.7536  0.0444
 1164SOL    HW215129   3.731   4.375   1.977 -0.9187 -1.1946 -1.3513
 1165SOL     OW15130   1.125   1.644   8.374  0.1359 -0.2832 -0.4336
 1165SOL    HW115131   1.083   1.594   8.445 -0.6779  0.3981 -0.4363
 1165SOL    HW215132   1.215   1.660   8.402  0.4528 -0.9073 -1.0997
 1166SOL     OW15133   1.872   4.409   0.643 -0.2625  0.0344  0.2510
 1166SOL    HW115134   1.837   4.416   0.732  1.0156  2.4450  0.5383
 1166SOL    HW215135   1.928   4.332   0.653 -0.6334 -0.3683 -0.7501
 1167SOL     OW15136   1.343   4.158  14.160  0.5182 -0.1858  0.2552
 1167SOL    HW115137   1.328   4.149  14.254 -0.3141 -0.7927  0.0696
 1167SOL    HW215138   1.436   4.157  14.138  0.4502  1.9348 -0.1473
 1168SOL     OW15139   1.621   3.432   1.317  0.4215  0.5634  0.4338
 1168SOL    HW115140   1.664   3.390   1.243  0.5063  2.7371 -0.7502
 1168SOL    HW215141   1.582   3.512   1.281  0.2987  1.4593  2.5588
 1169SOL     OW15142   3.345   1.701  12.186 -0.2853  0.3291 -0.4006
 1169SOL    HW115143   3.425   1.750  12.167  0.5540 -1.1053 -0.5717
 1169SOL    HW215144   3.349   1.627  12.124  2.8062  1.4726 -1.5889
 1170SOL     OW15145   4.286   4.593  12.468  0.2273 -0.2029 -0.0723
 1170SOL    HW115146   4.285   4.556  12.556 -1.0540 -0.5961 -0.2559
 1170SOL    HW215147   4.207   4.647  12.473  0.0621 -0.1634 -3.5682
 1171SOL     OW15148   3.915   4.412   3.957 -0.0502  0.7231  0.5798
 1171SOL    HW115149   3.922   4.494   3.909 -0.6747 -0.2486 -1.1597
 1171SOL    HW215150   3.890   4.348   3.890  0.6152 -1.3522  2.2921
 1172SOL     OW15151   0.894   0.138  12.101 -0.4208 -0.1561 -0.4600
 1172SOL    HW115152   0.990   0.135  12.112 -0.3954 -2.0931 -1.2697
 1172SOL    HW215153   0.875   0.216  12.153 -1.6431 -0.1191 -0.9754
 1173SOL     OW15154   2.282   1.284  10.418  0.1524 -0.0977 -0.4541
 1173SOL    HW115155   2.353   1.219  10.412  2.0774  1.9428  0.4356
 1173SOL    HW215156   2.270   1.296  10.512  2.4572 -0.6864 -0.0774
 1174SOL     OW15157   4.595   1.265   6.109  0.5140 -0.4911  0.4609
 1174SOL    HW115158   4.686   1.239   6.125  0.5399 -0.0193  1.0474
 1174SOL    HW215159   4.588   1.251   6.015 -2.0847 -2.5272  0.9610
 1175SOL     OW15160   0.399   1.971  16.000  0.1703  0.3696 -0.3203
 1175SOL    HW115161   0.367   1.978  16.090  0.1982 -1.1017 -0.2064
 1175SOL    HW215162   0.334   2.019  15.948  1.0494  1.3913 -0.4777
 1176SOL     OW15163   1.665   2.031   2.693 -0.0537  0.2579  0.1597
 1176SOL    HW115164   1.658   1.983   2.776 -4.5897  0.9455  0.2105
 1176SOL    HW215165   1.759   2.044   2.681  0.3245 -0.2741  2.4092
 1177SOL     OW15166   1.345   2.872   0.791  0.0011  0.1592 -0.7378
 1177SOL    HW115167   1.428   2.845   0.829 -0.9589  0.5339  1.6233
 1177SOL    HW215168   1.335   2.795   0.736  0.1998 -0.6605  0.3776
 1178SOL     OW15169   4.005   3.272   4.852  0.2511 -0.4497  0.7365
 1178SOL    HW115170   4.011   3.231   4.766 -0.2980  0.3287  0.3337
 1178SOL    HW215171   4.060   3.216   4.908 -0.5260 -2.0167 -0.0590
 1179SOL     OW15172   4.086   4.066  16.171 -0.1205 -0.1280 -0.3390
 1179SOL    HW115173   4.028   4.142  16.171  0.4065  0.2703  2.3668
 1179SOL    HW215174   4.110   4.050  16.080 -0.9606 -1.8070 -0.2620
 1180SOL     OW15175   1.604   3.293   4.486  0.5955 -0.1061  0.3857
 1180SOL    HW115176   1.550   3.271   4.410 -1.0081  1.0167  1.2058
 1180SOL    HW215177   1.632   3.208   4.520 -0.5273  0.5465  2.9345
 1181SOL     OW15178   0.505   4.611   4.654 -0.5220  0.1492 -0.7076
 1181SOL    HW115179   0.441   4.547   4.620 -0.8690 -0.2581  0.7263
 1181SOL    HW215180   0.455   4.688   4.628 -2.4106 -0.9155 -0.2882
 1182SOL     OW15181   2.367   4.724   2.441 -0.3626  0.3281 -0.2709
 1182SOL    HW115182   2.272   4.733   2.425 -0.9200  0.5722  3.3361
 1182SOL    HW215183   2.397   0.014   2.354 -0.8883  0.9178 -0.2696
 1183SOL     OW15184   3.489   0.136   1.396 -0.3499 -0.0090 -0.5214
 1183SOL    HW115185   3.400   0.136   1.361 -0.6299 -2.3961  0.1813
 1183SOL    HW215186   3.541   0.111   1.320 -1.5156  0.3524 -1.4456
 1184SOL     OW15187   2.638   4.652   0.335  0.3603 -0.3312 -0.5364
 1184SOL    HW115188   2.581   4.601   0.278  0.1057 -0.9969  0.3107
 1184SOL    HW215189   2.621   4.727   0.278  1.3670  0.4004  0.1105
 1185SOL     OW15190   2.981   1.904   2.633  0.2513 -0.1086  0.3224
 1185SOL    HW115191   2.921   1.958   2.685 -0.8740  0.7786 -1.9032
 1185SOL    HW215192   3.046   1.970   2.608  0.3643 -1.0233 -1.7233
 1186SOL     OW15193   0.873   4.331   3.327 -0.2703 -0.3887  0.5276
 1186SOL    HW115194   0.905   4.415   3.360  1.5116 -1.5453  1.7300
 1186SOL    HW215195   0.959   4.296   3.305  0.2094  0.0681  1.6718
 1187SOL     OW15196   3.120   1.761   6.677 -0.5237  0.9765  0.4853
 1187SOL    HW115197   3.064   1.690   6.647  0.9797 -0.3522  0.8032
 1187SOL    HW215198   3.063   1.838   6.674  0.6104  1.7938 -0.1418
 1188SOL     OW15199   1.581   0.035   1.694 -0.1488 -0.0844 -0.1302
 1188SOL    HW115200   1.596   0.066   1.605 -0.4745 -0.0502 -0.1735
 1188SOL    HW215201   1.644   4.701   1.704  0.0806  0.0100 -0.9757
 1189SOL     OW15202   3.355   0.318   1.826  0.0096 -0.5053 -0.4839
 1189SOL    HW115203   3.408   0.247   1.789  0.9014 -0.0550 -0.0704
 1189SOL    HW215204   3.384   0.393   1.774 -1.9079  0.4248 -0.2336
 1190SOL     OW15205   2.920   2.573  11.128 -0.0420  0.1400 -0.2502
 1190SOL    HW115206   2.842   2.598  11.078 -1.0413  0.0948  1.2826
 1190SOL    HW215207   2.880   2.530  11.204 -1.0768  1.4411 -0.0650
 1191SOL     OW15208   1.529   1.430   9.400 -0.1007  0.4046  0.2514
 1191SOL    HW115209   1.563   1.498   9.342 -1.6926  1.8739  1.0304
 1191SOL    HW215210   1.545   1.473   9.484 -0.4422 -1.3226  1.1835
 1192SOL     OW15211   1.246   0.196  10.434  0.6792  0.7521  1.0692
 1192SOL    HW115212   1.210   0.115  10.400 -0.0109  1.2319  0.6660
 1192SOL    HW215213   1.185   0.253  10.387 -2.7715 -3.1096  0.8562
 1193SOL     OW15214   1.507   0.647   8.254 -0.1539 -0.9241  0.4828
 1193SOL    HW115215   1.577   0.628   8.316  0.7859  1.4057  0.1343
 1193SOL    HW215216   1.457   0.714   8.300  0.2599 -1.7266  2.1102
 1194SOL     OW15217   2.950   2.392   7.686 -0.2258 -0.1619  0.2502
 1194SOL    HW115218   2.906   2.382   7.770 -1.7517 -0.9028 -0.6328
 1194SOL    HW215219   3.041   2.405   7.711 -0.6353  0.1857  1.5613
 1195SOL     OW15220   1.865   4.173  12.477  0.7270 -0.2305  0.5181
 1195SOL    HW115221   1.796   4.154  12.413 -0.9841 -0.9316  2.5857
 1195SOL    HW215222   1.834   4.145  12.563 -1.9514  0.8401 -0.1059
 1196SOL     OW15223   0.807   0.210   8.592  0.3928  0.0628  0.2216
 1196SOL    HW115224   0.825   0.117   8.584  0.6693 -0.0518  2.1722
 1196SOL    HW215225   0.723   0.213   8.545  1.1637  1.1028 -1.1000
 1197SOL     OW15226   1.321   1.155   4.478  0.0773  0.2054 -0.1810
 1197SOL    HW115227   1.319   1.094   4.552  0.1087  0.2365 -0.1545
 1197SOL    HW215228   1.226   1.155   4.468  0.0293  4.6797  0.5369
 1198SOL     OW15229   1.700   1.412   5.001  0.2985 -0.0569 -0.4470
 1198SOL    HW115230   1.677   1.501   5.028 -2.6367 -1.0197  0.3044
 1198SOL    HW215231   1.795   1.413   5.002  0.2556  0.6145  2.4146
 1199SOL     OW15232   2.261   1.171   8.811 -0.4802  0.1379 -0.5386
 1199SOL    HW115233   2.171   1.167   8.842 -0.5490 -0.9207 -0.8980
 1199SOL    HW215234   2.312   1.200   8.886 -1.0094  1.0909 -0.5329
 1200SOL     OW15235   4.641   3.905  11.683 -0.2786 -0.3354  0.2702
 1200SOL    HW115236   4.598   3.980  11.642  0.5655 -0.0517 -0.0805
 1200SOL    HW215237   4.596   3.892  11.767 -1.0593 -0.0137 -0.1001
 1201SOL     OW15238   2.186   2.620   5.565  0.1669  0.0202  0.0881
 1201SOL    HW115239   2.117   2.686   5.553 -0.8459 -1.0306  0.1448
 1201SOL    HW215240   2.129   2.556   5.608 -0.2485 -0.5799 -1.3659
 1202SOL     OW15241   3.186   2.792  17.110  0.2486  0.0790  0.1395
 1202SOL    HW115242   3.219   2.870  17.065  0.1465  1.2812  2.1451
 1202SOL    HW215243   3.175   2.815  17.202 -1.6448  1.5324 -0.4564
 1203SOL     OW15244   3.602   0.829   4.935 -0.4193  0.1874 -0.0989
 1203SOL    HW115245   3.684   0.871   4.910  1.1708 -1.9077  1.6915
 1203SOL    HW215246   3.639   0.766   4.996  1.4598 -0.0297 -1.4674
 1204SOL     OW15247   2.156   0.474   5.693 -0.0875  0.0032 -0.2130
 1204SOL    HW115248   2.188   0.525   5.768  1.1365  0.2566 -0.9056
 1204SOL    HW215249   2.188   0.534   5.626 -0.0774 -0.8800 -0.9957
 1205SOL     OW15250   1.381   4.144   3.930 -0.6144  0.3687  0.0195
 1205SOL    HW115251   1.414   4.066   3.886  0.5185 -0.5495  2.5029
 1205SOL    HW215252   1.295   4.154   3.888 -1.6510  1.0397  2.2935
 1206SOL     OW15253   0.500   2.085   2.135  0.0507  0.5930  0.2764
 1206SOL    HW115254   0.532   2.174   2.148  2.0281 -0.1441  0.3734
 1206SOL    HW215255   0.412   2.099   2.099  0.3588 -0.9544 -1.0656
 1207SOL     OW15256   0.921   2.783   9.037  0.2272  0.3590  0.1461
 1207SOL    HW115257   0.871   2.794   9.118 -0.0502 -1.0653  0.1705
 1207SOL    HW215258   0.883   2.711   8.986 -1.9615 -0.4717  2.9853
 1208SOL     OW15259   1.646   2.217   5.129  0.5579  0.2530  0.1163
 1208SOL    HW115260   1.736   2.186   5.142  1.0169  1.0080 -1.2030
 1208SOL    HW215261   1.610   2.224   5.217  1.0117  0.6622  0.2735
 1209SOL     OW15262   2.576   0.898   9.309  0.3416 -0.0320 -0.1151
 1209SOL    HW115263   2.591   0.951   9.231 -1.9215 -1.8785 -1.8174
 1209SOL    HW215264   2.640   0.826   9.305  2.3470  1.6881  1.4618
 1210SOL     OW15265   1.951   4.164   1.526 -0.3019 -0.4237 -0.1015
 1210SOL    HW115266   1.861   4.152   1.497 -0.2692  1.7699 -1.0937
 1210SOL    HW215267   1.947   4.132   1.616  3.0679  1.7539  0.8317
 1211SOL     OW15268   2.765   1.051   0.822 -0.0719 -0.5268 -0.0384
 1211SOL    HW115269   2.679   1.035   0.784 -0.2125 -1.7733  0.8160
 1211SOL    HW215270   2.753   1.135   0.865  1.7362 -0.4978  0.4281
 1212SOL     OW15271   1.443   4.425   6.798  0.2092 -0.6749 -0.4168
 1212SOL    HW115272   1.504   4.354   6.816 -0.8232 -1.4579 -0.0167
 1212SOL    HW215273   1.474   4.444   6.709  2.2389  1.0662  0.6656
 1213SOL     OW15274   2.162   3.456   0.817 -0.2545  0.3692  0.9457
 1213SOL    HW115275   2.194   3.480   0.905  0.8846  2.0520  0.0768
 1213SOL    HW215276   2.143   3.545   0.787  1.4583  0.7030  0.8221
 1214SOL     OW15277   1.738   4.394   6.072  0.3749  0.2069  0.2445
 1214SOL    HW115278   1.766   4.409   6.162 -0.9670 -0.6517  0.8043
 1214SOL    HW215279   1.674   4.324   6.080 -0.6121  0.8139 -2.2908
 1215SOL     OW15280   2.800   4.062   4.906 -0.1018 -0.1300 -0.9137
 1215SOL    HW115281   2.772   4.080   4.996  2.0795 -2.6036  0.2591
 1215SOL    HW215282   2.894   4.071   4.924 -0.1259 -1.1468 -0.3100
 1216SOL     OW15283   0.728   2.183   9.127 -0.7762  0.0978 -0.2193
 1216SOL    HW115284   0.782   2.171   9.049 -1.3179  0.0733 -0.5880
 1216SOL    HW215285   0.754   2.266   9.166 -1.1799  0.3446 -0.4767
 1217SOL     OW15286   1.206   4.119  10.930  0.5041 -0.1186  0.4126
 1217SOL    HW115287   1.125   4.154  10.892 -0.3439 -0.4389  1.9286
 1217SOL    HW215288   1.210   4.027  10.905 -0.3220  0.0075 -0.1779
 1218SOL     OW15289   1.988   1.696   3.635  0.7908  0.2155 -0.7238
 1218SOL    HW115290   1.980   1.791   3.630 -2.8657 -0.0258  0.3022
 1218SOL    HW215291   1.972   1.673   3.544 -0.1531 -0.0237 -0.4995
 1219SOL     OW15292   3.716   1.921   8.016  0.5830  0.6772  0.3915
 1219SOL    HW115293   3.775   1.974   7.961 -2.5565  1.2120 -2.4511
 1219SOL    HW215294   3.780   1.856   8.047  2.5844  1.4860 -1.9869
 1220SOL     OW15295   4.596   1.809   3.706  0.4730 -0.3287 -0.2430
 1220SOL    HW115296   4.627   1.768   3.787  1.5745  1.3522  0.1828
 1220SOL    HW215297   4.537   1.738   3.681  0.3235 -0.2860 -0.0115
 1221SOL     OW15298   2.202   1.295  12.426  0.2218  0.2042 -0.1062
 1221SOL    HW115299   2.202   1.319  12.518 -2.1321  2.7752 -0.7913
 1221SOL    HW215300   2.176   1.379  12.389 -1.9415 -0.1360  0.6408
 1222SOL     OW15301   4.262   3.820  12.174  0.2795 -0.4373 -0.3793
 1222SOL    HW115302   4.351   3.804  12.206  0.5779 -0.5534 -1.2551
 1222SOL    HW215303   4.238   3.731  12.151  3.2707 -1.1477 -0.8251
 1223SOL     OW15304   0.934   1.614   3.917  0.0792 -0.4246 -0.5875
 1223SOL    HW115305   0.987   1.680   3.961 -0.6618  0.3475 -0.8619
 1223SOL    HW215306   0.855   1.633   3.967 -0.2284 -1.0384 -0.8361
 1224SOL     OW15307   3.313   0.289   8.248  0.0471 -0.7387  0.2532
 1224SOL    HW115308   3.240   0.291   8.309  1.4462 -1.4207  1.9611
 1224SOL    HW215309   3.340   0.381   8.248 -2.5825  0.0381  1.8375
 1225SOL     OW15310   0.231   3.268   4.688 -0.0852 -0.2859  0.1467
 1225SOL    HW115311   0.321   3.276   4.658  0.0961  0.0456  0.7891
 1225SOL    HW215312   0.239   3.285   4.781  1.1698  0.5970 -0.1246
 1226SOL     OW15313   4.343   1.588   2.785 -0.6676  0.8574 -0.5802
 1226SOL    HW115314   4.328   1.672   2.830  1.2442 -0.4934  2.5506
 1226SOL    HW215315   4.277   1.585   2.716 -2.2391  0.5217  0.9151
 1227SOL     OW15316   1.766   2.280  17.693  0.2074  0.4450  0.0302
 1227SOL    HW115317   1.844   2.244  17.737  0.7298  1.7840  0.1789
 1227SOL    HW215318   1.800   2.355  17.645  1.4440 -2.3492 -3.4613
 1228SOL     OW15319   0.580   1.220   8.578 -0.7545 -0.3588  0.5351
 1228SOL    HW115320   0.495   1.175   8.581  0.0128 -2.0134 -2.1316
 1228SOL    HW215321   0.597   1.234   8.671 -0.5393  1.3015  0.2437
 1229SOL     OW15322   1.600   1.805   6.655 -0.3532 -0.0773  0.6408
 1229SOL    HW115323   1.682   1.849   6.636 -0.5603  1.0366  2.3173
 1229SOL    HW215324   1.586   1.851   6.738  0.6004  1.2549  0.0613
 1230SOL     OW15325   2.401   0.156  10.778 -0.2288 -0.5277 -0.3476
 1230SOL    HW115326   2.464   0.085  10.788  0.9842  0.8539  1.8914
 1230SOL    HW215327   2.327   0.126  10.832 -0.5510 -0.9169 -1.0042
 1231SOL     OW15328   2.226   1.344  11.371  0.0987 -0.2698  0.4751
 1231SOL    HW115329   2.294   1.314  11.431  0.5498 -0.3207 -0.0571
 1231SOL    HW215330   2.257   1.316  11.284 -0.4589 -0.6999  0.4144
 1232SOL     OW15331   2.916   2.549   6.244  0.1110 -0.4375  0.2402
 1232SOL    HW115332   2.906   2.454   6.255 -1.7056 -0.3244 -0.3619
 1232SOL    HW215333   2.829   2.579   6.270  0.0699 -0.0661 -0.3231
 1233SOL     OW15334   3.591   3.366   5.190  0.3756 -0.3772 -0.0972
 1233SOL    HW115335   3.644   3.403   5.120  2.6821 -2.9481  0.3070
 1233SOL    HW215336   3.618   3.421   5.264  0.9882 -1.4031  0.4395
 1234SOL     OW15337   1.500   0.318  12.919 -0.4226 -0.0809  0.1072
 1234SOL    HW115338   1.471   0.250  12.858 -1.9643  0.2525  0.4738
 1234SOL    HW215339   1.534   0.383  12.858 -0.1435  1.2213  1.6557
 1235SOL     OW15340   2.165   0.525  13.257  0.3453 -0.4555  0.0892
 1235SOL    HW115341   2.166   0.598  13.195 -2.0799  0.8663  1.5922
 1235SOL    HW215342   2.072   0.504  13.251  0.1147  0.4091  0.5194
 1236SOL     OW15343   2.083   2.201   3.062 -0.0405  0.0836 -0.1323
 1236SOL    HW115344   2.106   2.281   3.108  1.9608  0.2408 -1.4228
 1236SOL    HW215345   1.988   2.189   3.071 -0.2164  0.9140 -0.8328
 1237SOL     OW15346   4.312   2.820  16.966  0.6477 -0.4413  0.1269
 1237SOL    HW115347   4.344   2.806  16.877 -1.7546  0.6441 -0.9072
 1237SOL    HW215348   4.306   2.731  17.001 -0.3681 -0.6346 -0.5650
 1238SOL     OW15349   0.031   3.279   6.056 -0.1170  0.3286  0.0326
 1238SOL    HW115350   4.682   3.293   6.097 -0.5385  1.2099 -1.1391
 1238SOL    HW215351   0.045   3.189   6.083  2.6291  0.9577  0.6657
 1239SOL     OW15352   4.571   3.454   2.645 -0.1739  0.1268 -0.4110
 1239SOL    HW115353   4.488   3.407   2.655  0.1157 -0.2075  0.4659
 1239SOL    HW215354   4.624   3.387   2.602 -3.0433 -2.7630  0.5795
 1240SOL     OW15355   3.852   3.144  11.696 -0.1792  0.0808  0.4329
 1240SOL    HW115356   3.799   3.213  11.657 -1.2133  1.0880  3.6324
 1240SOL    HW215357   3.940   3.162  11.663 -0.1736 -1.5637 -0.4541
 1241SOL     OW15358   1.297   2.852   0.224  0.1627 -0.2418 -0.0566
 1241SOL    HW115359   1.249   2.919   0.176 -0.3571  1.3263  2.6708
 1241SOL    HW215360   1.325   2.899   0.302 -1.0711 -1.2447  0.9843
 1242SOL     OW15361   2.774   2.972  13.373 -0.1196  0.1039 -0.3679
 1242SOL    HW115362   2.846   2.917  13.404 -1.2883 -0.8099  0.7665
 1242SOL    HW215363   2.706   2.948  13.437 -0.0498  1.1954  0.1065
 1243SOL     OW15364   0.182   2.071   9.529  0.3927 -0.4419 -0.3561
 1243SOL    HW115365   0.228   2.112   9.601 -0.2326 -0.7902  0.2442
 1243SOL    HW215366   0.248   2.087   9.462  1.0088 -3.2729 -0.4101
 1244SOL     OW15367   2.497   1.934  10.721 -0.6275 -0.2700  0.3032
 1244SOL    HW115368   2.438   1.925  10.646  0.8346  1.8787 -1.1044
 1244SOL    HW215369   2.450   1.964  10.799 -1.1059 -0.4740  0.0957
 1245SOL     OW15370   1.707   3.249   1.119 -0.2904  0.6992  0.0820
 1245SOL    HW115371   1.799   3.271   1.134  0.1453 -0.5505 -0.8166
 1245SOL    HW215372   1.711   3.183   1.051  1.2337  0.3940  0.4747
 1246SOL     OW15373   2.625   0.317   1.220  0.0201  0.6189  0.1363
 1246SOL    HW115374   2.639   0.411   1.235 -4.1447  1.3661 -0.6879
 1246SOL    HW215375   2.558   0.286   1.281  1.3314  1.2009  1.8856
 1247SOL     OW15376   1.547   3.786   6.421  0.5712  0.3139  0.2176
 1247SOL    HW115377   1.628   3.739   6.401  0.4746  0.7395 -1.1373
 1247SOL    HW215378   1.490   3.725   6.375  1.5706  1.5033 -2.6103
 1248SOL     OW15379   2.852   2.820   1.429  0.0521 -0.2824  0.1678
 1248SOL    HW115380   2.869   2.914   1.426  1.1070 -0.4680  0.4840
 1248SOL    HW215381   2.857   2.791   1.520  0.0435  1.1351  0.6144
 1249SOL     OW15382   1.426   3.302   9.145  0.8630  0.1110 -0.0962
 1249SOL    HW115383   1.485   3.293   9.070  0.3645 -1.0947 -0.3374
 1249SOL    HW215384   1.484   3.309   9.221  1.4090  0.8346 -0.5828
 1250SOL     OW15385   2.963   3.868   9.689  0.4161  0.0907  0.2499
 1250SOL    HW115386   2.956   3.773   9.678 -0.7266 -0.1152  2.8060
 1250SOL    HW215387   3.054   3.883   9.712  0.4525  0.9110 -0.4129
 1251SOL     OW15388   3.070   3.135   9.328 -0.1931  0.2624  0.1758
 1251SOL    HW115389   3.071   3.077   9.252  1.8126  0.6691 -0.1086
 1251SOL    HW215390   3.119   3.096   9.401 -2.8257 -2.5219  0.4380
 1252SOL     OW15391   3.953   4.734   5.482 -0.0228  0.5844 -0.3371
 1252SOL    HW115392   3.920   0.080   5.449 -0.9864 -0.1377 -1.1991
 1252SOL    HW215393   3.992   0.020   5.567  1.2143  0.9762 -1.0155
 1253SOL     OW15394   4.665   1.802   4.352  0.0316  0.5910  0.2662
 1253SOL    HW115395   4.616   1.787   4.271  0.6847 -3.0950  0.5413
 1253SOL    HW215396   4.610   1.760   4.419  2.1432  1.3218  2.4424
 1254SOL     OW15397   3.757   3.638   6.689  0.0838 -0.3823 -0.0313
 1254SOL    HW115398   3.697   3.607   6.757 -3.3978  0.8287 -2.5745
 1254SOL    HW215399   3.727   3.594   6.609  2.5094  0.1584 -1.2471
 1255SOL     OW15400   3.286   0.045   7.526 -0.3677 -0.8388 -0.3026
 1255SOL    HW115401   3.381   0.031   7.520 -0.6961 -3.6180  1.3573
 1255SOL    HW215402   3.283   0.121   7.467 -1.0644  1.0375  2.1697
 1256SOL     OW15403   0.527   0.569   3.703  0.3919  0.2789 -0.1160
 1256SOL    HW115404   0.611   0.553   3.659  0.2117  3.2916 -1.5486
 1256SOL    HW215405   0.509   0.661   3.684 -0.4937  0.1251 -0.0254
 1257SOL     OW15406   4.244   4.627   9.272  0.2669 -0.0020  0.1278
 1257SOL    HW115407   4.230   4.701   9.331  2.4552 -0.9319  1.8130
 1257SOL    HW215408   4.320   4.662   9.225  0.3084  0.4661  0.5476
 1258SOL     OW15409   2.236   0.078   4.407 -0.4143 -0.1899 -0.7622
 1258SOL    HW115410   2.327   0.054   4.388 -0.1627 -0.2918  0.6175
 1258SOL    HW215411   2.245   0.052   4.498  1.0829  2.1311 -0.2535
 1259SOL     OW15412   0.234   1.505   9.713  0.0488  0.1212  0.4517
 1259SOL    HW115413   0.218   1.416   9.745  0.9436 -0.4029 -0.5711
 1259SOL    HW215414   0.161   1.514   9.653  0.4950 -0.9643 -0.2597
 1260SOL     OW15415   2.473   0.663   2.974  0.8299  0.6391  0.0694
 1260SOL    HW115416   2.553   0.643   2.927 -0.5681  0.2464 -2.1349
 1260SOL    HW215417   2.508   0.730   3.033 -1.2931  0.5879  1.3834
 1261SOL     OW15418   0.514   3.418   7.024 -0.2461  0.6836 -0.0951
 1261SOL    HW115419   0.608   3.426   7.007 -1.0101  1.7017 -3.8571
 1261SOL    HW215420   0.490   3.382   6.939  2.0186 -2.3034  0.5524
 1262SOL     OW15421   0.007   2.092   1.959  0.1544  0.1703  0.1696
 1262SOL    HW115422   0.018   2.175   1.912 -2.7624  0.3396 -0.2210
 1262SOL    HW215423   4.732   2.032   1.886 -1.4579 -0.7408  1.1618
 1263SOL     OW15424   3.637   1.340   4.639  0.4758  0.1923  0.6404
 1263SOL    HW115425   3.642   1.340   4.734 -0.4913 -1.2233  0.6908
 1263SOL    HW215426   3.542   1.327   4.629 -0.1444  2.8475  2.9145
 1264SOL     OW15427   1.832   1.228  12.870 -0.1353  0.0324  0.0062
 1264SOL    HW115428   1.738   1.217  12.855 -0.2578  1.1105  0.0202
 1264SOL    HW215429   1.833   1.210  12.964 -0.6651  2.6174  0.4812
 1265SOL     OW15430   2.734   4.124   0.895  0.0290  0.2517  0.2618
 1265SOL    HW115431   2.754   4.217   0.904 -2.3728  0.6913  0.9651
 1265SOL    HW215432   2.660   4.127   0.956 -1.0331 -0.2298 -0.9970
 1266SOL     OW15433   1.411   4.310   4.932  0.7177  0.7649 -0.4994
 1266SOL    HW115434   1.419   4.230   4.882 -0.7054  0.6806 -0.5926
 1266SOL    HW215435   1.402   4.282   5.023 -1.1454 -0.9751 -1.2357
 1267SOL     OW15436   1.611   0.396   6.016  0.4521  0.4294  0.2674
 1267SOL    HW115437   1.653   0.426   6.097  1.0994  0.0244  0.0831
 1267SOL    HW215438   1.678   0.407   5.948 -0.3123  1.5102 -0.3181
 1268SOL     OW15439   1.516   3.824   5.227  0.1918  0.3164  0.1896
 1268SOL    HW115440   1.600   3.863   5.252  0.2117  0.9535 -0.8767
 1268SOL    HW215441   1.502   3.778   5.310  1.5577 -0.6280 -0.1141
 1269SOL     OW15442   4.383   0.061   7.789  0.0405 -0.1933 -0.1760
 1269SOL    HW115443   4.411   0.008   7.863  2.6487  1.2480 -0.1315
 1269SOL    HW215444   4.441   0.137   7.797  0.2292 -0.3984  0.3758
 1270SOL     OW15445   3.777   2.852   2.190  0.3031 -0.2773 -0.5559
 1270SOL    HW115446   3.824   2.827   2.110 -1.7981 -1.7181 -1.3257
 1270SOL    HW215447   3.686   2.846   2.161  0.6607 -0.6660 -1.6355
 1271SOL     OW15448   2.281   0.841   2.426 -0.0428 -0.6682  0.4142
 1271SOL    HW115449   2.229   0.763   2.406 -1.5424  0.5978 -0.6227
 1271SOL    HW215450   2.268   0.893   2.346  0.2127 -1.1435  0.0642
 1272SOL     OW15451   0.995   2.250   6.153 -0.1003 -0.0491  0.5917
 1272SOL    HW115452   1.043   2.219   6.229 -1.9132 -0.2586  1.6694
 1272SOL    HW215453   0.910   2.220   6.185 -0.2806 -0.2735 -0.1067
 1273SOL     OW15454   1.420   4.422   6.403  0.3922 -0.0508  0.7686
 1273SOL    HW115455   1.372   4.341   6.421 -0.1585 -0.1873 -1.3393
 1273SOL    HW215456   1.499   4.398   6.453  0.8651 -0.0840 -0.0007
 1274SOL     OW15457   4.051   4.502   7.620  0.0832 -0.0790  0.6898
 1274SOL    HW115458   3.988   4.539   7.682 -1.7983 -0.2813 -1.0824
 1274SOL    HW215459   4.023   4.552   7.543  0.7826 -0.8591 -0.0661
 1275SOL     OW15460   4.269   1.271   5.276 -0.9228  0.1833 -0.2395
 1275SOL    HW115461   4.192   1.320   5.306 -1.7106 -1.2395  0.0652
 1275SOL    HW215462   4.236   1.183   5.293 -1.0566  0.5445  1.3702
 1276SOL     OW15463   0.724   0.347   4.825  0.3133  0.6454 -0.3477
 1276SOL    HW115464   0.754   0.264   4.862 -2.5846 -0.3458 -0.2209
 1276SOL    HW215465   0.649   0.311   4.778 -0.9758 -0.9807  2.9640
 1277SOL     OW15466   1.154   2.923   7.175  0.1044  0.5822  0.4683
 1277SOL    HW115467   1.153   2.941   7.081  0.1269 -1.4843  0.0668
 1277SOL    HW215468   1.101   2.999   7.201 -1.2743  0.3054 -1.5537
 1278SOL     OW15469   3.038   4.556   3.609  0.1642 -0.1454  0.4249
 1278SOL    HW115470   3.109   4.588   3.666  0.9483 -0.0554 -0.6002
 1278SOL    HW215471   2.981   4.632   3.601 -0.3245 -0.5260  0.3257
 1279SOL     OW15472   3.770   3.653   3.341  0.2761 -0.4829 -0.3161
 1279SOL    HW115473   3.859   3.683   3.323  0.0163  1.4695  1.7047
 1279SOL    HW215474   3.787   3.562   3.318 -0.3427 -0.5895 -0.3495
 1280SOL     OW15475   1.437   3.103   2.887 -0.0494  0.3758 -0.2913
 1280SOL    HW115476   1.362   3.044   2.896 -0.0990  0.4018 -0.5181
 1280SOL    HW215477   1.440   3.109   2.791 -1.5030 -0.0032 -0.3550
 1281SOL     OW15478   2.166   3.078   9.195  0.9661  0.1664 -0.2433
 1281SOL    HW115479   2.158   2.990   9.159  2.1572  0.0992 -0.3445
 1281SOL    HW215480   2.144   3.064   9.287 -2.0211 -1.2572 -1.1645
 1282SOL     OW15481   4.050   3.700  11.854 -0.3600  0.8302  0.0778
 1282SOL    HW115482   4.069   3.763  11.923 -0.2869 -0.7321  1.4946
 1282SOL    HW215483   4.080   3.733  11.770 -0.9473  1.4544  0.1207
 1283SOL     OW15484   1.160   4.685  14.366 -0.1373  0.2918 -0.4241
 1283SOL    HW115485   1.072   4.651  14.383 -0.3306  0.6116 -0.7839
 1283SOL    HW215486   1.189   4.638  14.289  0.6150 -3.0528  1.9023
 1284SOL     OW15487   0.385   0.791   2.638 -0.0129  0.4175 -0.2222
 1284SOL    HW115488   0.436   0.872   2.632 -0.8924  1.0068  0.2450
 1284SOL    HW215489   0.404   0.760   2.726 -1.6151 -0.0061 -0.0238
 1285SOL     OW15490   1.921   2.275   0.883 -0.3176  0.4966 -0.2753
 1285SOL    HW115491   1.827   2.263   0.879 -0.3087  0.5126 -0.5647
 1285SOL    HW215492   1.911   2.338   0.955  0.0940 -0.0696  0.2713
 1286SOL     OW15493   0.276   2.267   5.400  0.1969 -0.3895 -0.1153
 1286SOL    HW115494   0.349   2.299   5.346 -2.5423  2.0333 -2.3992
 1286SOL    HW215495   0.306   2.176   5.395 -1.0508 -0.7743 -0.4800
 1287SOL     OW15496   2.530   3.646   2.477  0.5617  0.4093  0.0258
 1287SOL    HW115497   2.455   3.690   2.518 -0.3844  0.2873 -1.6125
 1287SOL    HW215498   2.508   3.558   2.447  2.8507  0.1297 -0.8634
 1288SOL     OW15499   4.458   0.358  17.430 -0.2015  0.0362  0.0648
 1288SOL    HW115500   4.406   0.321  17.359 -2.7581  1.2475  1.3033
 1288SOL    HW215501   4.397   0.351  17.503 -3.7629 -1.2386 -3.0535
 1289SOL     OW15502   4.539   0.972   8.963  0.2104 -0.1190 -0.1551
 1289SOL    HW115503   4.565   1.036   9.029  2.0596 -1.3312  0.2683
 1289SOL    HW215504   4.481   1.025   8.907  0.8208  0.1436 -0.5440
 1290SOL     OW15505   2.024   4.596   3.409 -0.4550  0.8877 -0.1532
 1290SOL    HW115506   2.001   4.689   3.400  0.1049  1.1181  0.7112
 1290SOL    HW215507   1.945   4.545   3.428  0.2061 -0.1443 -0.1897
 1291SOL     OW15508   1.003   3.345   4.647 -0.2869  0.0109 -0.7159
 1291SOL    HW115509   1.007   3.315   4.556 -1.5560 -1.7376 -0.1908
 1291SOL    HW215510   0.941   3.282   4.683 -1.2202  2.1974  1.4789
 1292SOL     OW15511   3.654   3.871   2.669  0.6549 -1.2060  0.2850
 1292SOL    HW115512   3.607   3.892   2.589 -0.9755 -1.8230  1.0942
 1292SOL    HW215513   3.674   3.778   2.659 -0.2772 -1.6501  2.6684
 1293SOL     OW15514   3.767   2.253   2.639  0.4657 -0.2372 -0.3458
 1293SOL    HW115515   3.769   2.279   2.546  2.0890 -0.2304 -0.3060
 1293SOL    HW215516   3.695   2.191   2.630 -0.1383  0.4995 -0.5574
 1294SOL     OW15517   4.396   0.746   8.805 -0.7713  0.4755  0.2195
 1294SOL    HW115518   4.473   0.776   8.852  0.4316 -0.4783 -1.1374
 1294SOL    HW215519   4.370   0.663   8.844  2.8836  0.4755  2.6339
 1295SOL     OW15520   0.096   3.300   6.684 -0.3573  0.0800 -0.1724
 1295SOL    HW115521   0.035   3.258   6.745 -0.8388 -0.5985 -1.1117
 1295SOL    HW215522   0.029   3.325   6.621 -0.9047 -1.5135 -0.2196
 1296SOL     OW15523   2.489   2.736   3.423  0.0336 -0.1240 -0.9827
 1296SOL    HW115524   2.400   2.722   3.455  0.1460  1.4277  0.0041
 1296SOL    HW215525   2.536   2.783   3.491 -1.7587 -0.4877  0.4965
 1297SOL     OW15526   1.336   2.232   2.861 -0.1930 -1.0852 -0.2585
 1297SOL    HW115527   1.274   2.211   2.792 -2.0074  1.7614  0.4992
 1297SOL    HW215528   1.293   2.303   2.910 -1.7982 -1.6912 -0.8290
 1298SOL     OW15529   0.655   1.847  13.653  0.0437  0.5418  0.2292
 1298SOL    HW115530   0.610   1.836  13.736  0.3920  0.2259  0.3765
 1298SOL    HW215531   0.742   1.879  13.677  0.4798  0.4743 -1.2656
 1299SOL     OW15532   0.496   2.501   3.201 -0.3298  0.8895  0.0054
 1299SOL    HW115533   0.425   2.515   3.138  0.4573 -0.3020 -1.1532
 1299SOL    HW215534   0.575   2.521   3.150 -1.0419 -0.0905 -1.4760
 1300SOL     OW15535   1.392   3.508   7.205 -0.3757  0.5611  0.8498
 1300SOL    HW115536   1.408   3.474   7.293 -1.3352  2.5627  1.7823
 1300SOL    HW215537   1.405   3.599   7.231  1.5019  0.5084  0.1500
 1301SOL     OW15538   0.434   1.652  13.028  0.0409 -0.5903 -0.2781
 1301SOL    HW115539   0.459   1.564  13.055 -1.7865 -1.2703 -0.8117
 1301SOL    HW215540   0.434   1.690  13.116 -1.0372  1.3051 -1.0854
 1302SOL     OW15541   0.659   2.523   2.381  0.3055  0.5112 -0.3639
 1302SOL    HW115542   0.739   2.574   2.396 -0.1587  0.9079  0.7689
 1302SOL    HW215543   0.590   2.589   2.378  0.4844  0.8670  3.1481
 1303SOL     OW15544   3.298   4.579   8.513 -0.4407  0.0395  0.3354
 1303SOL    HW115545   3.261   4.494   8.491  1.6467 -0.3609 -1.7008
 1303SOL    HW215546   3.279   4.582   8.606 -1.0133 -1.4996  0.2610
 1304SOL     OW15547   0.979   4.237  10.778 -0.2880 -0.4110 -0.3923
 1304SOL    HW115548   0.970   4.332  10.775 -1.7780 -0.4938  1.4053
 1304SOL    HW215549   0.889   4.205  10.779  0.4429 -2.4241 -0.0916
 1305SOL     OW15550   1.078   1.477   6.915  0.3802  0.0051 -0.0582
 1305SOL    HW115551   1.118   1.563   6.907 -1.5780  1.0962  1.7288
 1305SOL    HW215552   1.058   1.484   7.008 -1.9592  0.7300 -0.6066
 1306SOL     OW15553   1.442   1.237   2.632  0.1869  0.5790  0.2447
 1306SOL    HW115554   1.513   1.277   2.683  0.4200 -0.3534  0.6570
 1306SOL    HW215555   1.472   1.269   2.546  0.8277  0.9034  0.5832
 1307SOL     OW15556   1.617   3.641   4.440  0.7602  0.2069 -0.1395
 1307SOL    HW115557   1.580   3.556   4.416 -1.6483  0.6599  2.0325
 1307SOL    HW215558   1.627   3.682   4.354 -1.6390  0.0205 -0.5009
 1308SOL     OW15559   1.529   2.130   2.088 -0.2360  0.2195  0.3515
 1308SOL    HW115560   1.621   2.155   2.094 -0.2687  0.3163  0.4415
 1308SOL    HW215561   1.519   2.102   1.997  1.1929  1.3675 -0.1511
 1309SOL     OW15562   2.762   3.276   8.031 -0.0000 -0.5287 -0.9204
 1309SOL    HW115563   2.809   3.211   8.084  2.6165 -0.7808 -3.5134
 1309SOL    HW215564   2.732   3.332   8.102  0.2620 -0.6770 -0.6918
 1310SOL     OW15565   0.448   1.750  10.171  0.4205 -0.1585  0.3628
 1310SOL    HW115566   0.524   1.799  10.202  0.7907 -1.5592  1.6908
 1310SOL    HW215567   0.505   1.677  10.147 -0.9810 -1.1952  0.1741
 1311SOL     OW15568   0.415   1.918   0.722 -0.2093  0.3110 -0.1142
 1311SOL    HW115569   0.338   1.862   0.727 -3.4537  4.8578  1.3462
 1311SOL    HW215570   0.382   1.994   0.673 -1.4219  1.0645  1.8442
 1312SOL     OW15571   0.680   1.714   3.784  0.7239  0.0880  0.2842
 1312SOL    HW115572   0.674   1.801   3.823  1.5091 -0.1167  0.8677
 1312SOL    HW215573   0.764   1.706   3.737  0.6797 -0.3303  0.2748
 1313SOL     OW15574   0.399   4.538   7.767  0.2646  0.1143  0.2762
 1313SOL    HW115575   0.366   4.621   7.802 -0.2808  0.3923 -0.8903
 1313SOL    HW215576   0.356   4.548   7.682 -0.1693 -3.7266  0.0364
 1314SOL     OW15577   3.722   0.531   2.749  0.0609  0.2184  0.3851
 1314SOL    HW115578   3.804   0.495   2.713  0.6172  1.8842  0.0080
 1314SOL    HW215579   3.688   0.450   2.789  2.0654  0.7427  3.1224
 1315SOL     OW15580   1.765   3.650   6.381 -0.5620  0.5143  0.4996
 1315SOL    HW115581   1.747   3.560   6.353 -0.3490  0.2398  1.2506
 1315SOL    HW215582   1.783   3.689   6.295 -1.6782  1.8436  0.8591
 1316SOL     OW15583   2.373   3.764   5.478 -0.1016 -0.2299  0.4248
 1316SOL    HW115584   2.299   3.704   5.465  0.2497 -0.1325 -1.8476
 1316SOL    HW215585   2.370   3.817   5.399 -1.2087 -0.3815  0.3658
 1317SOL     OW15586   1.053   0.453   0.629 -0.1798 -0.2046  0.0425
 1317SOL    HW115587   0.966   0.465   0.591 -1.1484 -0.3382  2.2035
 1317SOL    HW215588   1.066   0.358   0.640  0.4852 -0.3911 -2.3053
 1318SOL     OW15589   3.047   4.150   5.613 -0.4169 -0.0895  0.2201
 1318SOL    HW115590   2.962   4.146   5.656  1.3491 -0.5721  3.6525
 1318SOL    HW215591   3.096   4.078   5.653 -2.5288 -1.3145  0.5532
 1319SOL     OW15592   3.658   2.123   5.485  0.1135 -0.1787  0.5561
 1319SOL    HW115593   3.739   2.117   5.435 -0.3571  2.5094 -0.5524
 1319SOL    HW215594   3.601   2.159   5.417 -0.9223  1.6425  2.4124
 1320SOL     OW15595   3.553   2.135   6.734  0.0804 -0.0186 -1.2628
 1320SOL    HW115596   3.619   2.076   6.697 -0.8011 -1.1303 -1.0621
 1320SOL    HW215597   3.605   2.176   6.803 -1.6699  1.9062 -1.0805
 1321SOL     OW15598   4.429   1.083   3.485 -0.2213  0.1327 -0.0322
 1321SOL    HW115599   4.354   1.142   3.471 -0.4662 -0.2751 -0.4309
 1321SOL    HW215600   4.387   0.999   3.499 -0.2734  0.1275 -0.2106
 1322SOL     OW15601   0.026   3.763   0.944  0.1083  0.0595  0.3489
 1322SOL    HW115602   4.688   3.718   0.984  0.3428 -1.9175 -1.3939
 1322SOL    HW215603   0.060   3.698   0.883  0.9878 -0.3869  1.3171
 1323SOL     OW15604   1.763   3.822   5.842  0.1405  0.0751  0.0064
 1323SOL    HW115605   1.828   3.776   5.789  0.2346 -2.6568  2.4977
 1323SOL    HW215606   1.771   3.913   5.813  0.1854  0.8227  2.3938
 1324SOL     OW15607   4.199   3.293   1.553 -0.0534  0.0484 -0.1572
 1324SOL    HW115608   4.110   3.263   1.531 -0.1549 -0.1320  0.4915
 1324SOL    HW215609   4.202   3.379   1.511  3.7048 -0.6001 -1.1776
 1325SOL     OW15610   0.827   1.345   6.161  0.3144  0.2912 -0.1446
 1325SOL    HW115611   0.737   1.347   6.195 -0.4210  1.5171 -2.1645
 1325SOL    HW215612   0.854   1.269   6.214 -0.8822  0.5004  0.7513
 1326SOL     OW15613   1.405   2.359   0.087  0.1714 -0.3591 -0.1251
 1326SOL    HW115614   1.331   2.361   0.147  0.3657  0.4605  0.0864
 1326SOL    HW215615   1.361   2.376   0.003 -2.2276 -1.3435  0.9395
 1327SOL     OW15616   0.565   1.304  10.085  0.2393 -0.5910 -0.3013
 1327SOL    HW115617   0.478   1.332  10.112 -0.3737 -3.6842  1.0194
 1327SOL    HW215618   0.614   1.386  10.074  0.1657 -0.5855 -0.5771
 1328SOL     OW15619   4.357   1.013   3.183 -0.0833  0.7955 -1.2897
 1328SOL    HW115620   4.298   1.046   3.115 -0.2281 -1.6706 -2.3641
 1328SOL    HW215621   4.301   0.972   3.250  0.5627  1.1669 -0.5242
 1329SOL     OW15622   1.344   1.796   7.189 -0.9822 -0.3140  0.1042
 1329SOL    HW115623   1.417   1.812   7.129  0.3519 -0.8614  1.5723
 1329SOL    HW215624   1.341   1.700   7.188 -0.7071 -0.2651 -3.4670
 1330SOL     OW15625   0.481   3.946   2.386  0.2532  0.0560  0.2889
 1330SOL    HW115626   0.401   3.992   2.362 -0.3236 -0.3001  1.5498
 1330SOL    HW215627   0.458   3.945   2.478  0.5952 -1.0304  0.3611
 1331SOL     OW15628   2.287   0.267   3.385 -0.2577 -0.0044  0.9757
 1331SOL    HW115629   2.222   0.290   3.319  0.3149  4.0416  1.8388
 1331SOL    HW215630   2.316   0.189   3.339 -2.0197 -0.9953  1.5353
 1332SOL     OW15631   2.488   3.283   4.796 -0.6248 -0.9139 -0.0863
 1332SOL    HW115632   2.579   3.254   4.797 -0.1636  0.5670  1.3745
 1332SOL    HW215633   2.478   3.317   4.707  1.0031 -1.1107 -0.3580
 1333SOL     OW15634   3.308   2.948  16.911  0.9460 -0.2499  0.1950
 1333SOL    HW115635   3.311   3.015  16.843  1.1294 -1.0082 -0.5460
 1333SOL    HW215636   3.374   2.988  16.968  0.7448  1.8637 -1.0500
 1334SOL     OW15637   1.367   4.109  12.510  0.3709  0.7777 -0.5657
 1334SOL    HW115638   1.416   4.031  12.534  2.0585  1.3438 -2.1080
 1334SOL    HW215639   1.425   4.149  12.445  0.2030  0.7438 -0.7367
 1335SOL     OW15640   3.975   1.141  17.456 -0.1303  0.6681 -0.6627
 1335SOL    HW115641   3.969   1.236  17.472 -0.1404  0.7398 -1.0911
 1335SOL    HW215642   4.044   1.139  17.389  0.3402  1.4634 -0.2033
 1336SOL     OW15643   2.838   0.182   3.184  0.5787  0.6405  0.0520
 1336SOL    HW115644   2.877   0.176   3.097 -0.5439 -3.9829 -0.1252
 1336SOL    HW215645   2.901   0.246   3.219  2.0785 -0.4730 -0.5894
 1337SOL     OW15646   2.811   3.240   8.390 -0.2849 -0.8607 -0.7455
 1337SOL    HW115647   2.728   3.229   8.343 -1.0725  0.9844  0.1940
 1337SOL    HW215648   2.776   3.275   8.472 -0.5353  0.9492 -1.6160
 1338SOL     OW15649   2.681   0.812   7.430  0.8020  0.8003  0.0673
 1338SOL    HW115650   2.609   0.863   7.393  0.0915  0.5021  1.0668
 1338SOL    HW215651   2.749   0.824   7.363 -1.5119 -1.9213 -2.7818
 1339SOL     OW15652   2.482   0.675   3.967 -0.7797  0.0091  0.0921
 1339SOL    HW115653   2.434   0.679   4.050  0.7097  0.6513  0.9243
 1339SOL    HW215654   2.442   0.756   3.934 -0.5384 -0.0768 -0.4038
 1340SOL     OW15655   4.637   3.969   4.089 -0.4788 -0.0720 -0.0544
 1340SOL    HW115656   4.665   3.983   4.179 -1.0052  2.4263 -0.2613
 1340SOL    HW215657   4.712   3.920   4.055 -1.4455 -2.1065  0.7644
 1341SOL     OW15658   2.888   3.598   2.543 -0.0413 -0.6485 -0.0730
 1341SOL    HW115659   2.816   3.588   2.606 -0.7847 -0.3366 -0.8728
 1341SOL    HW215660   2.928   3.673   2.586 -1.5833 -0.4235  0.9874
 1342SOL     OW15661   1.849   4.094   8.540 -0.1516  0.2470 -0.8265
 1342SOL    HW115662   1.864   4.188   8.526 -0.9291  0.6189  0.7591
 1342SOL    HW215663   1.934   4.070   8.578 -1.5703 -1.2800  1.3424
 1343SOL     OW15664   4.697   3.031  10.316  0.2171 -0.2476 -0.2316
 1343SOL    HW115665   4.621   2.984  10.283  0.8649 -2.2155  1.0981
 1343SOL    HW215666   4.693   3.119  10.279  0.6620  1.1756  3.1279
 1344SOL     OW15667   1.425   3.257   2.455  0.2900 -0.2451 -0.2887
 1344SOL    HW115668   1.450   3.274   2.365  2.0590 -1.5727 -0.0460
 1344SOL    HW215669   1.331   3.274   2.464  1.0215  1.9114  3.5580
 1345SOL     OW15670   1.085   0.006   2.969 -0.2168  0.4320 -0.1700
 1345SOL    HW115671   1.092   4.647   2.962 -3.1249  0.1663  0.4629
 1345SOL    HW215672   1.047   0.028   2.885  0.1898  1.8802  0.0327
 1346SOL     OW15673   2.624   0.327  11.095 -0.3934  0.0264  0.3381
 1346SOL    HW115674   2.585   0.240  11.090 -2.1500  0.8874 -1.0967
 1346SOL    HW215675   2.678   0.310  11.172 -2.0541  0.3285  1.5769
 1347SOL     OW15676   1.380   4.330   7.327  0.2682 -0.1663 -0.1480
 1347SOL    HW115677   1.393   4.317   7.233  0.3894 -1.5837  0.0693
 1347SOL    HW215678   1.451   4.274   7.357  0.4388  1.9761  3.4331
 1348SOL     OW15679   0.353   4.052   4.611  0.4732 -0.1701  0.0999
 1348SOL    HW115680   0.435   4.002   4.609 -0.5985 -1.9222 -0.4747
 1348SOL    HW215681   0.372   4.141   4.641  1.8120 -0.6654  0.7206
 1349SOL     OW15682   3.095   3.504   4.661  0.1991  0.4172 -0.5551
 1349SOL    HW115683   3.084   3.409   4.650  2.0302  0.2646 -1.0841
 1349SOL    HW215684   3.091   3.540   4.573  0.0053  1.7530  0.0037
 1350SOL     OW15685   0.885   1.137   6.319  0.0727 -0.1308  0.0616
 1350SOL    HW115686   0.820   1.091   6.372  0.0438  0.1965  0.3105
 1350SOL    HW215687   0.920   1.071   6.258  0.8604  1.2000 -0.9263
 1351SOL     OW15688   4.685   3.455   6.476  0.0853  0.0468 -0.4391
 1351SOL    HW115689   4.594   3.485   6.469  0.0773 -0.7097 -3.5171
 1351SOL    HW215690   4.690   3.369   6.434 -1.8818  0.1886 -0.9675
 1352SOL     OW15691   1.066   3.356   3.474 -0.0817  0.3830  0.2574
 1352SOL    HW115692   1.031   3.383   3.558  1.6153  0.9158  0.7952
 1352SOL    HW215693   1.042   3.263   3.476  1.4000 -0.0032  0.6945
 1353SOL     OW15694   4.185   3.578   2.390 -0.4502 -0.4200  0.1871
 1353SOL    HW115695   4.197   3.485   2.412 -1.1955 -1.3017 -3.1069
 1353SOL    HW215696   4.179   3.621   2.475 -0.7508 -0.6972  0.3077
 1354SOL     OW15697   3.129   3.682   8.641 -0.8232 -0.5105 -0.0054
 1354SOL    HW115698   3.203   3.673   8.581  0.3764 -0.8115  1.5193
 1354SOL    HW215699   3.123   3.593   8.675 -0.4079 -0.2432  0.7663
 1355SOL     OW15700   3.094   1.510  14.505 -0.0273  0.9969  0.4144
 1355SOL    HW115701   3.134   1.554  14.430  1.1292  1.6053  1.4052
 1355SOL    HW215702   2.999   1.504  14.493  0.1234  0.9351 -0.7678
 1356SOL     OW15703   4.151   4.648  16.394 -0.7906 -0.9574 -0.1794
 1356SOL    HW115704   4.153   4.661  16.489  1.3794 -0.3615 -0.3018
 1356SOL    HW215705   4.198   4.724  16.361  0.1585 -0.9229  1.2294
 1357SOL     OW15706   2.119   0.701  11.045 -0.3737 -0.2543 -0.0094
 1357SOL    HW115707   2.072   0.761  10.987  2.0430  0.8817 -0.8017
 1357SOL    HW215708   2.168   0.663  10.971 -3.7764 -1.9576 -1.3934
 1358SOL     OW15709   1.440   1.770   3.296  0.2354 -0.0773  0.3458
 1358SOL    HW115710   1.462   1.686   3.336  0.9909  0.3331  0.7964
 1358SOL    HW215711   1.369   1.738   3.241  1.7699  0.4705 -1.9663
 1359SOL     OW15712   1.821   0.816  11.120 -0.2860 -0.6118 -0.4234
 1359SOL    HW115713   1.853   0.842  11.034  2.5664  2.7466  1.6621
 1359SOL    HW215714   1.825   0.904  11.159 -0.8900 -0.5670 -0.4581
 1360SOL     OW15715   4.656   2.362   9.395  0.1927 -0.4085  0.2447
 1360SOL    HW115716   4.716   2.434   9.410 -1.2316  1.1999 -1.7402
 1360SOL    HW215717   4.677   2.306   9.470  0.8451 -1.3409 -0.6230
 1361SOL     OW15718   4.556   1.711   8.012  0.2452  0.2055 -0.4742
 1361SOL    HW115719   4.611   1.641   7.975 -1.2394 -1.0659 -0.2866
 1361SOL    HW215720   4.477   1.705   7.957 -1.2638  2.0745  1.4924
 1362SOL     OW15721   4.719   0.357   1.180 -0.3745 -0.1008  0.0361
 1362SOL    HW115722   4.737   0.437   1.229  0.1642 -0.1586 -0.0677
 1362SOL    HW215723   4.654   0.311   1.233 -1.2933 -0.1817 -1.1306
 1363SOL     OW15724   2.762   1.705   2.661  0.1657  0.9079 -0.2321
 1363SOL    HW115725   2.835   1.766   2.651 -0.6812  2.0949  0.7082
 1363SOL    HW215726   2.686   1.762   2.650 -0.5207 -0.1884 -1.0450
 1364SOL     OW15727   4.720   1.948   6.237 -0.8490  0.1961 -0.5388
 1364SOL    HW115728   4.661   1.967   6.164 -0.8165 -0.6183 -0.7834
 1364SOL    HW215729   4.704   1.853   6.239 -0.5388  0.1179 -1.6516
 1365SOL     OW15730   4.095   2.332   7.919 -0.1755  0.1466 -0.1760
 1365SOL    HW115731   4.109   2.264   7.853 -0.0421  0.2435 -0.2460
 1365SOL    HW215732   4.176   2.335   7.969 -0.2286 -0.8072 -0.0283
 1366SOL     OW15733   0.687   4.035   7.043 -0.7915 -0.3385  0.7313
 1366SOL    HW115734   0.681   4.089   6.964 -0.1911 -0.2743  0.7294
 1366SOL    HW215735   0.721   4.096   7.109  1.2060 -0.3922 -0.2389
 1367SOL     OW15736   3.678   3.417   3.767  0.2384  0.1835 -0.4608
 1367SOL    HW115737   3.759   3.439   3.721  0.8978  0.9317  1.0509
 1367SOL    HW215738   3.711   3.378   3.848  0.9274 -1.0427 -1.3201
 1368SOL     OW15739   0.981   3.386   9.705  0.4917  0.2622  0.0411
 1368SOL    HW115740   1.029   3.463   9.736 -1.0240  1.3021 -0.2082
 1368SOL    HW215741   0.991   3.390   9.610  0.7380 -0.5488  0.0290
 1369SOL     OW15742   2.098   3.412   2.687 -0.1787 -0.0843 -0.4107
 1369SOL    HW115743   2.010   3.413   2.725  0.9064  1.0085  2.0518
 1369SOL    HW215744   2.131   3.501   2.703 -3.5477  0.9429  0.6973
 1370SOL     OW15745   0.125   0.100  15.990  0.1741  0.0517 -0.4315
 1370SOL    HW115746   0.217   0.082  16.009  0.3253  0.5716 -0.6642
 1370SOL    HW215747   0.095   0.010  15.973  0.3004 -0.1869  0.5774
 1371SOL     OW15748   2.087   0.948   4.592  0.0164  0.0205 -0.1052
 1371SOL    HW115749   2.077   0.952   4.497  0.7503  3.4840 -0.0203
 1371SOL    HW215750   2.058   1.033   4.623 -0.5995 -0.0038 -0.6221
 1372SOL     OW15751   3.834   4.017   4.663 -0.6499  0.6266 -0.0579
 1372SOL    HW115752   3.890   3.997   4.588  1.2320  0.9345  1.2723
 1372SOL    HW215753   3.855   3.941   4.716 -0.8998  0.7326  0.1945
 1373SOL     OW15754   3.853   0.148   3.193  0.1100 -0.5751  0.1130
 1373SOL    HW115755   3.785   0.084   3.172 -0.7198 -0.1279  1.4425
 1373SOL    HW215756   3.795   0.210   3.237  0.5045 -1.5016  1.9316
 1374SOL     OW15757   4.416   0.999   2.495 -0.4446  0.4900  0.0338
 1374SOL    HW115758   4.355   0.926   2.491  0.7924 -0.4600 -1.3905
 1374SOL    HW215759   4.352   1.068   2.511 -0.7657  0.1560  0.1678
 1375SOL     OW15760   4.633   0.346   1.627  0.2121  0.0301 -0.2262
 1375SOL    HW115761   4.609   0.318   1.539 -1.1258  0.1762  0.0917
 1375SOL    HW215762   4.590   0.431   1.630  0.4391  0.1704 -1.0099
 1376SOL     OW15763   0.441   0.416   5.080 -0.3308 -0.3277 -0.2519
 1376SOL    HW115764   0.385   0.493   5.068 -1.0924 -0.7020  0.8679
 1376SOL    HW215765   0.395   0.338   5.049  1.1215 -1.3287  0.0940
 1377SOL     OW15766   1.959   1.665   6.464 -0.3037  0.2791 -0.1649
 1377SOL    HW115767   1.911   1.640   6.543  1.8602 -1.4978  0.6019
 1377SOL    HW215768   1.903   1.736   6.432 -3.6188 -2.3544 -0.2591
 1378SOL     OW15769   1.944   4.333   5.904 -0.1940 -0.7407 -0.4293
 1378SOL    HW115770   2.026   4.360   5.945 -1.9256  1.7541  1.3762
 1378SOL    HW215771   1.884   4.368   5.970 -0.7795 -1.3660 -0.6326
 1379SOL     OW15772   0.484   1.351   0.640 -0.7968 -0.0389  0.1705
 1379SOL    HW115773   0.436   1.403   0.704 -0.8403  1.2135 -0.8679
 1379SOL    HW215774   0.425   1.276   0.635 -0.1645 -0.6225  1.6023
 1380SOL     OW15775   0.460   0.178  11.464 -0.1913  0.5079  0.5115
 1380SOL    HW115776   0.370   0.185  11.495 -1.0561  2.5912 -2.4581
 1380SOL    HW215777   0.468   0.083  11.476 -0.6594  0.2140 -1.4380
 1381SOL     OW15778   2.179   3.179   4.241 -0.0859  0.0343 -0.0855
 1381SOL    HW115779   2.236   3.255   4.248 -0.3080 -0.0725  2.8918
 1381SOL    HW215780   2.248   3.114   4.225 -1.2379 -1.2422  0.1040
 1382SOL     OW15781   2.757   4.693  16.658  0.4766  0.1359  0.2647
 1382SOL    HW115782   2.741   4.599  16.648 -2.6286  0.6300  0.6117
 1382SOL    HW215783   2.672   4.717  16.696 -0.2342  0.8771 -1.8128
 1383SOL     OW15784   3.546   3.319   2.752  0.1247 -0.0582  0.3373
 1383SOL    HW115785   3.602   3.352   2.682 -1.5091 -0.0485 -0.9464
 1383SOL    HW215786   3.498   3.253   2.703  1.6841  1.9197 -3.8204
 1384SOL     OW15787   1.374   2.363  14.098 -0.1019  0.9073 -0.5644
 1384SOL    HW115788   1.303   2.420  14.127 -0.4117 -0.2987  1.0696
 1384SOL    HW215789   1.326   2.289  14.060  0.8075 -0.4210  0.8867
 1385SOL     OW15790   0.151   3.686   8.764 -0.7751 -0.2569  0.1925
 1385SOL    HW115791   0.170   3.601   8.805  0.0688  0.8785  2.1727
 1385SOL    HW215792   0.082   3.721   8.821 -0.2843  0.2273  0.4891
 1386SOL     OW15793   3.165   4.107   8.078  0.3033 -0.0095  0.6538
 1386SOL    HW115794   3.134   4.042   8.015  0.8123  2.2905 -1.9270
 1386SOL    HW215795   3.204   4.058   8.151 -0.5968 -0.2614  0.9661
 1387SOL     OW15796   0.144   2.616   2.395  0.2187  0.3073 -0.3838
 1387SOL    HW115797   0.176   2.536   2.354 -0.3210  0.6824 -1.5724
 1387SOL    HW215798   0.092   2.652   2.322  0.9793  0.8705 -0.6570
 1388SOL     OW15799   1.586   4.376   7.900  0.1275  0.0965 -0.0616
 1388SOL    HW115800   1.651   4.437   7.934  0.2097 -1.0349  1.7994
 1388SOL    HW215801   1.539   4.432   7.838 -0.7109 -0.2789  0.2279
 1389SOL     OW15802   2.750   4.537   1.129 -0.3910  0.2853  0.2737
 1389SOL    HW115803   2.782   4.620   1.164 -0.3564  0.8452 -1.0780
 1389SOL    HW215804   2.667   4.550   1.175  0.4969 -1.1015  2.2475
 1390SOL     OW15805   3.535   1.192   5.779  0.4338 -0.3661 -0.2844
 1390SOL    HW115806   3.629   1.197   5.796  0.1378  0.3788  1.1739
 1390SOL    HW215807   3.501   1.224   5.863 -1.0086  1.7655 -1.6800
 1391SOL     OW15808   2.640   2.224   7.913  0.2122  0.1779  1.0902
 1391SOL    HW115809   2.626   2.236   8.007  1.9847  1.1350  1.2312
 1391SOL    HW215810   2.691   2.301   7.889  0.6916 -1.1398 -2.1608
 1392SOL     OW15811   1.071   1.590   2.546 -0.4668 -0.0354 -0.0734
 1392SOL    HW115812   1.150   1.587   2.493 -0.1199  2.0444  0.3288
 1392SOL    HW215813   1.037   1.677   2.524 -0.3559 -0.1668 -0.7626
 1393SOL     OW15814   4.318   0.397   3.621 -0.1483 -0.3938  0.1336
 1393SOL    HW115815   4.316   0.373   3.713 -3.4503  2.1827  0.7255
 1393SOL    HW215816   4.224   0.405   3.607  0.0149  0.7725 -0.3262
 1394SOL     OW15817   2.356   1.265   5.050 -0.0001  0.0629  0.6463
 1394SOL    HW115818   2.292   1.208   5.007  0.8527 -0.0325 -0.4947
 1394SOL    HW215819   2.332   1.356   5.033 -1.4216  0.0832  2.6828
 1395SOL     OW15820   3.777   3.129   7.566 -0.2728 -0.6502 -0.1329
 1395SOL    HW115821   3.688   3.166   7.565  0.2161  0.5781  0.9551
 1395SOL    HW215822   3.815   3.166   7.646  0.0307 -1.3640  0.0493
 1396SOL     OW15823   1.893   1.709   1.876 -0.0266  0.1506  0.4356
 1396SOL    HW115824   1.917   1.625   1.915 -0.4650 -0.3232 -0.3058
 1396SOL    HW215825   1.929   1.698   1.788  0.0834  1.4508  0.3147
 1397SOL     OW15826   2.171   2.179   7.764 -0.2369 -0.8796 -0.5529
 1397SOL    HW115827   2.144   2.263   7.801 -0.3836 -1.5082  0.7944
 1397SOL    HW215828   2.131   2.130   7.836  1.8664 -1.0696  0.4965
 1398SOL     OW15829   0.368   4.134   0.206  0.3326  0.0137 -1.1545
 1398SOL    HW115830   0.398   4.057   0.157 -0.8511 -0.9082 -0.4083
 1398SOL    HW215831   0.335   4.082   0.279 -1.7672 -0.4577 -2.4369
 1399SOL     OW15832   1.919   1.711   0.680 -0.1932 -0.6213  0.5841
 1399SOL    HW115833   1.944   1.728   0.589  0.2339  0.9196  0.9857
 1399SOL    HW215834   1.869   1.792   0.691  2.0084  0.8253  0.1068
 1400SOL     OW15835   3.400   3.766   4.668  0.4496  0.3097  0.5432
 1400SOL    HW115836   3.491   3.791   4.681 -0.2341  2.2415  1.6416
 1400SOL    HW215837   3.385   3.695   4.731  2.4605  1.0014  1.7878
 1401SOL     OW15838   4.387   1.309   8.947 -0.2426  0.4116 -0.3806
 1401SOL    HW115839   4.332   1.320   9.024 -0.5318  0.3137 -0.5742
 1401SOL    HW215840   4.474   1.316   8.986 -0.2263  1.7723 -0.6544
 1402SOL     OW15841   0.578   3.952   2.994  0.0960 -0.0666 -0.0912
 1402SOL    HW115842   0.499   3.979   3.040 -0.6548 -4.0435  0.9397
 1402SOL    HW215843   0.570   3.859   3.011 -1.4640  0.2925  1.1054
 1403SOL     OW15844   1.069   3.264   6.583  0.4345  0.1217 -0.4348
 1403SOL    HW115845   1.121   3.300   6.655 -0.5399  2.0398 -0.6908
 1403SOL    HW215846   1.120   3.186   6.564  1.5528  0.9949 -1.0170
 1404SOL     OW15847   2.652   4.404   1.969  0.5514  0.3795  0.3538
 1404SOL    HW115848   2.668   4.471   1.902 -0.8282 -0.0053 -0.3687
 1404SOL    HW215849   2.702   4.434   2.045 -0.1122  0.9667  0.5474
 1405SOL     OW15850   0.711   0.112   4.949 -0.2595 -0.2525 -0.0695
 1405SOL    HW115851   0.646   0.114   5.019  0.7771 -4.1258  1.0216
 1405SOL    HW215852   0.731   0.019   4.933 -2.8239 -0.6346 -0.9894
 1406SOL     OW15853   2.176   0.932  10.128 -0.9042 -0.1528 -0.4134
 1406SOL    HW115854   2.120   0.985  10.072  1.6709  3.1700  0.1528
 1406SOL    HW215855   2.265   0.961  10.108 -0.8917 -0.7108 -1.1653
 1407SOL     OW15856   4.631   0.712   7.733  0.2113 -0.0368  0.9243
 1407SOL    HW115857   4.630   0.708   7.637  0.1669  0.2244  0.9146
 1407SOL    HW215858   4.576   0.788   7.751  1.4779  0.9415  0.6145
 1408SOL     OW15859   1.132   4.265   3.274 -0.3427  0.0121 -1.1747
 1408SOL    HW115860   1.195   4.299   3.338 -0.1359 -0.7725 -0.9632
 1408SOL    HW215861   1.152   4.172   3.278  1.1782  0.3155 -1.6764
 1409SOL     OW15862   4.211   0.214   8.146 -0.1746 -0.1705 -0.0865
 1409SOL    HW115863   4.170   0.223   8.232 -2.1315 -0.3430 -1.0053
 1409SOL    HW215864   4.261   0.134   8.160  0.2807 -0.0918 -1.2307
 1410SOL     OW15865   1.314   3.960   3.020  0.1682  0.0667  0.9775
 1410SOL    HW115866   1.325   3.889   3.082  0.6780  0.1872  1.0258
 1410SOL    HW215867   1.237   4.003   3.057 -1.4195 -1.2755 -0.7367
 1411SOL     OW15868   3.705   1.450   2.479  0.3079  0.0765 -0.0795
 1411SOL    HW115869   3.685   1.377   2.538  1.5760 -0.2622 -0.0742
 1411SOL    HW215870   3.680   1.522   2.536 -1.4557 -0.5051 -0.1126
 1412SOL     OW15871   1.013   2.050  14.180  0.0075  0.0123  0.0587
 1412SOL    HW115872   1.002   2.104  14.258  0.9000 -0.5149  0.5428
 1412SOL    HW215873   0.956   2.101  14.122  0.2059 -0.2244 -0.3441
 1413SOL     OW15874   0.645   1.268   5.192  0.1603  0.3926  0.1860
 1413SOL    HW115875   0.590   1.207   5.241  0.5698  1.2632  1.7570
 1413SOL    HW215876   0.634   1.233   5.104  3.1711  1.6331 -0.6996
 1414SOL     OW15877   2.846   1.668   1.945 -0.4764  0.6619  0.2878
 1414SOL    HW115878   2.890   1.613   2.009  0.7042 -0.1287 -1.2051
 1414SOL    HW215879   2.799   1.716   2.014  0.8822  0.4604  1.3536
 1415SOL     OW15880   0.615   1.992   3.873  0.6131 -0.2884 -0.0565
 1415SOL    HW115881   0.707   2.008   3.892  0.3322  3.4768 -1.6812
 1415SOL    HW215882   0.597   2.054   3.801 -0.2186 -1.2759 -0.7036
 1416SOL     OW15883   3.338   1.602   5.871 -0.6163  0.3023 -0.3486
 1416SOL    HW115884   3.433   1.590   5.871 -0.6979 -0.3445 -0.9220
 1416SOL    HW215885   3.334   1.670   5.939 -0.5340  0.1361 -0.1797
 1417SOL     OW15886   2.293   1.042   1.543  0.1483  0.7969 -0.2314
 1417SOL    HW115887   2.323   1.009   1.459 -2.2529  0.3799 -0.9157
 1417SOL    HW215888   2.334   1.128   1.535 -0.5260  1.1215 -0.2130
 1418SOL     OW15889   3.520   1.931   3.648  0.1210 -0.2110 -0.0537
 1418SOL    HW115890   3.548   2.017   3.619  2.1928 -0.8855 -0.0292
 1418SOL    HW215891   3.428   1.940   3.673  0.4833  1.9627  0.4840
 1419SOL     OW15892   2.436   1.180   7.420 -0.0483  0.6093 -0.4369
 1419SOL    HW115893   2.343   1.180   7.442 -0.0924  0.1261 -0.6201
 1419SOL    HW215894   2.442   1.210   7.329 -0.9871  0.5724 -0.5035
 1420SOL     OW15895   2.585   3.407   7.660 -0.0616  0.1855  0.0398
 1420SOL    HW115896   2.641   3.434   7.586  0.6265  3.0454  1.6243
 1420SOL    HW215897   2.634   3.327   7.676  0.3540  0.7175  1.4325
 1421SOL     OW15898   0.256   0.435   0.267  0.1942 -0.1681 -0.0960
 1421SOL    HW115899   0.203   0.511   0.291 -0.2685 -0.0010 -1.6489
 1421SOL    HW215900   0.258   0.450   0.173 -0.8476  0.0341 -0.0840
 1422SOL     OW15901   0.949   2.638   4.554 -0.7344  0.7319  0.2931
 1422SOL    HW115902   0.948   2.572   4.623 -2.6086  1.4160  0.9076
 1422SOL    HW215903   0.865   2.619   4.513 -0.5257  0.3994  0.0197
 1423SOL     OW15904   2.980   2.468  17.004 -0.2313 -0.1219 -0.0914
 1423SOL    HW115905   2.934   2.446  17.085 -0.1825 -0.0446 -0.0429
 1423SOL    HW215906   2.913   2.513  16.952  1.1391  2.3784  0.2792
 1424SOL     OW15907   4.103   0.078  14.950 -0.1526  0.4446 -0.5676
 1424SOL    HW115908   4.088   0.050  15.040 -0.8642 -0.2777 -0.9100
 1424SOL    HW215909   4.012   0.078  14.921 -0.0669  0.4140 -0.8409
 1425SOL     OW15910   2.308   3.098   5.147 -0.2272 -0.3001 -0.1277
 1425SOL    HW115911   2.326   3.011   5.183 -0.6176 -0.1885  0.3347
 1425SOL    HW215912   2.397   3.123   5.122  0.7750 -2.0078  1.7872
 1426SOL     OW15913   0.116   2.866  17.023  0.1172  0.0120 -0.5238
 1426SOL    HW115914   0.170   2.800  17.066 -1.1357 -1.3234 -1.0148
 1426SOL    HW215915   0.050   2.803  16.995 -0.1856 -1.2724  3.0819
 1427SOL     OW15916   4.054   1.277   8.174 -0.0569 -0.0581 -0.2754
 1427SOL    HW115917   4.014   1.361   8.191  2.0430  0.6106  1.3267
 1427SOL    HW215918   3.972   1.233   8.152 -1.0937  0.7365  2.0791
 1428SOL     OW15919   2.309   0.453  17.340  0.2752  0.0252  0.3080
 1428SOL    HW115920   2.228   0.405  17.357  0.6817 -0.5335  0.6622
 1428SOL    HW215921   2.357   0.431  17.420  2.2931  2.5219 -0.2033
 1429SOL     OW15922   0.338   3.183   8.184 -0.1621 -0.2574 -0.1890
 1429SOL    HW115923   0.301   3.118   8.243 -0.8681  0.9909  0.7416
 1429SOL    HW215924   0.380   3.129   8.117  0.8362  1.1406 -0.6955
 1430SOL     OW15925   4.449   1.466   4.898  0.2127  0.0218  0.7234
 1430SOL    HW115926   4.425   1.474   4.990 -0.8119 -1.9037  0.6267
 1430SOL    HW215927   4.360   1.447   4.868 -0.4676  1.9961  1.4912
 1431SOL     OW15928   3.047   3.511   6.536 -0.2068  0.2230  0.0056
 1431SOL    HW115929   3.047   3.442   6.470  0.2339 -0.0437  0.2869
 1431SOL    HW215930   3.134   3.502   6.575  0.1601 -3.0016 -1.6300
 1432SOL     OW15931   0.857   2.677   2.690  0.0123 -0.1510  0.1829
 1432SOL    HW115932   0.841   2.708   2.600  1.9294  0.1546 -0.0539
 1432SOL    HW215933   0.777   2.719   2.721 -0.1345 -1.2110  1.2033
 1433SOL     OW15934   3.339   3.314   5.038  0.1667 -0.2596 -0.1894
 1433SOL    HW115935   3.400   3.240   5.034  0.1070 -0.5026  2.8896
 1433SOL    HW215936   3.389   3.388   5.071 -1.1465  0.6623 -0.2577
 1434SOL     OW15937   2.231   2.826  14.041  0.2250  0.5398  0.3869
 1434SOL    HW115938   2.188   2.904  14.008 -0.0200  0.6237  0.8972
 1434SOL    HW215939   2.199   2.762  13.978  3.1056  0.8370 -1.3608
 1435SOL     OW15940   3.781   0.595   4.298  0.0596  0.0957  0.2858
 1435SOL    HW115941   3.808   0.579   4.207  1.2836 -0.8053  0.8107
 1435SOL    HW215942   3.827   0.677   4.317  1.0545 -0.1874 -0.8623
 1436SOL     OW15943   2.424   3.390   6.451  0.3446 -0.4855 -0.1190
 1436SOL    HW115944   2.343   3.352   6.486  0.3476 -1.5487 -1.2735
 1436SOL    HW215945   2.487   3.346   6.508 -0.4972 -1.5928 -0.0362
 1437SOL     OW15946   0.232   0.192   0.364 -0.0970 -0.7748 -0.2033
 1437SOL    HW115947   0.242   0.276   0.319  2.5905 -1.0836 -0.1578
 1437SOL    HW215948   0.277   0.203   0.447 -0.1978 -1.5610 -0.0438
 1438SOL     OW15949   0.847   0.363  15.222 -0.0943  0.3807 -0.0904
 1438SOL    HW115950   0.931   0.325  15.247  0.0789  0.0074 -1.2200
 1438SOL    HW215951   0.844   0.434  15.286 -2.6147 -1.0761  1.4228
 1439SOL     OW15952   1.396   1.405   9.930  0.0734 -0.3760  0.6019
 1439SOL    HW115953   1.441   1.327   9.964 -1.2279 -1.0358  0.8368
 1439SOL    HW215954   1.443   1.469   9.983  0.9760 -1.0589  0.6293
 1440SOL     OW15955   0.563   3.114   5.635 -0.6528  0.1727 -0.5885
 1440SOL    HW115956   0.599   3.107   5.723  0.9478 -2.6879 -1.4621
 1440SOL    HW215957   0.551   3.023   5.606  1.9132  0.0157 -1.1778
 1441SOL     OW15958   0.597   1.587  10.024  0.2375 -0.1548  0.0795
 1441SOL    HW115959   0.579   1.590   9.930  0.5761  1.2850  0.0595
 1441SOL    HW215960   0.689   1.614  10.022  0.5525 -1.1329  1.1672
 1442SOL     OW15961   4.021   0.762   5.364 -0.3668 -0.0390  0.3210
 1442SOL    HW115962   3.979   0.772   5.450  0.4321 -2.9240  1.0593
 1442SOL    HW215963   4.015   0.666   5.361  0.3148 -0.0561 -0.4816
 1443SOL     OW15964   2.880   3.796   7.682  0.2583  0.1004 -0.1592
 1443SOL    HW115965   2.871   3.764   7.772 -0.0573  1.4430  0.2800
 1443SOL    HW215966   2.842   3.882   7.696  1.2376  0.5543 -0.2737
 1444SOL     OW15967   2.397   2.052   2.540 -0.3101 -0.1356  0.5299
 1444SOL    HW115968   2.424   2.068   2.631  1.7654 -2.2223  0.2800
 1444SOL    HW215969   2.372   2.138   2.507 -3.8310 -0.5282  2.1038
 1445SOL     OW15970   0.451   0.544   6.933  0.8025  0.2409  0.6845
 1445SOL    HW115971   0.482   0.458   6.904  0.1832 -0.1240  1.1099
 1445SOL    HW215972   0.511   0.596   6.879  0.2373  0.7867  0.5707
 1446SOL     OW15973   4.101   2.760  12.975 -0.3029  0.5697  0.2277
 1446SOL    HW115974   4.190   2.724  12.977 -1.1524 -1.4344  1.1564
 1446SOL    HW215975   4.068   2.718  13.054  1.1097 -0.7000  0.1471
 1447SOL     OW15976   0.544   2.304   7.718 -0.1485  0.4427 -0.3990
 1447SOL    HW115977   0.594   2.241   7.769 -1.8049 -0.1753  0.4509
 1447SOL    HW215978   0.603   2.317   7.644 -2.3064 -1.0781 -2.3809
 1448SOL     OW15979   1.874   3.669   5.408  0.7289  1.0221 -0.2824
 1448SOL    HW115980   1.874   3.741   5.344 -0.2064  0.8644 -0.4554
 1448SOL    HW215981   1.803   3.610   5.385  2.8348 -1.2191 -1.0522
 1449SOL     OW15982   0.887   0.186   7.186 -0.1767  0.3081 -0.3608
 1449SOL    HW115983   0.934   0.248   7.131  3.0506 -0.3693  1.6024
 1449SOL    HW215984   0.957   0.125   7.212 -2.0090 -1.6107  0.0666
 1450SOL     OW15985   3.365   2.703   5.617  0.1957 -0.5159 -0.0776
 1450SOL    HW115986   3.293   2.652   5.580 -0.3900  0.0885  0.2250
 1450SOL    HW215987   3.385   2.761   5.543 -0.8265 -1.1060 -0.8134
 1451SOL     OW15988   1.654   4.142   1.571  0.0000 -0.3297  0.4027
 1451SOL    HW115989   1.563   4.128   1.597  0.2380 -0.1732  1.3309
 1451SOL    HW215990   1.650   4.101   1.485  3.0733 -2.9979  1.5370
 1452SOL     OW15991   1.894   1.217   8.055 -0.3644 -0.1693  0.0074
 1452SOL    HW115992   1.877   1.234   8.148 -0.1116 -0.5633  0.1307
 1452SOL    HW215993   1.956   1.145   8.066  0.0228  0.0619 -0.6858
 1453SOL     OW15994   3.276   0.955  15.175  0.6518  0.1237 -0.3723
 1453SOL    HW115995   3.246   1.044  15.193 -0.1991  0.1257 -1.8609
 1453SOL    HW215996   3.243   0.931  15.089 -0.4313 -1.5927  0.5199
 1454SOL     OW15997   4.176   2.337  11.457 -0.1404 -0.3482  0.1901
 1454SOL    HW115998   4.178   2.280  11.380  0.2251  0.0159 -0.0769
 1454SOL    HW215999   4.172   2.275  11.530  0.9883  0.9806  1.3915
 1455SOL     OW16000   1.902   2.907  14.594 -0.7736 -0.1607  0.8985
 1455SOL    HW116001   1.888   2.998  14.619 -0.3655 -0.8366  3.4916
 1455SOL    HW216002   1.997   2.899  14.586 -0.8229 -1.1987  1.3510
 1456SOL     OW16003   1.148   1.281   8.526 -0.3102 -0.5684  0.1605
 1456SOL    HW116004   1.077   1.345   8.519 -0.7362 -0.9772  0.7792
 1456SOL    HW216005   1.136   1.262   8.619  0.5336 -0.9211  0.1990
 1457SOL     OW16006   1.312   3.260   1.391 -1.4251 -0.6323 -0.2783
 1457SOL    HW116007   1.345   3.329   1.449 -0.8507  0.2673 -1.6890
 1457SOL    HW216008   1.254   3.309   1.333 -0.9542  0.3181  0.0477
 1458SOL     OW16009   1.995   2.406   7.298 -0.0236  0.1161  0.1258
 1458SOL    HW116010   1.986   2.311   7.295  4.0910 -0.2612 -0.8680
 1458SOL    HW216011   1.908   2.445   7.292 -0.9560 -1.7016  1.8129
 1459SOL     OW16012   1.955   4.668   5.172  0.4296  0.0161  0.3165
 1459SOL    HW116013   2.040   4.707   5.192  0.0025  0.5423  1.1062
 1459SOL    HW216014   1.916   4.734   5.115 -0.0946 -0.7494 -0.2085
 1460SOL     OW16015   1.462   3.516   4.139 -0.2138  0.2342  0.0346
 1460SOL    HW116016   1.407   3.588   4.170  0.1161  0.0383  1.0800
 1460SOL    HW216017   1.510   3.562   4.070  1.9049  0.9811  2.0088
 1461SOL     OW16018   1.277   3.419  16.271  0.4932 -0.6498 -0.4557
 1461SOL    HW116019   1.297   3.363  16.345  1.3084  0.8675  0.4814
 1461SOL    HW216020   1.345   3.487  16.275  0.5521 -0.7683  0.4429
 1462SOL     OW16021   1.892   1.148   2.959 -0.2995 -0.1062  0.0927
 1462SOL    HW116022   1.902   1.243   2.957  0.5451 -0.1683  1.2694
 1462SOL    HW216023   1.934   1.131   2.876  0.0629  0.5881  0.1341
 1463SOL     OW16024   0.354   4.466   9.549  0.6210  0.2765 -0.4539
 1463SOL    HW116025   0.297   4.542   9.557 -0.0639 -0.1772 -0.8914
 1463SOL    HW216026   0.294   4.394   9.570 -2.6793  3.3421  0.6950
 1464SOL     OW16027   2.949   0.867   4.533 -0.0714 -0.0584 -0.5453
 1464SOL    HW116028   2.942   0.774   4.510  0.7087 -0.4360  0.7037
 1464SOL    HW216029   2.925   0.866   4.626 -0.0505 -2.0112 -0.5568
 1465SOL     OW16030   3.321   3.971   6.353  0.2855 -0.0318 -0.1635
 1465SOL    HW116031   3.359   3.885   6.366  1.9940  0.7629  0.0384
 1465SOL    HW216032   3.245   3.956   6.297  0.7744  0.8863 -1.0788
 1466SOL     OW16033   2.586   1.685   1.554  0.5483  1.0931 -0.4598
 1466SOL    HW116034   2.603   1.677   1.460 -1.9144 -0.3144 -0.7747
 1466SOL    HW216035   2.671   1.647   1.579  0.5422  0.7593 -0.9575
 1467SOL     OW16036   2.542   4.433   2.447 -0.3699  0.3778  0.0092
 1467SOL    HW116037   2.512   4.490   2.376  1.0737 -0.8211 -1.5717
 1467SOL    HW216038   2.618   4.395   2.403  0.1812  0.9503  0.4612
 1468SOL     OW16039   1.170   3.395   5.963 -0.1163 -0.0778  0.5443
 1468SOL    HW116040   1.127   3.410   6.048 -1.2477 -0.1871 -0.0011
 1468SOL    HW216041   1.152   3.303   5.946 -0.3638  0.4863 -2.1827
 1469SOL     OW16042   0.657   4.183   1.771  0.6190 -0.0996  0.0496
 1469SOL    HW116043   0.708   4.166   1.692  2.1350  0.7142  0.8343
 1469SOL    HW216044   0.613   4.263   1.746 -0.3788 -1.1243 -1.4532
 1470SOL     OW16045   0.014   4.586   1.071  0.7068 -0.1956  0.5471
 1470SOL    HW116046   0.085   4.606   1.132  1.2744  0.8491 -0.4538
 1470SOL    HW216047   4.672   4.608   1.122  1.2155  0.6438  0.9747
 1471SOL     OW16048   3.209   3.054   6.041 -0.1152  0.2817  0.3215
 1471SOL    HW116049   3.182   3.107   5.966 -0.6590  1.6588  1.4946
 1471SOL    HW216050   3.247   3.124   6.094  0.8795 -0.9614  1.2344
 1472SOL     OW16051   0.051   2.119   8.517 -0.4709  0.2607 -0.2257
 1472SOL    HW116052   0.032   2.027   8.537 -0.7420  0.4161  0.2156
 1472SOL    HW216053   0.143   2.115   8.490 -0.0174  2.1873  1.0206
 1473SOL     OW16054   3.804   2.035  13.047 -0.2368 -0.1226  0.2649
 1473SOL    HW116055   3.765   2.014  13.131 -0.4702  0.3318  0.2691
 1473SOL    HW216056   3.760   1.967  12.995 -1.3288 -0.3606  1.4889
 1474SOL     OW16057   1.311   0.214  11.220 -0.2807  0.0192  0.1098
 1474SOL    HW116058   1.359   0.286  11.180 -0.5217  0.8360  1.3078
 1474SOL    HW216059   1.222   0.248  11.232 -0.9320 -2.2319  1.5379
 1475SOL     OW16060   3.534   3.199   3.320  0.5207  0.0290  0.3836
 1475SOL    HW116061   3.604   3.177   3.259 -0.2340  1.1981 -0.8997
 1475SOL    HW216062   3.464   3.207   3.255 -1.6799  1.1554  2.8824
 1476SOL     OW16063   3.608   4.360  15.608 -0.7734 -0.4965 -0.1776
 1476SOL    HW116064   3.561   4.326  15.684  0.8833 -0.2263  0.9755
 1476SOL    HW216065   3.698   4.357  15.640 -0.3522 -2.7695 -1.5217
 1477SOL     OW16066   3.205   2.437   7.776  0.2270  0.6181  0.0372
 1477SOL    HW116067   3.275   2.408   7.834 -0.5815 -2.3059 -0.4836
 1477SOL    HW216068   3.206   2.532   7.791 -1.3620  0.3799  1.6008
 1478SOL     OW16069   1.851   3.950   0.977 -0.4399 -0.0962  0.4524
 1478SOL    HW116070   1.819   4.007   0.907  0.2200  0.6864  0.7974
 1478SOL    HW216071   1.946   3.961   0.974 -0.2672 -1.6681 -0.3766
 1479SOL     OW16072   4.012   4.015   0.503 -0.6780 -0.1152 -0.0892
 1479SOL    HW116073   4.072   4.061   0.561  0.1434 -0.6976 -0.4824
 1479SOL    HW216074   4.043   4.051   0.420 -2.1267  1.4064  0.0188
 1480SOL     OW16075   2.368   1.146   2.711 -0.0845  0.5274  0.1543
 1480SOL    HW116076   2.402   1.167   2.798  1.7538  1.3448 -0.7638
 1480SOL    HW216077   2.299   1.212   2.718  0.0157  0.4015  2.3514
 1481SOL     OW16078   1.365   3.818   1.594 -0.8812 -0.3483  0.2863
 1481SOL    HW116079   1.443   3.848   1.640 -0.2302 -0.5170 -0.7304
 1481SOL    HW216080   1.308   3.834   1.670  1.0434 -1.7459  2.0235
 1482SOL     OW16081   4.433   0.645   3.117  0.2284  0.4046  0.3266
 1482SOL    HW116082   4.468   0.734   3.105 -0.7321  0.6575 -0.6082
 1482SOL    HW216083   4.349   0.668   3.078 -0.5676 -0.5603  1.4785
 1483SOL     OW16084   3.781   4.004   2.205  0.0932 -0.0130  0.1630
 1483SOL    HW116085   3.797   3.911   2.191 -0.6307 -0.3910  1.8677
 1483SOL    HW216086   3.761   4.040   2.118 -0.5277 -3.9370 -1.3114
 1484SOL     OW16087   3.737   4.430  17.170 -0.2923  0.2921  0.3877
 1484SOL    HW116088   3.804   4.498  17.159 -0.5134  0.3094 -0.8370
 1484SOL    HW216089   3.662   4.464  17.121  0.8555  0.2397 -1.4082
 1485SOL     OW16090   1.019   1.165  13.219  0.2234 -0.0961 -0.1981
 1485SOL    HW116091   0.938   1.134  13.177  1.0544 -1.2465 -0.9404
 1485SOL    HW216092   1.030   1.091  13.279  1.8188 -0.2831 -0.7373
 1486SOL     OW16093   1.810   1.102  13.115 -0.1680 -0.4581  0.1759
 1486SOL    HW116094   1.829   1.030  13.054  1.1422 -1.9934  2.3761
 1486SOL    HW216095   1.837   1.059  13.197  0.4884  0.0134  0.2078
 1487SOL     OW16096   2.627   3.930   4.773 -0.0080 -0.1492 -0.2605
 1487SOL    HW116097   2.608   3.857   4.833  0.8334 -0.0539  0.1236
 1487SOL    HW216098   2.684   3.989   4.823  2.4267 -2.5096 -0.2920
 1488SOL     OW16099   0.189   1.309   2.257 -0.2915  0.0138 -0.2522
 1488SOL    HW116100   0.106   1.331   2.300 -1.4400  0.3860 -2.6405
 1488SOL    HW216101   0.204   1.223   2.296  0.0532 -1.2520 -3.1617
 1489SOL     OW16102   3.518   0.580   4.039 -0.0928  0.0427  0.1383
 1489SOL    HW116103   3.502   0.500   3.990 -1.4463 -0.8239  2.0298
 1489SOL    HW216104   3.454   0.638   3.998  2.5832  1.0277 -2.6557
 1490SOL     OW16105   3.561   0.555   3.157  0.3907  0.2916 -0.2974
 1490SOL    HW116106   3.586   0.614   3.086 -1.4535  1.4976  0.0752
 1490SOL    HW216107   3.471   0.527   3.141  0.7897  0.9315 -3.6102
 1491SOL     OW16108   4.246   1.228   7.397 -0.3174  0.8004 -0.1310
 1491SOL    HW116109   4.164   1.231   7.347  0.0703 -1.4606 -0.9091
 1491SOL    HW216110   4.294   1.288   7.340 -0.8399  0.4951 -0.8936
 1492SOL     OW16111   4.268   3.806   6.142  0.1058 -0.0755 -0.2153
 1492SOL    HW116112   4.303   3.722   6.111  1.8303  0.9565 -1.1082
 1492SOL    HW216113   4.220   3.775   6.219  0.1142 -3.5817 -1.5951
 1493SOL     OW16114   4.192   3.765   4.259  0.5369 -0.3580 -0.4361
 1493SOL    HW116115   4.253   3.837   4.280  0.7944 -1.3474  2.1869
 1493SOL    HW216116   4.220   3.698   4.321  0.1375  0.5708  0.7547
 1494SOL     OW16117   0.248   3.269   3.538  0.3046 -0.3803 -0.6247
 1494SOL    HW116118   0.167   3.222   3.521 -0.2121  0.1069  0.4972
 1494SOL    HW216119   0.303   3.202   3.580 -0.6259 -1.2562 -0.8078
 1495SOL     OW16120   4.133   4.189   6.453 -0.4354  0.3282  0.6114
 1495SOL    HW116121   4.215   4.227   6.486  0.5518 -0.3296 -1.0605
 1495SOL    HW216122   4.151   4.216   6.363 -3.0673 -0.0474 -0.0171
 1496SOL     OW16123   4.518   1.696   4.157 -0.0220  0.3133 -0.3455
 1496SOL    HW116124   4.579   1.689   4.084  2.1327  3.0396  1.1711
 1496SOL    HW216125   4.439   1.667   4.111 -1.0457  1.3468  0.7485
 1497SOL     OW16126   1.836   0.596   1.944 -0.8108 -0.6714 -0.7485
 1497SOL    HW116127   1.835   0.680   1.899  2.5807 -0.3651 -0.3000
 1497SOL    HW216128   1.802   0.615   2.032  3.0360  0.3163  0.5413
 1498SOL     OW16129   0.687   0.872  10.199  0.4913 -0.0155  0.3081
 1498SOL    HW116130   0.623   0.917  10.254  0.8134 -0.9680  1.4526
 1498SOL    HW216131   0.767   0.925  10.202  1.1989 -1.0945  0.4195
 1499SOL     OW16132   1.600   0.373   9.193 -0.5112  0.2214  0.0286
 1499SOL    HW116133   1.582   0.387   9.286  1.4521 -0.4455  0.5153
 1499SOL    HW216134   1.679   0.423   9.171  1.3325 -2.7281 -0.1432
 1500SOL     OW16135   3.755   2.100   4.222 -0.3141  0.4096 -0.1949
 1500SOL    HW116136   3.739   2.158   4.297 -1.2077  1.2914 -1.0608
 1500SOL    HW216137   3.772   2.169   4.158  2.4806  0.0405  0.1459
 1501SOL     OW16138   2.016   1.793   6.831 -0.7286 -0.0334 -0.4132
 1501SOL    HW116139   2.024   1.755   6.918  2.1045 -1.3828 -1.2407
 1501SOL    HW216140   2.108   1.782   6.804 -0.7045 -0.2403 -0.2470
 1502SOL     OW16141   1.018   2.602   6.501  0.0221 -0.0587  0.3884
 1502SOL    HW116142   0.950   2.667   6.483  0.0844 -0.4263 -1.2675
 1502SOL    HW216143   0.964   2.524   6.493 -2.3932  1.9686 -3.5078
 1503SOL     OW16144   2.650   0.797   1.452  0.4198 -0.1538 -0.0270
 1503SOL    HW116145   2.706   0.757   1.519 -1.6293 -0.6227  1.4188
 1503SOL    HW216146   2.683   0.886   1.460  1.0555 -0.1009 -3.5561
 1504SOL     OW16147   0.928   2.602   8.496  0.3249  0.6401  0.5550
 1504SOL    HW116148   0.987   2.675   8.512  0.2972  0.6096  0.7883
 1504SOL    HW216149   0.945   2.600   8.401 -0.0357 -1.0444  0.5281
 1505SOL     OW16150   3.242   0.349   6.511  0.0622  0.2734  0.6785
 1505SOL    HW116151   3.271   0.288   6.579 -0.1548 -0.4156  0.1548
 1505SOL    HW216152   3.323   0.355   6.461 -0.4978 -0.3104 -0.3054
 1506SOL     OW16153   3.067   0.731  16.209  1.2255 -0.0208 -0.3789
 1506SOL    HW116154   3.010   0.690  16.275 -0.3957  1.0251 -1.1197
 1506SOL    HW216155   2.999   0.766  16.151 -1.1506 -1.9781  1.1996
 1507SOL     OW16156   4.443   2.433   4.595  0.2966  0.3586 -0.4934
 1507SOL    HW116157   4.433   2.339   4.611  2.5347  0.3310  0.7748
 1507SOL    HW216158   4.468   2.462   4.683  1.2344 -0.3639 -0.5167
 1508SOL     OW16159   0.229   2.263  10.595  0.1985 -0.0777  0.5615
 1508SOL    HW116160   0.273   2.181  10.614  1.5257  0.5021  0.0190
 1508SOL    HW216161   0.135   2.256  10.611  0.2714  2.1428  2.0246
 1509SOL     OW16162   2.517   0.482   3.301  0.4111 -0.6275  0.4675
 1509SOL    HW116163   2.448   0.508   3.240 -0.1294  0.7369  1.6830
 1509SOL    HW216164   2.512   0.389   3.278  3.6012 -0.1450 -2.0694
 1510SOL     OW16165   4.727   4.591   1.814 -0.0091 -0.8246  0.7134
 1510SOL    HW116166   4.659   4.658   1.821 -0.1366 -0.8686 -0.1356
 1510SOL    HW216167   4.700   4.553   1.730 -2.5290 -0.9265  1.5827
 1511SOL     OW16168   2.269   0.727  10.542 -0.1982  0.2469 -0.6643
 1511SOL    HW116169   2.244   0.682  10.623  0.1531 -0.6375 -1.0474
 1511SOL    HW216170   2.364   0.729  10.553 -0.4552  0.7972  1.6417
 1512SOL     OW16171   1.708   0.661  11.400  0.3084 -0.8368 -0.9081
 1512SOL    HW116172   1.619   0.695  11.396  0.1334 -1.1609  0.3194
 1512SOL    HW216173   1.739   0.698  11.483 -0.5007 -1.2329 -0.4300
 1513SOL     OW16174   4.276   2.574   6.689  0.5110 -0.6433 -0.1344
 1513SOL    HW116175   4.331   2.629   6.745 -0.2768  0.3417 -0.3291
 1513SOL    HW216176   4.334   2.501   6.670  1.3582 -0.1874  0.6945
 1514SOL     OW16177   4.106   1.958   6.231 -0.2387 -0.9705 -0.2149
 1514SOL    HW116178   4.183   2.001   6.195  0.2843  0.5453  2.7704
 1514SOL    HW216179   4.143   1.913   6.306 -0.3595 -2.3433 -0.9789
 1515SOL     OW16180   0.788   4.228   2.476  0.1823  0.4451 -0.0885
 1515SOL    HW116181   0.716   4.290   2.464  0.2696  0.6208  0.2904
 1515SOL    HW216182   0.790   4.237   2.572 -1.8782 -1.1797  0.1109
 1516SOL     OW16183   1.284   2.643   1.232  0.1387 -0.2926 -0.2539
 1516SOL    HW116184   1.320   2.718   1.280  1.4878 -1.2130  0.1895
 1516SOL    HW216185   1.361   2.633   1.176  0.4310  0.6074 -0.0188
 1517SOL     OW16186   0.814   2.609   5.819 -0.1418  0.3549 -1.0328
 1517SOL    HW116187   0.772   2.522   5.814 -2.9313  1.5133  2.4904
 1517SOL    HW216188   0.755   2.671   5.776 -1.9715 -2.0206 -2.0235
 1518SOL     OW16189   3.992   4.448   6.620 -0.1047  0.4343  0.2429
 1518SOL    HW116190   4.079   4.452   6.659  0.1437 -0.6842 -0.2005
 1518SOL    HW216191   4.011   4.415   6.532  0.2281 -2.4979  1.4255
 1519SOL     OW16192   3.859   2.709   9.154 -0.2204  0.1616 -0.3259
 1519SOL    HW116193   3.882   2.655   9.230 -2.3431 -1.2799 -0.7136
 1519SOL    HW216194   3.770   2.730   9.180 -0.1447  0.5061 -0.3412
 1520SOL     OW16195   4.008   2.751   3.793 -0.4206 -0.1409  0.2445
 1520SOL    HW116196   4.091   2.722   3.757 -0.6447 -2.7926  1.8816
 1520SOL    HW216197   3.960   2.738   3.711  2.7883 -1.6945 -1.4003
 1521SOL     OW16198   0.552   0.540   2.088 -0.5469  0.2885  0.2803
 1521SOL    HW116199   0.573   0.578   2.173 -1.1538 -0.9539  0.9708
 1521SOL    HW216200   0.569   0.448   2.104  0.8171  0.4928  0.0055
 1522SOL     OW16201   3.755   2.510   7.344  0.9436  0.7734  0.3855
 1522SOL    HW116202   3.710   2.592   7.360 -1.2664 -0.3540 -0.0136
 1522SOL    HW216203   3.684   2.451   7.318  1.4474 -0.0354  0.8291
 1523SOL     OW16204   0.882   0.833   2.755 -0.2868  0.1479 -0.5024
 1523SOL    HW116205   0.811   0.855   2.695 -0.2056  2.4303  0.2301
 1523SOL    HW216206   0.856   0.746   2.783 -1.9029  0.3654 -1.3708
 1524SOL     OW16207   3.661   4.401   7.388  0.3042  0.1622 -0.0084
 1524SOL    HW116208   3.621   4.471   7.440  0.4893 -1.9773  2.9826
 1524SOL    HW216209   3.606   4.398   7.309  0.7446 -0.6552 -0.2820
 1525SOL     OW16210   1.029   2.642   8.242 -0.0027 -0.1279  0.0299
 1525SOL    HW116211   1.033   2.738   8.245  2.0666 -0.1729 -1.6356
 1525SOL    HW216212   1.033   2.627   8.147 -0.1771  0.0682 -0.0078
 1526SOL     OW16213   0.826   2.302  15.818  0.1753  0.3889 -0.2063
 1526SOL    HW116214   0.768   2.371  15.852 -0.3724 -0.9942  1.6955
 1526SOL    HW216215   0.765   2.229  15.813 -1.8950  2.0258  1.2475
 1527SOL     OW16216   0.857   0.082   4.168  0.1551  0.2758  0.3181
 1527SOL    HW116217   0.795   0.071   4.240 -1.7605 -0.9363 -1.5178
 1527SOL    HW216218   0.934   0.115   4.214 -1.1169  2.0615  1.1648
 1528SOL     OW16219   1.367   3.579   8.640  0.6852  0.1142  0.3159
 1528SOL    HW116220   1.427   3.505   8.650  1.7707  0.8251 -0.9499
 1528SOL    HW216221   1.287   3.537   8.671  0.7449  0.4951  1.0039
 1529SOL     OW16222   3.306   2.908  12.095  0.1149 -0.0907 -0.1220
 1529SOL    HW116223   3.303   2.922  12.000  0.4236  2.6468  0.2725
 1529SOL    HW216224   3.319   2.996  12.132 -3.3676  1.1696 -1.8333
 1530SOL     OW16225   2.094   3.336  13.631  0.1298 -0.0705 -0.0641
 1530SOL    HW116226   2.003   3.349  13.659  0.5044 -0.6765  1.4389
 1530SOL    HW216227   2.093   3.357  13.538 -2.0361 -0.4016 -0.1141
 1531SOL     OW16228   0.136   3.202  16.574  0.0899  0.4442  0.0470
 1531SOL    HW116229   0.062   3.228  16.629  1.1022 -2.3401  2.7277
 1531SOL    HW216230   0.219   3.230  16.612  0.8829  2.3094 -3.0135
 1532SOL     OW16231   1.287   0.321   0.763 -0.1946 -0.4182 -0.5177
 1532SOL    HW116232   1.290   0.329   0.858 -2.4252  1.1108 -0.5728
 1532SOL    HW216233   1.297   0.412   0.734 -0.6302 -1.0655 -2.7089
 1533SOL     OW16234   2.946   1.072   8.223 -0.0447 -0.4019  0.4019
 1533SOL    HW116235   2.880   1.049   8.158 -1.4187  0.2135  1.5693
 1533SOL    HW216236   2.952   0.993   8.277 -2.4320 -1.0972 -0.3635
 1534SOL     OW16237   2.342   2.110   4.140  0.1604  0.4876 -0.2741
 1534SOL    HW116238   2.298   2.113   4.055 -0.8894 -1.0905  0.2111
 1534SOL    HW216239   2.300   2.190   4.174 -4.1308 -1.5364 -0.8861
 1535SOL     OW16240   0.348   3.439   2.783 -0.2586 -0.1487  0.3655
 1535SOL    HW116241   0.426   3.385   2.795  0.3310  0.4525 -0.7310
 1535SOL    HW216242   0.363   3.478   2.697 -0.5906 -0.7633  0.0344
 1536SOL     OW16243   0.510   3.062   8.007 -0.5355 -0.6879 -0.2834
 1536SOL    HW116244   0.596   3.049   7.966  1.0008  4.4144  1.3233
 1536SOL    HW216245   0.454   3.059   7.929 -0.3649 -1.2354 -0.3884
 1537SOL     OW16246   2.019   4.605  10.607 -0.1851  0.3313 -0.2765
 1537SOL    HW116247   2.070   4.581  10.530 -0.0625  0.7187 -0.3131
 1537SOL    HW216248   2.086   4.590  10.674 -0.8353 -0.1566  0.2732
 1538SOL     OW16249   3.351   0.363  17.628  0.2263 -0.0850 -0.4687
 1538SOL    HW116250   3.447   0.370  17.632  0.2781  0.7885 -3.1972
 1538SOL    HW216251   3.354   0.267  17.630 -0.1237 -0.0988 -0.6068
 1539SOL     OW16252   3.025   0.065   7.094 -0.3773  0.3354 -0.7613
 1539SOL    HW116253   2.988   4.735   7.153  2.4274  1.5474  2.3447
 1539SOL    HW216254   2.964   0.133   7.122  0.6300  0.8845  0.0595
 1540SOL     OW16255   2.703   2.464  11.011 -0.1977  0.5134 -0.8794
 1540SOL    HW116256   2.636   2.516  10.966 -0.5276  0.7664 -0.1013
 1540SOL    HW216257   2.651   2.435  11.086 -0.3121  1.9003 -0.4321
 1541SOL     OW16258   2.170   4.058  12.723  0.0360  0.0709 -0.2247
 1541SOL    HW116259   2.171   4.074  12.817 -2.3886 -0.8836 -0.0312
 1541SOL    HW216260   2.204   3.969  12.720 -1.7223 -0.6540  1.6283
 1542SOL     OW16261   1.851   3.931   8.147 -0.3657  0.6033 -0.2899
 1542SOL    HW116262   1.931   3.962   8.190  0.1547  1.5279 -1.9240
 1542SOL    HW216263   1.877   3.949   8.057  0.9576  2.5718  0.4557
 1543SOL     OW16264   0.301   0.940   4.445 -0.0466  0.4503  0.2526
 1543SOL    HW116265   0.281   0.847   4.458  2.3958  0.0739  1.2204
 1543SOL    HW216266   0.228   0.983   4.489  0.5568  1.3722  0.3517
 1544SOL     OW16267   0.668   4.353   8.114  0.2366 -0.3841 -0.0822
 1544SOL    HW116268   0.658   4.428   8.172 -0.3252  0.1097 -0.8050
 1544SOL    HW216269   0.741   4.303   8.149  1.0301  1.5118  0.9387
 1545SOL     OW16270   0.836   0.018   5.751  0.6630  0.2395  0.2860
 1545SOL    HW116271   0.802   4.676   5.792 -0.5593  1.2657  1.2412
 1545SOL    HW216272   0.786   0.027   5.670  0.9057 -1.3672 -0.0471
 1546SOL     OW16273   0.992   4.200  16.120  0.7195  0.0391 -0.0993
 1546SOL    HW116274   0.948   4.274  16.078 -1.2599 -0.2255  1.4723
 1546SOL    HW216275   1.073   4.235  16.158  1.8729 -1.7221 -0.9569
 1547SOL     OW16276   0.618   3.559   1.861 -0.4113 -0.4921 -0.2321
 1547SOL    HW116277   0.628   3.514   1.946 -0.5829 -0.8672 -0.4099
 1547SOL    HW216278   0.584   3.485   1.810 -0.2401 -0.2724 -0.6600
 1548SOL     OW16279   0.565   1.867  10.487  0.4734 -0.0501 -1.1074
 1548SOL    HW116280   0.584   1.809  10.560  1.5171  1.7003  0.0285
 1548SOL    HW216281   0.470   1.859  10.488  0.5295 -0.1949  1.7673
 1549SOL     OW16282   2.386   3.151  10.007  0.0886 -0.3651 -0.4949
 1549SOL    HW116283   2.368   3.223  10.067  1.4429 -1.3776  1.1359
 1549SOL    HW216284   2.311   3.094  10.015 -1.5501  1.7949 -0.3770
 1550SOL     OW16285   4.591   4.017   2.270 -0.0021  0.0889 -0.3431
 1550SOL    HW116286   4.553   3.930   2.277 -0.9562  0.6131  1.0412
 1550SOL    HW216287   4.514   4.074   2.275 -0.7218 -0.9651  0.5199
 1551SOL     OW16288   4.684   0.006   6.008  0.2679  0.2616  0.0522
 1551SOL    HW116289   4.658   0.097   5.996  0.4217  0.4181  0.8877
 1551SOL    HW216290   4.713   4.716   5.921  0.2600  0.0232  0.1226
 1552SOL     OW16291   2.519   4.200   5.309 -0.0076 -0.0703  0.2460
 1552SOL    HW116292   2.462   4.258   5.258  1.1291  0.5182 -0.3799
 1552SOL    HW216293   2.486   4.219   5.397 -0.7503  3.4381 -0.7931
 1553SOL     OW16294   3.629   1.054  16.807 -0.5219  0.0784 -0.3898
 1553SOL    HW116295   3.547   1.104  16.810  2.1304  4.2399  2.6570
 1553SOL    HW216296   3.679   1.096  16.737  1.7227 -1.8946  0.0196
 1554SOL     OW16297   2.480   4.046   3.533  0.7437  0.2152 -0.1126
 1554SOL    HW116298   2.494   3.955   3.507  1.2434 -0.2798  1.8680
 1554SOL    HW216299   2.537   4.105   3.483  2.7834 -2.2835 -0.7389
 1555SOL     OW16300   1.905   3.866   2.082 -0.0708 -0.1310  0.5869
 1555SOL    HW116301   1.902   3.941   2.141 -0.2524 -1.9237  2.8624
 1555SOL    HW216302   1.970   3.890   2.015 -0.3247 -2.7682 -0.6120
 1556SOL     OW16303   1.523   3.392   2.800 -0.3128 -0.8591 -0.6939
 1556SOL    HW116304   1.517   3.300   2.825 -2.7279 -0.3693  0.5443
 1556SOL    HW216305   1.432   3.416   2.778 -0.2385 -0.1236 -0.2142
 1557SOL     OW16306   0.205   2.908   2.185 -0.0868 -0.1153  0.1569
 1557SOL    HW116307   0.139   2.969   2.218 -0.3893  0.0226 -0.6853
 1557SOL    HW216308   0.257   2.966   2.129  0.3206  2.2658  2.9973
 1558SOL     OW16309   2.527   2.318   7.655 -0.1432  0.8065 -0.3052
 1558SOL    HW116310   2.453   2.289   7.602  0.3254  2.8538 -2.1161
 1558SOL    HW216311   2.506   2.298   7.746 -0.4416 -1.0053 -0.7910
 1559SOL     OW16312   0.458   2.136   6.555  0.1854 -0.3052  0.2491
 1559SOL    HW116313   0.438   2.076   6.483  0.4446  0.0423 -0.1120
 1559SOL    HW216314   0.542   2.100   6.583  0.5784  0.1119 -0.4045
 1560SOL     OW16315   1.727   1.002  10.500  0.3859 -0.0140  0.1398
 1560SOL    HW116316   1.661   0.960  10.555 -0.1118  2.6385  1.5664
 1560SOL    HW216317   1.745   0.920  10.454  0.6649  0.3837 -0.4691
 1561SOL     OW16318   0.721   4.293   3.933  0.3381  0.1419 -0.3700
 1561SOL    HW116319   0.739   4.362   3.996 -1.2355  0.9788 -0.8252
 1561SOL    HW216320   0.658   4.335   3.873 -2.3405 -2.4803  0.5814
 1562SOL     OW16321   0.929   1.925   8.722  0.4574 -0.5371 -0.4539
 1562SOL    HW116322   1.020   1.937   8.692  0.4159 -2.6032 -1.3898
 1562SOL    HW216323   0.899   1.894   8.637 -0.7147 -0.9372  0.1217
 1563SOL     OW16324   3.509   2.171   7.825  0.5332  0.3397 -0.2876
 1563SOL    HW116325   3.508   2.218   7.742 -0.2692 -1.6898 -1.4249
 1563SOL    HW216326   3.416   2.167   7.846  0.6352 -3.5171 -0.4720
 1564SOL     OW16327   1.920   0.009   7.359  0.6162 -0.0345 -0.0825
 1564SOL    HW116328   1.993   0.005   7.421  1.5514 -0.8537 -1.2255
 1564SOL    HW216329   1.849   4.730   7.421 -0.2533  3.8478 -0.1135
 1565SOL     OW16330   1.290   2.941  15.222 -0.0479  0.4303 -0.3040
 1565SOL    HW116331   1.345   2.863  15.216  0.2141  0.4598  1.6817
 1565SOL    HW216332   1.218   2.916  15.280 -1.6589  0.0275 -2.4756
 1566SOL     OW16333   4.009   0.255   6.006  0.0956  0.0756 -0.6444
 1566SOL    HW116334   4.026   0.214   6.090 -0.4329 -1.3442 -1.2155
 1566SOL    HW216335   3.914   0.268   6.015  0.5820  2.7777  0.4828
 1567SOL     OW16336   4.559   1.753   7.012 -0.4048  0.3792 -0.2798
 1567SOL    HW116337   4.509   1.814   7.066 -0.6955 -0.3967  0.3243
 1567SOL    HW216338   4.508   1.752   6.932 -1.3984 -1.1569  0.3777
 1568SOL     OW16339   2.702   2.523   7.777 -0.7226 -0.2829  0.0688
 1568SOL    HW116340   2.651   2.447   7.751 -0.0635 -0.3965 -0.8952
 1568SOL    HW216341   2.672   2.588   7.713  1.2856 -1.6760 -2.3024
 1569SOL     OW16342   0.606   3.561   5.108  0.8589 -0.0218 -0.4849
 1569SOL    HW116343   0.540   3.560   5.039  1.6820 -2.1355 -1.2341
 1569SOL    HW216344   0.672   3.501   5.075  0.3011 -0.6296 -0.4770
 1570SOL     OW16345   3.330   0.407   9.384  0.4590 -0.6901  0.7115
 1570SOL    HW116346   3.306   0.330   9.332 -0.1689  0.3480 -0.5331
 1570SOL    HW216347   3.406   0.432   9.331  0.9439  1.4154  2.4177
 1571SOL     OW16348   4.513   1.529   6.568 -0.2832 -0.0761 -0.1376
 1571SOL    HW116349   4.549   1.476   6.639 -1.3195 -1.1775 -0.4449
 1571SOL    HW216350   4.592   1.570   6.532 -1.8391  0.9081 -2.4400
 1572SOL     OW16351   1.045   2.499   9.863 -0.5272 -0.8021 -0.2751
 1572SOL    HW116352   1.124   2.492   9.917  0.3462 -0.2734 -1.4739
 1572SOL    HW216353   1.010   2.414   9.892 -1.8033 -0.1035  0.1940
 1573SOL     OW16354   2.694   3.352   2.837 -0.2424  0.4380  0.0989
 1573SOL    HW116355   2.676   3.426   2.780 -0.4636 -0.4545 -0.9990
 1573SOL    HW216356   2.666   3.284   2.775  1.4845  0.2618 -0.4819
 1574SOL     OW16357   1.147   1.698   3.303 -0.0385  0.0467  0.2463
 1574SOL    HW116358   1.134   1.665   3.392  1.7942 -1.9743 -0.2406
 1574SOL    HW216359   1.170   1.619   3.255 -0.0966  0.0589  0.1987
 1575SOL     OW16360   2.363   1.619   3.919  0.3233  0.3825 -0.2244
 1575SOL    HW116361   2.406   1.683   3.976  0.6678  1.3496 -1.5865
 1575SOL    HW216362   2.352   1.541   3.973 -1.1162  0.6625 -0.1249
 1576SOL     OW16363   1.838   3.830   0.593  0.1084 -0.3647 -0.1747
 1576SOL    HW116364   1.833   3.742   0.630  0.7034 -1.1508 -1.9163
 1576SOL    HW216365   1.792   3.881   0.659  0.7819 -2.4049  1.8481
 1577SOL     OW16366   0.617   4.268   4.446  0.1995 -0.3466 -0.3622
 1577SOL    HW116367   0.631   4.180   4.411  0.7424 -0.6446  0.6129
 1577SOL    HW216368   0.645   4.318   4.369 -0.2519 -1.6092 -1.3470
 1578SOL     OW16369   2.132   4.173   3.869 -0.0488  0.4511  0.7953
 1578SOL    HW116370   2.110   4.131   3.953  1.1913 -1.4701  0.1352
 1578SOL    HW216371   2.209   4.126   3.838  0.7308  1.9753  0.4122
 1579SOL     OW16372   1.341   3.106   6.487  0.4540  0.2183 -0.1324
 1579SOL    HW116373   1.388   3.147   6.560 -1.2780  0.5547  0.7963
 1579SOL    HW216374   1.390   3.023   6.481  0.9124  0.3301  1.9206
 1580SOL     OW16375   1.111   3.189  15.772 -0.8393  0.0724 -0.0576
 1580SOL    HW116376   1.164   3.176  15.694 -1.3507  1.1063 -0.5901
 1580SOL    HW216377   1.095   3.283  15.763  1.6075  0.6239  1.3198
 1581SOL     OW16378   1.624   2.648   6.889  0.1314 -0.0425 -0.1886
 1581SOL    HW116379   1.584   2.567   6.922 -2.0463  1.2143  0.2224
 1581SOL    HW216380   1.658   2.625   6.802  1.5009  1.3731 -0.0239
 1582SOL     OW16381   3.660   3.795   6.234 -0.0726 -0.0536  0.3060
 1582SOL    HW116382   3.671   3.809   6.328 -1.5068 -0.1559  0.4818
 1582SOL    HW216383   3.746   3.763   6.206  1.0341  1.0754  2.3624
 1583SOL     OW16384   4.561   2.810   8.040 -0.5105 -0.3212  0.2190
 1583SOL    HW116385   4.468   2.801   8.023 -0.5482  1.3817 -0.4421
 1583SOL    HW216386   4.586   2.741   8.103 -0.0525 -0.2943  0.0638
 1584SOL     OW16387   0.188   4.286  16.918 -0.3606 -0.2412 -0.7763
 1584SOL    HW116388   0.129   4.315  16.987  0.8607 -0.3416  0.2922
 1584SOL    HW216389   0.161   4.194  16.912  0.4755 -0.6046  1.3049
 1585SOL     OW16390   3.209   0.483   7.773 -0.1670  0.0092  0.4331
 1585SOL    HW116391   3.302   0.462   7.767  0.2090  2.5579 -2.9800
 1585SOL    HW216392   3.167   0.414   7.825 -1.1696  0.7311  0.5877
 1586SOL     OW16393   2.173   0.251   3.084 -0.4142 -0.4725  0.1991
 1586SOL    HW116394   2.158   0.340   3.116 -0.5494 -0.2386 -0.5159
 1586SOL    HW216395   2.160   0.265   2.990  1.0935  0.3154  0.1028
 1587SOL     OW16396   1.812   3.383   1.820 -0.2376  0.2995  0.0800
 1587SOL    HW116397   1.862   3.464   1.812  2.4100 -1.1111  2.2636
 1587SOL    HW216398   1.730   3.418   1.855  0.4940  1.0730  1.0277
 1588SOL     OW16399   0.881   0.023  14.212 -0.3388  0.5509 -0.0733
 1588SOL    HW116400   0.903   4.720  14.127  2.2865 -2.1645  1.8577
 1588SOL    HW216401   0.874   4.682  14.267  0.9670  0.9944  0.7351
 1589SOL     OW16402   4.238   4.266  11.821 -0.2050  0.0476 -0.5995
 1589SOL    HW116403   4.166   4.253  11.759 -1.6823 -2.9809  1.8012
 1589SOL    HW216404   4.235   4.358  11.849 -1.1944 -0.1197 -0.1633
 1590SOL     OW16405   2.799   2.729  17.415  0.4934 -0.1767 -0.3406
 1590SOL    HW116406   2.751   2.772  17.344 -0.1519 -0.2623  0.0461
 1590SOL    HW216407   2.888   2.763  17.410  1.1584 -2.0702 -1.2014
 1591SOL     OW16408   3.383   3.884  10.855  0.2053  0.1693  0.3740
 1591SOL    HW116409   3.455   3.833  10.893  1.7757  1.5902 -0.6663
 1591SOL    HW216410   3.363   3.947  10.924  0.5507 -0.6891  1.2566
 1592SOL     OW16411   2.728   3.633   2.304 -0.4380 -0.2694  0.6152
 1592SOL    HW116412   2.639   3.644   2.337 -0.6474 -1.8856  0.5586
 1592SOL    HW216413   2.788   3.647   2.377 -1.7259  1.1773  1.3928
 1593SOL     OW16414   0.585   3.988   2.137 -0.8195 -0.1965  0.0929
 1593SOL    HW116415   0.558   3.904   2.100  0.4703 -0.7916  0.5309
 1593SOL    HW216416   0.568   3.970   2.229 -3.1899 -2.2041 -0.7287
 1594SOL     OW16417   2.047   2.447   8.550 -0.4363  0.2613 -0.3401
 1594SOL    HW116418   2.000   2.439   8.633 -0.4329  2.2290 -0.1500
 1594SOL    HW216419   2.104   2.518   8.579 -0.0963 -0.5310  0.9536
 1595SOL     OW16420   2.406   3.240   9.105 -0.3152 -0.0038  0.7106
 1595SOL    HW116421   2.384   3.177   9.036  0.5571  0.9927 -0.4975
 1595SOL    HW216422   2.349   3.202   9.171  0.8106 -1.2202  0.9770
 1596SOL     OW16423   2.974   4.675  16.843 -0.0912  0.3742  0.7533
 1596SOL    HW116424   3.003   4.615  16.774  0.3489  0.6798  0.6737
 1596SOL    HW216425   2.888   4.703  16.810  0.6163  1.7727  0.1166
 1597SOL     OW16426   2.990   4.711   5.616  0.5008  0.5154  0.1712
 1597SOL    HW116427   3.016   0.011   5.700 -1.4763  0.6522  0.7348
 1597SOL    HW216428   3.016   4.620   5.629 -0.3606  0.3356  0.6265
 1598SOL     OW16429   2.779   0.285  15.489  0.3169  0.6406  0.0109
 1598SOL    HW116430   2.729   0.313  15.412  2.6192  2.9135 -0.6769
 1598SOL    HW216431   2.849   0.236  15.446  1.0382  1.0493  0.7154
 1599SOL     OW16432   4.515   0.244   1.391  0.3209 -0.1485 -0.0351
 1599SOL    HW116433   4.443   0.223   1.450  0.7702 -3.3293 -0.6075
 1599SOL    HW216434   4.481   0.219   1.305  0.2822 -2.8280  0.7541
 1600SOL     OW16435   4.668   1.992   2.377 -0.3999 -0.5738 -0.6375
 1600SOL    HW116436   4.632   1.937   2.447  2.8348 -1.0913  0.6082
 1600SOL    HW216437   0.011   1.947   2.351 -0.0781 -0.8920  0.8858
 1601SOL     OW16438   1.815   1.188   8.699 -0.6576  0.0217  0.0884
 1601SOL    HW116439   1.726   1.200   8.730 -1.1771 -0.4427 -1.2443
 1601SOL    HW216440   1.844   1.279   8.703  0.0154 -0.2292  1.0492
 1602SOL     OW16441   2.541   1.477   4.504  0.5163  0.1073  0.0915
 1602SOL    HW116442   2.606   1.546   4.492 -1.7770  2.2125 -0.2050
 1602SOL    HW216443   2.470   1.521   4.457  0.1867 -0.5878 -0.0649
 1603SOL     OW16444   2.542   0.849   5.918 -0.2834 -0.2920  0.3068
 1603SOL    HW116445   2.460   0.829   5.964  0.8482 -3.9884  0.7247
 1603SOL    HW216446   2.577   0.921   5.971  0.9156 -0.4607 -0.2723
 1604SOL     OW16447   4.649   0.987   3.883 -0.2511  0.3252  0.6884
 1604SOL    HW116448   4.737   0.997   3.847 -0.0875  6.0056  2.7031
 1604SOL    HW216449   4.603   1.047   3.825  2.4435  2.0744  0.3727
 1605SOL     OW16450   3.702   3.466   8.740  0.2320  1.0281  0.1807
 1605SOL    HW116451   3.641   3.511   8.681  2.2634 -1.6379 -3.9267
 1605SOL    HW216452   3.739   3.540   8.787 -1.1992 -0.0837  3.0534
 1606SOL     OW16453   3.741   3.934   8.235 -0.3244  0.0354 -0.0899
 1606SOL    HW116454   3.806   3.965   8.173  0.0777 -2.3504 -0.8814
 1606SOL    HW216455   3.752   3.992   8.310  3.0796 -0.5651 -0.1519
 1607SOL     OW16456   3.630   0.201   5.290  0.4710  0.0331  0.1939
 1607SOL    HW116457   3.648   0.108   5.284 -0.7009 -0.2142  0.5048
 1607SOL    HW216458   3.666   0.230   5.374 -0.9141 -0.2820  0.9050
 1608SOL     OW16459   0.536   4.179   7.441  0.4150  0.2526  0.0928
 1608SOL    HW116460   0.494   4.159   7.358  0.6747 -1.7597  0.4488
 1608SOL    HW216461   0.461   4.212   7.490 -0.3094  2.0336 -2.2287
 1609SOL     OW16462   3.573   0.323  15.535 -0.0129  0.1406 -0.5760
 1609SOL    HW116463   3.633   0.396  15.522  0.6979 -0.2838  0.3027
 1609SOL    HW216464   3.494   0.377  15.537 -0.3142 -0.2460 -1.7672
 1610SOL     OW16465   4.169   0.223   7.728  0.2790 -0.3022 -0.3635
 1610SOL    HW116466   4.186   0.261   7.814  0.3851  0.9469 -0.9368
 1610SOL    HW216467   4.232   0.152   7.739 -0.2341 -0.6690  0.2169
 1611SOL     OW16468   0.994   4.013   7.518  0.4227  0.5667 -0.0791
 1611SOL    HW116469   0.987   4.021   7.423 -2.0242  0.1196  0.0452
 1611SOL    HW216470   1.017   4.099   7.553  1.5474  0.7289 -1.2050
 1612SOL     OW16471   2.926   4.156   0.497 -0.1257 -0.1704 -0.3415
 1612SOL    HW116472   2.874   4.189   0.423  0.5149 -1.2489 -1.2863
 1612SOL    HW216473   2.914   4.232   0.554  1.5938 -0.8003  0.8474
 1613SOL     OW16474   2.666   2.442   6.267 -0.0847  0.1394 -0.2815
 1613SOL    HW116475   2.631   2.355   6.285  2.0511 -0.3852  1.3727
 1613SOL    HW216476   2.690   2.475   6.354 -2.3991  1.3919 -0.1401
 1614SOL     OW16477   1.751   0.699   3.435 -0.2661 -0.5507  0.1299
 1614SOL    HW116478   1.839   0.730   3.416 -0.7727  0.7611 -0.0787
 1614SOL    HW216479   1.772   0.619   3.483 -0.5113 -1.8649 -1.9467
 1615SOL     OW16480   0.861   2.385   2.990  0.0088  0.1823  0.6107
 1615SOL    HW116481   0.780   2.433   2.974  0.7427  1.2949  0.2018
 1615SOL    HW216482   0.842   2.304   2.944 -0.8101  0.0688  1.1569
 1616SOL     OW16483   3.107   2.269  11.429  0.3352  0.0948 -0.1629
 1616SOL    HW116484   3.116   2.174  11.433  0.9298  0.1891  0.8577
 1616SOL    HW216485   3.062   2.282  11.346  0.0621  1.9486  0.2840
 1617SOL     OW16486   4.436   1.508   7.315 -0.0951  0.4757 -0.1086
 1617SOL    HW116487   4.470   1.500   7.226  0.6244 -1.4316  0.3428
 1617SOL    HW216488   4.347   1.543   7.307 -1.1288 -1.1553  3.7831
 1618SOL     OW16489   2.389   0.333   6.006 -0.2252 -0.1063  0.2245
 1618SOL    HW116490   2.315   0.303   5.953 -0.7378  0.6444  0.5024
 1618SOL    HW216491   2.379   0.272   6.078  2.8631 -0.7302  0.1074
 1619SOL     OW16492   1.151   0.781   2.604 -0.1335  0.0238 -0.4282
 1619SOL    HW116493   1.176   0.872   2.592  1.2080  0.1098  3.1363
 1619SOL    HW216494   1.056   0.774   2.609 -0.3482  1.6311 -2.3162
 1620SOL     OW16495   0.357   2.295   8.145  0.3692 -0.0669  0.1244
 1620SOL    HW116496   0.353   2.216   8.090 -0.9976  0.4011 -0.4454
 1620SOL    HW216497   0.449   2.320   8.153 -0.0957  1.7805 -0.2376
 1621SOL     OW16498   1.286   1.191   1.672 -0.2208 -0.6070  0.0637
 1621SOL    HW116499   1.208   1.238   1.702 -1.4952 -1.6774 -1.5837
 1621SOL    HW216500   1.293   1.229   1.585 -0.9817 -0.7847 -0.0682
 1622SOL     OW16501   1.058   3.307  11.678  0.5123 -0.6338  0.8743
 1622SOL    HW116502   1.074   3.368  11.750 -0.4417  0.0430  0.5098
 1622SOL    HW216503   0.974   3.345  11.651  1.5492 -0.0188 -1.4628
 1623SOL     OW16504   3.658   3.524   7.607 -0.2958  0.1483 -1.5531
 1623SOL    HW116505   3.660   3.592   7.674  3.2764  1.5558 -3.1025
 1623SOL    HW216506   3.750   3.529   7.581  0.6340 -0.8646  1.5102
 1624SOL     OW16507   0.925   1.299  12.663 -0.1576  0.2559  0.3166
 1624SOL    HW116508   0.906   1.255  12.746  0.5076  1.6026  1.1882
 1624SOL    HW216509   0.862   1.253  12.609  1.2635  1.2427 -2.1552
 1625SOL     OW16510   4.163   4.257   1.961  0.4275 -0.2612  0.1419
 1625SOL    HW116511   4.223   4.254   2.036  0.6945 -2.8776 -0.1909
 1625SOL    HW216512   4.133   4.166   1.958 -0.0154 -0.1561  1.3905
 1626SOL     OW16513   2.121   3.633   9.475 -0.2130  0.3769  0.2763
 1626SOL    HW116514   2.161   3.692   9.539  1.5917  0.2297 -0.7249
 1626SOL    HW216515   2.179   3.559   9.491 -2.6855 -2.0477 -1.9781
 1627SOL     OW16516   1.005   3.047   9.524 -0.2346 -0.4657 -0.4592
 1627SOL    HW116517   1.062   3.024   9.451  1.9578  1.2628  0.7030
 1627SOL    HW216518   0.977   3.133   9.495 -0.7089 -1.2437 -2.2998
 1628SOL     OW16519   3.119   0.587   6.542 -0.0908 -0.0932  0.1478
 1628SOL    HW116520   3.143   0.496   6.528 -1.0865 -0.2186 -0.6969
 1628SOL    HW216521   3.188   0.636   6.496 -0.0537  0.4232  0.7451
 1629SOL     OW16522   2.896   3.769   5.286 -0.3271 -0.8480  0.0255
 1629SOL    HW116523   2.892   3.704   5.357  0.2294 -2.1333 -1.1221
 1629SOL    HW216524   2.803   3.772   5.265  0.3363  0.5523 -2.6564
 1630SOL     OW16525   2.536   2.991   6.160 -0.6088 -0.2183 -0.2336
 1630SOL    HW116526   2.553   3.042   6.081  0.5088 -0.8173 -0.3809
 1630SOL    HW216527   2.440   2.998   6.155 -0.7131 -1.0716  0.6238
 1631SOL     OW16528   1.328   4.007   5.757 -0.2958 -0.2826  0.3850
 1631SOL    HW116529   1.268   3.978   5.688 -0.3303 -1.3964  0.8764
 1631SOL    HW216530   1.271   4.001   5.834 -0.6270  2.6086  0.3608
 1632SOL     OW16531   3.156   2.707  13.334 -0.3535  0.4565  0.8751
 1632SOL    HW116532   3.109   2.735  13.255 -0.6523  0.7131  1.1417
 1632SOL    HW216533   3.235   2.761  13.334  0.0642 -0.1524  1.8354
 1633SOL     OW16534   1.713   2.765   3.375 -0.1419 -0.1327  0.2282
 1633SOL    HW116535   1.734   2.672   3.386 -2.2666 -0.7227 -0.7368
 1633SOL    HW216536   1.783   2.781   3.312 -1.0147  2.1029 -0.1570
 1634SOL     OW16537   3.423   3.151   9.450 -0.3677 -0.0211  0.1256
 1634SOL    HW116538   3.380   3.072   9.417  3.5633 -2.0068 -0.3236
 1634SOL    HW216539   3.347   3.204   9.470 -0.1303  0.6323 -0.7145
 1635SOL     OW16540   0.280   0.576   9.009 -0.0149  0.5913  0.0353
 1635SOL    HW116541   0.224   0.525   9.067  0.8882  0.1634  0.5388
 1635SOL    HW216542   0.236   0.562   8.926  2.0658  1.3008 -1.2075
 1636SOL     OW16543   4.037   3.942  11.498  0.0315 -0.3177 -0.4069
 1636SOL    HW116544   4.077   4.008  11.555 -0.2705 -1.6811  1.3823
 1636SOL    HW216545   4.087   3.862  11.516  2.4815  1.6444  1.5270
 1637SOL     OW16546   1.270   0.690   5.390  0.6434 -0.1865  0.6000
 1637SOL    HW116547   1.329   0.762   5.366  1.8740 -1.0457  1.0402
 1637SOL    HW216548   1.334   0.627   5.424  1.1170  1.0199  1.9479
 1638SOL     OW16549   1.860   1.330  16.191  0.0124 -0.4518 -0.1092
 1638SOL    HW116550   1.858   1.383  16.112  1.6400  0.1537  0.2618
 1638SOL    HW216551   1.943   1.350  16.233 -0.6853 -1.3760  1.6920
 1639SOL     OW16552   0.246   1.597   2.840 -0.0803 -0.2054 -0.5451
 1639SOL    HW116553   0.232   1.603   2.935 -1.8043  1.2468 -0.8881
 1639SOL    HW216554   0.340   1.579   2.838 -0.1478 -0.6360 -0.0120
 1640SOL     OW16555   1.631   1.317   7.596  0.7483  0.3629 -0.2140
 1640SOL    HW116556   1.619   1.359   7.681  0.5196 -0.6049  0.2330
 1640SOL    HW216557   1.561   1.251   7.589 -0.7519  1.8974  0.5193
 1641SOL     OW16558   2.771   0.272  14.371  0.0969  0.4982 -0.1405
 1641SOL    HW116559   2.805   0.355  14.403  1.9947  0.2608 -1.5198
 1641SOL    HW216560   2.780   0.224  14.453  1.7297 -0.5691 -0.9360
 1642SOL     OW16561   1.302   2.405   8.922 -0.0812 -0.0032  0.4328
 1642SOL    HW116562   1.371   2.347   8.888 -0.6824 -1.3470  1.5058
 1642SOL    HW216563   1.261   2.348   8.987  0.8457 -0.0840  0.9408
 1643SOL     OW16564   0.860   0.355  12.475  0.3160  0.1981 -0.6756
 1643SOL    HW116565   0.902   0.371  12.390  2.2095  0.7449  0.3514
 1643SOL    HW216566   0.927   0.385  12.537  0.4352 -0.3948 -0.5129
 1644SOL     OW16567   3.930   1.637   2.023  0.3450 -0.3739 -0.0027
 1644SOL    HW116568   3.914   1.713   1.966  1.5668  1.1383  1.6709
 1644SOL    HW216569   3.967   1.679   2.100 -0.9580  1.6364 -0.4713
 1645SOL     OW16570   4.077   2.713  16.602 -0.5189 -0.0572  0.5649
 1645SOL    HW116571   4.120   2.795  16.575 -0.8983 -0.2521 -0.6560
 1645SOL    HW216572   4.154   2.657  16.592 -0.7252 -0.1555 -0.4819
 1646SOL     OW16573   2.199   2.517   1.990  0.5143  0.2182  0.1442
 1646SOL    HW116574   2.154   2.597   2.018  2.0846  0.6359  1.4225
 1646SOL    HW216575   2.164   2.503   1.902  0.0937  3.0644 -0.1141
 1647SOL     OW16576   0.906   4.345   2.721  0.6073 -0.2583  0.3817
 1647SOL    HW116577   0.846   4.416   2.745  0.6532 -0.0148 -0.1994
 1647SOL    HW216578   0.914   4.300   2.804  1.1056  0.3336  0.6528
 1648SOL     OW16579   0.000   0.313   4.421  0.2149 -0.0037  0.0384
 1648SOL    HW116580   0.073   0.318   4.359  0.3040  3.6482  0.4339
 1648SOL    HW216581   4.662   0.321   4.362  0.0053  0.1316  0.3215
 1649SOL     OW16582   4.412   0.922  12.880  0.3049  0.3002  0.2404
 1649SOL    HW116583   4.346   0.856  12.898 -0.8740  1.5661  0.5898
 1649SOL    HW216584   4.480   0.881  12.933  1.9458  1.2805 -1.0782
 1650SOL     OW16585   2.797   0.493   3.321 -0.7235  0.4245 -0.1838
 1650SOL    HW116586   2.704   0.479   3.339 -1.1624  1.5300 -1.5997
 1650SOL    HW216587   2.795   0.588   3.308 -0.4468  0.2598 -1.4863
 1651SOL     OW16588   3.253   2.684   2.663 -0.1759 -0.4290 -0.1614
 1651SOL    HW116589   3.320   2.618   2.649  2.3683  1.8713  1.0587
 1651SOL    HW216590   3.197   2.653   2.734  0.1139  1.3476  0.8598
 1652SOL     OW16591   4.354   1.960   2.707  0.0312 -0.7258 -0.1486
 1652SOL    HW116592   4.336   1.904   2.782 -1.0195  0.0611  0.1810
 1652SOL    HW216593   4.278   2.018   2.706  0.4800 -0.1629 -1.6490
 1653SOL     OW16594   3.343   1.670   6.459  0.4228 -0.1087 -0.0185
 1653SOL    HW116595   3.326   1.713   6.542  4.2762  2.0251 -0.3131
 1653SOL    HW216596   3.412   1.606   6.476 -0.0453 -1.0443 -1.6320
 1654SOL     OW16597   2.493   4.558  13.169 -0.0060  0.5452 -0.3639
 1654SOL    HW116598   2.480   4.551  13.075  1.7328  0.4479 -0.6025
 1654SOL    HW216599   2.587   4.551  13.188 -0.4294 -1.3240  1.0069
 1655SOL     OW16600   4.011   4.583   8.779 -0.3606 -0.4989  0.0910
 1655SOL    HW116601   4.024   4.590   8.874  2.4181 -1.4663 -0.2067
 1655SOL    HW216602   3.927   4.539   8.771 -0.9187  0.2341  1.8891
 1656SOL     OW16603   2.321   4.650   7.401 -0.3984  0.1315 -0.4104
 1656SOL    HW116604   2.394   4.712   7.409 -0.7126  0.4112  0.2112
 1656SOL    HW216605   2.369   4.567   7.407  1.5877  1.3609  0.7267
 1657SOL     OW16606   4.264   1.374   6.996 -1.0297  0.2846  0.3862
 1657SOL    HW116607   4.291   1.305   7.057 -2.3439 -0.3605  0.2423
 1657SOL    HW216608   4.344   1.427   6.989 -0.1746 -0.8770  1.3084
 1658SOL     OW16609   2.194   3.744   7.285 -0.2365  0.3987 -0.6503
 1658SOL    HW116610   2.220   3.664   7.330 -0.1910  0.6765 -0.1808
 1658SOL    HW216611   2.180   3.803   7.359  0.2457  0.1504 -0.3585
 1659SOL     OW16612   3.117   4.737  11.345  0.2378  0.2532  0.3808
 1659SOL    HW116613   3.165   4.657  11.322  1.0872  1.3974 -1.8994
 1659SOL    HW216614   3.050   4.703  11.405 -1.9454  3.2056 -0.3993
 1660SOL     OW16615   1.950   2.648   6.595 -0.4520 -0.3177 -0.4335
 1660SOL    HW116616   1.955   2.723   6.653  1.3167 -1.4281  0.8528
 1660SOL    HW216617   2.043   2.623   6.597  0.1643  1.9593 -1.2422
 1661SOL     OW16618   2.246   1.392   8.117 -0.1173 -0.4364  0.5520
 1661SOL    HW116619   2.315   1.339   8.157  0.9520 -0.8104 -1.7822
 1661SOL    HW216620   2.217   1.336   8.044 -0.2539 -0.7700  0.8653
 1662SOL     OW16621   1.891   0.522   0.425  0.4589  0.5523 -0.6613
 1662SOL    HW116622   1.955   0.466   0.469  2.1480  2.4660 -0.6355
 1662SOL    HW216623   1.923   0.605   0.462  1.6899  0.3783 -1.3268
 1663SOL     OW16624   4.566   4.219  11.599 -0.3022 -0.3234  0.1285
 1663SOL    HW116625   4.482   4.195  11.560  0.1445 -0.0713 -0.9790
 1663SOL    HW216626   4.569   4.314  11.597 -3.1357 -0.2443 -0.3889
 1664SOL     OW16627   0.546   1.886  11.826 -0.4564 -0.3716  0.0317
 1664SOL    HW116628   0.492   1.880  11.747 -2.9983  1.4175  1.6281
 1664SOL    HW216629   0.509   1.826  11.890  1.2449 -1.1425  0.3076
 1665SOL     OW16630   4.558   2.194  14.959  1.3114 -0.6108 -0.2596
 1665SOL    HW116631   4.548   2.100  14.971 -0.2077 -0.2506  1.4264
 1665SOL    HW216632   4.493   2.215  14.892 -0.0527 -3.0749  0.3222
 1666SOL     OW16633   0.101   0.739   7.895  0.4371 -0.3881 -0.3162
 1666SOL    HW116634   0.030   0.718   7.834  0.3790  0.1531 -0.4358
 1666SOL    HW216635   0.062   0.730   7.982 -0.6273  0.3199 -0.7131
 1667SOL     OW16636   1.809   3.511   7.780 -0.1706  0.2199 -0.5507
 1667SOL    HW116637   1.903   3.521   7.768  0.3651 -1.3048  2.2472
 1667SOL    HW216638   1.800   3.570   7.854  0.6282 -2.9547  2.1033
 1668SOL     OW16639   2.174   2.932  10.361 -0.1308 -0.3383  0.2728
 1668SOL    HW116640   2.182   3.024  10.336  0.8403 -0.1943  1.0686
 1668SOL    HW216641   2.131   2.932  10.446 -0.9848  2.2574 -0.1697
 1669SOL     OW16642   1.141   4.308   8.770 -0.1651 -0.4173  0.0382
 1669SOL    HW116643   1.101   4.390   8.741  2.2273  0.3123 -1.2717
 1669SOL    HW216644   1.231   4.341   8.769 -0.4450  0.2433 -2.1724
 1670SOL     OW16645   2.433   4.411   7.381 -0.9566 -0.1322 -0.6339
 1670SOL    HW116646   2.450   4.347   7.311 -2.2733 -0.6505 -0.4824
 1670SOL    HW216647   2.506   4.389   7.439 -0.8683 -0.1329 -0.7450
 1671SOL     OW16648   0.540   1.687  16.095  0.3384 -0.1439  0.1783
 1671SOL    HW116649   0.493   1.624  16.039 -0.3693  0.0250  0.5860
 1671SOL    HW216650   0.610   1.712  16.035  0.4993  0.4795  0.6291
 1672SOL     OW16651   1.186   3.873   7.938  0.1589 -0.1249  0.7046
 1672SOL    HW116652   1.118   3.919   7.890  0.5912  1.6242  1.7223
 1672SOL    HW216653   1.198   3.794   7.886  2.0593  0.2584  0.5609
 1673SOL     OW16654   1.111   1.275   7.835  0.3737 -0.2820 -0.4381
 1673SOL    HW116655   1.122   1.192   7.787 -2.9346 -0.7200 -0.4260
 1673SOL    HW216656   1.026   1.266   7.877  0.8135  1.0137  0.7110
 1674SOL     OW16657   2.084   1.309   9.159 -0.2937 -0.2685 -0.0993
 1674SOL    HW116658   2.122   1.229   9.196 -3.4344 -1.0872  1.4046
 1674SOL    HW216659   2.057   1.281   9.071 -0.7446 -1.7643  0.5060
 1675SOL     OW16660   0.193   0.603   4.418  0.3749  0.1143  0.3688
 1675SOL    HW116661   0.109   0.635   4.451  0.8367  0.6423  1.0253
 1675SOL    HW216662   0.161   0.565   4.337 -0.8943  1.1851  0.3665
 1676SOL     OW16663   0.315   1.438   8.615 -0.4040  0.1802  0.2527
 1676SOL    HW116664   0.354   1.421   8.529 -0.8178  3.4188 -0.5683
 1676SOL    HW216665   0.241   1.378   8.613 -2.1317  2.3565 -0.6143
 1677SOL     OW16666   1.618   0.807   8.861  0.4229 -0.2251 -0.2598
 1677SOL    HW116667   1.578   0.832   8.777 -1.8987  0.3569  1.0009
 1677SOL    HW216668   1.596   0.715   8.876  3.0236 -0.8581 -0.3678
 1678SOL     OW16669   4.081   0.434   7.324 -0.0342  0.5461  0.3451
 1678SOL    HW116670   4.092   0.464   7.234  5.8757  0.3587  0.9764
 1678SOL    HW216671   3.991   0.459   7.342  0.0596  2.0893 -1.3982
 1679SOL     OW16672   4.522   2.456   9.684  0.4930  0.3056  0.2537
 1679SOL    HW116673   4.580   2.531   9.694 -0.7878  1.6414 -2.3237
 1679SOL    HW216674   4.498   2.455   9.591 -1.5824  1.4236  0.7850
 1680SOL     OW16675   2.212   2.489  14.195  0.1846 -0.3124 -0.1920
 1680SOL    HW116676   2.186   2.492  14.287 -2.1785  0.4450 -0.8910
 1680SOL    HW216677   2.127   2.505  14.155 -0.0248  0.4794  0.5689
 1681SOL     OW16678   2.720   1.483   3.695 -0.1275  0.2395  0.0634
 1681SOL    HW116679   2.751   1.573   3.683  1.6122 -0.2813  0.6084
 1681SOL    HW216680   2.653   1.498   3.761  1.0859 -0.2382  1.4112
 1682SOL     OW16681   2.194   4.042   9.472 -0.1513 -0.2243 -0.5289
 1682SOL    HW116682   2.154   4.066   9.556  0.3847 -0.7598 -0.1288
 1682SOL    HW216683   2.286   4.056   9.493 -0.1700 -0.1206 -0.5127
 1683SOL     OW16684   3.292   4.013   5.722  0.1035 -0.2932  0.3566
 1683SOL    HW116685   3.266   4.083   5.661 -4.2592 -1.2824  1.0829
 1683SOL    HW216686   3.310   4.069   5.797  1.9074  1.2520 -1.2268
 1684SOL     OW16687   4.713   2.834  17.376 -0.2457  0.1347  0.1777
 1684SOL    HW116688   0.012   2.889  17.445  2.0665 -1.2088  0.0541
 1684SOL    HW216689   0.050   2.846  17.316  0.2223 -2.4140  0.2107
 1685SOL     OW16690   4.283   1.678  13.309 -0.1140  0.2847  0.3663
 1685SOL    HW116691   4.353   1.613  13.303  0.9021  1.4796 -0.8384
 1685SOL    HW216692   4.235   1.657  13.229  0.9055  1.4229 -0.5574
 1686SOL     OW16693   0.344   4.163   5.568 -0.1479  0.2140 -0.1748
 1686SOL    HW116694   0.391   4.174   5.651 -2.4249 -0.6515  1.2093
 1686SOL    HW216695   0.425   4.156   5.517 -0.3748 -1.9189 -0.2360
 1687SOL     OW16696   1.402   1.139   7.666  0.6317 -0.1122  0.7464
 1687SOL    HW116697   1.418   1.046   7.682  0.0429 -0.5757 -1.3361
 1687SOL    HW216698   1.310   1.129   7.642  0.8447 -0.2298 -0.0194
 1688SOL     OW16699   4.033   1.961   6.656  0.1180  0.4720 -0.3824
 1688SOL    HW116700   4.119   1.972   6.696 -0.4979 -1.7271  1.5213
 1688SOL    HW216701   4.035   2.032   6.592 -1.7361  1.2822  0.4551
 1689SOL     OW16702   2.382   0.656   4.214 -0.0459  0.0153 -0.2157
 1689SOL    HW116703   2.302   0.631   4.261  1.3205  0.1458  2.1364
 1689SOL    HW216704   2.430   0.688   4.290  1.5289 -1.5047 -0.5793
 1690SOL     OW16705   0.838   1.209   2.881 -0.0909  0.6594  0.0417
 1690SOL    HW116706   0.789   1.273   2.829  3.0794  2.1488 -1.1085
 1690SOL    HW216707   0.774   1.141   2.902 -0.3297  1.1968  1.0740
 1691SOL     OW16708   1.866   2.734   1.904  0.3265  0.1036 -0.4013
 1691SOL    HW116709   1.936   2.753   1.966 -1.8148  0.4026  1.9223
 1691SOL    HW216710   1.898   2.646   1.883 -0.4155 -0.4061  0.6160
 1692SOL     OW16711   1.931   2.437   6.324 -0.3298  0.1676  0.1144
 1692SOL    HW116712   1.853   2.479   6.286 -1.3034 -2.6406 -1.0569
 1692SOL    HW216713   1.956   2.495   6.395  1.4813 -0.8746  0.3274
 1693SOL     OW16714   4.332   1.198   5.702  0.2722 -0.7318  0.0556
 1693SOL    HW116715   4.305   1.286   5.676 -0.4899 -1.1715 -0.6246
 1693SOL    HW216716   4.300   1.204   5.792  2.6962 -2.6845  1.0447
 1694SOL     OW16717   4.078   2.258   9.387 -0.6531  0.1760 -0.3016
 1694SOL    HW116718   4.122   2.320   9.328  0.2260  1.1191  1.3423
 1694SOL    HW216719   3.990   2.289   9.367 -0.6359 -0.6858 -1.7554
 1695SOL     OW16720   2.041   0.485   4.604 -1.1398 -0.3303 -0.2585
 1695SOL    HW116721   1.999   0.541   4.539 -1.4691  0.0757  0.2989
 1695SOL    HW216722   1.985   0.502   4.680  0.8148  0.7642  0.9381
 1696SOL     OW16723   2.013   3.707  12.040 -0.1061 -0.3712 -0.2394
 1696SOL    HW116724   1.973   3.645  11.980 -1.2309  0.5766 -0.4757
 1696SOL    HW216725   2.025   3.662  12.124  2.0046 -0.7451 -0.7353
 1697SOL     OW16726   2.536   2.846   2.824 -0.2168 -0.2303  0.1746
 1697SOL    HW116727   2.512   2.928   2.866  2.4585 -0.2127  1.6277
 1697SOL    HW216728   2.446   2.830   2.795 -0.2033  1.1171 -0.6236
 1698SOL     OW16729   1.285   0.085   8.891 -1.1157 -0.6099 -0.0496
 1698SOL    HW116730   1.247   0.142   8.957 -0.5000 -0.5268  0.2331
 1698SOL    HW216731   1.230   0.007   8.893 -2.0528  0.0542 -0.3760
 1699SOL     OW16732   2.830   1.415  14.376  0.1114 -0.9724 -0.3242
 1699SOL    HW116733   2.861   1.480  14.312 -3.0512  2.0588  1.2126
 1699SOL    HW216734   2.737   1.431  14.362 -0.0762 -2.1002 -0.3268
 1700SOL     OW16735   3.665   3.578   8.187  0.6604 -0.4724 -0.1313
 1700SOL    HW116736   3.707   3.587   8.273 -2.5660  1.6666  1.2216
 1700SOL    HW216737   3.636   3.488   8.171  1.9420 -0.6692 -1.3140
 1701SOL     OW16738   2.499   4.580   1.216  0.1776 -0.0139  0.0229
 1701SOL    HW116739   2.465   4.664   1.248 -0.4514 -1.1254  2.2690
 1701SOL    HW216740   2.439   4.560   1.144  0.7864  0.4186 -0.5953
 1702SOL     OW16741   1.987   2.845  10.897  0.1136  0.2090 -0.2216
 1702SOL    HW116742   2.065   2.872  10.849  1.3531 -0.7656  1.2333
 1702SOL    HW216743   2.021   2.858  10.986 -0.8540  1.2493 -0.0050
 1703SOL     OW16744   1.584   1.594   6.841 -0.2642 -0.0921 -0.0262
 1703SOL    HW116745   1.572   1.659   6.772  0.1713  0.7646  0.6955
 1703SOL    HW216746   1.564   1.512   6.795  0.2829 -0.5458  0.5390
 1704SOL     OW16747   1.049   2.419   7.123 -0.7915  0.1112  0.2409
 1704SOL    HW116748   1.052   2.326   7.103  1.0496  0.6440 -1.9286
 1704SOL    HW216749   0.966   2.448   7.083 -0.6048 -0.4228 -0.5309
 1705SOL     OW16750   0.619   3.701   8.787  0.3118 -0.5117 -0.5005
 1705SOL    HW116751   0.621   3.606   8.773  3.1678 -0.4928 -0.3031
 1705SOL    HW216752   0.554   3.726   8.722 -1.2288 -1.2760  0.7529
 1706SOL     OW16753   3.945   4.229  10.732  0.6126 -0.2028  0.4982
 1706SOL    HW116754   3.940   4.233  10.637  0.1901  1.7928  0.6032
 1706SOL    HW216755   3.907   4.144  10.757  0.8515 -0.8492 -1.3888
 1707SOL     OW16756   3.795   2.888  15.206 -0.2804  0.1081 -0.3520
 1707SOL    HW116757   3.816   2.981  15.198  1.0492 -0.2386 -0.9397
 1707SOL    HW216758   3.737   2.866  15.279  1.2935  0.7208  1.1000
 1708SOL     OW16759   2.061   3.613   8.338  0.0882 -0.7525  0.4220
 1708SOL    HW116760   2.062   3.619   8.242  2.2803 -1.6391  0.3749
 1708SOL    HW216761   1.974   3.645   8.359 -0.3528  0.3741 -3.0465
 1709SOL     OW16762   2.245   0.642   1.449 -0.1678  0.3712 -0.0717
 1709SOL    HW116763   2.212   0.705   1.385 -2.2212 -2.0860 -1.4658
 1709SOL    HW216764   2.288   0.704   1.507 -1.1160 -1.0227  2.1236
 1710SOL     OW16765   0.173   1.234   7.283 -0.2962  0.0121 -0.1220
 1710SOL    HW116766   0.164   1.139   7.279 -0.4554  0.0186  0.1295
 1710SOL    HW216767   0.250   1.244   7.340  1.4044 -0.8281 -2.2682
 1711SOL     OW16768   4.483   2.337   3.491 -0.2941  0.3917 -0.1818
 1711SOL    HW116769   4.405   2.354   3.543 -1.2359 -0.9591 -1.1398
 1711SOL    HW216770   4.456   2.258   3.444 -0.6727  1.4588 -1.7465
 1712SOL     OW16771   1.798   4.628   9.988  0.4656  0.0569  0.3364
 1712SOL    HW116772   1.724   4.671  10.031 -1.5629 -2.3829 -0.6891
 1712SOL    HW216773   1.853   4.703   9.969  0.8896 -0.6377 -1.1627
 1713SOL     OW16774   2.978   0.452   5.270  0.3944 -0.4368  0.6141
 1713SOL    HW116775   3.005   0.525   5.215  0.4813 -2.0031 -1.4502
 1713SOL    HW216776   3.049   0.456   5.333  0.6128 -0.5870  0.3800
 1714SOL     OW16777   4.086   0.750  17.606 -0.1996 -0.1425 -0.1301
 1714SOL    HW116778   4.157   0.704  17.561 -0.5648  1.6848 -2.5686
 1714SOL    HW216779   4.114   0.737  17.696  3.4979 -0.2473 -1.2935
 1715SOL     OW16780   3.094   0.184  10.654 -0.0602 -0.2799  0.7755
 1715SOL    HW116781   3.017   0.142  10.692 -0.0114  0.9831  2.2653
 1715SOL    HW216782   3.165   0.165  10.715 -0.7771 -0.1478  1.6351
 1716SOL     OW16783   1.235   3.717   7.693  0.4229  0.0726 -0.1155
 1716SOL    HW116784   1.259   3.801   7.655  1.1239 -0.3076 -0.5182
 1716SOL    HW216785   1.202   3.659   7.625  0.5668 -1.5781  1.2279
 1717SOL     OW16786   1.222   2.908   3.783  0.0782 -0.0820 -0.3594
 1717SOL    HW116787   1.218   3.002   3.799 -0.1220 -0.3090  0.9331
 1717SOL    HW216788   1.282   2.896   3.709 -1.2206 -0.0903 -1.4081
 1718SOL     OW16789   4.596   1.993   9.118 -0.3503 -0.6523  0.0142
 1718SOL    HW116790   4.594   1.985   9.023 -0.3358  0.8287 -0.1099
 1718SOL    HW216791   4.630   2.080   9.139 -1.7620 -0.2917  0.8054
 1719SOL     OW16792   2.516   2.663   7.051 -0.6401  0.0042  0.5968
 1719SOL    HW116793   2.611   2.668   7.068 -0.2848  0.9017 -1.6348
 1719SOL    HW216794   2.521   2.631   6.961  1.4393 -0.3340  0.8230
 1720SOL     OW16795   3.775   1.003  12.053  0.0072  0.1366  0.3444
 1720SOL    HW116796   3.687   0.973  12.075  0.7466 -1.4987  1.0528
 1720SOL    HW216797   3.803   0.932  11.996  1.3002  0.7790  0.1864
 1721SOL     OW16798   1.604   3.330  12.705 -0.2725 -0.7465 -0.2237
 1721SOL    HW116799   1.556   3.247  12.705  0.3471 -1.1032  1.2460
 1721SOL    HW216800   1.646   3.332  12.791 -1.9449  1.5771  0.5152
 1722SOL     OW16801   0.522   4.269   3.207  0.1779 -0.0622 -0.1493
 1722SOL    HW116802   0.610   4.289   3.238 -0.1269  0.6732  0.2447
 1722SOL    HW216803   0.467   4.312   3.273  0.3559 -1.6041  1.0167
 1723SOL     OW16804   0.218   0.004   1.692  0.3818  0.9280 -0.4679
 1723SOL    HW116805   0.172   4.669   1.736  2.7133 -1.4251 -1.8807
 1723SOL    HW216806   0.192   0.074   1.751  2.2231 -1.9030  3.7003
 1724SOL     OW16807   4.598   1.261   2.668  0.0607  0.0432  0.3699
 1724SOL    HW116808   4.512   1.266   2.627 -0.0786  2.3995  0.9677
 1724SOL    HW216809   4.604   1.354   2.687  0.8000  0.0691 -0.0004
 1725SOL     OW16810   2.006   1.926  13.511 -0.1671 -0.4216  0.2412
 1725SOL    HW116811   1.948   1.851  13.502 -0.7183  0.1938 -1.4282
 1725SOL    HW216812   1.966   2.003  13.470 -1.7670 -1.1223  0.4985
 1726SOL     OW16813   2.469   3.040   3.840  0.5863  0.3442  0.4049
 1726SOL    HW116814   2.553   3.021   3.883  0.4148  2.6408  1.7456
 1726SOL    HW216815   2.439   3.117   3.887 -1.1604  0.4498 -0.8783
 1727SOL     OW16816   0.757   1.400  17.313  0.0272 -0.3109  0.5916
 1727SOL    HW116817   0.833   1.442  17.273 -0.0824  0.4552  1.1910
 1727SOL    HW216818   0.689   1.405  17.245 -0.7349 -0.0664  1.3700
 1728SOL     OW16819   0.298   0.460  12.010  0.0721 -0.0451  0.2581
 1728SOL    HW116820   0.344   0.437  11.930 -1.2154 -1.7964  0.0267
 1728SOL    HW216821   0.335   0.392  12.067 -2.6684 -1.5516  0.2188
 1729SOL     OW16822   2.103   4.012   8.597 -0.3075  0.0381 -0.2280
 1729SOL    HW116823   2.086   3.977   8.684  1.8465 -2.0966 -0.6600
 1729SOL    HW216824   2.182   4.065   8.613 -0.1171 -0.4100  0.3163
 1730SOL     OW16825   1.692   3.706   1.561 -0.0870  0.4494 -0.1001
 1730SOL    HW116826   1.631   3.766   1.604  1.0647  1.1800  0.5239
 1730SOL    HW216827   1.640   3.635   1.523 -0.0193  0.4365 -0.1688
 1731SOL     OW16828   4.258   0.288   3.933 -0.1944 -0.2442 -0.1146
 1731SOL    HW116829   4.252   0.318   4.023 -1.0330  1.8783 -0.8924
 1731SOL    HW216830   4.167   0.283   3.904  0.7026  0.7204 -3.1924
 1732SOL     OW16831   2.184   0.186   3.889 -0.2713  0.1051 -0.5088
 1732SOL    HW116832   2.219   0.226   3.809  0.0972 -0.7517 -0.7831
 1732SOL    HW216833   2.154   0.264   3.935  0.1218  0.7709 -1.3819
 1733SOL     OW16834   2.783   1.786   4.051  0.1012 -0.5549 -0.4900
 1733SOL    HW116835   2.822   1.857   4.102 -1.3620 -0.4954  0.5881
 1733SOL    HW216836   2.787   1.713   4.113 -0.1855 -0.8520 -0.8202
 1734SOL     OW16837   3.608   2.466   3.150 -0.4941  0.3942  0.2513
 1734SOL    HW116838   3.551   2.527   3.196 -2.8404 -0.8291 -1.0294
 1734SOL    HW216839   3.605   2.383   3.198 -2.2117 -0.8881 -2.0406
 1735SOL     OW16840   3.410   3.605   7.138 -0.2867 -0.5457 -0.2978
 1735SOL    HW116841   3.435   3.640   7.223  0.8968 -0.0894 -0.8345
 1735SOL    HW216842   3.469   3.531   7.144  2.0234  1.3679  0.5412
 1736SOL     OW16843   0.138   2.665  14.953  0.5221  0.1428  0.3520
 1736SOL    HW116844   0.149   2.753  14.915 -1.4249 -0.5264 -1.7699
 1736SOL    HW216845   0.215   2.664  15.010  0.6134 -0.7586  0.2035
 1737SOL     OW16846   3.743   1.380   3.407  0.2911 -0.1905 -0.2949
 1737SOL    HW116847   3.819   1.378   3.349  0.5192 -2.0262  0.0630
 1737SOL    HW216848   3.705   1.467   3.396  0.4324  0.0743  1.2337
 1738SOL     OW16849   3.073   0.639   3.388 -0.6959  0.2314 -0.5137
 1738SOL    HW116850   2.980   0.633   3.368 -0.4915  1.4386 -1.7938
 1738SOL    HW216851   3.090   0.598   3.473  1.5839 -0.5996 -1.3688
 1739SOL     OW16852   1.673   2.167   7.077 -0.4515 -0.1322  0.3737
 1739SOL    HW116853   1.656   2.161   7.171  2.5904 -0.8137  0.8976
 1739SOL    HW216854   1.625   2.245   7.051 -0.3729 -0.7976 -1.7614
 1740SOL     OW16855   0.678   0.300   3.448 -0.1460  0.3990  0.5434
 1740SOL    HW116856   0.611   0.241   3.482  0.2075  0.1040  0.7259
 1740SOL    HW216857   0.709   0.252   3.371  1.3750 -0.1643  1.5041
 1741SOL     OW16858   0.358   2.069  16.936  0.3987 -0.2396 -0.1276
 1741SOL    HW116859   0.350   2.135  16.867 -1.7544  1.2669  1.5553
 1741SOL    HW216860   0.384   1.997  16.879  0.4595 -0.8078  0.6235
 1742SOL     OW16861   0.354   4.540   6.218  0.2527  0.1786  0.7449
 1742SOL    HW116862   0.312   4.620   6.186 -1.0725 -1.0016 -0.4596
 1742SOL    HW216863   0.433   4.582   6.253 -0.2982  1.7587  0.0998
 1743SOL     OW16864   0.790   3.792   7.633 -0.3245 -0.0165 -0.0137
 1743SOL    HW116865   0.798   3.870   7.579 -1.4146 -0.0132 -0.1528
 1743SOL    HW216866   0.695   3.786   7.636 -0.3549 -0.2738 -1.5647
 1744SOL     OW16867   1.634   0.783   2.649  0.1030  0.8492 -0.9774
 1744SOL    HW116868   1.622   0.693   2.619 -1.0006 -0.1408  2.3800
 1744SOL    HW216869   1.545   0.797   2.682  0.6663 -0.3293  1.0834
 1745SOL     OW16870   2.628   2.019   1.326 -0.3304  0.0309  0.0059
 1745SOL    HW116871   2.710   2.051   1.364 -0.5124 -0.4529  0.7850
 1745SOL    HW216872   2.664   1.962   1.258 -1.2592  0.4893 -0.8679
 1746SOL     OW16873   4.712   4.317   7.391 -0.0215  0.2991 -0.5489
 1746SOL    HW116874   4.699   4.351   7.479 -0.0968 -1.2443  0.0393
 1746SOL    HW216875   4.620   4.301   7.369 -0.1322 -2.1029  1.6381
 1747SOL     OW16876   1.189   2.329   4.572 -0.0669  0.1607 -0.3232
 1747SOL    HW116877   1.161   2.263   4.635  0.6006 -2.0855 -2.4226
 1747SOL    HW216878   1.246   2.393   4.615 -0.5004 -0.9144  1.8428
 1748SOL     OW16879   0.505   2.842   9.275 -0.5019  0.1604  0.0950
 1748SOL    HW116880   0.459   2.892   9.209 -2.5217 -1.3014  0.4013
 1748SOL    HW216881   0.479   2.878   9.360 -1.2238 -0.8746  0.3116
 1749SOL     OW16882   0.795   4.405   8.593 -0.4943  0.5454 -0.3149
 1749SOL    HW116883   0.850   4.327   8.593  1.3642  1.8641 -0.7143
 1749SOL    HW216884   0.709   4.362   8.596  1.2483 -2.8454  0.7053
 1750SOL     OW16885   2.715   1.410  11.929 -0.3916 -0.1249 -0.7180
 1750SOL    HW116886   2.700   1.389  12.021 -0.9018  3.0330 -0.1076
 1750SOL    HW216887   2.733   1.504  11.933 -2.0053  0.0669  2.3925
 1751SOL     OW16888   2.309   3.302   2.820  0.1264 -0.5956 -0.2941
 1751SOL    HW116889   2.247   3.333   2.754 -2.0036 -1.2936  1.3831
 1751SOL    HW216890   2.383   3.272   2.768 -2.1108 -2.4886 -2.3454
 1752SOL     OW16891   1.230   3.136   0.820 -0.4036 -0.4940  0.0022
 1752SOL    HW116892   1.289   3.062   0.834 -0.6563 -0.7589 -0.3188
 1752SOL    HW216893   1.290   3.211   0.826 -0.4799 -0.2355 -2.2749
 1753SOL     OW16894   1.949   0.293   2.685  0.1268 -0.3016  0.0842
 1753SOL    HW116895   1.888   0.359   2.717 -0.5816  0.0948 -2.0592
 1753SOL    HW216896   1.912   0.217   2.730  0.0616 -1.5001 -1.9630
 1754SOL     OW16897   1.843   3.362  13.713 -1.0137 -0.0513  0.2753
 1754SOL    HW116898   1.831   3.282  13.766  0.9079  0.3387  1.2961
 1754SOL    HW216899   1.769   3.420  13.731  0.8424  2.1339  0.7516
 1755SOL     OW16900   1.472   0.114  16.208 -0.7873  0.6740  0.0027
 1755SOL    HW116901   1.526   0.185  16.244 -1.7816  0.2777  2.2893
 1755SOL    HW216902   1.470   0.143  16.117 -0.6105 -0.0554 -0.2309
 1756SOL     OW16903   0.809   0.729   3.675 -0.4712  0.4428  0.0137
 1756SOL    HW116904   0.838   0.667   3.742  0.5467  1.1058  0.2021
 1756SOL    HW216905   0.795   0.670   3.602  1.8881  0.1350 -0.2070
 1757SOL     OW16906   0.024   2.876  16.270  0.5318 -0.3107 -0.4209
 1757SOL    HW116907   0.066   2.873  16.184 -0.2802  0.0041 -0.8285
 1757SOL    HW216908   0.067   2.953  16.310 -0.2702 -0.5304  0.8541
 1758SOL     OW16909   2.578   0.174   1.871  0.6827 -0.2140  0.3122
 1758SOL    HW116910   2.488   0.206   1.872  0.5666 -0.5413  0.3708
 1758SOL    HW216911   2.615   0.231   1.938  0.3451  0.1555  0.1794
 1759SOL     OW16912   0.992   2.627   9.376 -0.2465  0.0123  0.3980
 1759SOL    HW116913   0.957   2.713   9.355  1.6921  1.3816  2.7750
 1759SOL    HW216914   0.937   2.608   9.453 -2.1572 -2.6475 -1.6122
 1760SOL     OW16915   2.077   3.686   4.614  0.0037  0.2978 -0.1756
 1760SOL    HW116916   2.068   3.679   4.709  0.6971  2.4128  0.0598
 1760SOL    HW216917   2.132   3.764   4.604  0.5941 -0.1089 -0.1177
 1761SOL     OW16918   1.494   1.617   1.192 -0.1336 -0.1767 -0.3656
 1761SOL    HW116919   1.477   1.580   1.106 -2.0926  1.5080 -0.6789
 1761SOL    HW216920   1.519   1.540   1.243  0.2294  1.8767  2.5751
 1762SOL     OW16921   0.308   0.629   2.025 -0.1651  0.4676  0.1031
 1762SOL    HW116922   0.403   0.634   2.032  0.0258  0.0158 -2.1317
 1762SOL    HW216923   0.283   0.550   2.073  0.6901 -0.2488 -0.6223
 1763SOL     OW16924   2.947   1.770   5.308  0.2452  0.6141  0.2460
 1763SOL    HW116925   2.930   1.863   5.324  1.2111  0.9480 -0.6006
 1763SOL    HW216926   2.896   1.728   5.377  0.0219 -0.6073 -0.6631
 1764SOL     OW16927   0.388   0.276   6.739  0.3564 -0.3312  0.3314
 1764SOL    HW116928   0.450   0.286   6.811  0.3791 -1.1184  0.4198
 1764SOL    HW216929   0.395   0.183   6.719  3.0834  0.0454 -0.3735
 1765SOL     OW16930   2.387   0.885   3.858  0.1160  0.0191 -0.4242
 1765SOL    HW116931   2.303   0.930   3.874  1.3590  0.6754  4.1916
 1765SOL    HW216932   2.397   0.908   3.765 -0.7270  0.0364 -0.5185
 1766SOL     OW16933   2.263   3.919   8.041  0.0039 -0.2873 -0.5699
 1766SOL    HW116934   2.275   3.824   8.040  2.4923 -0.0217  2.6578
 1766SOL    HW216935   2.326   3.949   7.975  2.5233 -1.9090  1.0816
 1767SOL     OW16936   0.059   2.721   6.938  0.1830 -0.0764  0.2031
 1767SOL    HW116937   0.144   2.725   6.982 -0.4557  0.3618  1.4165
 1767SOL    HW216938   4.734   2.755   7.003 -0.6761 -1.3626  0.0602
 1768SOL     OW16939   3.139   0.901  14.122 -0.4415  0.1687 -0.0262
 1768SOL    HW116940   3.129   0.996  14.132  3.4597  0.7196 -1.2405
 1768SOL    HW216941   3.112   0.888  14.031  0.8008 -0.7305 -0.2679
 1769SOL     OW16942   0.779   2.436   9.278 -0.3327  0.3074 -0.2644
 1769SOL    HW116943   0.737   2.503   9.224 -1.3711 -0.5791 -0.5604
 1769SOL    HW216944   0.740   2.428   9.364  0.5690 -0.9256  0.0320
 1770SOL     OW16945   2.953   3.014  17.234  0.5648  0.3749  0.2322
 1770SOL    HW116946   2.943   2.996  17.327  0.7115  0.1358  0.2025
 1770SOL    HW216947   2.893   3.087  17.218 -0.1324 -0.3844 -0.6319
 1771SOL     OW16948   1.105   4.679  13.892 -0.1089 -0.2628  0.0115
 1771SOL    HW116949   1.034   4.625  13.925  1.1327 -0.6710  2.0485
 1771SOL    HW216950   1.065   0.028  13.878 -0.1293 -0.2314  0.2619
 1772SOL     OW16951   3.495   0.997   2.755  0.0966  0.6763 -0.9428
 1772SOL    HW116952   3.567   0.968   2.811 -0.8461  2.0501  0.9741
 1772SOL    HW216953   3.527   1.073   2.706  0.2924 -0.5342 -2.7146
 1773SOL     OW16954   0.804   0.719   0.426  0.4666 -0.3683 -0.3518
 1773SOL    HW116955   0.713   0.749   0.437  0.7375  0.5063 -0.5069
 1773SOL    HW216956   0.850   0.776   0.488  1.9075  0.1940 -1.9745
 1774SOL     OW16957   1.325   1.523  14.898  0.0479  0.0185 -0.0743
 1774SOL    HW116958   1.278   1.606  14.906  0.8122  0.5324 -0.8939
 1774SOL    HW216959   1.337   1.529  14.803  2.2064  1.8330  0.3193
 1775SOL     OW16960   3.341   2.068  16.813 -0.2483 -0.1332  0.1484
 1775SOL    HW116961   3.352   1.979  16.849  0.2475 -0.7272 -1.4779
 1775SOL    HW216962   3.431   2.099  16.803 -0.8319  1.7564  0.7541
 1776SOL     OW16963   1.715   2.311   1.324 -0.1795 -0.0303  0.0086
 1776SOL    HW116964   1.678   2.231   1.364 -1.9476  1.7326  1.9240
 1776SOL    HW216965   1.703   2.363   1.404 -3.1109 -1.8927  0.8026
 1777SOL     OW16966   4.174   1.774   3.421 -0.4296 -0.2805  0.1871
 1777SOL    HW116967   4.246   1.715   3.395 -0.1681 -0.1968  0.7170
 1777SOL    HW216968   4.213   1.818   3.497 -2.6508  0.2650  0.9940
 1778SOL     OW16969   0.769   1.267   7.036  0.2385 -0.1215  0.3310
 1778SOL    HW116970   0.831   1.227   7.097 -2.8390 -2.8740  1.6677
 1778SOL    HW216971   0.825   1.290   6.962 -0.2889 -0.1133 -0.0641
 1779SOL     OW16972   1.288   4.259  10.718 -0.2009  0.7371  0.2405
 1779SOL    HW116973   1.267   4.239  10.810  0.3862  0.5884  0.3437
 1779SOL    HW216974   1.351   4.186  10.718 -1.2674 -0.1859 -1.1133
 1780SOL     OW16975   3.891   1.138   2.930 -0.3378  0.5071  0.6732
 1780SOL    HW116976   3.886   1.135   2.834  0.6247  1.4642  0.5856
 1780SOL    HW216977   3.817   1.084   2.956 -0.0518 -0.6943 -0.9813
 1781SOL     OW16978   0.066   2.889   3.629  0.3969 -0.0834 -0.3375
 1781SOL    HW116979   0.074   2.957   3.562 -0.7217 -0.1423 -0.5278
 1781SOL    HW216980   0.029   2.926   3.709 -1.4957  0.2383 -1.3638
 1782SOL     OW16981   1.413   3.752   7.328  0.0819  0.5634 -0.6912
 1782SOL    HW116982   1.369   3.836   7.316 -0.1486  0.5456  0.0339
 1782SOL    HW216983   1.484   3.785   7.384 -0.4086 -0.9529  0.8180
 1783SOL     OW16984   1.589   3.887   7.519 -0.0497  0.1410 -0.0191
 1783SOL    HW116985   1.670   3.864   7.474  0.4899  1.4047  0.3345
 1783SOL    HW216986   1.608   3.878   7.612 -1.4996 -0.6447  0.2105
 1784SOL     OW16987   4.355   0.404   4.478 -0.2495 -0.9947 -0.1780
 1784SOL    HW116988   4.264   0.423   4.500 -0.5939 -2.2908 -0.4733
 1784SOL    HW216989   4.361   0.309   4.489 -1.2235 -0.6568  3.2429
 1785SOL     OW16990   0.466   1.221   6.646  0.2922 -0.1498  0.5709
 1785SOL    HW116991   0.537   1.163   6.618  0.1591  0.1721 -0.4476
 1785SOL    HW216992   0.498   1.304   6.611  1.8399 -0.9959 -0.0076
 1786SOL     OW16993   0.208   4.092   2.383  0.6354  0.3508 -0.2345
 1786SOL    HW116994   0.189   3.999   2.400 -0.1732  0.7691  1.1914
 1786SOL    HW216995   0.146   4.104   2.311 -1.2743 -1.1775  1.1592
 1787SOL     OW16996   2.667   2.731  16.168 -0.3564 -0.5918 -0.8406
 1787SOL    HW116997   2.683   2.820  16.197 -3.2519 -0.0868 -0.7912
 1787SOL    HW216998   2.686   2.733  16.074  3.4921 -0.6906 -0.0596
 1788SOL     OW16999   0.699   4.246  14.736 -0.1969  0.0420  0.0141
 1788SOL    HW117000   0.682   4.153  14.751  1.3455 -0.2333  0.0727
 1788SOL    HW217001   0.653   4.285  14.810  0.7191  1.2945 -0.0697
 1789SOL     OW17002   3.135   0.088   4.400  0.0421 -0.3825  0.0462
 1789SOL    HW117003   3.187   0.159   4.363 -1.0989  1.3292  1.6905
 1789SOL    HW217004   3.182   0.076   4.483  1.7817 -1.0572 -1.0334
 1790SOL     OW17005   0.688   0.932   7.912 -0.1098  0.9243 -0.0085
 1790SOL    HW117006   0.657   0.855   7.960  2.8412 -0.2760 -0.0385
 1790SOL    HW217007   0.783   0.919   7.918 -0.1481 -0.4243 -2.2515
 1791SOL     OW17008   4.099   2.994   5.846 -0.0006  0.2629  0.4069
 1791SOL    HW117009   4.170   2.961   5.901 -0.7164  3.5402  3.2752
 1791SOL    HW217010   4.091   2.923   5.782 -0.5001 -0.3405  1.1285
 1792SOL     OW17011   3.303   2.774   5.893  0.9654  0.7229 -0.0383
 1792SOL    HW117012   3.318   2.868   5.884  2.0715  0.7940  2.4128
 1792SOL    HW217013   3.327   2.742   5.807  1.5601  0.2880  0.2876
 1793SOL     OW17014   2.904   3.834   2.650  0.2039  0.1538 -0.3061
 1793SOL    HW117015   2.890   3.880   2.733  0.3759  1.8581 -1.2113
 1793SOL    HW217016   2.850   3.888   2.592  2.6412  1.8514 -1.0098
 1794SOL     OW17017   1.415   2.936   3.516 -0.2369 -0.1708  0.2375
 1794SOL    HW117018   1.463   3.019   3.528  2.6027 -2.0159  1.6211
 1794SOL    HW217019   1.344   2.961   3.458 -0.1798 -0.2946  0.1144
 1795SOL     OW17020   1.722   1.762  10.341 -0.2905 -0.4774  0.4964
 1795SOL    HW117021   1.728   1.783  10.435 -3.2012  1.7331  0.1727
 1795SOL    HW217022   1.723   1.667  10.351  1.1263 -0.4882  0.1669
 1796SOL     OW17023   3.248   0.540   3.145 -0.5187  0.5783 -0.2370
 1796SOL    HW117024   3.284   0.458   3.180 -1.1932 -0.0926 -1.1126
 1796SOL    HW217025   3.257   0.597   3.221 -0.9195  1.3072 -0.7473
 1797SOL     OW17026   1.656   2.654   8.646 -0.2254  0.2521  0.1715
 1797SOL    HW117027   1.662   2.741   8.686 -1.8797 -0.0718  1.1190
 1797SOL    HW217028   1.602   2.675   8.570  0.6084 -0.2061 -0.5518
 1798SOL     OW17029   0.741   3.022   3.683 -0.2625 -0.3279  0.2844
 1798SOL    HW117030   0.821   3.009   3.631 -0.1933  0.4548  0.1878
 1798SOL    HW217031   0.752   2.957   3.752  1.7431 -0.5630 -0.2565
 1799SOL     OW17032   0.035   0.444  16.829 -0.1093  0.0173  0.0530
 1799SOL    HW117033   0.000   0.404  16.908  0.3255  0.4317  0.4468
 1799SOL    HW217034   0.068   0.514  16.883 -2.0320  2.1551 -1.5303
 1800SOL     OW17035   2.685   3.546   9.477  0.0097 -0.1404  0.0810
 1800SOL    HW117036   2.629   3.470   9.461 -1.7392  1.0037  0.7772
 1800SOL    HW217037   2.626   3.578   9.545 -0.6177 -0.8604 -0.1256
 1801SOL     OW17038   3.593   0.155  17.607 -0.2435 -0.2331 -0.2914
 1801SOL    HW117039   3.585   0.104  17.526 -0.2618 -0.3420 -0.2209
 1801SOL    HW217040   3.645   0.232  17.583  2.0681 -1.3097  1.1938
 1802SOL     OW17041   3.663   2.101  11.560  0.1453  0.3430 -0.2740
 1802SOL    HW117042   3.573   2.104  11.591 -0.8504  2.8792 -3.4910
 1802SOL    HW217043   3.700   2.121  11.646 -1.2937  0.4102  0.3283
 1803SOL     OW17044   0.496   1.417   2.358  0.1057 -0.4917  0.2822
 1803SOL    HW117045   0.408   1.422   2.322  0.3262  0.7953 -0.0695
 1803SOL    HW217046   0.542   1.395   2.277  0.1163  0.9011 -0.0984
 1804SOL     OW17047   1.565   0.842  10.657  0.0500 -0.6462 -0.5265
 1804SOL    HW117048   1.474   0.865  10.638  0.2580  2.4323  2.2475
 1804SOL    HW217049   1.583   0.912  10.719  0.6638 -0.1992 -1.2135
 1805SOL     OW17050   4.499   2.602  10.028 -0.1857  0.2286  0.3733
 1805SOL    HW117051   4.557   2.578  10.100  0.2627 -1.0008 -0.4103
 1805SOL    HW217052   4.462   2.516  10.012 -0.8982  0.4380  0.8593
 1806SOL     OW17053   2.111   0.998   3.716  0.4314  0.0219  0.3524
 1806SOL    HW117054   2.122   1.092   3.705 -0.5302  0.3312  1.9809
 1806SOL    HW217055   2.057   0.998   3.795  0.1210 -0.4173  0.1455
 1807SOL     OW17056   1.080   0.198   8.203  0.4728 -0.8239  0.6439
 1807SOL    HW117057   1.052   0.290   8.197  1.2523 -0.6588 -0.4501
 1807SOL    HW217058   1.007   0.143   8.174  0.7310 -0.6904 -0.2372
 1808SOL     OW17059   1.224   3.164  14.084 -0.4766  0.0759 -0.9397
 1808SOL    HW117060   1.281   3.112  14.027  1.4621  1.1101  0.0451
 1808SOL    HW217061   1.145   3.165  14.031 -1.7724  0.0825  1.0010
 1809SOL     OW17062   4.380   2.631   5.347  0.2765 -0.6805  0.2623
 1809SOL    HW117063   4.332   2.703   5.307  1.4093 -0.1544 -0.1540
 1809SOL    HW217064   4.333   2.563   5.298  1.1875 -0.3551 -1.0899
 1810SOL     OW17065   1.143   0.068   5.873  0.3797  0.7689 -0.1213
 1810SOL    HW117066   1.139   4.720   5.829 -0.6586  1.9723 -2.3647
 1810SOL    HW217067   1.118   0.037   5.960 -0.5314  0.5643 -0.4489
 1811SOL     OW17068   0.809   2.939   3.305  0.4411  0.0186  0.5772
 1811SOL    HW117069   0.834   2.872   3.242  2.0213  0.7802  0.4138
 1811SOL    HW217070   0.758   3.003   3.254  0.9891 -0.1271 -0.1422
 1812SOL     OW17071   1.937   1.594   3.366  0.1207 -0.2278 -0.2535
 1812SOL    HW117072   1.876   1.582   3.294 -2.5303 -0.2940  1.9819
 1812SOL    HW217073   2.021   1.617   3.328  0.0058 -1.0522 -1.0087
 1813SOL     OW17074   1.419   0.852   4.865  0.5556  0.1993  0.7456
 1813SOL    HW117075   1.387   0.923   4.810  0.9054 -2.5649 -3.0284
 1813SOL    HW217076   1.490   0.821   4.809 -0.7362 -0.4587 -0.5196
 1814SOL     OW17077   3.522   3.291   9.232  0.1398  0.4408 -0.3226
 1814SOL    HW117078   3.507   3.370   9.283 -1.0484  0.5733 -0.8689
 1814SOL    HW217079   3.489   3.222   9.289 -0.0795  0.5638 -0.2999
 1815SOL     OW17080   1.647   3.841   7.792 -0.1174  0.0792 -0.4139
 1815SOL    HW117081   1.657   3.761   7.845 -0.2325 -0.0850 -0.6425
 1815SOL    HW217082   1.609   3.896   7.861  2.1932 -0.2233  1.1224
 1816SOL     OW17083   0.471   1.652   4.313  0.0176 -0.1108 -0.3704
 1816SOL    HW117084   0.375   1.648   4.314  0.1158 -0.9551  3.7404
 1816SOL    HW217085   0.475   1.635   4.219  1.8623 -0.7138 -0.1822
 1817SOL     OW17086   1.873   3.350   0.811 -0.0722 -0.2021  0.0931
 1817SOL    HW117087   1.960   3.382   0.785 -0.3493 -0.3432 -0.9880
 1817SOL    HW217088   1.903   3.322   0.898 -1.5120 -0.7564  0.4042
 1818SOL     OW17089   4.184   4.164   5.200  0.0530  0.6351  0.5603
 1818SOL    HW117090   4.205   4.233   5.138  0.8660 -0.2916 -0.1872
 1818SOL    HW217091   4.268   4.119   5.198 -0.3638 -0.1516  0.6766
 1819SOL     OW17092   1.526   0.781   0.327 -0.0128  0.0804 -0.4355
 1819SOL    HW117093   1.619   0.799   0.318  0.2816 -0.4995  1.4026
 1819SOL    HW217094   1.519   0.686   0.343 -0.4176  0.6336  2.6670
 1820SOL     OW17095   4.529   1.863   6.537 -0.1588 -0.8372 -0.0517
 1820SOL    HW117096   4.584   1.798   6.494  3.4061  2.6434 -0.7584
 1820SOL    HW217097   4.514   1.820   6.622  1.9459 -0.6948  0.4028
 1821SOL     OW17098   2.120   1.116   7.527 -0.0414 -0.1919 -0.2818
 1821SOL    HW117099   2.057   1.188   7.535 -0.6237 -0.8003  0.5147
 1821SOL    HW217100   2.071   1.042   7.561 -0.6718 -1.1466 -3.1985
 1822SOL     OW17101   4.514   3.033   3.171  0.1590  0.6561 -0.6343
 1822SOL    HW117102   4.545   2.959   3.224  0.9570  0.6670 -1.0707
 1822SOL    HW217103   4.465   3.089   3.231 -1.1915  0.6206 -1.7209
 1823SOL     OW17104   3.132   4.051   2.160 -0.2509 -0.0616  0.2484
 1823SOL    HW117105   3.037   4.049   2.153 -0.3540 -2.3659  2.3426
 1823SOL    HW217106   3.144   3.969   2.207 -0.1345 -0.4448 -0.4437
 1824SOL     OW17107   4.316   4.246  12.923  0.0569 -0.1471  0.0156
 1824SOL    HW117108   4.224   4.267  12.935  0.3588 -0.1511  2.3411
 1824SOL    HW217109   4.346   4.230  13.013  0.0969  1.6447  0.3112
 1825SOL     OW17110   0.641   2.531   1.497 -0.0238  0.2250 -0.2124
 1825SOL    HW117111   0.734   2.553   1.488  0.0951 -0.4592 -0.7193
 1825SOL    HW217112   0.613   2.573   1.578  0.1005  0.3392 -0.2280
 1826SOL     OW17113   4.587   4.737   7.985 -0.0556  0.0477 -0.6175
 1826SOL    HW117114   4.655   0.018   8.049 -1.4282  2.3087  0.1786
 1826SOL    HW217115   4.646   4.691   7.926  1.0270 -1.6886  1.8226
 1827SOL     OW17116   0.278   4.149  13.547 -0.2373 -0.1326 -0.6233
 1827SOL    HW117117   0.244   4.228  13.588 -0.7853 -0.4096 -0.5396
 1827SOL    HW217118   0.327   4.120  13.624 -0.5506 -2.6977 -1.4029
 1828SOL     OW17119   2.087   0.410  10.751 -0.0604 -0.0242  0.3751
 1828SOL    HW117120   2.017   0.430  10.813 -0.1934  2.2112 -0.5084
 1828SOL    HW217121   2.129   0.341  10.803 -1.3954 -0.4504  0.8870
 1829SOL     OW17122   3.355   4.122   4.742  0.4052  0.4454  0.8333
 1829SOL    HW117123   3.349   4.152   4.833  1.5257  3.4079 -0.0578
 1829SOL    HW217124   3.449   4.123   4.727  0.4691  0.9817  1.2373
 1830SOL     OW17125   0.591   3.224   1.554 -1.1386 -0.2629 -0.2764
 1830SOL    HW117126   0.520   3.288   1.542 -0.7799  0.2621  0.3720
 1830SOL    HW217127   0.654   3.258   1.491 -0.7301 -0.2801  0.1280
 1831SOL     OW17128   3.014   1.481   1.274  0.9476  0.3809 -0.1842
 1831SOL    HW117129   2.980   1.452   1.189 -0.1077  0.9336  0.0516
 1831SOL    HW217130   3.097   1.440   1.298  1.7743  2.0384 -0.2387
 1832SOL     OW17131   3.921   0.783  14.025 -0.0210 -0.2306 -0.0661
 1832SOL    HW117132   3.839   0.799  13.977  0.5412  1.2107 -0.5404
 1832SOL    HW217133   3.987   0.776  13.956  0.2734  1.1288  0.0858
 1833SOL     OW17134   1.976   3.012   2.999  0.3323 -0.4556  0.5842
 1833SOL    HW117135   1.927   3.068   2.939 -1.0761 -1.0143  1.2131
 1833SOL    HW217136   1.963   2.928   2.955  2.1028  0.8088 -2.3714
 1834SOL     OW17137   0.388   4.543   1.152 -0.0307 -0.2582 -0.4636
 1834SOL    HW117138   0.408   4.542   1.246  0.8350 -0.4818 -0.6497
 1834SOL    HW217139   0.320   4.477   1.157  1.7408 -1.8435  2.6512
 1835SOL     OW17140   3.085   3.275   5.152 -0.1862 -0.3175 -0.6419
 1835SOL    HW117141   3.055   3.217   5.081 -1.9544 -2.8365  2.1858
 1835SOL    HW217142   3.177   3.287   5.126  0.1617 -0.7875  0.3681
 1836SOL     OW17143   3.776   1.214   1.893 -0.3327 -0.4691 -0.4303
 1836SOL    HW117144   3.756   1.303   1.862  2.4782  0.6146  0.8479
 1836SOL    HW217145   3.767   1.229   1.987 -0.9177  1.7191 -0.8267
 1837SOL     OW17146   3.631   0.184  16.653  0.1974  0.4805 -0.0845
 1837SOL    HW117147   3.720   0.215  16.670  0.6316 -1.0454  0.4261
 1837SOL    HW217148   3.582   0.190  16.736  1.2477 -1.0161  0.6401
 1838SOL     OW17149   4.672   3.934   4.853  0.5792  1.0045 -0.0948
 1838SOL    HW117150   4.639   3.845   4.844  0.0140  1.1739  0.2957
 1838SOL    HW217151   0.026   3.928   4.825 -0.0303 -1.5874 -1.5407
 1839SOL     OW17152   2.438   3.248   3.373 -0.1896  0.1090  0.0757
 1839SOL    HW117153   2.507   3.213   3.317 -1.8166 -1.0037 -1.2345
 1839SOL    HW217154   2.485   3.306   3.433 -1.5791 -0.7145  1.9536
 1840SOL     OW17155   0.804   0.201   3.927  0.1949  0.3418 -0.2414
 1840SOL    HW117156   0.828   0.160   4.010 -0.2110  0.4849 -0.0522
 1840SOL    HW217157   0.815   0.292   3.954 -1.6403  0.3057  0.6050
 1841SOL     OW17158   1.243   0.819  11.897  0.3209 -0.0647 -0.5145
 1841SOL    HW117159   1.301   0.764  11.950 -0.9028  0.3132  1.2179
 1841SOL    HW217160   1.184   0.839  11.969 -0.3329  0.0715 -1.0950
 1842SOL     OW17161   3.345   2.220   2.416 -0.2956 -0.3648  0.0585
 1842SOL    HW117162   3.323   2.312   2.407 -1.0218 -0.5566 -0.1241
 1842SOL    HW217163   3.368   2.192   2.327  0.1708  1.8368 -0.5183
 1843SOL     OW17164   0.493   1.650   7.836  0.5806 -0.5762  0.2618
 1843SOL    HW117165   0.417   1.668   7.781  1.5000  0.8283 -0.5414
 1843SOL    HW217166   0.541   1.576   7.798 -0.2884 -0.3326 -1.3237
 1844SOL     OW17167   2.864   2.811   0.922 -0.4245  0.0160  0.3413
 1844SOL    HW117168   2.856   2.815   0.826  2.6211  0.9776  0.1043
 1844SOL    HW217169   2.810   2.735   0.941 -2.2513  1.7095  1.9792
 1845SOL     OW17170   2.005   4.624   5.677  0.4456  0.3106 -0.2042
 1845SOL    HW117171   2.081   4.676   5.652  1.3060 -0.7679  0.1513
 1845SOL    HW217172   1.943   4.686   5.716 -0.0553 -0.2601 -0.0779
 1846SOL     OW17173   2.109   2.853   9.661 -0.8859 -0.7119  0.6563
 1846SOL    HW117174   2.166   2.837   9.735 -0.9771 -1.5499  0.5431
 1846SOL    HW217175   2.038   2.907   9.696  1.5170  1.5251  2.0790
 1847SOL     OW17176   3.715   0.445  10.785  0.0912  0.5189  0.2167
 1847SOL    HW117177   3.761   0.527  10.801  0.1468  0.2961  1.2323
 1847SOL    HW217178   3.788   0.399  10.743  1.3976  1.7977  1.0937
 1848SOL     OW17179   3.298   3.694   8.401  0.3603  0.2735  0.1028
 1848SOL    HW117180   3.353   3.756   8.354  0.1944 -0.7140 -1.3934
 1848SOL    HW217181   3.289   3.627   8.334  0.9500  3.4223 -3.0777
 1849SOL     OW17182   2.302   1.464   3.558 -0.3933 -0.1028 -0.1846
 1849SOL    HW117183   2.271   1.552   3.577  0.5428 -0.0021  0.8549
 1849SOL    HW217184   2.391   1.474   3.523 -0.3624  0.4181  0.0445
 1850SOL     OW17185   1.301   0.444  12.669 -0.7879  0.0898 -0.1491
 1850SOL    HW117186   1.208   0.444  12.691 -1.1357  1.0011 -1.6006
 1850SOL    HW217187   1.323   0.491  12.749  1.8856 -0.7977 -0.3495
 1851SOL     OW17188   3.390   2.224   8.246  0.7019  0.3060 -0.7129
 1851SOL    HW117189   3.390   2.139   8.203 -2.9905  1.4909 -3.1085
 1851SOL    HW217190   3.372   2.196   8.336  0.4681 -0.5801 -1.0373
 1852SOL     OW17191   4.451   2.010   5.718 -0.1064 -0.4478 -0.4091
 1852SOL    HW117192   4.500   2.091   5.729 -1.3522  0.4516 -1.4163
 1852SOL    HW217193   4.357   2.030   5.721 -0.2944 -0.8453 -2.8652
 1853SOL     OW17194   0.283   3.095   5.444 -0.0381 -0.4321 -0.3252
 1853SOL    HW117195   0.253   3.041   5.517  0.3940 -1.1825 -0.7033
 1853SOL    HW217196   0.370   3.057   5.456 -0.6702 -1.1361  1.9749
 1854SOL     OW17197   1.150   2.443   1.099 -0.9248 -0.2165 -0.7566
 1854SOL    HW117198   1.206   2.513   1.131 -2.0250  0.0931  0.4805
 1854SOL    HW217199   1.066   2.481   1.124 -0.5106  0.2204 -0.0345
 1855SOL     OW17200   4.542   1.058   4.396 -0.3071  0.3922 -0.0232
 1855SOL    HW117201   4.574   1.015   4.316  0.2429 -1.3068  1.1008
 1855SOL    HW217202   4.590   1.016   4.467 -2.1374  2.1468  2.2139
 1856SOL     OW17203   2.220   1.642   5.539 -0.0828 -0.1900  0.0438
 1856SOL    HW117204   2.206   1.550   5.514  0.1441  0.6423 -3.0498
 1856SOL    HW217205   2.177   1.681   5.463 -1.0554 -3.0009 -0.8610
 1857SOL     OW17206   4.030   3.416   7.290 -0.0818  0.0065 -0.1115
 1857SOL    HW117207   4.011   3.389   7.200 -1.8580  0.0801  0.2442
 1857SOL    HW217208   4.124   3.404   7.285 -0.0694 -0.1157  0.3727
 1858SOL     OW17209   3.307   0.669   2.899  0.1457 -0.5612  0.0915
 1858SOL    HW117210   3.271   0.644   2.984  0.9152  1.7791  1.1135
 1858SOL    HW217211   3.266   0.602   2.845 -0.8062  0.7262 -0.7914
 1859SOL     OW17212   0.424   3.870   3.989  0.0609 -0.6816 -0.1772
 1859SOL    HW117213   0.505   3.850   3.942  1.6647  1.8261  1.5066
 1859SOL    HW217214   0.458   3.879   4.078  1.7246 -0.4507 -0.8403
 1860SOL     OW17215   1.188   4.152   1.175  0.1781  0.0375 -0.3114
 1860SOL    HW117216   1.250   4.131   1.244  0.5926  1.4224 -0.2835
 1860SOL    HW217217   1.160   4.240   1.200 -0.4652  0.8531 -3.8982
 1861SOL     OW17218   0.283   3.939   9.785 -0.0544  0.2275 -0.6896
 1861SOL    HW117219   0.189   3.921   9.791  0.2626 -1.0246  0.4832
 1861SOL    HW217220   0.314   3.909   9.871  1.8972 -0.4189 -1.6194
 1862SOL     OW17221   2.111   1.412   4.852  0.7838  0.5808 -0.3531
 1862SOL    HW117222   2.174   1.477   4.881  0.8844  0.3171  0.0190
 1862SOL    HW217223   2.037   1.422   4.913  1.1975  1.6268 -0.0225
 1863SOL     OW17224   2.413   2.687  14.207 -0.0989  0.5791 -0.2938
 1863SOL    HW117225   2.379   2.753  14.146  1.3305  1.9495  0.3932
 1863SOL    HW217226   2.347   2.618  14.206  0.9388 -0.4470  1.6927
 1864SOL     OW17227   2.977   2.003   2.934 -0.2367  0.3581  0.1970
 1864SOL    HW117228   2.916   2.077   2.929 -0.2215  0.2688 -1.2670
 1864SOL    HW217229   3.053   2.025   2.879  0.0922 -0.5733  0.2753
 1865SOL     OW17230   2.616   0.376   5.096 -0.2376 -0.2535 -0.3992
 1865SOL    HW117231   2.628   0.471   5.095  1.5329 -0.4915 -0.0450
 1865SOL    HW217232   2.698   0.329   5.108 -1.2849 -1.7168  1.0785
 1866SOL     OW17233   1.372   0.741   2.750  0.1520 -1.0469  0.0650
 1866SOL    HW117234   1.366   0.645   2.757  3.0422 -1.1207  1.3522
 1866SOL    HW217235   1.285   0.756   2.713  0.5279 -1.7694 -1.1134
 1867SOL     OW17236   2.366   1.785   3.311 -0.3755  0.0714  0.7900
 1867SOL    HW117237   2.339   1.877   3.306  1.2837  0.5934  1.3113
 1867SOL    HW217238   2.374   1.771   3.405 -0.1747 -1.0548  0.5977
 1868SOL     OW17239   1.564   4.416  14.946  0.6209 -0.3008  0.3979
 1868SOL    HW117240   1.509   4.484  14.908 -0.3725 -1.4386 -0.1939
 1868SOL    HW217241   1.610   4.381  14.869  0.0886  0.5309 -0.2956
 1869SOL     OW17242   2.024   2.376  15.221  0.0616 -0.1065  0.2839
 1869SOL    HW117243   1.987   2.446  15.167 -1.3581 -1.7407 -0.8889
 1869SOL    HW217244   1.963   2.304  15.202 -0.2829  1.0545 -2.9509
 1870SOL     OW17245   0.532   2.354   9.690 -0.5439 -0.6742  0.0993
 1870SOL    HW117246   0.601   2.315   9.743 -0.7797 -0.3203  0.6664
 1870SOL    HW217247   0.572   2.439   9.672 -0.3710 -0.3880  1.8401
 1871SOL     OW17248   3.057   4.296   6.360 -0.2816  0.0829 -0.0131
 1871SOL    HW117249   3.042   4.361   6.291 -0.0986  0.2428  0.0973
 1871SOL    HW217250   2.993   4.230   6.335  0.9734 -2.0403  2.3713
 1872SOL     OW17251   2.577   3.395  11.563  0.7769  0.5990  0.1986
 1872SOL    HW117252   2.641   3.324  11.556 -0.0552 -0.2014  0.6959
 1872SOL    HW217253   2.526   3.399  11.482 -0.0145  0.6164  0.6936
 1873SOL     OW17254   3.767   0.493   6.373 -0.3428 -0.2257 -0.5358
 1873SOL    HW117255   3.725   0.412   6.344 -2.7485  0.5665  0.6993
 1873SOL    HW217256   3.807   0.462   6.454  0.1880 -1.6286 -1.3386
 1874SOL     OW17257   0.936   1.820   3.155 -0.1268 -0.8360 -0.1978
 1874SOL    HW117258   1.008   1.781   3.203 -0.2363 -2.3151 -1.2438
 1874SOL    HW217259   0.892   1.860   3.230 -0.3547 -1.6961  0.1286
 1875SOL     OW17260   1.383   1.192  15.580 -0.1160 -0.6197  0.1202
 1875SOL    HW117261   1.293   1.184  15.549 -0.2457 -1.9141  0.8294
 1875SOL    HW217262   1.383   1.166  15.672  1.8007 -1.1865 -0.0347
 1876SOL     OW17263   2.673   1.235   4.549 -0.1610 -0.3073  0.0838
 1876SOL    HW117264   2.618   1.311   4.532  1.9868  0.5321 -3.1980
 1876SOL    HW217265   2.739   1.240   4.479  1.3137  0.1032  1.5155
 1877SOL     OW17266   2.754   4.492  13.173  0.0394  0.6001  0.2145
 1877SOL    HW117267   2.787   4.403  13.165  1.0655  0.8283  1.8597
 1877SOL    HW217268   2.807   4.541  13.109  1.2775 -1.8495 -0.6259
 1878SOL     OW17269   1.402   1.754  11.050 -0.8030  0.2375  0.1250
 1878SOL    HW117270   1.431   1.665  11.071 -3.4827 -0.9239 -1.1487
 1878SOL    HW217271   1.468   1.803  11.100 -1.0111 -0.1828  0.7991
 1879SOL     OW17272   0.267   3.028   7.143 -0.6808 -0.6984  0.5551
 1879SOL    HW117273   0.293   3.076   7.221 -0.2834 -1.5489  0.9373
 1879SOL    HW217274   0.262   3.104   7.085  0.8165 -0.7518  0.3661
 1880SOL     OW17275   0.659   3.656   1.259  0.1023 -0.1815  0.5757
 1880SOL    HW117276   0.700   3.741   1.242  0.1384 -0.0405  1.3430
 1880SOL    HW217277   0.621   3.623   1.178 -2.6308  0.4637  1.5779
 1881SOL     OW17278   3.325   1.823  11.762 -0.1641  0.0942  0.8747
 1881SOL    HW117279   3.391   1.827  11.832  1.0829  2.8966 -0.4487
 1881SOL    HW217280   3.344   1.735  11.731  2.2827  2.0546 -3.2108
 1882SOL     OW17281   2.528   2.304   8.161  0.0302 -0.1302 -0.0892
 1882SOL    HW117282   2.442   2.276   8.192 -0.6266  0.3815 -1.4458
 1882SOL    HW217283   2.532   2.396   8.190  2.1471  0.7758 -3.2714
 1883SOL     OW17284   1.797   3.584   7.306  0.1819 -0.9649  0.0663
 1883SOL    HW117285   1.737   3.601   7.379  1.1888 -1.2278  0.9546
 1883SOL    HW217286   1.863   3.530   7.350  2.2039 -0.3187 -2.1810
 1884SOL     OW17287   3.543   4.504  11.021 -0.3232  1.0458 -0.2120
 1884SOL    HW117288   3.600   4.578  11.005 -1.1065  1.3002 -1.7555
 1884SOL    HW217289   3.548   4.521  11.115  0.9003 -1.7149  0.2277
 1885SOL     OW17290   4.590   3.830  16.016 -0.1109  0.1151  0.1884
 1885SOL    HW117291   4.541   3.769  15.961  0.4275 -2.5983  2.7116
 1885SOL    HW217292   4.544   3.836  16.100 -2.0817  2.1996 -1.0385
 1886SOL     OW17293   3.458   1.341   5.177  0.4182 -0.2824 -0.2641
 1886SOL    HW117294   3.524   1.277   5.206  2.4170  0.5501 -2.9752
 1886SOL    HW217295   3.495   1.416   5.223 -0.4416  0.2246 -0.4121
 1887SOL     OW17296   4.069   0.350  16.470  0.6544 -0.3083 -0.1578
 1887SOL    HW117297   4.042   0.401  16.546  2.8665  1.5504 -0.6117
 1887SOL    HW217298   4.118   0.420  16.426 -3.0026  2.4639  0.2548
 1888SOL     OW17299   1.674   1.495   7.380  0.2390 -0.8311  0.2610
 1888SOL    HW117300   1.677   1.462   7.470 -2.2485  0.9556  0.9981
 1888SOL    HW217301   1.700   1.587   7.375  1.8756 -1.3361 -0.7909
 1889SOL     OW17302   0.371   2.068  16.621 -0.0214 -0.1437  0.7378
 1889SOL    HW117303   0.458   2.060  16.583 -0.4493  3.8450 -1.1097
 1889SOL    HW217304   0.334   2.026  16.543  0.4796 -0.6197  0.7607
 1890SOL     OW17305   3.565   2.319  17.057 -0.1682  0.8693 -0.5000
 1890SOL    HW117306   3.556   2.370  16.977 -1.0226 -1.0402 -1.6340
 1890SOL    HW217307   3.613   2.380  17.113  1.1089 -0.3588 -0.2210
 1891SOL     OW17308   4.133   4.171  16.548  0.1447 -0.3103 -0.4306
 1891SOL    HW117309   4.132   4.246  16.607 -1.0780 -0.7998  0.1603
 1891SOL    HW217310   4.104   4.214  16.467 -0.4923  3.0334  1.5635
 1892SOL     OW17311   0.442   4.265   0.932  0.2572  0.1201  0.0708
 1892SOL    HW117312   0.520   4.304   0.972  0.5456  0.4109 -0.7749
 1892SOL    HW217313   0.371   4.296   0.989 -0.7696 -2.6483  0.2563
 1893SOL     OW17314   1.830   4.610   6.502  0.0669  0.2903 -0.4245
 1893SOL    HW117315   1.846   4.698   6.465  0.4932  0.4963  0.2522
 1893SOL    HW217316   1.913   4.599   6.549  0.4800  1.8171 -0.7632
 1894SOL     OW17317   2.879   3.804   6.496 -0.1016 -0.1795 -0.0875
 1894SOL    HW117318   2.875   3.852   6.579 -4.5096  0.0370 -0.4103
 1894SOL    HW217319   2.926   3.729   6.534  1.0616  0.6978  0.2105
 1895SOL     OW17320   0.335   4.438   8.387  0.0521  0.1813  0.1865
 1895SOL    HW117321   0.393   4.364   8.368  2.1140  1.6879  0.5775
 1895SOL    HW217322   0.268   4.387   8.432 -1.2372 -0.8904 -2.9374
 1896SOL     OW17323   4.079   1.839   9.843 -0.2450  0.0239 -0.2276
 1896SOL    HW117324   4.172   1.826   9.827  0.1423  2.5198  0.1046
 1896SOL    HW217325   4.053   1.914   9.790 -0.3255 -0.2179 -0.5258
 1897SOL     OW17326   2.766   0.770   3.322  0.9648  0.1030 -0.4062
 1897SOL    HW117327   2.680   0.794   3.287  0.2596 -1.0470  0.5445
 1897SOL    HW217328   2.742   0.779   3.414  1.4393 -0.3966 -0.2355
 1898SOL     OW17329   3.149   3.877   3.442  0.0812 -0.6921  0.1780
 1898SOL    HW117330   3.058   3.846   3.445  0.0120 -0.4046  1.0942
 1898SOL    HW217331   3.199   3.798   3.424  0.7271  0.0860 -1.4596
 1899SOL     OW17332   4.422   4.222   2.443 -0.1594  0.3592 -0.0653
 1899SOL    HW117333   4.353   4.214   2.378  1.4659  0.3272 -1.7902
 1899SOL    HW217334   4.470   4.291   2.397  2.0112 -0.9563  0.2274
 1900SOL     OW17335   0.364   1.982   9.303 -0.8631 -0.5835 -0.0835
 1900SOL    HW117336   0.290   2.013   9.252  0.6769  1.2126 -1.2306
 1900SOL    HW217337   0.391   2.060   9.350 -1.4902  0.5166 -1.5546
 1901SOL     OW17338   3.928   1.484   6.183  0.3216  1.1337 -0.0008
 1901SOL    HW117339   3.923   1.578   6.201 -1.3636  1.0622 -0.0235
 1901SOL    HW217340   3.840   1.471   6.148 -0.4653 -0.8000  2.7218
 1902SOL     OW17341   2.153   2.179  10.874 -0.5841  0.6934 -0.5675
 1902SOL    HW117342   2.079   2.157  10.931 -0.3693  1.6620  0.0720
 1902SOL    HW217343   2.118   2.154  10.788  1.6440  1.9422 -1.8344
 1903SOL     OW17344   0.442   3.714   5.563 -0.0796 -0.0906  0.0710
 1903SOL    HW117345   0.524   3.741   5.605 -0.2304  1.5021 -0.6626
 1903SOL    HW217346   0.390   3.705   5.643  0.8380  1.1468  0.8024
 1904SOL     OW17347   2.409   3.929   5.273 -0.1711  0.0036  0.0376
 1904SOL    HW117348   2.438   4.020   5.274 -1.0594  0.2715  2.7268
 1904SOL    HW217349   2.361   3.913   5.192  1.4654 -0.3455 -0.8703
 1905SOL     OW17350   1.751   1.347   6.309 -0.5248 -0.1790 -0.7028
 1905SOL    HW117351   1.799   1.291   6.369  1.0907  0.0485 -1.7630
 1905SOL    HW217352   1.749   1.434   6.349  2.3563 -1.1251  1.4344
 1906SOL     OW17353   3.717   0.325   1.472 -0.3194 -0.2832  0.7930
 1906SOL    HW117354   3.744   0.404   1.424  0.8485 -0.7951  0.6024
 1906SOL    HW217355   3.636   0.291   1.435 -0.5842  0.1774  0.9529
 1907SOL     OW17356   3.914   0.388   9.609  0.0049 -0.7384  0.0355
 1907SOL    HW117357   3.897   0.474   9.647  0.2812 -0.9409  0.6082
 1907SOL    HW217358   4.002   0.369   9.641 -0.6401 -1.1647  1.5601
 1908SOL     OW17359   1.025   2.461   2.790  0.0322  0.1695 -0.0079
 1908SOL    HW117360   0.977   2.434   2.868 -2.4281 -2.0724 -2.3293
 1908SOL    HW217361   0.971   2.529   2.749  0.3035 -0.9664 -2.2614
 1909SOL     OW17362   2.688   2.195   3.941 -0.1331  0.3954 -0.0964
 1909SOL    HW117363   2.632   2.130   3.899 -1.4027  0.9877  0.7044
 1909SOL    HW217364   2.625   2.266   3.953  0.0008  0.7151 -1.2388
 1910SOL     OW17365   0.787   3.391   5.008  0.4211 -0.4750  0.3485
 1910SOL    HW117366   0.801   3.321   5.072 -3.7798 -1.6381  0.0047
 1910SOL    HW217367   0.744   3.345   4.935  0.2777 -0.3322  0.3431
 1911SOL     OW17368   3.766   4.659   1.651 -0.2609  0.1396  0.4164
 1911SOL    HW117369   3.841   4.605   1.624 -1.5441 -1.2074 -0.4269
 1911SOL    HW217370   3.805   0.009   1.648  0.9600 -0.5782 -3.8958
 1912SOL     OW17371   3.300   0.999   1.682  1.3484  0.2534  0.0798
 1912SOL    HW117372   3.311   0.904   1.670  0.4316  0.1548 -0.0594
 1912SOL    HW217373   3.345   1.007   1.766  1.2804 -0.8007  0.2240
 1913SOL     OW17374   0.253   1.579   4.732 -0.1472  0.7768  0.0098
 1913SOL    HW117375   0.209   1.635   4.669 -0.4983  1.6211  1.0062
 1913SOL    HW217376   0.191   1.579   4.805  1.2132  1.3662  1.1588
 1914SOL     OW17377   3.320   2.707   7.946  0.1728 -0.0800  0.3036
 1914SOL    HW117378   3.386   2.759   7.993  0.0854 -1.1091  1.5446
 1914SOL    HW217379   3.338   2.739   7.857  1.4420 -1.7752 -0.0389
 1915SOL     OW17380   3.324   2.351   1.987 -0.2395  0.3322 -0.0861
 1915SOL    HW117381   3.303   2.441   2.013  0.0349  0.9430 -2.0337
 1915SOL    HW217382   3.360   2.356   1.899  0.3082  2.1430  0.2420
 1916SOL     OW17383   1.332   4.492   7.689 -0.4356 -0.3053  0.2201
 1916SOL    HW117384   1.262   4.519   7.748 -0.2066  2.8071 -0.9435
 1916SOL    HW217385   1.376   4.573   7.662 -0.9324 -0.0663  0.1351
 1917SOL     OW17386   0.868   1.776   4.663  0.1984  0.5733 -0.1176
 1917SOL    HW117387   0.888   1.692   4.621 -0.7890 -2.0980  4.7029
 1917SOL    HW217388   0.784   1.804   4.627  0.5277 -2.1980 -3.0858
 1918SOL     OW17389   3.615   2.024   2.327  0.1495  0.1328 -0.3801
 1918SOL    HW117390   3.529   2.058   2.304  0.9640  0.6367 -2.5988
 1918SOL    HW217391   3.650   2.021   2.238 -1.4182  2.2596 -1.0417
 1919SOL     OW17392   1.552   1.229   6.943  0.0137 -0.2763  0.5352
 1919SOL    HW117393   1.555   1.300   7.007  0.0076  0.8621 -0.7233
 1919SOL    HW217394   1.586   1.272   6.865  2.1653  0.5197  1.9099
 1920SOL     OW17395   4.105   0.967   6.506 -0.5072 -0.2461 -0.7236
 1920SOL    HW117396   4.099   0.881   6.549 -1.0230  0.2387  0.1747
 1920SOL    HW217397   4.031   0.969   6.446 -1.7613 -2.5178  0.7651
 1921SOL     OW17398   1.976   0.667  11.602 -0.2994  0.1237  0.0955
 1921SOL    HW117399   1.883   0.687  11.595  0.0926  2.1278  0.4006
 1921SOL    HW217400   2.008   0.697  11.517  0.4333  0.1144  0.3623
 1922SOL     OW17401   4.517   0.049   1.807  0.1961 -0.5141 -0.4364
 1922SOL    HW117402   4.446   0.077   1.864  0.1679  0.1779 -0.8030
 1922SOL    HW217403   4.518   0.115   1.737  0.0549 -0.8113 -0.7173
 1923SOL     OW17404   4.394   2.256  14.744 -0.5515  0.4649  0.1261
 1923SOL    HW117405   4.349   2.327  14.790  0.1001  0.3217  0.9790
 1923SOL    HW217406   4.324   2.229  14.684 -2.2583  0.6526  2.0096
 1924SOL     OW17407   3.933   1.405  17.432  0.1243 -0.2478 -0.0515
 1924SOL    HW117408   3.976   1.433  17.352 -0.3920  0.3131 -0.1292
 1924SOL    HW217409   3.877   1.480  17.450 -0.2995 -0.2884 -1.2032
 1925SOL     OW17410   1.004   0.246   3.714  0.3240  0.3051  0.4201
 1925SOL    HW117411   1.035   0.316   3.771 -1.1937 -0.1409  1.7954
 1925SOL    HW217412   0.926   0.224   3.765 -0.2166  1.5202  0.1032
 1926SOL     OW17413   0.080   2.467   1.143  0.2675  0.4490 -0.4703
 1926SOL    HW117414   0.073   2.462   1.238  1.3119  1.4812 -0.3453
 1926SOL    HW217415   0.017   2.538   1.128  1.2014  0.6565 -3.4474
 1927SOL     OW17416   2.118   0.921   8.625  0.5818  1.0363 -0.4152
 1927SOL    HW117417   2.023   0.912   8.615  0.9675 -1.5163 -1.5949
 1927SOL    HW217418   2.138   1.015   8.617  1.3187  1.0716  1.7782
 1928SOL     OW17419   1.006   3.828  16.519 -0.0063 -0.0177  0.7067
 1928SOL    HW117420   1.065   3.860  16.587  1.5294  0.8679 -1.0491
 1928SOL    HW217421   1.079   3.788  16.472 -0.7612  0.1761 -0.6374
 1929SOL     OW17422   3.675   4.116   3.170 -0.4295 -0.0647 -0.4135
 1929SOL    HW117423   3.605   4.081   3.115 -1.4592 -0.8436  1.4208
 1929SOL    HW217424   3.626   4.126   3.251  2.2222  1.8769  0.9439
 1930SOL     OW17425   2.706   2.424   5.308 -0.4101  0.3830  0.3717
 1930SOL    HW117426   2.764   2.354   5.277  0.1696  1.3232 -0.6394
 1930SOL    HW217427   2.732   2.434   5.400  1.7872 -0.7220 -0.1140
 1931SOL     OW17428   2.371   3.525  14.393  0.2772 -0.0105  0.2466
 1931SOL    HW117429   2.328   3.447  14.430 -1.1069  0.3567 -0.5814
 1931SOL    HW217430   2.358   3.600  14.451 -1.5812  0.5218 -0.8469
 1932SOL     OW17431   2.147   2.414   9.357  0.1860 -0.6454  0.1855
 1932SOL    HW117432   2.075   2.469   9.326 -0.1181 -1.4180 -0.4691
 1932SOL    HW217433   2.214   2.482   9.343  1.5732 -1.7177  1.5733
 1933SOL     OW17434   2.505   1.992   0.297  0.1039 -0.0854 -0.6147
 1933SOL    HW117435   2.449   2.033   0.231 -1.0332  0.1604  0.4915
 1933SOL    HW217436   2.470   1.902   0.295  0.6739 -0.3602  2.4583
 1934SOL     OW17437   3.599   1.409   6.274  0.5055 -0.2803  0.0984
 1934SOL    HW117438   3.641   1.466   6.339  3.1454  0.3521 -2.1391
 1934SOL    HW217439   3.530   1.372   6.329  1.2373 -0.0630  1.1680
 1935SOL     OW17440   0.598   4.471   1.703  0.0995 -0.1098 -0.1248
 1935SOL    HW117441   0.574   4.559   1.674  0.4132  0.1278  0.3332
 1935SOL    HW217442   0.675   4.500   1.752 -0.9354  1.4006  0.6172
 1936SOL     OW17443   4.156   3.301   0.238  0.7104 -0.0936  0.0774
 1936SOL    HW117444   4.083   3.267   0.186  1.3813  0.4506 -1.2088
 1936SOL    HW217445   4.214   3.322   0.165  0.7287 -1.9798 -0.4604
 1937SOL     OW17446   3.706   2.821   9.538  0.3366 -0.0793 -0.6029
 1937SOL    HW117447   3.694   2.728   9.555  0.0299 -0.1964 -1.4655
 1937SOL    HW217448   3.797   2.835   9.564 -0.0244  0.5889  0.3137
 1938SOL     OW17449   2.306   4.646   8.569  0.4444 -0.6853  0.2407
 1938SOL    HW117450   2.218   4.622   8.601  0.5735 -1.3138  0.1378
 1938SOL    HW217451   2.353   4.563   8.574  1.1742 -0.3042 -0.4387
 1939SOL     OW17452   4.704   2.513  11.399  0.1611  0.2465  0.7289
 1939SOL    HW117453   0.018   2.535  11.321 -0.7028  0.5830  0.2627
 1939SOL    HW217454   0.028   2.481  11.466  0.2626  0.0576  0.5503
 1940SOL     OW17455   3.256   0.688   7.932 -0.3228 -0.2793 -0.4674
 1940SOL    HW117456   3.232   0.615   7.874  0.9441 -0.2746 -0.9919
 1940SOL    HW217457   3.217   0.678   8.019 -1.2064 -3.4176 -1.2026
 1941SOL     OW17458   1.149   0.384   3.494  0.3192  0.5767  0.4030
 1941SOL    HW117459   1.185   0.444   3.560  2.5322  1.5174 -1.6623
 1941SOL    HW217460   1.088   0.337   3.551 -0.5219  1.8173  0.5109
 1942SOL     OW17461   4.206   0.222   2.801  0.4068  0.3867 -0.3399
 1942SOL    HW117462   4.259   0.148   2.830 -1.1677  0.0884  1.8319
 1942SOL    HW217463   4.121   0.206   2.842  1.2030 -2.1342  0.3086
 1943SOL     OW17464   2.022   3.528   8.584 -0.6371 -0.3180 -0.1157
 1943SOL    HW117465   2.067   3.565   8.509 -0.0024 -2.1220 -0.6164
 1943SOL    HW217466   1.931   3.555   8.566 -1.1817 -1.0757  1.5247
 1944SOL     OW17467   3.316   3.186   8.471 -0.7809  0.0463  0.2271
 1944SOL    HW117468   3.366   3.107   8.451 -0.5842  0.4874 -1.0300
 1944SOL    HW217469   3.224   3.168   8.451 -0.3324 -0.0958 -1.7511
 1945SOL     OW17470   2.800   0.577   4.714  0.4693  0.1610 -0.0846
 1945SOL    HW117471   2.773   0.666   4.733 -2.2194 -0.4634 -0.9434
 1945SOL    HW217472   2.712   0.539   4.708  0.4378  0.3234 -0.6824
 1946SOL     OW17473   4.087   4.325  12.523  0.0603  0.3590 -0.3871
 1946SOL    HW117474   4.044   4.246  12.555  2.5604 -2.0884 -3.0893
 1946SOL    HW217475   4.143   4.352  12.596 -0.2395 -0.1574  0.0325
 1947SOL     OW17476   4.666   3.580   2.859 -0.2140 -0.2943 -0.0943
 1947SOL    HW117477   4.605   3.531   2.805  0.8115 -1.2948 -0.3246
 1947SOL    HW217478   4.733   3.512   2.861 -0.7484 -0.8348 -0.9005
 1948SOL     OW17479   2.113   4.023   8.226 -0.6400  0.1212 -0.4667
 1948SOL    HW117480   2.174   3.991   8.160 -1.9552 -2.5457 -0.3685
 1948SOL    HW217481   2.136   3.979   8.308  1.4505 -1.9264 -2.1986
 1949SOL     OW17482   3.386   4.332  17.100  0.1246  0.0969 -0.4219
 1949SOL    HW117483   3.455   4.393  17.076 -0.3741  1.8822  2.6818
 1949SOL    HW217484   3.320   4.359  17.036 -0.3260  0.7962  0.3472
 1950SOL     OW17485   4.111   2.821   5.601 -0.3227  0.3762  0.3016
 1950SOL    HW117486   4.203   2.795   5.611  0.6473  3.0110 -1.8659
 1950SOL    HW217487   4.076   2.733   5.586  2.6045 -1.0917  2.0250
 1951SOL     OW17488   4.616   0.858  16.954 -0.0417 -0.3607  0.1102
 1951SOL    HW117489   4.632   0.882  17.045 -2.3080  0.3141  0.3291
 1951SOL    HW217490   4.593   0.945  16.921  1.8049 -0.9079 -2.6648
 1952SOL     OW17491   3.689   3.439  13.169  0.4419 -0.8322 -0.3364
 1952SOL    HW117492   3.689   3.526  13.129  0.2965 -0.0395  1.4412
 1952SOL    HW217493   3.671   3.466  13.258  1.3861  0.6600 -0.5921
 1953SOL     OW17494   1.578   3.171   7.405 -0.1580  0.3344 -0.0674
 1953SOL    HW117495   1.575   3.122   7.487  1.7901  1.4317  0.6354
 1953SOL    HW217496   1.669   3.195   7.392 -0.2662  0.4201 -0.6622
 1954SOL     OW17497   1.739   1.980   3.414 -0.4232 -0.1119 -0.1047
 1954SOL    HW117498   1.666   1.928   3.449  0.3965 -0.1058  1.5874
 1954SOL    HW217499   1.699   2.066   3.405  0.4267  0.4434  1.5801
 1955SOL     OW17500   3.586   2.003   4.498  0.2360  0.0710 -0.1243
 1955SOL    HW117501   3.620   1.921   4.462  1.1206 -0.2747  1.4906
 1955SOL    HW217502   3.499   1.994   4.459  0.5464  0.5462 -0.9314
 1956SOL     OW17503   2.294   3.985   7.146 -0.3895 -0.6126 -0.1286
 1956SOL    HW117504   2.349   3.956   7.219  0.9059  1.5603 -0.2562
 1956SOL    HW217505   2.232   3.912   7.152 -0.6405 -0.4926 -1.2358
 1957SOL     OW17506   0.835   0.258   1.951 -0.1195  0.3073  0.0015
 1957SOL    HW117507   0.776   0.279   2.023 -0.8192  0.0268 -0.4944
 1957SOL    HW217508   0.880   0.342   1.936 -0.3811  0.5059  0.3377
 1958SOL     OW17509   0.413   1.458   6.850  0.0128 -0.8227  0.1495
 1958SOL    HW117510   0.411   1.385   6.787 -1.9883  0.1589 -0.9437
 1958SOL    HW217511   0.469   1.433   6.923 -0.7855 -0.6314  0.8253
 1959SOL     OW17512   3.537   3.489  11.916 -0.2848  0.0497 -0.2022
 1959SOL    HW117513   3.474   3.559  11.935 -2.6467 -2.3484  0.8659
 1959SOL    HW217514   3.615   3.514  11.966  0.3274 -0.7083 -0.7785
 1960SOL     OW17515   1.532   3.929   3.784  0.3633  0.3666 -0.4558
 1960SOL    HW117516   1.610   3.906   3.834  0.2052  0.1120 -0.3258
 1960SOL    HW217517   1.566   3.949   3.696 -0.0055  3.1120  0.0093
 1961SOL     OW17518   0.033   1.597   8.657  0.5853 -0.5069  0.0372
 1961SOL    HW117519   4.713   1.532   8.699 -1.2477 -0.7354 -2.8038
 1961SOL    HW217520   0.063   1.559   8.575  3.4266 -0.1570  0.9250
 1962SOL     OW17521   4.183   3.598  12.520 -0.4601  0.0849 -0.2011
 1962SOL    HW117522   4.195   3.662  12.590  0.8173 -1.3009  0.8729
 1962SOL    HW217523   4.266   3.604  12.472 -0.5149  0.2996 -0.2644
 1963SOL     OW17524   3.051   2.223   2.101  0.1008  0.2216  0.0643
 1963SOL    HW117525   3.112   2.268   2.044  2.7013  0.2350  2.8667
 1963SOL    HW217526   2.971   2.246   2.054  0.6183  2.0400  0.0946
 1964SOL     OW17527   2.564   0.925   8.481 -0.0013 -0.0470  0.1956
 1964SOL    HW117528   2.483   0.897   8.525  0.2334  0.1592  0.7579
 1964SOL    HW217529   2.539   0.937   8.389 -0.4942 -0.2683  0.2988
 1965SOL     OW17530   2.722   1.227   1.738 -0.1773 -0.3407 -0.1937
 1965SOL    HW117531   2.775   1.202   1.814 -1.8881 -0.7392  0.8844
 1965SOL    HW217532   2.743   1.321   1.736 -1.1783 -0.1350 -0.9522
 1966SOL     OW17533   2.390   3.316  16.939  0.8471 -0.2117  0.1128
 1966SOL    HW117534   2.337   3.248  16.896  2.4694 -0.2230 -1.8814
 1966SOL    HW217535   2.473   3.288  16.900 -0.0222 -2.2641 -0.2866
 1967SOL     OW17536   2.347   2.380   2.976 -0.7984 -0.0343  0.6384
 1967SOL    HW117537   2.370   2.470   2.995  0.1033  0.6178 -3.4654
 1967SOL    HW217538   2.312   2.391   2.888 -1.1917 -0.0237  0.7967
 1968SOL     OW17539   3.116   1.787  16.519  0.1808  0.3624  0.5129
 1968SOL    HW117540   3.197   1.789  16.467 -0.3618 -0.9201 -0.3678
 1968SOL    HW217541   3.054   1.847  16.478  0.3389 -0.7430 -1.3284
 1969SOL     OW17542   2.083   0.453   1.862  0.2369  0.3190  0.5354
 1969SOL    HW117543   2.040   0.375   1.899 -0.3546  1.0396  1.3617
 1969SOL    HW217544   2.021   0.520   1.890  1.5733  1.1889  1.3611
 1970SOL     OW17545   0.655   4.498   3.353  0.8396 -0.1069 -0.0217
 1970SOL    HW117546   0.726   4.437   3.376 -0.0003 -0.9440  0.3489
 1970SOL    HW217547   0.625   4.522   3.440  2.9225  0.8582  0.4249
 1971SOL     OW17548   0.968   4.393   6.295  0.0839  0.6672  0.0576
 1971SOL    HW117549   0.931   4.404   6.383  0.0325 -0.6334  0.1947
 1971SOL    HW217550   1.021   4.473   6.298 -0.9704  1.4239 -1.4115
 1972SOL     OW17551   2.733   0.156   2.308  0.3922 -0.0628 -0.0834
 1972SOL    HW117552   2.808   0.128   2.361  0.8803  2.2837  0.4399
 1972SOL    HW217553   2.665   0.171   2.374 -0.6814  1.5363 -1.5712
 1973SOL     OW17554   1.672   2.823   6.590  0.0024  0.0479 -0.5801
 1973SOL    HW117555   1.683   2.728   6.586  0.6354  0.1296 -0.7162
 1973SOL    HW217556   1.589   2.841   6.545 -0.4212 -2.8414 -0.9457
 1974SOL     OW17557   4.075   3.458   5.214  0.3542 -0.1920 -0.5490
 1974SOL    HW117558   4.032   3.515   5.278  2.9919  2.3500 -0.9950
 1974SOL    HW217559   4.151   3.515   5.202 -0.5130  1.0776  0.0100
 1975SOL     OW17560   3.538   3.485   4.739  0.0429 -0.4527  0.1487
 1975SOL    HW117561   3.567   3.570   4.773  0.9190 -1.0039  0.7900
 1975SOL    HW217562   3.542   3.502   4.645  1.1708  0.4222  0.3571
 1976SOL     OW17563   3.396   0.258   0.929  0.4357  0.0987  0.1315
 1976SOL    HW117564   3.425   0.169   0.949  0.9143  0.0814 -0.6529
 1976SOL    HW217565   3.427   0.307   1.005  0.0056  1.4610 -0.5841
 1977SOL     OW17566   1.027   0.828   3.380 -0.3142 -0.0912 -0.0848
 1977SOL    HW117567   1.002   0.742   3.347 -0.1362 -0.4110  0.6189
 1977SOL    HW217568   1.100   0.854   3.324 -0.2647  1.3904  0.6728
 1978SOL     OW17569   1.575   2.692   2.416 -0.0861 -0.5381  0.5086
 1978SOL    HW117570   1.655   2.728   2.379  0.0782 -3.0729 -1.6408
 1978SOL    HW217571   1.584   2.600   2.390 -1.3468 -0.6359  0.3904
 1979SOL     OW17572   3.729   1.175   5.170 -0.3938  0.3978 -0.3150
 1979SOL    HW117573   3.775   1.124   5.103 -1.0515  2.4869 -2.3278
 1979SOL    HW217574   3.775   1.257   5.156  0.7063  0.1508  1.7992
 1980SOL     OW17575   1.084   2.363  15.846  0.4826 -0.4321 -0.2154
 1980SOL    HW117576   0.996   2.336  15.821  0.2921 -0.2271  0.2254
 1980SOL    HW217577   1.145   2.299  15.809  1.5008 -0.1864  1.0186
 1981SOL     OW17578   2.251   3.915   0.481  1.0406 -0.1368 -0.6216
 1981SOL    HW117579   2.281   3.917   0.390 -2.8142 -2.5110 -1.9364
 1981SOL    HW217580   2.323   3.968   0.515  0.0183  0.5292  0.4655
 1982SOL     OW17581   4.669   0.215   4.023  0.4003  0.4190 -0.3444
 1982SOL    HW117582   4.598   0.160   3.989  1.4273 -0.9907 -0.1875
 1982SOL    HW217583   4.634   0.289   4.072 -1.4578 -1.9304  1.8486
 1983SOL     OW17584   3.343   0.099   5.460  0.0853 -0.9147 -0.1118
 1983SOL    HW117585   3.344   0.189   5.493 -1.5264 -0.6779 -0.7192
 1983SOL    HW217586   3.413   0.067   5.518 -1.6241 -2.3498  1.1592
 1984SOL     OW17587   1.814   3.376   9.217  0.3401 -0.2730  0.1396
 1984SOL    HW117588   1.868   3.364   9.139  0.2520 -2.3512  0.3883
 1984SOL    HW217589   1.823   3.466   9.248 -0.5118 -0.3201  0.5320
 1985SOL     OW17590   0.726   0.485   7.700  0.1649 -0.3253  1.0798
 1985SOL    HW117591   0.639   0.525   7.693 -0.3834 -1.7358 -0.3873
 1985SOL    HW217592   0.710   0.419   7.632 -1.4150 -0.6167  1.7293
 1986SOL     OW17593   3.812   1.390  12.369 -0.1669 -0.5695  0.0681
 1986SOL    HW117594   3.803   1.437  12.286 -0.8147 -4.3479 -2.0313
 1986SOL    HW217595   3.813   1.305  12.324  2.7999  0.8297 -2.5707
 1987SOL     OW17596   4.166   2.041  17.615 -0.4742 -0.3965 -0.0410
 1987SOL    HW117597   4.226   2.106  17.652  0.1415 -0.0427 -1.6748
 1987SOL    HW217598   4.159   2.071  17.524 -1.2588 -0.8847 -0.1415
 1988SOL     OW17599   3.498   0.665  15.513  0.5527 -0.7422 -0.2303
 1988SOL    HW117600   3.478   0.705  15.597 -0.1057  0.0695 -0.7738
 1988SOL    HW217601   3.593   0.652  15.517  0.6601  0.1350  0.0455
 1989SOL     OW17602   1.231   0.354   7.881  0.0010  0.3372  0.0239
 1989SOL    HW117603   1.136   0.354   7.868 -0.1177 -0.2672  0.9247
 1989SOL    HW217604   1.250   0.448   7.882 -0.3738  0.3970  0.9791
 1990SOL     OW17605   1.255   2.605  13.523 -0.9044 -0.5662  0.0219
 1990SOL    HW117606   1.319   2.670  13.552  1.1232 -1.7285 -1.8310
 1990SOL    HW217607   1.196   2.607  13.598 -0.8807 -1.0415  0.0553
 1991SOL     OW17608   3.251   1.075  10.620 -0.2403 -0.2629 -0.3045
 1991SOL    HW117609   3.205   1.112  10.695  4.8053  3.3347  1.0363
 1991SOL    HW217610   3.268   0.989  10.657  2.9982  0.5087  0.0763
 1992SOL     OW17611   2.070   2.127   7.000  0.0411  0.3164 -0.2915
 1992SOL    HW117612   2.125   2.204   7.013 -1.0094  0.5238  3.1375
 1992SOL    HW217613   2.051   2.137   6.907 -1.1392 -1.9459 -0.3163
 1993SOL     OW17614   3.733   3.299   1.876 -0.1594  0.2024 -0.1650
 1993SOL    HW117615   3.790   3.376   1.873  0.8735 -0.5397  0.5161
 1993SOL    HW217616   3.798   3.229   1.883 -0.6751 -0.5465 -3.1767
 1994SOL     OW17617   0.898   2.395   4.708  0.4072  0.0812 -0.0557
 1994SOL    HW117618   0.963   2.325   4.711 -1.8057 -2.0891 -2.1279
 1994SOL    HW217619   0.853   2.388   4.792  0.9214 -0.1162  0.2044
 1995SOL     OW17620   2.233   1.651   6.397 -0.5589  0.2911 -0.4485
 1995SOL    HW117621   2.138   1.650   6.387 -0.6811 -2.9543  1.1972
 1995SOL    HW217622   2.259   1.701   6.320  1.4284  2.2396  1.4690
 1996SOL     OW17623   1.848   3.596  14.851 -0.3483 -0.0376  0.0406
 1996SOL    HW117624   1.804   3.599  14.936  0.3164 -2.9221  0.5096
 1996SOL    HW217625   1.941   3.599  14.874 -0.6105  1.7424  0.8711
 1997SOL     OW17626   1.545   3.323   5.594 -0.4176  0.5138 -0.0186
 1997SOL    HW117627   1.610   3.362   5.652 -0.2111 -0.7954  0.6351
 1997SOL    HW217628   1.464   3.333   5.644 -1.5010 -0.4385 -1.5546
 1998SOL     OW17629   2.271   3.524   1.066 -0.2677 -0.0706  0.0694
 1998SOL    HW117630   2.341   3.566   1.116  0.5419 -0.9848 -0.2920
 1998SOL    HW217631   2.272   3.442   1.116  0.6811  0.7119  1.3362
 1999SOL     OW17632   2.219   2.099   7.307 -0.1608 -0.0335  0.9228
 1999SOL    HW117633   2.290   2.077   7.247 -0.2291  0.9939  0.4677
 1999SOL    HW217634   2.191   2.184   7.273 -1.0403 -0.2324  1.1390
 2000SOL     OW17635   0.973   4.527   3.491 -0.2176 -0.1267  0.1310
 2000SOL    HW117636   0.941   4.615   3.510  1.0870  0.6123 -1.0950
 2000SOL    HW217637   1.050   4.526   3.548 -0.3866 -3.0276  0.3348
 2001SOL     OW17638   2.764   0.531  16.239  0.0349  0.5488 -0.3405
 2001SOL    HW117639   2.752   0.473  16.164  1.6180 -0.2148 -0.0177
 2001SOL    HW217640   2.718   0.611  16.215 -0.7172  0.2682  0.1655
 2002SOL     OW17641   0.214   0.303   8.654 -0.4273 -0.5142 -0.0858
 2002SOL    HW117642   0.227   0.390   8.692 -0.2150 -0.6728  0.2021
 2002SOL    HW217643   0.274   0.253   8.708  1.3949  1.2049 -0.5053
 2003SOL     OW17644   1.537   3.369   9.405 -0.0795  0.0537  0.0116
 2003SOL    HW117645   1.568   3.368   9.496  1.8573 -0.8798 -0.6677
 2003SOL    HW217646   1.577   3.447   9.367  0.6674 -1.2370 -1.8579
 2004SOL     OW17647   1.074   0.797   3.645 -0.1929 -0.0051  0.3393
 2004SOL    HW117648   1.062   0.823   3.553  2.0781 -0.9283 -0.2247
 2004SOL    HW217649   0.982   0.778   3.664 -0.7816  1.7093 -0.8032
 2005SOL     OW17650   2.972   3.831   4.825 -0.0395  0.1022 -0.6234
 2005SOL    HW117651   3.065   3.849   4.840  0.0091 -2.0466  1.5979
 2005SOL    HW217652   2.943   3.859   4.912  1.0262  1.7103 -0.7705
 2006SOL     OW17653   4.462   2.341   1.461 -0.0814 -0.0300  0.2076
 2006SOL    HW117654   4.542   2.307   1.502  0.6520  1.9656  0.4853
 2006SOL    HW217655   4.449   2.402   1.534  0.0558  1.6536 -1.1663
 2007SOL     OW17656   1.027   0.391  12.777  0.0884 -0.0972  0.4653
 2007SOL    HW117657   0.985   0.320  12.826  0.9330 -0.2202  1.0158
 2007SOL    HW217658   0.997   0.466  12.828 -0.4252  1.0500 -1.5597
 2008SOL     OW17659   4.485   2.884   8.923 -0.7045  0.2409  1.0546
 2008SOL    HW117660   4.513   2.976   8.921  2.2634 -0.6309  1.5519
 2008SOL    HW217661   4.564   2.840   8.891 -1.5642 -2.2343  2.3654
 2009SOL     OW17662   4.172   0.067  17.473 -0.0525 -0.1742 -0.1324
 2009SOL    HW117663   4.219   0.007  17.531 -0.5169  0.4899  0.9259
 2009SOL    HW217664   4.100   0.019  17.434  0.7217 -1.2836 -0.1755
 2010SOL     OW17665   3.156   3.397   8.045  0.3094 -0.2507  0.4150
 2010SOL    HW117666   3.195   3.313   8.070 -2.5284 -2.0369 -1.1859
 2010SOL    HW217667   3.080   3.373   7.993 -0.7474  1.1597  1.3240
 2011SOL     OW17668   1.773   2.005   0.442 -0.5305 -0.0146 -0.5749
 2011SOL    HW117669   1.775   2.099   0.426 -1.7574  0.1935  0.4724
 2011SOL    HW217670   1.719   1.968   0.372  0.9598 -0.5782 -1.4181
 2012SOL     OW17671   2.826   3.698   3.718  0.1170 -0.5136  0.4245
 2012SOL    HW117672   2.793   3.680   3.806 -0.3163 -0.4761  0.2726
 2012SOL    HW217673   2.795   3.621   3.670 -1.2234 -0.0516  0.5573
 2013SOL     OW17674   4.346   3.903   2.200  0.4562 -0.5515 -0.1599
 2013SOL    HW117675   4.390   3.833   2.248 -1.2220 -1.2281  0.3606
 2013SOL    HW217676   4.265   3.856   2.179  0.1066  0.0937 -0.2496
 2014SOL     OW17677   0.514   1.637   8.104  0.0472 -0.4439  0.0097
 2014SOL    HW117678   0.544   1.728   8.094 -0.6694 -0.2867 -0.6792
 2014SOL    HW217679   0.504   1.611   8.012  1.1996  1.7356 -0.7576
 2015SOL     OW17680   4.551   2.841   9.881  0.4512  0.4380 -0.4413
 2015SOL    HW117681   4.570   2.773   9.816  1.1609 -1.1076  1.3590
 2015SOL    HW217682   4.531   2.791   9.961  1.8436  1.0698  0.3037
 2016SOL     OW17683   3.151   3.540   3.603  0.1698 -0.4264 -0.1894
 2016SOL    HW117684   3.125   3.593   3.678 -1.8830 -0.8819 -0.5735
 2016SOL    HW217685   3.241   3.573   3.597 -0.0474  0.3201  0.6438
 2017SOL     OW17686   1.946   2.636   9.348 -0.4355  0.0364  0.0922
 2017SOL    HW117687   1.962   2.730   9.358  0.4154  0.0227 -1.0534
 2017SOL    HW217688   1.860   2.628   9.307 -1.2958 -0.0563  1.9243
 2018SOL     OW17689   4.226   3.850   3.047 -0.3562  0.0123  0.1773
 2018SOL    HW117690   4.162   3.895   3.103  0.0912 -0.8457  1.3869
 2018SOL    HW217691   4.192   3.761   3.035  0.5779 -0.0847 -1.6900
 2019SOL     OW17692   4.065   0.959   4.443  0.2523  0.3958  0.3831
 2019SOL    HW117693   4.132   0.996   4.385 -2.9179  2.7509 -1.7934
 2019SOL    HW217694   4.125   0.904   4.492  0.8705 -0.2454 -1.0951
 2020SOL     OW17695   1.174   3.903  14.431  0.1297 -0.2920  0.1578
 2020SOL    HW117696   1.097   3.958  14.420  2.1422  2.4837  0.0066
 2020SOL    HW217697   1.239   3.966  14.402  2.3809 -2.2928  0.8394
 2021SOL     OW17698   2.310   4.711   9.492  0.2068  0.0703  0.7739
 2021SOL    HW117699   2.226   4.669   9.472  1.4834 -1.8086 -0.7342
 2021SOL    HW217700   2.292   0.021   9.573  0.8977 -1.7877  2.0119
 2022SOL     OW17701   3.661   1.410  15.135 -0.4207  0.3248 -0.2921
 2022SOL    HW117702   3.588   1.453  15.180  0.7290  1.1094  0.8232
 2022SOL    HW217703   3.626   1.321  15.123 -1.8752  0.8771 -0.1783
 2023SOL     OW17704   4.526   3.825   6.959  0.0942 -0.2399 -0.2926
 2023SOL    HW117705   4.508   3.796   6.870  3.7973  2.3771 -1.8566
 2023SOL    HW217706   4.567   3.748   7.000  2.1600  1.4167  0.7407
 2024SOL     OW17707   3.385   4.449   6.003  0.3707  0.0560  0.2181
 2024SOL    HW117708   3.424   4.520   6.053 -1.4345  0.5123  0.9756
 2024SOL    HW217709   3.365   4.388   6.075  1.6026 -0.4939  0.0940
 2025SOL     OW17710   4.244   0.287   5.404  0.1632 -0.1546  0.3666
 2025SOL    HW117711   4.309   0.232   5.360  1.9582  0.2778  2.5071
 2025SOL    HW217712   4.211   0.347   5.337 -1.3836 -1.1707  0.2219
 2026SOL     OW17713   0.442   1.653   5.557 -0.4642 -0.0457  0.7217
 2026SOL    HW117714   0.517   1.705   5.587 -0.1037 -0.3980  0.4176
 2026SOL    HW217715   0.404   1.712   5.492  1.1758 -2.1903 -2.1454
 2027SOL     OW17716   3.124   1.154   4.661  0.0396 -0.6655  0.7669
 2027SOL    HW117717   3.168   1.121   4.740 -0.3074 -0.1731  1.1692
 2027SOL    HW217718   3.034   1.139   4.690  0.1889  1.7493  2.4776
 2028SOL     OW17719   2.520   2.568   3.695  0.0249 -0.2757 -0.0071
 2028SOL    HW117720   2.517   2.656   3.656 -2.3651 -1.3078 -2.1249
 2028SOL    HW217721   2.607   2.562   3.736  0.0681 -0.2775 -0.0992
 2029SOL     OW17722   1.454   1.753   7.434 -0.0613 -0.9159 -0.3438
 2029SOL    HW117723   1.374   1.775   7.482  0.3024  0.3994 -0.3586
 2029SOL    HW217724   1.442   1.817   7.364  0.4117 -0.7548 -0.2747
 2030SOL     OW17725   2.631   0.380  11.822  0.1657  0.2081 -0.8971
 2030SOL    HW117726   2.698   0.327  11.865  0.2438 -2.0779 -3.8581
 2030SOL    HW217727   2.659   0.468  11.847  0.9026  0.3689 -2.2601
 2031SOL     OW17728   3.870   0.423  11.115 -0.2038 -0.3377 -0.4289
 2031SOL    HW117729   3.860   0.499  11.172 -0.4181 -0.9794  0.3942
 2031SOL    HW217730   3.953   0.438  11.071  0.4415 -1.7601  0.3097
 2032SOL     OW17731   3.508   3.196   2.046 -0.1151  0.2861  0.2067
 2032SOL    HW117732   3.450   3.204   1.970  1.8510  0.8370 -1.2626
 2032SOL    HW217733   3.587   3.240   2.015 -0.1598 -0.6351 -1.2405
 2033SOL     OW17734   2.370   0.918  10.325  0.3548 -0.7318  0.3982
 2033SOL    HW117735   2.357   0.824  10.334 -1.1756 -0.5772 -0.2109
 2033SOL    HW217736   2.284   0.932  10.287  0.9434 -0.9013 -1.0011
 2034SOL     OW17737   2.782   4.317   0.317  0.2904  0.6613 -0.1064
 2034SOL    HW117738   2.810   4.400   0.281  1.2532  0.2387 -0.3284
 2034SOL    HW217739   2.766   4.266   0.238  0.0793 -0.7662  0.8396
 2035SOL     OW17740   3.513   1.005   6.776 -0.3797 -0.3312 -0.2927
 2035SOL    HW117741   3.598   1.046   6.790 -0.1921 -0.9706  0.4683
 2035SOL    HW217742   3.473   1.007   6.863 -0.2082  1.6094 -0.2705
 2036SOL     OW17743   1.621   1.776  13.887 -0.3180 -0.1682  0.6061
 2036SOL    HW117744   1.536   1.748  13.853  0.5339 -1.8855 -0.1014
 2036SOL    HW217745   1.587   1.798  13.975  1.4558  1.5301  0.8692
 2037SOL     OW17746   1.234   4.240   8.520  0.0849 -0.2887 -0.5564
 2037SOL    HW117747   1.269   4.163   8.475  0.6325 -0.3921  0.0609
 2037SOL    HW217748   1.224   4.205   8.608 -1.0673 -1.7859 -1.2853
 2038SOL     OW17749   0.644   0.930   3.801  0.2470 -0.7300  0.3847
 2038SOL    HW117750   0.691   0.853   3.769 -0.4410 -1.2468  0.6010
 2038SOL    HW217751   0.630   0.978   3.719  1.8853 -1.6157 -0.4112
 2039SOL     OW17752   0.217   2.695   9.149 -0.5790 -0.1792 -0.3879
 2039SOL    HW117753   0.270   2.755   9.096  1.5432 -0.9851  0.7969
 2039SOL    HW217754   0.229   2.608   9.113  2.4475 -0.0843  0.3286
 2040SOL     OW17755   2.986   0.763  17.577 -0.5137  0.0198  0.2844
 2040SOL    HW117756   3.044   0.691  17.553 -0.3606 -0.3042  1.6288
 2040SOL    HW217757   2.904   0.721  17.549 -0.2560 -1.7080  2.0839
 2041SOL     OW17758   2.950   1.723   8.185 -0.1710  0.6255  0.2297
 2041SOL    HW117759   2.859   1.706   8.209  0.3317  0.9040  2.3644
 2041SOL    HW217760   3.001   1.656   8.230 -0.3000  0.1943 -0.2707
 2042SOL     OW17761   1.955   1.403  10.452  0.0541  0.3340  0.3414
 2042SOL    HW117762   1.942   1.310  10.434 -1.5695  0.0362  3.0725
 2042SOL    HW217763   2.013   1.403  10.528 -0.5879  2.8622  0.8162
 2043SOL     OW17764   0.367   0.576  16.687  0.3420 -0.4160 -0.4299
 2043SOL    HW117765   0.409   0.607  16.768 -3.3913  0.6128  1.0882
 2043SOL    HW217766   0.417   0.499  16.660  0.1371 -0.8719  0.4820
 2044SOL     OW17767   1.153   3.149  11.491 -0.0933 -0.4945 -0.2251
 2044SOL    HW117768   1.128   3.200  11.568 -0.4319  0.3789 -0.9032
 2044SOL    HW217769   1.113   3.204  11.423 -0.7721 -1.2920 -0.4668
 2045SOL     OW17770   3.465   2.881  10.063 -0.4315 -0.5500  0.1279
 2045SOL    HW117771   3.462   2.912   9.972  0.6215 -1.9910 -0.3950
 2045SOL    HW217772   3.535   2.940  10.091 -0.8090  0.4556 -1.0063
 2046SOL     OW17773   3.478   2.043  12.133  0.1206  0.2109  0.0233
 2046SOL    HW117774   3.484   1.987  12.056 -2.4089  1.3123 -1.0089
 2046SOL    HW217775   3.423   2.113  12.097  0.5448  0.3282 -0.4021
 2047SOL     OW17776   0.076   0.563   6.012 -0.2196  0.0825  0.2185
 2047SOL    HW117777   0.055   0.656   6.021 -2.7118 -0.3000 -1.6129
 2047SOL    HW217778   0.076   0.540   6.105 -2.1430  2.9012  0.9320
 2048SOL     OW17779   2.567   1.430  14.205 -0.1351 -0.0164 -0.2805
 2048SOL    HW117780   2.626   1.486  14.154 -1.4376  1.5642 -0.0593
 2048SOL    HW217781   2.480   1.452  14.172  0.0081 -0.9556 -1.3024
 2049SOL     OW17782   2.747   2.158   2.939 -0.5212 -0.0130 -0.0624
 2049SOL    HW117783   2.727   2.129   2.850 -1.4554 -3.0113  1.1318
 2049SOL    HW217784   2.677   2.120   2.992 -0.4414 -2.1372 -1.4607
 2050SOL     OW17785   3.221   1.948   6.336 -0.0220  0.3249 -0.0177
 2050SOL    HW117786   3.185   1.859   6.331  0.6192 -0.0659  2.5721
 2050SOL    HW217787   3.314   1.940   6.358  0.2907 -0.0933 -1.4628
 2051SOL     OW17788   0.163   1.649   9.065 -0.0673 -0.1879  0.5289
 2051SOL    HW117789   0.138   1.638   9.156 -0.2095 -1.0248  0.3874
 2051SOL    HW217790   0.252   1.685   9.071 -0.1782 -0.1962  2.2251
 2052SOL     OW17791   1.679   4.105   4.245  0.2247 -0.0974 -0.3678
 2052SOL    HW117792   1.705   4.169   4.312 -0.3891  0.2496 -0.4608
 2052SOL    HW217793   1.750   4.114   4.182  0.9872  0.1655  0.5331
 2053SOL     OW17794   4.361   3.082   1.582  0.1943 -0.2818  0.0392
 2053SOL    HW117795   4.308   3.160   1.567  1.8845  0.8541  0.0297
 2053SOL    HW217796   4.445   3.123   1.602  1.0569 -1.2842 -1.5907
 2054SOL     OW17797   0.268   2.853   3.027  0.2853 -0.0666 -0.0605
 2054SOL    HW117798   0.236   2.801   3.101 -1.3070 -0.2112 -0.8497
 2054SOL    HW217799   0.353   2.870   3.069 -0.9844  0.6374  2.2586
 2055SOL     OW17800   0.245   2.895   0.967 -0.7747  0.1866 -0.0877
 2055SOL    HW117801   0.150   2.901   0.956 -0.8382  1.2043  0.9545
 2055SOL    HW217802   0.245   2.812   1.015  1.4098 -0.9985 -2.1651
 2056SOL     OW17803   3.996   2.415   7.558  0.1263  0.3418  0.2846
 2056SOL    HW117804   4.045   2.471   7.497 -2.1667 -1.2962 -3.0233
 2056SOL    HW217805   4.073   2.368   7.590  0.7951  2.1230  1.3443
 2057SOL     OW17806   0.488   3.448  13.856 -0.2877 -0.2530 -0.2088
 2057SOL    HW117807   0.465   3.448  13.949  0.9751  3.4086  0.1073
 2057SOL    HW217808   0.424   3.514  13.830 -0.3493 -0.4051 -0.4423
 2058SOL     OW17809   1.432   4.336   4.200  0.0730  0.1629  0.1382
 2058SOL    HW117810   1.463   4.286   4.125  0.3784  0.4517  0.0696
 2058SOL    HW217811   1.505   4.396   4.216 -1.0955  1.5617  0.2021
 2059SOL     OW17812   0.106   2.391   4.460 -0.1153  0.1208 -0.1635
 2059SOL    HW117813   0.186   2.437   4.435  0.4606 -1.4560 -1.2098
 2059SOL    HW217814   0.046   2.465   4.455 -0.2078  0.2433  2.5736
 2060SOL     OW17815   1.333   4.021   8.441 -0.8764  0.6661 -0.5435
 2060SOL    HW117816   1.351   3.986   8.353  0.8435 -2.1341  0.9121
 2060SOL    HW217817   1.422   4.034   8.473 -0.5092  0.7533 -1.5783
 2061SOL     OW17818   1.647   3.788   4.229 -0.2745 -0.4109  0.1680
 2061SOL    HW117819   1.738   3.819   4.222 -1.0039  2.0557  1.8174
 2061SOL    HW217820   1.630   3.789   4.135 -0.8824  3.2368  0.3389
 2062SOL     OW17821   4.134   1.722   4.295  0.0535  0.0602 -0.1004
 2062SOL    HW117822   4.099   1.800   4.337  2.5923  0.1047  1.9065
 2062SOL    HW217823   4.192   1.765   4.232  0.8527 -1.7633 -0.6195
 2063SOL     OW17824   0.356   2.409   6.190 -0.3768 -0.1912  0.0754
 2063SOL    HW117825   0.317   2.462   6.260 -2.8843 -0.7184 -0.9307
 2063SOL    HW217826   0.304   2.329   6.188  0.4813 -0.7673  0.7269
 2064SOL     OW17827   1.794   2.021   3.739  0.5227  0.2702  0.3330
 2064SOL    HW117828   1.759   1.957   3.802  1.8827 -0.6194  0.1885
 2064SOL    HW217829   1.742   2.007   3.659 -1.7341  1.1994  1.6265
 2065SOL     OW17830   4.407   4.679   9.064 -0.5638 -0.1058  0.0603
 2065SOL    HW117831   4.478   0.005   9.080  1.6933 -2.2408 -1.7603
 2065SOL    HW217832   4.446   4.603   9.022 -0.6802 -0.3145  0.3314
 2066SOL     OW17833   4.062   2.129  11.294  0.7797 -0.1701 -0.3033
 2066SOL    HW117834   3.984   2.099  11.248 -0.6552  1.7182  0.8963
 2066SOL    HW217835   4.035   2.130  11.386 -0.1619 -2.0739 -0.5706
 2067SOL     OW17836   3.796   4.033   1.913  0.8118 -0.1063 -0.3465
 2067SOL    HW117837   3.859   4.045   1.842 -0.4077  1.3311 -1.1640
 2067SOL    HW217838   3.804   4.118   1.955  0.2248  0.1395 -0.7428
 2068SOL     OW17839   3.086   2.321   1.030 -0.2346 -0.2790 -0.0533
 2068SOL    HW117840   3.115   2.277   0.950  1.2893  2.7243 -1.1261
 2068SOL    HW217841   3.166   2.367   1.058  0.2865 -1.4333  0.3568
 2069SOL     OW17842   4.651   2.308   1.660  0.2470  0.3426  0.2827
 2069SOL    HW117843   4.581   2.354   1.707 -0.0824  1.8117 -1.6362
 2069SOL    HW217844   4.729   2.321   1.713 -0.1442  1.2362  0.6390
 2070SOL     OW17845   1.420   0.268   3.601 -0.0481 -0.0511  0.1648
 2070SOL    HW117846   1.383   0.183   3.625  0.2910  0.2299  1.6938
 2070SOL    HW217847   1.463   0.250   3.517 -0.6752 -1.2360  0.0995
 2071SOL     OW17848   2.461   3.409   8.845  0.2398 -0.0243 -0.5133
 2071SOL    HW117849   2.440   3.463   8.768 -0.6454 -0.3525 -0.4986
 2071SOL    HW217850   2.419   3.461   8.913  0.3464  2.1720 -2.1329
 2072SOL     OW17851   0.453   3.092   2.500 -0.0941 -0.5061  0.1274
 2072SOL    HW117852   0.541   3.123   2.482  0.7505 -2.8098  0.2706
 2072SOL    HW217853   0.437   3.029   2.430 -1.5183 -1.2027  1.0812
 2073SOL     OW17854   4.244   1.215   1.354  0.1615 -0.1279 -0.1503
 2073SOL    HW117855   4.183   1.257   1.414 -0.8938 -0.3202 -1.0766
 2073SOL    HW217856   4.260   1.285   1.290 -1.0872  1.4147  1.2443
 2074SOL     OW17857   0.923   2.947   2.873  0.5507 -0.4837  0.1636
 2074SOL    HW117858   0.905   2.894   2.951  0.1423 -0.1737  0.2817
 2074SOL    HW217859   1.003   2.907   2.838  0.5384 -1.3880  1.1512
 2075SOL     OW17860   3.115   1.286   5.660 -0.1828 -0.3057  0.0695
 2075SOL    HW117861   3.053   1.213   5.654  1.0210 -1.2525 -0.9801
 2075SOL    HW217862   3.108   1.301   5.754  1.6812 -0.9153  0.2990
 2076SOL     OW17863   1.847   2.021   0.059 -0.1604 -0.5170  0.5627
 2076SOL    HW117864   1.808   2.035   0.145  1.3844  0.9935  0.9991
 2076SOL    HW217865   1.930   1.984   0.089  0.0941 -0.1274  0.3358
 2077SOL     OW17866   0.129   1.818   2.278  0.4645  0.3423 -0.4802
 2077SOL    HW117867   0.204   1.761   2.260  0.5637  0.3780 -0.1924
 2077SOL    HW217868   0.087   1.817   2.193  2.9200  0.7480 -1.6964
 2078SOL     OW17869   3.138   4.669   2.939  0.3348  0.0231  0.7701
 2078SOL    HW117870   3.216   4.664   2.883 -0.2345  0.5583 -0.0817
 2078SOL    HW217871   3.171   0.005   2.993  1.7265  0.6257 -0.8804
 2079SOL     OW17872   3.564   0.925   5.957  0.1546  0.1385  0.1028
 2079SOL    HW117873   3.538   1.016   5.969  0.0828  0.2468 -0.8457
 2079SOL    HW217874   3.487   0.897   5.907  0.0849  0.3892  0.0712
 2080SOL     OW17875   1.928   3.666  16.633 -0.3959  0.9360 -0.1050
 2080SOL    HW117876   1.883   3.582  16.636  0.5216  0.5063  1.1507
 2080SOL    HW217877   1.862   3.712  16.686 -0.6838 -2.1451  2.1789
 2081SOL     OW17878   2.659   1.435   7.547  0.2871  0.2018 -0.0409
 2081SOL    HW117879   2.661   1.340   7.538 -1.0402  0.1517  0.1637
 2081SOL    HW217880   2.566   1.450   7.564  0.4430 -0.4328  1.3392
 2082SOL     OW17881   2.824   2.432   7.435  0.7585 -1.1023 -0.7296
 2082SOL    HW117882   2.868   2.437   7.520  0.4210  4.3529 -0.8324
 2082SOL    HW217883   2.887   2.478   7.378  1.4998 -2.8472 -1.3097
 2083SOL     OW17884   3.511   3.376   5.602 -0.0091 -0.4694 -0.3000
 2083SOL    HW117885   3.601   3.357   5.627 -0.3018  0.5096  1.5430
 2083SOL    HW217886   3.465   3.297   5.629 -0.2526 -0.3222 -0.2795
 2084SOL     OW17887   1.990   2.965   6.900 -0.0460 -0.7701  0.5571
 2084SOL    HW117888   1.974   2.871   6.894  1.0489 -0.9849  0.9243
 2084SOL    HW217889   1.931   3.000   6.833  3.0873 -0.0042 -1.7991
 2085SOL     OW17890   2.673   2.487   5.815  0.1443 -0.0745  0.2673
 2085SOL    HW117891   2.751   2.462   5.864  0.6009 -0.9369 -0.9182
 2085SOL    HW217892   2.619   2.531   5.881 -0.0462  0.4617 -0.2508
 2086SOL     OW17893   2.450   1.677   6.533  0.1675 -0.2753 -0.5771
 2086SOL    HW117894   2.486   1.744   6.474 -2.3667  1.2335 -0.4069
 2086SOL    HW217895   2.383   1.648   6.471  0.9621 -2.4539 -0.3863
 2087SOL     OW17896   3.065   3.652   8.167 -0.5653 -0.2005 -0.6912
 2087SOL    HW117897   3.033   3.597   8.239  1.5956  0.2146  0.5787
 2087SOL    HW217898   3.129   3.594   8.126  0.2021 -0.4864  0.9104
 2088SOL     OW17899   3.073   1.975   8.192  0.3424 -0.1203  0.0219
 2088SOL    HW117900   3.018   1.901   8.164  1.7279 -0.6927 -1.2202
 2088SOL    HW217901   3.039   2.012   8.273  0.3659 -0.3099  0.1196
 2089SOL     OW17902   0.708   3.069   8.246 -0.3270  0.3869 -0.6242
 2089SOL    HW117903   0.621   3.095   8.215 -0.7597  0.9211  0.9943
 2089SOL    HW217904   0.759   3.125   8.188 -0.0917 -0.5253 -1.2843
 2090SOL     OW17905   1.699   4.010   4.802 -0.4235  0.3251  0.3577
 2090SOL    HW117906   1.704   3.915   4.795  3.3617  0.7218 -1.9971
 2090SOL    HW217907   1.743   4.036   4.882  0.1090 -0.5375  0.3444
 2091SOL     OW17908   2.260   2.711  14.507  0.1896  0.7604  0.0874
 2091SOL    HW117909   2.356   2.712  14.498  0.3103 -2.0021  1.1599
 2091SOL    HW217910   2.247   2.755  14.591  2.4788  0.3227  0.6655
 2092SOL     OW17911   1.482   1.299   4.173 -0.0655  0.3834 -0.1485
 2092SOL    HW117912   1.501   1.205   4.182  0.9761  0.1462 -4.7556
 2092SOL    HW217913   1.411   1.300   4.108  0.1908  0.8388 -0.4267
 2093SOL     OW17914   3.277   2.941   9.377 -0.2379 -0.0696 -0.5552
 2093SOL    HW117915   3.302   2.881   9.447 -0.0765 -0.7694 -1.2135
 2093SOL    HW217916   3.264   2.878   9.306 -0.8654  0.7019 -1.1182
 2094SOL     OW17917   0.320   0.593   2.485  0.0955  0.1421 -0.6251
 2094SOL    HW117918   0.342   0.665   2.545 -1.6625 -0.4339  0.7096
 2094SOL    HW217919   0.278   0.651   2.421 -3.6605 -0.5288  1.2187
 2095SOL     OW17920   0.474   1.289  12.780 -0.0384  0.4016 -0.2818
 2095SOL    HW117921   0.424   1.315  12.857  0.0089 -1.6232  0.4243
 2095SOL    HW217922   0.420   1.234  12.723 -1.2776  2.6506 -1.2690
 2096SOL     OW17923   2.935   4.275  17.044 -0.3931 -0.3888 -0.0150
 2096SOL    HW117924   2.941   4.224  16.963 -0.9981 -1.0713  0.3667
 2096SOL    HW217925   3.003   4.241  17.102  0.7175  0.2828 -0.9327
 2097SOL     OW17926   3.248   2.666   1.205 -1.0667 -0.3936  0.1131
 2097SOL    HW117927   3.275   2.686   1.295 -0.4269 -0.5548 -0.0396
 2097SOL    HW217928   3.160   2.702   1.212 -1.4402 -0.9338 -1.8929
 2098SOL     OW17929   4.603   2.671  16.978 -0.2850 -0.1647 -0.0534
 2098SOL    HW117930   4.647   2.648  16.896  0.1915 -1.2917  0.5139
 2098SOL    HW217931   4.572   2.585  17.005 -0.0200  0.3711  1.9507
 2099SOL     OW17932   4.508   4.475   8.925 -0.5201 -0.0363  0.1723
 2099SOL    HW117933   4.579   4.514   8.874 -0.0590  0.1674  0.9683
 2099SOL    HW217934   4.472   4.410   8.865  0.3375  0.2308 -0.6208
 2100SOL     OW17935   0.541   3.360   5.510  0.1200  0.3876  0.3319
 2100SOL    HW117936   0.557   3.278   5.557  1.7242  0.3302 -0.3272
 2100SOL    HW217937   0.572   3.422   5.577  1.1839  0.6295 -0.3909
 2101SOL     OW17938   2.028   0.659  14.275 -0.1289  0.0985 -0.3684
 2101SOL    HW117939   2.068   0.746  14.275 -1.1794  0.5824 -1.7698
 2101SOL    HW217940   2.026   0.642  14.181 -0.7851 -2.3262  0.0841
 2102SOL     OW17941   3.828   4.010   2.842  0.1754 -0.3149 -0.2704
 2102SOL    HW117942   3.796   3.936   2.791 -2.2459 -0.0884  0.8891
 2102SOL    HW217943   3.915   3.982   2.868  0.4044  1.4328  0.8397
 2103SOL     OW17944   2.326   1.746   6.157 -0.5760  0.3609  0.1188
 2103SOL    HW117945   2.268   1.800   6.103  0.7859  1.7212 -0.0061
 2103SOL    HW217946   2.407   1.778   6.118 -1.2097  2.0884  0.1891
 2104SOL     OW17947   3.124   1.841  12.357  0.0342  0.3382  0.6160
 2104SOL    HW117948   3.078   1.894  12.292  0.9628  0.5368  0.1276
 2104SOL    HW217949   3.184   1.798  12.296 -0.2853 -2.3615  2.1816
 2105SOL     OW17950   1.897   2.811   3.218  0.0444 -0.4093 -0.0096
 2105SOL    HW117951   1.921   2.888   3.167  0.6034  0.1644  1.1372
 2105SOL    HW217952   1.981   2.794   3.262  0.3954 -1.6960 -1.1374
 2106SOL     OW17953   2.474   2.886   1.200 -0.0799  0.1225 -0.2717
 2106SOL    HW117954   2.558   2.866   1.241  0.0199  1.5458  0.2411
 2106SOL    HW217955   2.434   2.949   1.261  0.0166 -0.0390 -0.0405
 2107SOL     OW17956   1.533   4.226   4.557  0.4593  0.1094  0.4099
 2107SOL    HW117957   1.482   4.192   4.630  0.4035 -0.1408  0.2546
 2107SOL    HW217958   1.611   4.262   4.600  1.0846 -2.1717  1.1982
 2108SOL     OW17959   0.256   2.625   8.622  0.6393 -0.4803 -0.0827
 2108SOL    HW117960   0.165   2.603   8.637 -0.0881  2.3856 -0.2362
 2108SOL    HW217961   0.293   2.538   8.637  0.4881 -0.3658  0.9135
 2109SOL     OW17962   1.545   4.251   8.538  0.2574 -0.0102  0.2339
 2109SOL    HW117963   1.540   4.346   8.537 -0.7739 -0.0603  1.3765
 2109SOL    HW217964   1.513   4.233   8.626  0.7482 -0.7537  0.2633
 2110SOL     OW17965   1.140   4.415   3.037 -0.2497 -0.5008 -0.0947
 2110SOL    HW117966   1.145   4.358   3.113 -2.3573  1.2732  1.3467
 2110SOL    HW217967   1.055   4.393   2.999 -1.4031  0.2242  2.0882
 2111SOL     OW17968   4.280   0.312   9.028  0.0846 -0.1882 -0.1530
 2111SOL    HW117969   4.276   0.256   8.950 -1.1934  0.0289 -0.2398
 2111SOL    HW217970   4.303   0.241   9.088  0.6275 -0.0461 -0.1929
 2112SOL     OW17971   2.629   2.734   3.122  0.2701 -0.1447 -0.0255
 2112SOL    HW117972   2.613   2.828   3.113  3.0673  0.2011 -1.2978
 2112SOL    HW217973   2.720   2.732   3.095 -0.1233 -0.7881 -1.3026
 2113SOL     OW17974   1.638   1.321  15.867  0.4730 -0.2988  0.3388
 2113SOL    HW117975   1.690   1.392  15.903  1.8637 -1.2461  0.2028
 2113SOL    HW217976   1.563   1.368  15.830  0.5683  0.4594  1.1144
 2114SOL     OW17977   0.531   0.026   8.596  0.3201  0.0743  0.0084
 2114SOL    HW117978   0.539   0.086   8.670 -0.2537 -0.9567  0.9237
 2114SOL    HW217979   0.553   0.089   8.528  0.6069 -0.7300 -0.6453
 2115SOL     OW17980   0.769   4.063   2.820  0.2330  0.3193  0.1692
 2115SOL    HW117981   0.727   4.137   2.776 -3.4992 -1.8639  0.1141
 2115SOL    HW217982   0.702   4.029   2.880  1.2156  0.4962  1.3783
 2116SOL     OW17983   4.377   4.506  12.166 -0.1534  0.5874  0.7337
 2116SOL    HW117984   4.348   4.546  12.248  0.5082  1.7445  0.4016
 2116SOL    HW217985   4.468   4.484  12.184 -1.4742 -2.7187  3.3972
 2117SOL     OW17986   2.544   3.959   6.069 -0.3881 -0.1047 -0.4419
 2117SOL    HW117987   2.565   4.047   6.100  0.7714 -0.9779  1.2095
 2117SOL    HW217988   2.613   3.894   6.075  1.3403  1.7851  0.0772
 2118SOL     OW17989   2.686   1.061   2.349  0.3392 -0.0905 -0.0427
 2118SOL    HW117990   2.617   1.001   2.321  1.0959 -1.3630  0.8428
 2118SOL    HW217991   2.709   1.021   2.433  0.7547 -1.1154 -0.6424
 2119SOL     OW17992   2.718   3.069   3.583  0.1212 -0.4731 -0.3361
 2119SOL    HW117993   2.760   3.067   3.497  0.7846  0.6447 -0.0426
 2119SOL    HW217994   2.789   3.062   3.648 -2.0203 -0.4018  2.0022
 2120SOL     OW17995   4.408   2.655   7.113  0.1655  0.2838  0.1180
 2120SOL    HW117996   4.382   2.564   7.126  0.8040 -0.0557 -1.0009
 2120SOL    HW217997   4.329   2.709   7.108 -0.4788 -0.5176  2.0588
 2121SOL     OW17998   4.124   3.492  10.588 -0.2550 -0.1008  0.0967
 2121SOL    HW117999   4.086   3.515  10.673  0.3194 -0.2737  0.4041
 2121SOL    HW218000   4.218   3.480  10.602  0.1452  0.5360 -2.0345
 2122SOL     OW18001   1.060   0.562   4.341  0.3873 -0.4928 -0.3343
 2122SOL    HW118002   1.099   0.576   4.427 -1.3645 -0.6462  0.4793
 2122SOL    HW218003   1.019   0.647   4.324 -0.6975 -1.1024 -0.7498
 2123SOL     OW18004   2.647   4.344   6.483 -0.1884 -0.0817 -0.3225
 2123SOL    HW118005   2.723   4.292   6.507 -0.5692  0.7528  2.6472
 2123SOL    HW218006   2.574   4.283   6.493 -0.4114 -0.2515 -3.0079
 2124SOL     OW18007   3.381   3.525   7.469  0.0524  0.2858  0.0567
 2124SOL    HW118008   3.296   3.539   7.427 -0.5191  2.3135  1.8530
 2124SOL    HW218009   3.349   3.482   7.549  1.4410 -0.3447  0.2747
 2125SOL     OW18010   1.052   4.385   2.104  0.5024  0.0027 -0.3011
 2125SOL    HW118011   1.038   4.458   2.165  1.8343  0.0653 -0.0635
 2125SOL    HW218012   1.084   4.322   2.169 -0.9246  0.0795  0.4673
 2126SOL     OW18013   4.564   0.608  15.222  0.6378 -0.4184 -0.3958
 2126SOL    HW118014   4.493   0.628  15.283  2.5911  2.5854  0.9207
 2126SOL    HW218015   4.550   0.674  15.154 -0.0843  2.0070  2.0793
 2127SOL     OW18016   2.328   3.061  14.843 -0.1340  0.1411  0.1201
 2127SOL    HW118017   2.394   3.035  14.779 -2.1821 -1.4709 -1.3374
 2127SOL    HW218018   2.349   2.999  14.912  3.7154 -0.2669 -1.4399
 2128SOL     OW18019   3.218   2.400  13.736 -0.5197  0.8250  0.0950
 2128SOL    HW118020   3.156   2.450  13.683 -1.0770 -0.0483 -0.0814
 2128SOL    HW218021   3.166   2.377  13.814 -0.7518  0.8855 -0.0430
 2129SOL     OW18022   2.280   3.095   8.042 -0.5276  0.1436 -0.2951
 2129SOL    HW118023   2.334   3.016   8.043  0.4727  0.8112 -1.2495
 2129SOL    HW218024   2.339   3.156   7.998 -0.0600 -1.0281 -1.2943
 2130SOL     OW18025   2.470   2.318   1.511  0.4482 -0.4020 -0.0479
 2130SOL    HW118026   2.537   2.318   1.579 -0.1512 -1.3757  0.5376
 2130SOL    HW218027   2.395   2.349   1.561  1.2329  0.7194  0.4535
 2131SOL     OW18028   2.478   0.562   5.811  0.0017  0.0750 -0.0974
 2131SOL    HW118029   2.427   0.496   5.858 -0.2755 -0.0575 -0.5830
 2131SOL    HW218030   2.504   0.624   5.880  0.7826 -0.0048 -0.3272
 2132SOL     OW18031   0.141   0.474   0.009 -0.0638 -0.0344 -0.0267
 2132SOL    HW118032   0.048   0.491  17.740  0.1739 -0.7973 -2.4815
 2132SOL    HW218033   0.181   0.542  17.700 -1.4375 -0.2549 -1.3107
 2133SOL     OW18034   3.601   3.994  10.137 -0.0851  0.0090  0.2292
 2133SOL    HW118035   3.574   3.957  10.220 -0.0860 -1.0445 -0.2443
 2133SOL    HW218036   3.661   4.065  10.161  2.5976 -3.0882  2.7449
 2134SOL     OW18037   0.518   3.920   7.630  0.1833 -0.4999 -0.4228
 2134SOL    HW118038   0.454   3.903   7.700  2.9262  0.4844  2.3225
 2134SOL    HW218039   0.578   3.975   7.680 -1.0542  2.9177 -2.7459
 2135SOL     OW18040   3.778   1.939  14.450  0.0582 -0.5700 -0.6079
 2135SOL    HW118041   3.850   1.879  14.436 -0.9271 -1.7723 -0.5165
 2135SOL    HW218042   3.724   1.910  14.376  0.8459 -2.1541 -0.5572
 2136SOL     OW18043   1.013   3.819   8.956  0.7398 -0.1689 -0.3560
 2136SOL    HW118044   0.954   3.892   8.937 -0.9676 -1.5929 -0.4377
 2136SOL    HW218045   1.066   3.809   8.877  0.1966 -0.9423 -0.6128
 2137SOL     OW18046   0.780   0.210   2.371 -0.4442 -0.5888  0.1019
 2137SOL    HW118047   0.776   0.227   2.465  1.7128  0.6714 -0.0510
 2137SOL    HW218048   0.749   0.120   2.357  0.3006 -1.1054  1.7302
 2138SOL     OW18049   2.518   0.517   8.647  0.0899  0.4323 -0.2151
 2138SOL    HW118050   2.425   0.525   8.626 -0.2311 -1.1280  0.5826
 2138SOL    HW218051   2.530   0.423   8.632  0.3189  0.5845 -1.0076
 2139SOL     OW18052   3.480   1.651   3.696 -0.0243 -0.5781  0.2685
 2139SOL    HW118053   3.459   1.744   3.694  2.1030 -0.1167 -1.0572
 2139SOL    HW218054   3.555   1.655   3.756  0.4404 -0.5848 -0.3073
 2140SOL     OW18055   4.309   3.382   4.563  0.3744  0.8584  0.4040
 2140SOL    HW118056   4.352   3.300   4.585  0.7076  0.6115 -1.1865
 2140SOL    HW218057   4.382   3.441   4.547  0.6945  0.0184 -1.1889
 2141SOL     OW18058   1.317   4.551   2.408  0.3163 -0.6558  0.2651
 2141SOL    HW118059   1.253   4.506   2.463  0.0528 -1.0256 -0.3480
 2141SOL    HW218060   1.300   4.643   2.428  0.6257 -0.3448 -0.9247
 2142SOL     OW18061   0.710   3.818  16.679 -0.1089  0.2918 -0.2813
 2142SOL    HW118062   0.646   3.887  16.697 -2.8239 -1.9360 -1.3559
 2142SOL    HW218063   0.724   3.782  16.766 -0.0656  2.2976  0.5570
 2143SOL     OW18064   2.742   2.968  11.489  0.3119 -0.4175  0.0495
 2143SOL    HW118065   2.767   2.963  11.581 -1.1795  1.4889  0.5456
 2143SOL    HW218066   2.767   3.059  11.474 -1.2428  0.2691  1.6548
 2144SOL     OW18067   0.008   3.268  14.413 -0.3263 -0.4792  0.3616
 2144SOL    HW118068   4.663   3.315  14.426 -1.0453 -1.6764  0.2160
 2144SOL    HW218069   0.065   3.339  14.384  0.3115 -1.2122 -0.2201
 2145SOL     OW18070   2.120   1.365   5.432  0.2548  0.1618  0.6683
 2145SOL    HW118071   2.099   1.272   5.420 -0.8145  0.5997 -0.8822
 2145SOL    HW218072   2.038   1.405   5.402 -0.7019 -0.1806  2.7451
 2146SOL     OW18073   3.574   2.430   1.123  0.1543 -0.0408 -0.2798
 2146SOL    HW118074   3.507   2.489   1.087 -0.5804 -0.2363  0.7809
 2146SOL    HW218075   3.629   2.405   1.048  1.8992 -2.4024  1.7902
 2147SOL     OW18076   0.390   3.886   0.073 -0.1866 -0.5472  0.2768
 2147SOL    HW118077   0.298   3.868   0.056 -0.3902 -0.3958  1.2025
 2147SOL    HW218078   0.434   3.838   0.003  1.4812  1.4101 -0.0321
 2148SOL     OW18079   1.578   4.142  15.457 -0.3424 -0.2200 -0.0749
 2148SOL    HW118080   1.514   4.107  15.518 -0.3750 -0.1487 -0.0678
 2148SOL    HW218081   1.577   4.236  15.474 -0.5922 -0.0833 -0.8193
 2149SOL     OW18082   1.652   3.903   3.508  0.2431 -0.4572 -0.5534
 2149SOL    HW118083   1.671   3.899   3.414  0.2363 -0.7234 -0.5446
 2149SOL    HW218084   1.599   3.824   3.518 -0.5457 -0.1520 -2.3029
 2150SOL     OW18085   4.566   1.362  12.424  0.5425  0.0161 -0.6304
 2150SOL    HW118086   4.607   1.407  12.349  1.4575  0.1513 -0.0493
 2150SOL    HW218087   4.625   1.287  12.434  0.9278  0.3684 -0.2623
 2151SOL     OW18088   0.853   2.339   3.548  0.6014  0.2332  0.4852
 2151SOL    HW118089   0.772   2.386   3.527  1.1982  1.5192  1.0524
 2151SOL    HW218090   0.915   2.412   3.551 -0.9356  1.5362  0.5360
 2152SOL     OW18091   1.343   1.169   9.416 -0.2541  0.0947  1.2171
 2152SOL    HW118092   1.380   1.255   9.432  0.9213 -0.6091  2.2878
 2152SOL    HW218093   1.413   1.107   9.436 -1.1385 -1.9341 -1.7806
 2153SOL     OW18094   0.429   3.327   1.250 -0.6763 -0.3581  0.6149
 2153SOL    HW118095   0.487   3.380   1.304 -1.3419  2.5187 -1.4923
 2153SOL    HW218096   0.428   3.387   1.176  0.2057 -1.4614 -0.2912
 2154SOL     OW18097   3.375   3.348   4.146 -0.6797  0.4552 -0.1484
 2154SOL    HW118098   3.459   3.316   4.114 -1.4273 -0.3800 -1.2533
 2154SOL    HW218099   3.331   3.384   4.069 -0.8772 -0.2802 -0.3716
 2155SOL     OW18100   4.150   1.773   7.002  0.3596  0.3601 -0.1602
 2155SOL    HW118101   4.063   1.796   6.969 -0.3906  0.6079  1.9482
 2155SOL    HW218102   4.176   1.708   6.938  0.4505  1.2811 -1.0608
 2156SOL     OW18103   1.342   4.471   8.597 -0.5665  0.4672 -0.8065
 2156SOL    HW118104   1.281   4.398   8.584 -0.4113 -0.1050  1.8427
 2156SOL    HW218105   1.310   4.531   8.529 -1.1556 -1.2525 -2.0496
 2157SOL     OW18106   1.403   0.918   1.591 -0.5148  0.2471 -0.6485
 2157SOL    HW118107   1.337   0.879   1.533 -0.2440 -1.5300  0.2323
 2157SOL    HW218108   1.361   0.995   1.630 -0.0581 -1.0497  2.4377
 2158SOL     OW18109   3.941   4.417   7.320 -0.5608 -0.0906 -0.6192
 2158SOL    HW118110   3.856   4.451   7.291  0.3405  2.2514 -0.5573
 2158SOL    HW218111   4.001   4.461   7.259 -1.2179  2.0741  0.3100
 2159SOL     OW18112   2.273   3.515   7.415  0.2325  0.2290  0.0648
 2159SOL    HW118113   2.282   3.458   7.491  0.0897 -0.0197 -0.1013
 2159SOL    HW218114   2.354   3.514   7.363  0.4907  1.1982  0.4633
 2160SOL     OW18115   3.819   3.712  16.347  0.2082 -0.1467 -0.2980
 2160SOL    HW118116   3.913   3.690  16.354 -0.0777 -0.8794  1.2835
 2160SOL    HW218117   3.824   3.783  16.411  1.1387  0.5268 -1.1172
 2161SOL     OW18118   0.248   3.145  11.431  0.6878  0.3945 -0.2161
 2161SOL    HW118119   0.268   3.094  11.353 -1.2145  2.3900 -2.0196
 2161SOL    HW218120   0.192   3.087  11.482  0.9384  0.4626  0.1402
 2162SOL     OW18121   1.902   2.141   7.368 -0.6478 -0.4512 -0.0510
 2162SOL    HW118122   1.912   2.075   7.299  0.9571  0.3931 -0.6202
 2162SOL    HW218123   1.939   2.097   7.445 -1.4350  0.8334  1.0621
 2163SOL     OW18124   2.754   3.444   2.101 -0.3275 -0.0314  0.1909
 2163SOL    HW118125   2.804   3.512   2.056 -1.4822  1.0571  0.5563
 2163SOL    HW218126   2.796   3.465   2.185 -1.8190  2.9565  0.1725
 2164SOL     OW18127   3.861   3.350  17.172  0.4588  0.6370  0.0614
 2164SOL    HW118128   3.803   3.340  17.096  0.0965 -0.5120  0.4820
 2164SOL    HW218129   3.946   3.321  17.141  1.2664  2.3466  0.6965
 2165SOL     OW18130   0.167   0.031   6.349 -0.0000 -0.5870  0.5885
 2165SOL    HW118131   0.187   4.679   6.381  1.8068 -0.1985  0.5426
 2165SOL    HW218132   0.071   0.031   6.353 -0.0551  2.4265 -0.9744
 2166SOL     OW18133   2.230   0.537  10.069 -0.3372 -0.2375 -0.6022
 2166SOL    HW118134   2.270   0.536  10.156 -1.0607 -0.1982 -0.2699
 2166SOL    HW218135   2.299   0.563  10.008 -1.2359 -2.0802 -2.3749
 2167SOL     OW18136   1.241   1.472  13.818 -0.0950  0.7725  0.1694
 2167SOL    HW118137   1.281   1.549  13.778 -1.3141  0.1330 -2.3109
 2167SOL    HW218138   1.266   1.411  13.748  1.5313  1.4725  0.1259
 2168SOL     OW18139   3.988   0.190  16.125 -0.6300  0.2418 -0.2408
 2168SOL    HW118140   3.939   0.145  16.193  0.4226  0.7721  0.8765
 2168SOL    HW218141   4.074   0.195  16.168 -0.9639 -1.5749  0.6354
 2169SOL     OW18142   0.559   0.405   2.818  0.1903 -0.4037  0.4778
 2169SOL    HW118143   0.534   0.422   2.727 -0.1438 -1.0664  0.4440
 2169SOL    HW218144   0.471   0.385   2.849  0.2262 -0.9891  0.2075
 2170SOL     OW18145   3.319   2.224   4.197 -0.7026  0.5936  0.0296
 2170SOL    HW118146   3.243   2.281   4.190 -0.9730 -0.0552 -2.1172
 2170SOL    HW218147   3.360   2.258   4.276 -3.5931  1.5565  1.1381
 2171SOL     OW18148   4.642   4.681   2.116  0.0528  0.0742 -0.1922
 2171SOL    HW118149   4.549   4.660   2.116  0.0409  0.1265 -0.7250
 2171SOL    HW218150   4.687   4.596   2.111 -1.7540 -1.0527  2.8710
 2172SOL     OW18151   3.082   2.529  13.533 -0.1206  0.4473 -0.3323
 2172SOL    HW118152   3.011   2.469  13.508 -0.1447 -0.7903  2.6756
 2172SOL    HW218153   3.112   2.566  13.450 -1.0142  1.8305 -0.0348
 2173SOL     OW18154   3.455   1.877   6.661 -0.0060 -0.0916 -0.3130
 2173SOL    HW118155   3.398   1.826   6.719  1.9783  0.1766  1.9090
 2173SOL    HW218156   3.512   1.929   6.718 -2.0171  3.1616 -1.2601
 2174SOL     OW18157   2.045   4.212   7.227  0.6597 -0.9976 -0.0939
 2174SOL    HW118158   2.079   4.178   7.310  1.2714 -1.3485 -0.4979
 2174SOL    HW218159   2.115   4.273   7.204 -1.4190  1.5841  0.3316
 2175SOL     OW18160   2.400   2.287   8.812 -0.9480  0.0127 -0.3273
 2175SOL    HW118161   2.380   2.265   8.903 -2.3911  2.1491 -0.1181
 2175SOL    HW218162   2.445   2.371   8.818  0.4119 -0.7979  0.6289
 2176SOL     OW18163   1.898   1.612   1.053  0.2378 -0.2395 -0.4833
 2176SOL    HW118164   1.850   1.577   1.128 -0.9456  1.3614 -0.5042
 2176SOL    HW218165   1.849   1.577   0.979  0.0694  1.3971 -1.1471
 2177SOL     OW18166   4.444   4.320  10.703  0.3320  0.3790  0.0652
 2177SOL    HW118167   4.394   4.399  10.681  0.1328  0.2191 -0.0477
 2177SOL    HW218168   4.369   4.262  10.708  2.6631 -2.6221  0.1793
 2178SOL     OW18169   3.778   1.283   3.664  0.3967 -0.4330  0.3766
 2178SOL    HW118170   3.699   1.234   3.685  2.5056 -2.7108  3.0287
 2178SOL    HW218171   3.740   1.323   3.586  0.8148  0.8899  0.8532
 2179SOL     OW18172   2.137   3.217   0.717 -0.2621  0.5686  0.4489
 2179SOL    HW118173   2.151   3.303   0.759  1.7825  0.3540  0.2056
 2179SOL    HW218174   2.221   3.172   0.724  0.1617  0.8608 -2.7643
 2180SOL     OW18175   0.631   0.006   2.225 -0.3321  0.5404 -0.2390
 2180SOL    HW118176   0.637   4.654   2.259  1.4496  0.5625 -0.4988
 2180SOL    HW218177   0.596   4.727   2.137  1.1842  1.0406 -0.9352
 2181SOL     OW18178   3.600   3.074   2.303 -0.1508  0.3813  0.0991
 2181SOL    HW118179   3.512   3.049   2.333 -0.0570  0.2076  0.2248
 2181SOL    HW218180   3.582   3.062   2.209  2.1516 -2.3657  0.0232
 2182SOL     OW18181   4.053   1.832   3.155 -0.1016  0.3200  0.3473
 2182SOL    HW118182   4.097   1.917   3.162  0.3899  0.0828  0.1004
 2182SOL    HW218183   4.078   1.798   3.241  0.6348 -1.3268 -0.5247
 2183SOL     OW18184   3.004   1.064  13.327  0.0445 -0.4265 -0.7369
 2183SOL    HW118185   3.075   1.064  13.263  0.6196  3.2402 -0.1111
 2183SOL    HW218186   3.046   1.057  13.412 -0.4371  1.1025 -0.3762
 2184SOL     OW18187   2.263   1.631   0.454 -0.0450  0.2299  0.6446
 2184SOL    HW118188   2.310   1.552   0.481  2.7691  0.9226 -2.2644
 2184SOL    HW218189   2.278   1.687   0.531  0.4303  0.2117  0.5689
 2185SOL     OW18190   2.179   1.550   6.739 -0.1902  0.1586 -0.3391
 2185SOL    HW118191   2.120   1.475   6.736 -0.6562  0.4405  1.5370
 2185SOL    HW218192   2.219   1.541   6.652  1.7784 -0.5628  0.6321
 2186SOL     OW18193   3.401   2.664   6.829  0.0789 -0.5928  0.4605
 2186SOL    HW118194   3.314   2.654   6.791  0.5185  0.5581 -0.8708
 2186SOL    HW218195   3.398   2.593   6.892 -0.3861 -0.7803  0.2284
 2187SOL     OW18196   3.778   0.408  16.022  0.3128  0.0097  0.4076
 2187SOL    HW118197   3.851   0.351  16.044 -0.7069 -1.4621 -0.0163
 2187SOL    HW218198   3.733   0.362  15.951  1.6778  0.1089 -0.5374
 2188SOL     OW18199   3.808   2.647   1.230 -0.0719 -0.2222 -0.0029
 2188SOL    HW118200   3.791   2.692   1.147 -1.7554 -1.4946 -0.3642
 2188SOL    HW218201   3.734   2.586   1.230  0.1452 -0.4835  0.1765
 2189SOL     OW18202   1.845   3.261  14.952  0.1776  0.0996 -0.2949
 2189SOL    HW118203   1.869   3.299  15.037  1.0161 -0.2927 -0.3543
 2189SOL    HW218204   1.836   3.167  14.966  1.1274  0.1252  0.5016
 2190SOL     OW18205   4.215   2.485   5.202  0.5924  0.0662 -0.2378
 2190SOL    HW118206   4.199   2.391   5.210 -0.2909  0.2583  0.2112
 2190SOL    HW218207   4.141   2.513   5.148 -0.3068 -0.6275  0.6424
 2191SOL     OW18208   1.381   3.700   4.606 -0.4127 -0.7077  0.1863
 2191SOL    HW118209   1.351   3.610   4.590  0.7776 -1.1893  0.6073
 2191SOL    HW218210   1.460   3.699   4.551  0.0795  1.3092  0.8467
 2192SOL     OW18211   1.663   1.653   6.138  0.2579 -0.0779  0.3288
 2192SOL    HW118212   1.644   1.643   6.232 -2.1801 -1.4627 -0.3148
 2192SOL    HW218213   1.732   1.590   6.118 -0.0131  0.3647 -2.0151
 2193SOL     OW18214   2.739   3.784   1.290 -0.1353  0.4354 -0.1544
 2193SOL    HW118215   2.784   3.806   1.372  0.4894 -0.4925 -0.2483
 2193SOL    HW218216   2.803   3.828   1.234 -1.0029  2.0063  0.0862
 2194SOL     OW18217   3.094   4.482   5.989  0.1722 -0.7316  0.0288
 2194SOL    HW118218   3.159   4.416   5.963  0.4152 -1.3517  2.2030
 2194SOL    HW218219   3.008   4.440   5.984  0.4555 -1.1846 -1.0775
 2195SOL     OW18220   1.614   1.345   2.182  0.3666 -0.3388  0.2365
 2195SOL    HW118221   1.686   1.402   2.206 -0.5012  0.3421  1.2042
 2195SOL    HW218222   1.640   1.260   2.219  1.3831 -0.5036 -0.8537
 2196SOL     OW18223   4.609   2.636   7.816 -0.3211  0.0382 -0.5189
 2196SOL    HW118224   4.650   2.683   7.744 -1.5383 -1.8529 -2.4474
 2196SOL    HW218225   4.607   2.709   7.878  3.2666  0.1217 -0.5452
 2197SOL     OW18226   0.557   1.557  10.386 -0.6073  0.7446 -0.2241
 2197SOL    HW118227   0.622   1.618  10.351  0.2017 -0.0307 -0.0688
 2197SOL    HW218228   0.604   1.477  10.410 -0.9969  0.6082  0.0684
 2198SOL     OW18229   1.657   3.387   4.899  0.1054 -0.0174  0.2159
 2198SOL    HW118230   1.740   3.388   4.852  0.7700  4.2809  1.4378
 2198SOL    HW218231   1.618   3.316   4.849  0.5655 -0.4483  0.4637
 2199SOL     OW18232   2.878   4.448   3.254 -0.2697 -0.2632 -0.2804
 2199SOL    HW118233   2.875   4.535   3.295 -1.2997 -0.3637 -0.1400
 2199SOL    HW218234   2.902   4.397   3.332  0.0837  1.4765  0.7561
 2200SOL     OW18235   3.414   1.399   3.428  0.3340  0.0607  0.6522
 2200SOL    HW118236   3.406   1.329   3.363  1.8411 -0.6796  1.2456
 2200SOL    HW218237   3.482   1.457   3.394 -0.8611  1.0943  0.0401
 2201SOL     OW18238   2.384   2.265   0.451  0.1584  0.0773  0.6309
 2201SOL    HW118239   2.329   2.191   0.426 -0.1062  0.8733 -1.1354
 2201SOL    HW218240   2.322   2.301   0.515 -1.8612 -0.1556 -1.1830
 2202SOL     OW18241   3.104   3.375   4.317  0.4974  0.1134  0.3945
 2202SOL    HW118242   3.053   3.295   4.331 -1.2317  1.0276 -0.7558
 2202SOL    HW218243   3.189   3.343   4.346  0.5362  0.1681  0.3397
 2203SOL     OW18244   3.271   1.489  17.677 -0.2720 -0.0807  0.0829
 2203SOL    HW118245   3.239   1.430  17.609  1.9422 -3.8848  2.3735
 2203SOL    HW218246   3.288   1.568  17.625  0.0762 -1.1888 -1.4702
 2204SOL     OW18247   4.645   4.142   4.659  0.2600  0.2218 -0.0493
 2204SOL    HW118248   4.586   4.072   4.686 -0.3717 -0.3188 -2.8309
 2204SOL    HW218249   4.728   4.122   4.701 -0.4840 -0.2727  1.1789
 2205SOL     OW18250   2.547   4.219   3.756 -0.1596  0.2721  0.4294
 2205SOL    HW118251   2.630   4.199   3.714 -0.7256 -0.0118 -0.5577
 2205SOL    HW218252   2.515   4.288   3.698  0.1768  1.6323  1.8579
 2206SOL     OW18253   3.256   0.368  12.420  0.0074 -0.1903  0.1614
 2206SOL    HW118254   3.341   0.379  12.461  0.5138  2.3509 -1.5444
 2206SOL    HW218255   3.268   0.420  12.340 -1.9709 -0.8079 -0.5415
 2207SOL     OW18256   2.081   0.928   4.292 -0.0492  0.3773  0.0584
 2207SOL    HW118257   1.990   0.908   4.270 -0.4102  0.6488  1.3355
 2207SOL    HW218258   2.103   0.988   4.220 -0.2109 -2.1490 -2.0971
 2208SOL     OW18259   2.866   1.152   3.160 -0.3724 -0.6480 -0.6237
 2208SOL    HW118260   2.876   1.246   3.143  0.9883 -0.4144  1.4578
 2208SOL    HW218261   2.784   1.143   3.111 -1.3443  0.6022  0.7565
 2209SOL     OW18262   0.805   3.677   6.602  0.3968 -0.0529 -0.6452
 2209SOL    HW118263   0.739   3.706   6.539 -1.0367  0.0901  0.9344
 2209SOL    HW218264   0.808   3.582   6.596  0.2623 -0.0366 -0.9737
 2210SOL     OW18265   3.053   4.317   1.008  0.3166 -0.2874  0.5980
 2210SOL    HW118266   3.061   4.225   0.980  0.6890  0.0964 -0.5709
 2210SOL    HW218267   2.979   4.316   1.069 -0.2834 -2.7288 -0.1751
 2211SOL     OW18268   2.050   0.715   0.695  0.2684 -0.3851 -0.1676
 2211SOL    HW118269   1.960   0.738   0.672  0.4831  1.7032  1.0429
 2211SOL    HW218270   2.058   0.750   0.784  2.1953 -0.0479 -0.4758
 2212SOL     OW18271   3.513   2.926   8.122 -0.0534  0.0640  0.2226
 2212SOL    HW118272   3.596   2.883   8.142 -0.4245 -1.4760 -1.5531
 2212SOL    HW218273   3.532   2.962   8.035 -1.2004 -1.7089 -0.7422
 2213SOL     OW18274   0.506   2.403   5.864 -0.1671 -0.3015 -0.1821
 2213SOL    HW118275   0.594   2.399   5.827  0.3509  1.0694  0.9238
 2213SOL    HW218276   0.455   2.339   5.815  1.7070 -1.3160 -0.8107
 2214SOL     OW18277   3.038   4.165  10.099 -0.4929 -0.1049  0.6369
 2214SOL    HW118278   3.029   4.125  10.186 -1.2694 -0.8308  0.2147
 2214SOL    HW218279   2.974   4.116  10.048  2.1413 -1.8982 -0.9368
 2215SOL     OW18280   1.267   2.817   7.380 -0.3169  0.1240  0.3569
 2215SOL    HW118281   1.226   2.868   7.310 -1.0547  0.7031  1.2106
 2215SOL    HW218282   1.355   2.853   7.382  0.3223 -1.3314 -1.8658
 2216SOL     OW18283   1.499   3.060  15.033  0.5037 -0.4644  0.0435
 2216SOL    HW118284   1.430   3.089  14.975  0.7826 -1.5183 -0.8203
 2216SOL    HW218285   1.436   3.025  15.096  2.4788 -0.0063  2.2872
 2217SOL     OW18286   4.451   1.693  13.051  0.3105  0.2187  0.7432
 2217SOL    HW118287   4.432   1.620  13.111 -1.2668  0.9772  1.1685
 2217SOL    HW218288   4.545   1.678  13.038 -0.1685 -1.7020 -0.5796
 2218SOL     OW18289   0.391   3.247   9.099 -0.2758 -0.5051  0.0835
 2218SOL    HW118290   0.379   3.316   9.164  0.3756 -0.5587  0.2556
 2218SOL    HW218291   0.322   3.182   9.113  0.0062 -0.0965  3.4356
 2219SOL     OW18292   3.708   0.632   5.099  0.1644 -0.6003  0.1705
 2219SOL    HW118293   3.746   0.558   5.052  1.2427  0.5622 -0.8157
 2219SOL    HW218294   3.619   0.601   5.117  0.5484 -1.4428  0.6091
 2220SOL     OW18295   0.029   3.384  11.689 -0.0343 -0.4771 -0.3062
 2220SOL    HW118296   0.068   3.301  11.717  0.4515 -0.8749 -2.1100
 2220SOL    HW218297   0.108   3.416  11.644 -2.7307  2.8498 -2.6990
 2221SOL     OW18298   1.225   1.107   4.161 -0.2190  0.3012  0.1922
 2221SOL    HW118299   1.215   1.169   4.088 -0.0009 -0.4137 -0.4436
 2221SOL    HW218300   1.156   1.136   4.220  1.0954 -2.3894  3.0205
 2222SOL     OW18301   3.872   1.834   6.310 -0.3674  0.1680  0.7765
 2222SOL    HW118302   3.924   1.905   6.272  0.3049 -0.4041  0.6355
 2222SOL    HW218303   3.946   1.791   6.351  1.4274  3.1799  0.6993
 2223SOL     OW18304   1.008   3.110   9.146 -0.2977  0.4530  0.1708
 2223SOL    HW118305   0.978   3.198   9.169 -1.3234  0.8289 -2.5873
 2223SOL    HW218306   0.930   3.089   9.096  2.0019 -2.1145 -2.3617
 2224SOL     OW18307   1.624   4.179   6.881  0.0038  0.2623  0.3644
 2224SOL    HW118308   1.680   4.111   6.843  0.0329  1.2161 -1.3006
 2224SOL    HW218309   1.690   4.239   6.916 -0.3191  0.8948 -0.1235
 2225SOL     OW18310   4.328   0.332  14.738 -0.1773 -0.3773 -0.2696
 2225SOL    HW118311   4.354   0.297  14.823 -0.1001 -1.4238 -0.7215
 2225SOL    HW218312   4.324   0.256  14.679 -0.1640 -1.2552  0.8539
 2226SOL     OW18313   1.908   2.421   2.704 -0.2226 -0.5390 -0.1734
 2226SOL    HW118314   1.953   2.461   2.778 -0.3986  0.5964 -0.6785
 2226SOL    HW218315   1.817   2.431   2.730 -0.4032  0.3931 -1.1639
 2227SOL     OW18316   0.328   4.309   7.575  0.4712  0.4320 -0.6245
 2227SOL    HW118317   0.371   4.353   7.648  0.8522 -0.4381 -0.3267
 2227SOL    HW218318   0.267   4.381   7.558 -0.4148  0.1223  1.3289
 2228SOL     OW18319   3.287   1.922   5.090  0.4066  0.0558 -0.5537
 2228SOL    HW118320   3.367   1.959   5.052  2.1351 -0.2661  2.7188
 2228SOL    HW218321   3.316   1.831   5.104  0.0932 -0.1382 -1.1664
 2229SOL     OW18322   1.950   1.841   4.755  0.0033  0.3073 -0.1189
 2229SOL    HW118323   2.008   1.769   4.730  0.5895  1.2094 -1.3651
 2229SOL    HW218324   1.884   1.794   4.807  1.0877 -2.3942 -1.1565
 2230SOL     OW18325   0.787   3.965   9.938 -0.2514  0.1618 -0.6630
 2230SOL    HW118326   0.868   4.001   9.903  1.6003 -2.3572  1.1267
 2230SOL    HW218327   0.792   3.872   9.917 -1.5778  0.5055 -2.6040
 2231SOL     OW18328   0.341   0.130   7.042  0.7561 -0.2974 -0.0259
 2231SOL    HW118329   0.303   0.140   7.130  1.3225  0.3399  0.1469
 2231SOL    HW218330   0.404   0.202   7.041  1.0457 -0.4821  3.4074
 2232SOL     OW18331   0.351   3.071   1.284  0.5726  0.0002  0.2841
 2232SOL    HW118332   0.386   3.159   1.296  0.3100 -0.0074  1.1402
 2232SOL    HW218333   0.365   3.064   1.190  0.9949  0.1112  0.3380
 2233SOL     OW18334   0.728   2.522  15.995 -0.2712  0.2837  0.2097
 2233SOL    HW118335   0.770   2.608  15.995 -1.3845  0.8377  1.7655
 2233SOL    HW218336   0.650   2.541  15.944  0.7583 -0.3555 -1.5878
 2234SOL     OW18337   3.770   0.663   8.044  0.7356 -0.4003 -0.7374
 2234SOL    HW118338   3.838   0.712   8.090  0.4178 -1.4478  0.8369
 2234SOL    HW218339   3.755   0.589   8.102 -0.5338  2.0313  2.0429
 2235SOL     OW18340   1.949   2.170   4.905 -0.2074 -0.2138 -0.2741
 2235SOL    HW118341   1.881   2.148   4.841  1.2800 -1.7556 -1.3262
 2235SOL    HW218342   2.004   2.229   4.852 -0.0782  0.4807  0.6323
 2236SOL     OW18343   3.229   0.644  12.262 -0.6647  0.0647 -1.0487
 2236SOL    HW118344   3.178   0.690  12.196  0.7990  0.0388 -2.2029
 2236SOL    HW218345   3.295   0.619  12.198 -1.0192 -1.8660 -0.6705
 2237SOL     OW18346   1.181   4.616   7.910  0.9004  0.1190  0.1153
 2237SOL    HW118347   1.215   4.677   7.975 -1.1802  0.5343  0.8272
 2237SOL    HW218348   1.113   4.570   7.960  1.8467  0.2188  1.5069
 2238SOL     OW18349   1.749   0.678   7.656  0.3687 -0.1051 -0.2674
 2238SOL    HW118350   1.806   0.755   7.648  2.2137 -1.6024 -1.8496
 2238SOL    HW218351   1.766   0.654   7.747 -0.5671 -2.3229 -0.6641
 2239SOL     OW18352   1.110   1.402   2.735  0.6641  0.2790  0.6303
 2239SOL    HW118353   1.097   1.466   2.664 -1.0568 -1.2199 -0.4260
 2239SOL    HW218354   1.058   1.440   2.806  0.0347  0.3565  0.1323
 2240SOL     OW18355   2.203   3.955   9.066 -0.5789 -0.1922 -0.3124
 2240SOL    HW118356   2.273   3.939   9.130 -2.5837  1.8632  2.4314
 2240SOL    HW218357   2.157   4.024   9.113  2.6983  0.7347  1.5529
 2241SOL     OW18358   1.578   1.428   2.480 -0.2734  0.0073  0.3226
 2241SOL    HW118359   1.663   1.389   2.502  0.7086  2.6428  1.2166
 2241SOL    HW218360   1.604   1.493   2.415  3.3958 -1.9634 -0.2409
 2242SOL     OW18361   0.307   2.034   4.315 -0.2299  0.1454 -0.1936
 2242SOL    HW118362   0.337   1.980   4.389 -1.0503 -0.0146  0.0237
 2242SOL    HW218363   0.221   2.057   4.349 -0.3278  0.1763 -0.4662
 2243SOL     OW18364   0.835   4.033  11.150 -0.1108 -0.6714 -0.4101
 2243SOL    HW118365   0.901   4.081  11.099  1.1100  0.2009  1.9775
 2243SOL    HW218366   0.753   4.076  11.124  0.3416 -0.0556 -0.8293
 2244SOL     OW18367   3.662   3.061   3.543  0.1936 -0.3013 -0.3996
 2244SOL    HW118368   3.736   3.040   3.486  0.6253 -0.3466  0.1759
 2244SOL    HW218369   3.597   3.091   3.480 -0.3119  1.0460  0.7535
 2245SOL     OW18370   0.643   2.628   9.157 -0.0451 -0.3059 -0.2726
 2245SOL    HW118371   0.602   2.691   9.216  1.0257 -1.1638  1.3862
 2245SOL    HW218372   0.620   2.663   9.070 -0.1003 -0.0373 -0.1513
 2246SOL     OW18373   4.725   4.272   1.847  0.0672 -0.1045  0.0614
 2246SOL    HW118374   0.057   4.229   1.796  1.6022 -0.2548  2.2577
 2246SOL    HW218375   0.031   4.354   1.871  0.2957 -1.0013  2.8120
 2247SOL     OW18376   4.007   1.324   6.743  0.0591 -0.1294  0.7442
 2247SOL    HW118377   4.083   1.300   6.690  1.1581  0.6783  1.9435
 2247SOL    HW218378   4.011   1.247   6.800 -3.5671 -0.2972  0.7506
 2248SOL     OW18379   1.062   3.061   1.802 -0.2074 -0.0835 -0.1010
 2248SOL    HW118380   0.996   3.126   1.824 -0.0036  0.2510 -0.4790
 2248SOL    HW218381   1.007   2.991   1.766 -1.9522  2.1042 -1.7037
 2249SOL     OW18382   1.041   4.031   7.250 -0.4488  0.2648  0.5528
 2249SOL    HW118383   1.135   4.021   7.231 -1.1935 -1.6519 -2.0208
 2249SOL    HW218384   1.006   4.086   7.181 -1.2379  0.8850  1.4501
 2250SOL     OW18385   0.686   3.963   7.362  0.2793  0.2568  0.1000
 2250SOL    HW118386   0.630   4.016   7.419  0.9467  1.8465 -0.7407
 2250SOL    HW218387   0.716   4.016   7.288  0.2830  1.3117  0.8664
 2251SOL     OW18388   4.278   4.069   6.804 -0.2995 -0.1153  0.6787
 2251SOL    HW118389   4.309   4.066   6.894  0.1716  2.3588  0.5960
 2251SOL    HW218390   4.198   4.018   6.789 -1.0160  1.4547 -0.8945
 2252SOL     OW18391   3.966   1.964   5.697  0.4649 -0.1802 -0.0277
 2252SOL    HW118392   3.968   1.870   5.714  0.9022 -0.1989 -0.1751
 2252SOL    HW218393   3.880   1.982   5.735  1.5344  0.8282  1.9628
 2253SOL     OW18394   3.132   3.545   7.358  0.1790 -0.7644 -0.3807
 2253SOL    HW118395   3.113   3.473   7.419 -1.5566  0.6202  0.7462
 2253SOL    HW218396   3.071   3.612   7.388  0.8807 -2.0557  3.9697
 2254SOL     OW18397   2.297   0.734   7.894  0.0010  0.0385  0.3615
 2254SOL    HW118398   2.329   0.670   7.831  1.4709  0.8073  0.3184
 2254SOL    HW218399   2.338   0.813   7.858  1.3425 -0.9390 -0.2321
 2255SOL     OW18400   2.018   3.028   2.002  0.0280  0.8064  0.7350
 2255SOL    HW118401   2.029   3.122   1.990 -0.9231  0.8420  0.1981
 2255SOL    HW218402   1.929   3.020   1.968  0.7166  0.6132 -1.0196
 2256SOL     OW18403   1.659   3.189   3.030  0.5316 -0.2731 -0.1432
 2256SOL    HW118404   1.704   3.165   2.949  0.5892 -1.6607  0.3072
 2256SOL    HW218405   1.580   3.136   3.022  0.6137 -0.6825  1.6156
 2257SOL     OW18406   0.276   3.798   3.700  0.0174 -0.2749  0.4456
 2257SOL    HW118407   0.250   3.815   3.609  1.1348 -1.3458 -0.0695
 2257SOL    HW218408   0.260   3.704   3.706 -1.4010 -0.0568  0.1622
 2258SOL     OW18409   3.552   1.854  11.947  0.0524  0.1794 -0.1028
 2258SOL    HW118410   3.610   1.801  11.893 -2.2291 -1.8022 -0.5705
 2258SOL    HW218411   3.571   1.820  12.035 -0.3860 -1.5956 -0.7082
 2259SOL     OW18412   1.366   1.230   1.383  0.1598  0.2653 -0.4398
 2259SOL    HW118413   1.447   1.263   1.345  0.6939  1.2387  1.5567
 2259SOL    HW218414   1.344   1.306   1.435 -0.3378  0.9222 -1.6078
 2260SOL     OW18415   1.848   0.423   5.407  0.2335 -0.3483  0.0021
 2260SOL    HW118416   1.755   0.401   5.405 -0.1093  1.1390 -1.4116
 2260SOL    HW218417   1.890   0.359   5.464  2.0474  1.5291  0.7667
 2261SOL     OW18418   3.256   0.223   7.323 -0.0763 -0.1525  0.2229
 2261SOL    HW118419   3.190   0.285   7.290 -0.2729 -0.3622  0.2210
 2261SOL    HW218420   3.309   0.287   7.372 -0.3797 -0.4837  0.9791
 2262SOL     OW18421   4.448   1.239   7.789  0.0455 -0.0123 -0.1862
 2262SOL    HW118422   4.371   1.295   7.799  0.5547  0.8195 -0.9937
 2262SOL    HW218423   4.405   1.168   7.741 -0.2428  1.2881 -1.8606
 2263SOL     OW18424   2.014   1.399   2.871  0.3672 -0.6055  0.3867
 2263SOL    HW118425   2.019   1.491   2.843  2.1478 -1.0393 -0.7696
 2263SOL    HW218426   1.998   1.422   2.963 -3.0537  0.3741 -0.4623
 2264SOL     OW18427   3.155   3.440   6.070 -0.1466 -0.0625  0.0159
 2264SOL    HW118428   3.132   3.441   6.163  0.5977 -0.1706  0.2043
 2264SOL    HW218429   3.202   3.523   6.063 -0.2194 -0.1496 -1.4006
 2265SOL     OW18430   2.978   4.141  11.071  0.1416  0.0044 -0.3586
 2265SOL    HW118431   2.938   4.170  10.989  0.6424  0.1151 -0.5649
 2265SOL    HW218432   2.949   4.051  11.084  1.2838 -0.2331  0.4884
 2266SOL     OW18433   1.800   3.743   2.819 -0.1195  0.2204 -1.0764
 2266SOL    HW118434   1.878   3.737   2.873 -0.9542 -0.0553  0.1008
 2266SOL    HW218435   1.742   3.801   2.869 -0.9148 -1.9668  0.5415
 2267SOL     OW18436   0.743   4.594   4.784  0.0549 -0.0549  0.4457
 2267SOL    HW118437   0.726   4.500   4.777 -1.2682  0.3244 -1.5795
 2267SOL    HW218438   0.676   4.625   4.722  1.8795 -1.5095 -2.2401
 2268SOL     OW18439   3.960   0.789   3.888  0.2858  0.6669 -0.6882
 2268SOL    HW118440   3.961   0.856   3.956 -1.2905 -1.4271  1.4047
 2268SOL    HW218441   3.887   0.738   3.925 -0.9391  2.3380 -0.7904
 2269SOL     OW18442   0.331   0.643   6.349 -0.0150  0.0778 -0.0812
 2269SOL    HW118443   0.259   0.618   6.292 -0.9112  3.2832 -0.3609
 2269SOL    HW218444   0.394   0.677   6.285  1.4030 -0.4088  1.0491
 2270SOL     OW18445   3.790   4.261   5.768  0.7595  0.2680 -0.7132
 2270SOL    HW118446   3.695   4.270   5.764  0.7313 -0.1604 -0.9319
 2270SOL    HW218447   3.790   4.183   5.823 -1.2922  1.2653  0.7304
 2271SOL     OW18448   0.883   3.943  10.567  0.5957 -0.7484 -0.2767
 2271SOL    HW118449   0.955   4.006  10.562  0.9201 -1.4243 -3.6035
 2271SOL    HW218450   0.807   4.001  10.570  1.5462  0.4544  0.4722
 2272SOL     OW18451   3.206   3.165  11.740  0.2862 -0.5321 -0.1063
 2272SOL    HW118452   3.284   3.216  11.719 -0.2878  0.9775  1.4927
 2272SOL    HW218453   3.246   3.100  11.797  1.0181 -1.6834 -1.9400
 2273SOL     OW18454   1.439   3.916  11.875  0.0939  0.4397 -1.0149
 2273SOL    HW118455   1.518   3.968  11.859 -0.1610  0.2596 -2.7627
 2273SOL    HW218456   1.476   3.838  11.917  0.8431  0.4076 -1.7431
 2274SOL     OW18457   3.859   0.288  16.756 -0.1422  0.2157 -0.0191
 2274SOL    HW118458   3.954   0.283  16.764 -0.0259 -0.0564 -1.5998
 2274SOL    HW218459   3.854   0.379  16.725 -1.9347  0.4080  0.8302
 2275SOL     OW18460   2.135   0.445   0.535 -0.8267  0.2334 -0.0181
 2275SOL    HW118461   2.185   0.364   0.524 -1.1362  0.0325  0.0207
 2275SOL    HW218462   2.189   0.501   0.590  1.8304  0.6000 -3.0364
 2276SOL     OW18463   1.772   2.041  11.867  0.0844  0.1730 -0.0369
 2276SOL    HW118464   1.797   2.108  11.929 -0.5292 -0.6673  1.1226
 2276SOL    HW218465   1.788   1.965  11.923 -0.7115  1.6166  2.1369
 2277SOL     OW18466   3.953   4.364   8.317  0.2672 -0.0991  0.0785
 2277SOL    HW118467   3.946   4.391   8.225 -1.5253 -0.9536 -0.0275
 2277SOL    HW218468   4.046   4.340   8.321  0.0102 -0.5816  2.6245
 2278SOL     OW18469   0.162   0.883   2.142 -0.5135  0.3702  0.5031
 2278SOL    HW118470   0.234   0.821   2.126  0.9261  1.8511  1.3483
 2278SOL    HW218471   0.080   0.832   2.149  0.9246 -2.0779 -0.3354
 2279SOL     OW18472   3.916   1.322   7.257 -0.0496 -0.1844 -0.0605
 2279SOL    HW118473   3.878   1.374   7.187  0.4824  2.0434  1.3031
 2279SOL    HW218474   3.971   1.263   7.205  0.2235 -0.2516  0.3070
 2280SOL     OW18475   1.532   0.158   5.661  0.4831  0.0037 -0.3889
 2280SOL    HW118476   1.445   0.182   5.629 -0.1286  0.0187  1.2438
 2280SOL    HW218477   1.518   0.070   5.696 -0.8544  0.0518 -0.7953
 2281SOL     OW18478   4.424   4.301   5.474  0.3785  0.3880  0.1687
 2281SOL    HW118479   4.471   4.318   5.393  0.2727 -0.8570 -0.1566
 2281SOL    HW218480   4.338   4.325   5.441 -0.6124  0.7907  3.0340
 2282SOL     OW18481   4.612   3.026   9.581  0.0567 -0.4538  0.5007
 2282SOL    HW118482   4.665   2.978   9.644 -0.8239  1.6708  2.8979
 2282SOL    HW218483   4.577   2.954   9.529 -1.5104 -0.9991  2.2874
 2283SOL     OW18484   1.063   1.330   3.962 -0.7735 -0.3063 -0.2405
 2283SOL    HW118485   1.079   1.377   4.044 -1.4481  0.0151 -0.3024
 2283SOL    HW218486   1.008   1.392   3.915 -2.3977 -1.6661 -0.1272
 2284SOL     OW18487   2.147   0.151   2.212  0.2320  0.2379  0.3619
 2284SOL    HW118488   2.057   0.139   2.183  1.0700 -1.2554 -1.6550
 2284SOL    HW218489   2.138   0.147   2.308 -1.2722 -2.5650  0.1062
 2285SOL     OW18490   2.093   4.394   4.786 -0.3598 -1.0611  0.3769
 2285SOL    HW118491   2.155   4.398   4.858 -1.8022  0.8604  1.5093
 2285SOL    HW218492   2.016   4.436   4.824 -0.2780 -0.4156 -0.1643
 2286SOL     OW18493   2.049   1.465  14.462 -0.5266  0.0176 -0.4959
 2286SOL    HW118494   2.057   1.560  14.458  1.9178 -0.2323 -1.5138
 2286SOL    HW218495   2.127   1.433  14.416  0.8963  0.5159  1.6213
 2287SOL     OW18496   4.111   2.369   5.504 -0.3289  0.0685  0.4069
 2287SOL    HW118497   4.194   2.399   5.466  0.9059  0.8256  3.7335
 2287SOL    HW218498   4.115   2.417   5.586  0.5194  1.0065 -0.1819
 2288SOL     OW18499   0.869   3.384   7.847 -0.2235 -0.2993 -0.0962
 2288SOL    HW118500   0.889   3.478   7.851  1.5374 -0.7002  0.3882
 2288SOL    HW218501   0.793   3.384   7.788  1.4785  1.5375 -2.3275
 2289SOL     OW18502   2.341   2.851   2.171  0.4090  0.4644 -0.2047
 2289SOL    HW118503   2.380   2.938   2.170  1.7473 -0.1382 -0.1461
 2289SOL    HW218504   2.300   2.852   2.257 -1.5764  1.0152 -1.1452
 2290SOL     OW18505   3.721   1.462   8.387  0.4515  0.2462 -0.3777
 2290SOL    HW118506   3.671   1.394   8.342  1.8273 -1.2617  0.3658
 2290SOL    HW218507   3.683   1.454   8.474  0.5850  1.2031 -0.2316
 2291SOL     OW18508   1.677   0.496   4.892 -0.2340  0.3089  0.0336
 2291SOL    HW118509   1.721   0.444   4.960  0.4311  1.1406  0.2477
 2291SOL    HW218510   1.692   0.433   4.822 -0.0499 -1.4748  1.6764
 2292SOL     OW18511   0.219   2.966   4.580 -0.3039 -0.1974 -0.0235
 2292SOL    HW118512   0.228   2.870   4.574  2.7917 -0.0345  1.9833
 2292SOL    HW218513   0.251   2.988   4.667 -1.5004 -0.0212  0.3772
 2293SOL     OW18514   1.615   3.398   9.672  0.0810  0.3668 -0.8599
 2293SOL    HW118515   1.584   3.333   9.736 -0.0214 -0.6917 -1.9979
 2293SOL    HW218516   1.684   3.445   9.720 -0.5864  0.2219  0.2354
 2294SOL     OW18517   2.654   0.078   7.148 -0.3564  0.2174  0.2689
 2294SOL    HW118518   2.716   0.006   7.133  1.0796  1.2198  1.4118
 2294SOL    HW218519   2.629   0.090   7.056  1.3131  0.0218 -0.2113
 2295SOL     OW18520   1.676   4.074  16.434 -0.1602  0.4611 -0.3153
 2295SOL    HW118521   1.629   4.155  16.413 -0.9121  0.5144  1.5072
 2295SOL    HW218522   1.767   4.104  16.440  0.1979 -0.4932 -1.0922
 2296SOL     OW18523   1.233   1.857   2.663 -0.2463 -0.4738 -0.4099
 2296SOL    HW118524   1.291   1.803   2.609  1.7048  0.7319  0.4750
 2296SOL    HW218525   1.186   1.795   2.718  0.2357 -1.5719 -1.2215
 2297SOL     OW18526   3.828   3.824   3.086 -0.1556  0.1385  0.1358
 2297SOL    HW118527   3.907   3.848   3.135 -0.4850 -1.1965  1.3056
 2297SOL    HW218528   3.794   3.913   3.073  3.2457  1.1778 -1.8876
 2298SOL     OW18529   1.815   3.619  15.247 -0.2305 -0.8400 -0.3380
 2298SOL    HW118530   1.786   3.703  15.214  0.6357 -0.6201 -0.5457
 2298SOL    HW218531   1.742   3.618  15.309  1.6583 -1.2501  1.8770
 2299SOL     OW18532   0.531   1.711   0.018 -0.3163  0.0352  0.5128
 2299SOL    HW118533   0.620   1.682  17.744 -1.1125 -2.7827  1.0895
 2299SOL    HW218534   0.485   1.665  17.693  0.2262 -0.9441  0.7968
 2300SOL     OW18535   1.870   3.342   2.203 -0.0826  0.3638 -0.2705
 2300SOL    HW118536   1.881   3.306   2.291 -2.3174  1.2880  0.4130
 2300SOL    HW218537   1.793   3.297   2.168  1.2752 -0.0748 -2.6999
 2301SOL     OW18538   1.863   0.937  13.348  0.4222  0.8025  0.1533
 2301SOL    HW118539   1.818   0.993  13.411  0.6743  2.0898 -0.7953
 2301SOL    HW218540   1.900   0.868  13.404 -1.3902 -0.3103 -0.0485
 2302SOL     OW18541   1.253   4.399   8.291  0.7324  0.0989 -0.1844
 2302SOL    HW118542   1.322   4.362   8.236 -0.0417  0.4777 -1.4143
 2302SOL    HW218543   1.230   4.339   8.362  1.0307  1.0806  0.7463
 2303SOL     OW18544   0.865   1.921   6.786 -1.1303  0.0298 -0.3116
 2303SOL    HW118545   0.911   1.930   6.869 -1.2001 -0.7981 -0.1789
 2303SOL    HW218546   0.874   1.826   6.776 -0.4766 -0.0968  1.5279
 2304SOL     OW18547   2.717   0.910   2.618  0.0189  0.3045  0.2033
 2304SOL    HW118548   2.660   0.846   2.577  1.3589 -0.9562  0.3077
 2304SOL    HW218549   2.755   0.859   2.690 -0.4896 -0.9711 -0.4427
 2305SOL     OW18550   0.015   0.026   1.491  0.3265  0.3893 -0.1726
 2305SOL    HW118551   0.088   4.722   1.537 -1.8261 -1.3299  1.7452
 2305SOL    HW218552   0.010   0.117   1.521  1.9581  0.3540  0.1708
 2306SOL     OW18553   0.054   1.678   3.507  0.0245  0.1487  0.0049
 2306SOL    HW118554   0.057   1.751   3.446  0.0611 -0.6656 -0.9604
 2306SOL    HW218555   0.078   1.721   3.589  0.3994  1.1306 -0.6214
 2307SOL     OW18556   1.243   0.296   5.759 -0.5902  0.3063 -0.3423
 2307SOL    HW118557   1.197   0.224   5.801  2.8801 -1.1718  0.8507
 2307SOL    HW218558   1.179   0.330   5.696  0.6481  2.2757 -0.5398
 2308SOL     OW18559   3.797   1.996  11.352 -0.1211 -0.0598 -0.4184
 2308SOL    HW118560   3.737   1.951  11.293  0.1546 -0.7788 -0.1540
 2308SOL    HW218561   3.750   2.026  11.430 -0.7265  0.6192 -1.0408
 2309SOL     OW18562   3.227   4.047  16.804  0.1803  0.3722 -0.8186
 2309SOL    HW118563   3.208   3.999  16.723  0.3322 -2.9634  1.1311
 2309SOL    HW218564   3.318   4.071  16.787  0.2581 -1.0573 -2.4684
 2310SOL     OW18565   2.628   4.149   4.247 -0.1985  0.0873 -0.2935
 2310SOL    HW118566   2.697   4.127   4.184 -1.2370 -2.9512 -0.3683
 2310SOL    HW218567   2.589   4.205   4.179 -0.7903  2.1441  1.7704
 2311SOL     OW18568   3.898   4.612   7.816 -0.3980  0.2396 -0.5215
 2311SOL    HW118569   3.845   4.535   7.833 -0.3557  1.1619  3.6757
 2311SOL    HW218570   3.956   4.617   7.892 -0.2042 -2.4628 -0.5014
 2312SOL     OW18571   3.866   1.138   1.566  0.5393 -0.2957 -0.3044
 2312SOL    HW118572   3.892   1.065   1.509  1.2024  0.2760 -0.7224
 2312SOL    HW218573   3.904   1.110   1.649 -1.1756 -0.1107  0.5541
 2313SOL     OW18574   2.663   1.017   2.957 -0.1584  0.7119  0.5211
 2313SOL    HW118575   2.594   1.076   2.984  0.8690  1.5232  1.3678
 2313SOL    HW218576   2.714   1.083   2.909  1.4206 -2.1127 -1.7179
 2314SOL     OW18577   0.061   3.286   4.094  0.1613 -0.2546 -0.0211
 2314SOL    HW118578   0.073   3.380   4.088 -1.2289 -0.2340 -2.7027
 2314SOL    HW218579   0.108   3.254   4.017  0.0902  2.9205 -1.3790
 2315SOL     OW18580   3.289   1.298   3.929 -0.1819 -0.1070 -0.0109
 2315SOL    HW118581   3.299   1.390   3.952  0.7023 -0.4608  0.9852
 2315SOL    HW218582   3.284   1.318   3.835  1.0685 -0.2848 -0.1093
 2316SOL     OW18583   1.771   1.150  11.469 -0.2311  0.5611 -0.1267
 2316SOL    HW118584   1.833   1.206  11.515 -1.1700  0.1949  1.5960
 2316SOL    HW218585   1.691   1.147  11.523  0.3483 -0.7161  0.6648
 2317SOL     OW18586   3.851   1.864   8.655 -0.1893 -0.0570  0.1509
 2317SOL    HW118587   3.852   1.839   8.562  2.5329  0.8156 -0.0577
 2317SOL    HW218588   3.760   1.894   8.663 -0.7992 -1.8550 -0.1548
 2318SOL     OW18589   0.929   0.529   4.764  0.5135 -0.6654 -0.3127
 2318SOL    HW118590   0.884   0.446   4.749 -1.9100  0.1070  2.7502
 2318SOL    HW218591   0.961   0.510   4.852  0.1634  0.5028  0.0654
 2319SOL     OW18592   1.493   0.948   6.886  0.0965  0.7455  0.1740
 2319SOL    HW118593   1.486   1.042   6.874  1.4395  0.9334  0.8322
 2319SOL    HW218594   1.475   0.912   6.799  3.4927 -1.1833  0.2776
 2320SOL     OW18595   3.650   0.294   8.422 -0.0213  0.4217  0.0910
 2320SOL    HW118596   3.627   0.358   8.489 -1.0159  0.2186 -0.0569
 2320SOL    HW218597   3.697   0.235   8.480 -0.3246  0.8430  0.7673
 2321SOL     OW18598   1.318   1.761   5.731 -0.2615 -0.1782  0.1496
 2321SOL    HW118599   1.291   1.796   5.646  3.4757 -1.8327 -1.7369
 2321SOL    HW218600   1.271   1.819   5.791 -2.4127 -0.6705 -1.0514
 2322SOL     OW18601   4.696   0.698   4.504 -0.5075  0.7179  0.6334
 2322SOL    HW118602   4.622   0.660   4.550 -1.7615 -0.0216 -1.9843
 2322SOL    HW218603   4.660   0.721   4.418 -0.1753 -2.0362 -0.2615
 2323SOL     OW18604   2.534   2.538   6.040 -0.2951  0.4378 -0.1761
 2323SOL    HW118605   2.591   2.541   6.117  0.4966 -2.3676 -0.6369
 2323SOL    HW218606   2.449   2.536   6.083  0.9075  0.1488  2.2232
 2324SOL     OW18607   3.424   1.698   5.194  0.1281 -0.1333  0.2581
 2324SOL    HW118608   3.494   1.644   5.232  0.6873  0.3711 -0.0504
 2324SOL    HW218609   3.349   1.643   5.214 -2.7742  2.2152 -4.0371
 2325SOL     OW18610   4.155   1.352   6.200 -0.4399  0.5047  0.1874
 2325SOL    HW118611   4.068   1.389   6.215 -0.4674  0.8123 -0.7588
 2325SOL    HW218612   4.185   1.322   6.286 -0.5398 -0.1026  0.0096
 2326SOL     OW18613   4.399   4.240   2.717  0.4553  0.2510  0.1786
 2326SOL    HW118614   4.398   4.245   2.622 -0.9989 -0.8648  0.1317
 2326SOL    HW218615   4.419   4.331   2.742 -0.3136  0.5965 -0.4892
 2327SOL     OW18616   3.693   1.584  13.489 -0.0553  0.0028 -0.1595
 2327SOL    HW118617   3.629   1.649  13.459  0.1325  0.3579  0.1969
 2327SOL    HW218618   3.655   1.565  13.575  2.3681 -1.2582  0.6367
 2328SOL     OW18619   2.381   0.063   7.754 -0.4861  0.0347  0.0024
 2328SOL    HW118620   2.452   0.062   7.818 -0.0764  1.8766 -0.4262
 2328SOL    HW218621   2.393   4.713   7.717 -1.5551 -0.2588  0.3293
 2329SOL     OW18622   0.204   2.195   4.647  0.2415  0.4834  0.2256
 2329SOL    HW118623   0.191   2.263   4.713  1.9396 -0.0375  1.0775
 2329SOL    HW218624   0.156   2.245   4.581 -1.1174 -1.3827 -0.1934
 2330SOL     OW18625   1.624   1.472   5.320 -0.8440  0.0346 -0.4305
 2330SOL    HW118626   1.538   1.491   5.358 -1.2813  1.5831 -2.2029
 2330SOL    HW218627   1.626   1.379   5.342  0.0338  0.9662  3.3823
 2331SOL     OW18628   0.960   1.100   7.173  0.0612 -0.4315  0.2901
 2331SOL    HW118629   0.937   1.159   7.244  1.6782 -1.5038  1.7032
 2331SOL    HW218630   1.014   1.042   7.226  1.6091  0.4818 -0.2757
 2332SOL     OW18631   0.123   1.803   9.542 -0.0682  0.1877 -0.0053
 2332SOL    HW118632   0.204   1.750   9.545 -2.5800 -3.7510 -1.1598
 2332SOL    HW218633   0.161   1.889   9.528  1.1028 -0.2313  0.6094
 2333SOL     OW18634   4.213   3.770  11.649 -0.2911  0.2651 -0.1072
 2333SOL    HW118635   4.239   3.857  11.681  0.1986  0.4943 -1.1257
 2333SOL    HW218636   4.289   3.723  11.683 -0.4956  0.8409  1.1505
 2334SOL     OW18637   0.185   2.439   5.586 -0.3711  0.1390  0.9152
 2334SOL    HW118638   0.235   2.404   5.660 -1.3207  0.8324  1.8608
 2334SOL    HW218639   0.205   2.373   5.519 -1.0301  1.3558 -0.4753
 2335SOL     OW18640   4.268   1.990   4.292  0.2448  0.0191 -0.4094
 2335SOL    HW118641   4.285   2.078   4.259 -0.5026  0.4170  0.2546
 2335SOL    HW218642   4.327   1.975   4.366 -1.8493 -0.4878  1.1666
 2336SOL     OW18643   1.880   3.289  12.598  0.7200 -0.4242 -0.2667
 2336SOL    HW118644   1.880   3.194  12.583 -0.4061 -0.3755 -0.6088
 2336SOL    HW218645   1.786   3.301  12.589  0.3720 -1.3633  1.9962
 2337SOL     OW18646   0.895   3.149   6.229 -0.1714  0.4215  0.2534
 2337SOL    HW118647   0.821   3.092   6.207  1.4651 -0.7570 -2.3037
 2337SOL    HW218648   0.923   3.112   6.312  2.2515  1.0961 -0.2501
 2338SOL     OW18649   3.859   4.264  14.768 -0.0145 -0.5778  0.3357
 2338SOL    HW118650   3.925   4.297  14.707 -3.0162  4.4313 -0.1597
 2338SOL    HW218651   3.814   4.204  14.708  0.9593  1.5307 -2.5259
 2339SOL     OW18652   2.396   0.283   8.218  0.0923  0.5488  0.1599
 2339SOL    HW118653   2.380   0.350   8.284  0.4904  0.1036  0.7062
 2339SOL    HW218654   2.412   0.200   8.263 -2.2202 -0.3960 -0.7513
 2340SOL     OW18655   4.192   2.256   7.667 -0.6947  0.3028  0.2809
 2340SOL    HW118656   4.249   2.214   7.731  1.0886 -0.8565 -2.0897
 2340SOL    HW218657   4.232   2.236   7.583 -1.5354  1.4722 -0.4072
 2341SOL     OW18658   1.445   3.639  16.288 -0.3165 -0.6492 -0.1780
 2341SOL    HW118659   1.520   3.582  16.305  0.0318 -0.4178 -0.9263
 2341SOL    HW218660   1.489   3.723  16.275 -1.1442  0.1085  1.9834
 2342SOL     OW18661   1.139   3.549   4.355 -0.2685 -0.0723  0.0347
 2342SOL    HW118662   1.163   3.640   4.338  1.3811 -0.6464 -0.7006
 2342SOL    HW218663   1.204   3.522   4.421  0.7568  1.6229 -0.2770
 2343SOL     OW18664   1.570   3.157  10.423  0.7266  0.1564  0.6158
 2343SOL    HW118665   1.587   3.249  10.400 -1.0194  0.8027  1.9276
 2343SOL    HW218666   1.655   3.115  10.411  0.1793 -0.3289 -1.6403
 2344SOL     OW18667   1.820   0.093   2.823  0.4605 -0.1484  0.5015
 2344SOL    HW118668   1.830   0.089   2.918  1.7566  1.4519  0.4303
 2344SOL    HW218669   1.790   0.002   2.819  0.0836 -0.0740  1.9395
 2345SOL     OW18670   3.105   0.646   8.153 -0.0825 -0.0520 -0.5920
 2345SOL    HW118671   3.030   0.705   8.155  1.6931  2.3129 -3.2315
 2345SOL    HW218672   3.057   0.569   8.182  1.5516 -0.7533  0.2251
 2346SOL     OW18673   1.163   3.335   2.393  0.1459  0.5134  0.3419
 2346SOL    HW118674   1.207   3.377   2.318 -0.5083 -2.0056 -1.4497
 2346SOL    HW218675   1.077   3.375   2.392 -1.4746 -2.9175  3.7940
 2347SOL     OW18676   2.689   4.485  10.975 -0.2641 -0.3879 -0.1033
 2347SOL    HW118677   2.714   4.504  11.065  0.8837 -4.1616  0.3565
 2347SOL    HW218678   2.625   4.417  10.996 -0.0349 -0.0258  1.7776
 2348SOL     OW18679   1.331   0.279   9.470 -0.4701 -0.3999 -0.2607
 2348SOL    HW118680   1.359   0.361   9.510 -1.4747  0.6206 -1.6515
 2348SOL    HW218681   1.294   0.317   9.391  0.4849 -1.0174 -1.0151
 2349SOL     OW18682   2.475   3.737   1.728  0.7500  0.3266  0.0425
 2349SOL    HW118683   2.468   3.772   1.639 -0.7266  0.0983  0.0697
 2349SOL    HW218684   2.538   3.796   1.768  1.6994 -0.4170 -0.3556
 2350SOL     OW18685   0.899   2.122   5.748 -0.2159  0.1710 -0.5116
 2350SOL    HW118686   0.867   2.068   5.820 -0.4561 -2.2201 -2.3747
 2350SOL    HW218687   0.940   2.052   5.696 -1.9801 -0.1318 -1.5056
 2351SOL     OW18688   4.271   2.664   9.894  0.1751 -0.7471 -0.5099
 2351SOL    HW118689   4.241   2.701   9.976 -0.6761  0.4878 -1.3868
 2351SOL    HW218690   4.351   2.624   9.929 -0.1243 -1.3058 -0.4709
 2352SOL     OW18691   0.723   0.441   7.112  0.3352  0.2070 -0.0967
 2352SOL    HW118692   0.749   0.530   7.089 -0.9734  0.7527  0.5118
 2352SOL    HW218693   0.801   0.394   7.084 -0.4552 -0.6368 -0.8985
 2353SOL     OW18694   2.543   1.770   7.706  0.3868  0.4236 -0.2143
 2353SOL    HW118695   2.585   1.748   7.623  1.4549  0.0962  0.4180
 2353SOL    HW218696   2.592   1.847   7.736  1.1967 -0.1427 -0.0983
 2354SOL     OW18697   1.984   0.795   3.338 -0.8008 -0.3240  0.4769
 2354SOL    HW118698   1.980   0.877   3.388  2.0086  0.1993 -0.1775
 2354SOL    HW218699   1.966   0.824   3.248 -0.8619 -2.2366 -0.1194
 2355SOL     OW18700   4.263   3.158  10.372  0.2947  0.1878 -0.5344
 2355SOL    HW118701   4.239   3.242  10.333 -1.8228  0.3849  1.2503
 2355SOL    HW218702   4.272   3.180  10.464  0.5491  1.2347 -0.8116
 2356SOL     OW18703   3.768   1.112   7.346  0.0572  0.3985  0.0614
 2356SOL    HW118704   3.827   1.186   7.329  1.0312 -0.5653 -0.8048
 2356SOL    HW218705   3.682   1.147   7.324  0.7940  1.3919 -1.2198
 2357SOL     OW18706   2.877   0.978   5.255 -0.0879  0.9555  0.2245
 2357SOL    HW118707   2.834   0.923   5.320  2.2105  1.3683  2.0943
 2357SOL    HW218708   2.879   0.929   5.173  1.2967  0.6915  0.4221
 2358SOL     OW18709   2.089   0.204  16.629  0.3677  0.0393  0.4095
 2358SOL    HW118710   2.098   0.276  16.692  0.1970  0.4094  0.0147
 2358SOL    HW218711   2.175   0.216  16.588  1.2018 -0.1260  2.1422
 2359SOL     OW18712   4.239   1.412   7.868 -0.1427 -0.2494 -0.2465
 2359SOL    HW118713   4.207   1.472   7.801  1.5891  0.8696 -0.0734
 2359SOL    HW218714   4.199   1.465   7.937  0.6534 -0.6374  0.5058
 2360SOL     OW18715   4.374   2.854  12.243 -0.5946 -0.8812 -0.2978
 2360SOL    HW118716   4.283   2.859  12.212 -0.2721  0.1163 -1.1010
 2360SOL    HW218717   4.392   2.947  12.258 -2.1735 -0.3794 -1.4490
 2361SOL     OW18718   0.900   2.025   0.173 -0.2827  0.2774  0.2903
 2361SOL    HW118719   0.907   2.118   0.193  1.5531  0.5385 -1.5570
 2361SOL    HW218720   0.867   1.994   0.257 -0.0856  1.0169  0.6413
 2362SOL     OW18721   2.051   3.528   1.776  0.3540 -0.5204 -0.1940
 2362SOL    HW118722   2.130   3.538   1.724 -0.0378  1.8023 -0.3177
 2362SOL    HW218723   2.082   3.508   1.865  1.6544  1.0155 -0.3264
 2363SOL     OW18724   1.842   0.646   6.723  0.4102  0.1532  0.4297
 2363SOL    HW118725   1.758   0.637   6.768  1.9228  0.1026  3.2440
 2363SOL    HW218726   1.904   0.656   6.796  1.3829 -0.3589 -0.3298
 2364SOL     OW18727   0.414   2.492   2.547 -0.2649 -0.4522  0.1642
 2364SOL    HW118728   0.370   2.494   2.632 -0.6024 -0.7029 -0.0036
 2364SOL    HW218729   0.381   2.565   2.495  0.3391  0.3386  0.8717
 2365SOL     OW18730   0.640   1.422  12.362  0.6703 -0.1998  0.1233
 2365SOL    HW118731   0.681   1.420  12.448 -1.0161 -0.8161  0.9281
 2365SOL    HW218732   0.719   1.425  12.309  0.7688 -2.7902  0.1045
 2366SOL     OW18733   3.221   4.291   8.447 -0.1310 -0.0718 -0.3820
 2366SOL    HW118734   3.304   4.264   8.409 -0.0648  0.4879 -0.6370
 2366SOL    HW218735   3.213   4.222   8.513 -2.3968 -0.0599 -0.6168
 2367SOL     OW18736   2.180   2.086   0.444 -0.3821  0.6410  0.0202
 2367SOL    HW118737   2.111   2.079   0.377 -0.4387  3.2834 -0.2112
 2367SOL    HW218738   2.121   2.098   0.519  0.3797  0.7736  0.5954
 2368SOL     OW18739   2.224   3.986   6.432  0.3253  0.5300  0.1677
 2368SOL    HW118740   2.265   3.911   6.389  0.2843 -0.5175  1.9274
 2368SOL    HW218741   2.216   4.052   6.363  0.7280  0.8443  0.4151
 2369SOL     OW18742   4.209   2.148  14.596 -0.0407  0.5439  0.4358
 2369SOL    HW118743   4.205   2.127  14.503  2.1780  1.2484  0.1809
 2369SOL    HW218744   4.117   2.150  14.621  0.0315 -2.2027  0.8268
 2370SOL     OW18745   0.960   3.336   1.468  0.0478  0.1413 -0.5916
 2370SOL    HW118746   1.020   3.366   1.399 -0.3845  1.9123 -0.1860
 2370SOL    HW218747   0.894   3.289   1.416 -0.1092  0.7629 -0.9563
 2371SOL     OW18748   4.250   0.913   2.837  0.0885 -0.2126  0.6196
 2371SOL    HW118749   4.228   0.840   2.895  0.4700 -0.8636 -0.0600
 2371SOL    HW218750   4.241   0.985   2.900 -0.8645 -0.4971  0.8089
 2372SOL     OW18751   1.915   0.967   2.279  0.4080 -0.0325 -0.3727
 2372SOL    HW118752   1.984   1.017   2.322 -0.1181  0.9821 -0.7076
 2372SOL    HW218753   1.957   0.947   2.195  0.1926  0.9941 -0.7314
 2373SOL     OW18754   4.372   4.716   5.368 -0.3950 -0.2915  0.2043
 2373SOL    HW118755   4.457   4.675   5.351 -1.1092 -1.9163  0.6036
 2373SOL    HW218756   4.349   4.679   5.453  1.3656 -0.3709  0.6509
 2374SOL     OW18757   1.333   1.251   3.930  0.1148  0.2714 -0.0348
 2374SOL    HW118758   1.392   1.215   3.863 -1.1697  0.7551 -1.4247
 2374SOL    HW218759   1.253   1.258   3.877 -1.1051 -0.8095  1.6678
 2375SOL     OW18760   3.090   2.656   7.045 -0.1302 -0.0313 -0.0678
 2375SOL    HW118761   3.143   2.736   7.049  0.0843 -0.1294 -0.9439
 2375SOL    HW218762   3.148   2.602   6.991 -0.5314  0.2926 -0.8171
 2376SOL     OW18763   3.579   0.419   3.687 -0.3077  0.7497  0.7074
 2376SOL    HW118764   3.503   0.427   3.744 -0.5277 -3.6151  1.0339
 2376SOL    HW218765   3.546   0.467   3.611  0.5216 -0.1576 -0.2250
 2377SOL     OW18766   2.579   3.152   5.289  0.1269  0.6828 -0.9812
 2377SOL    HW118767   2.640   3.224   5.303 -0.5178  1.5453 -2.7127
 2377SOL    HW218768   2.513   3.178   5.353  0.3307  2.6840 -1.6035
 2378SOL     OW18769   4.131   3.550  14.690 -1.4107 -0.7315  0.2359
 2378SOL    HW118770   4.160   3.476  14.636  0.3436 -2.3091  3.3313
 2378SOL    HW218771   4.203   3.613  14.699 -0.6445 -1.9036  2.4588
 2379SOL     OW18772   3.042   3.519   8.878 -0.3581 -0.5969  0.0063
 2379SOL    HW118773   3.015   3.455   8.944 -0.9180 -1.1960 -0.8011
 2379SOL    HW218774   2.995   3.599   8.900  0.3433  0.3625 -1.9780
 2380SOL     OW18775   0.599   4.277   8.721 -0.1124  0.2004  0.2791
 2380SOL    HW118776   0.661   4.276   8.794 -0.2417  0.9165  0.3963
 2380SOL    HW218777   0.559   4.362   8.737 -1.3821 -0.3384 -0.0323
 2381SOL     OW18778   4.188   4.048   6.013  0.2213  0.3110 -0.5806
 2381SOL    HW118779   4.171   3.964   6.056  1.3783  2.0810  3.3725
 2381SOL    HW218780   4.260   4.019   5.957  3.8268  3.3235  2.4851
 2382SOL     OW18781   2.513   4.365   8.147 -0.1904 -0.0397  0.7856
 2382SOL    HW118782   2.534   4.325   8.232  2.0026  0.5669  0.5352
 2382SOL    HW218783   2.449   4.432   8.169  1.6341  1.0683  2.6608
 2383SOL     OW18784   4.062   1.861  11.495 -0.5591  0.4150  0.1340
 2383SOL    HW118785   4.054   1.941  11.546  1.3268  0.6008  0.1352
 2383SOL    HW218786   4.009   1.887  11.420  0.1137  2.7965  0.4861
 2384SOL     OW18787   3.640   2.973   5.592  0.0929 -0.7225  0.1894
 2384SOL    HW118788   3.702   2.938   5.528  1.6445  0.9058  0.8133
 2384SOL    HW218789   3.566   2.986   5.532 -0.2650 -0.0922  0.7714
 2385SOL     OW18790   1.538   3.640   3.531  0.1994  0.1481 -0.5708
 2385SOL    HW118791   1.583   3.571   3.579  0.9883  0.6041 -0.6447
 2385SOL    HW218792   1.574   3.627   3.444  0.9393 -2.1465  0.0870
 2386SOL     OW18793   1.878   3.730   5.058 -0.5806 -0.0294 -0.8085
 2386SOL    HW118794   1.823   3.760   4.985 -0.0807  3.1071  0.0939
 2386SOL    HW218795   1.840   3.643   5.068  0.9746 -0.7540 -1.1878
 2387SOL     OW18796   3.044   3.830   9.361 -0.7415  0.5851  0.1772
 2387SOL    HW118797   3.138   3.816   9.374 -1.0572 -2.4516 -0.9797
 2387SOL    HW218798   3.010   3.768   9.426  0.4423 -0.9285 -0.6536
 2388SOL     OW18799   1.487   3.299   0.874 -0.2865  0.5251 -0.2764
 2388SOL    HW118800   1.559   3.362   0.882  0.2306  0.0954 -1.6556
 2388SOL    HW218801   1.440   3.302   0.958  0.6648  0.3746  0.2601
 2389SOL     OW18802   2.568   0.201  12.195 -0.1158  0.3848 -0.6441
 2389SOL    HW118803   2.582   0.295  12.202 -2.6960  0.7250  0.0754
 2389SOL    HW218804   2.655   0.173  12.224  0.1175  0.0737 -1.6559
 2390SOL     OW18805   0.035   3.362   8.280 -0.5869  0.2535  0.5247
 2390SOL    HW118806   0.019   3.291   8.217 -0.4764 -1.0875  2.0087
 2390SOL    HW218807   4.717   3.335   8.354 -0.1719 -0.1337  0.6873
 2391SOL     OW18808   3.819   1.602   8.725 -0.0430  0.3275  0.6442
 2391SOL    HW118809   3.806   1.621   8.818 -2.5980  1.2896  0.0720
 2391SOL    HW218810   3.839   1.691   8.696 -0.0855 -0.0246 -0.4451
 2392SOL     OW18811   0.503   0.432   6.185  0.2315 -0.3296 -0.2584
 2392SOL    HW118812   0.530   0.518   6.152  2.2820  0.1677  2.7624
 2392SOL    HW218813   0.496   0.370   6.112 -0.3359 -1.2229  0.5516
 2393SOL     OW18814   1.592   4.442   4.775  0.2487 -0.0551  1.0849
 2393SOL    HW118815   1.527   4.433   4.845  0.5557  0.3333  1.4194
 2393SOL    HW218816   1.536   4.476   4.705  2.4071  0.9135 -0.1588
 2394SOL     OW18817   4.245   4.656   5.615 -0.8650 -0.8125  0.5158
 2394SOL    HW118818   4.177   4.707   5.659  0.6078  1.2122  0.4656
 2394SOL    HW218819   4.195   4.592   5.565 -0.8489  0.4948 -1.1814
 2395SOL     OW18820   3.535   2.817   2.101 -0.5173 -0.1506  0.6252
 2395SOL    HW118821   3.526   2.741   2.158  0.3519 -0.5334  0.2607
 2395SOL    HW218822   3.526   2.786   2.011 -1.7747  0.3845  0.5648
 2396SOL     OW18823   4.489   4.365  11.901 -0.4465 -0.0211 -0.1813
 2396SOL    HW118824   4.493   4.437  11.838  0.1344 -0.1517 -0.2958
 2396SOL    HW218825   4.436   4.295  11.864  1.9385 -2.9244  1.8353
 2397SOL     OW18826   2.987   2.898   6.063 -0.1936 -0.0274 -0.3487
 2397SOL    HW118827   3.057   2.961   6.077  0.8412 -0.9640 -1.3214
 2397SOL    HW218828   2.976   2.879   6.157  0.9494 -2.7208 -0.7813
 2398SOL     OW18829   0.766   1.049  13.125 -0.6754 -0.0588  0.0802
 2398SOL    HW118830   0.766   1.098  13.043  2.5899 -0.1689  0.0246
 2398SOL    HW218831   0.675   1.055  13.156 -0.7699 -1.8337  0.1882
 2399SOL     OW18832   4.534   3.710   6.711 -0.5616  0.5159  0.3441
 2399SOL    HW118833   4.560   3.702   6.620  0.1555 -0.0133  0.5961
 2399SOL    HW218834   4.492   3.625   6.721 -0.6506  0.4704 -0.4258
 2400SOL     OW18835   2.391   3.097   4.572  0.7784 -0.3622 -0.1362
 2400SOL    HW118836   2.448   3.025   4.547  0.2097 -0.2497 -1.7742
 2400SOL    HW218837   2.388   3.079   4.666 -2.0525  0.2055 -0.1062
 2401SOL     OW18838   1.675   3.431   7.112 -0.0386  0.8002 -0.0385
 2401SOL    HW118839   1.726   3.500   7.154 -0.5567  0.4237  1.2032
 2401SOL    HW218840   1.600   3.429   7.171 -1.1113  1.8941 -1.3576
 2402SOL     OW18841   1.294   0.831   4.421 -1.0458  0.0350  0.2589
 2402SOL    HW118842   1.308   0.739   4.399  3.4267  0.7201  0.1246
 2402SOL    HW218843   1.200   0.828   4.407 -1.5110  2.2525  2.8866
 2403SOL     OW18844   0.617   0.111   7.293 -0.4040 -0.5957 -0.4946
 2403SOL    HW118845   0.681   0.147   7.233 -0.3673  0.0175 -0.0890
 2403SOL    HW218846   0.619   0.029   7.243  1.8573 -0.8259  0.0008
 2404SOL     OW18847   0.185   2.203   7.656 -0.2497 -0.0804 -0.2378
 2404SOL    HW118848   0.208   2.111   7.647  2.6062  0.9386 -3.2646
 2404SOL    HW218849   0.121   2.210   7.727 -0.0600  1.0527 -0.1742
 2405SOL     OW18850   3.364   1.388   3.682  0.0041 -0.0234  0.4439
 2405SOL    HW118851   3.387   1.397   3.590 -0.0023  3.3974  0.7711
 2405SOL    HW218852   3.402   1.471   3.710  0.3932 -0.6364  1.7550
 2406SOL     OW18853   3.616   2.995   9.213 -0.0508  0.2576 -0.8890
 2406SOL    HW118854   3.655   3.075   9.247  0.8372  0.5197 -2.5010
 2406SOL    HW218855   3.539   2.974   9.265  0.6211 -1.6026 -0.6382
 2407SOL     OW18856   0.188   3.242   9.499 -0.2543  0.2933  0.2999
 2407SOL    HW118857   0.122   3.293   9.452  0.1791  0.4089 -0.1876
 2407SOL    HW218858   0.171   3.291   9.580 -0.6140  1.1975 -0.3263
 2408SOL     OW18859   4.703   3.097   7.774 -0.3196 -0.1034  0.2227
 2408SOL    HW118860   4.730   3.009   7.802  0.4318 -0.3201 -1.2172
 2408SOL    HW218861   4.723   3.104   7.681 -0.9530 -1.8531 -0.0560
 2409SOL     OW18862   3.071   1.087  10.139  0.0760 -0.4692  0.1366
 2409SOL    HW118863   3.073   1.082  10.234 -0.9814  1.0752  0.2426
 2409SOL    HW218864   3.030   1.006  10.108 -1.7259 -0.1229  1.6154
 2410SOL     OW18865   2.175   2.849  14.717 -0.1171  0.6402 -0.9109
 2410SOL    HW118866   2.139   2.830  14.804  0.7551  0.9635 -0.4823
 2410SOL    HW218867   2.201   2.938  14.739 -0.9152  0.8649 -0.8787
 2411SOL     OW18868   0.633   3.435   5.768  0.1098 -0.2137 -0.0714
 2411SOL    HW118869   0.713   3.475   5.799 -0.9257  0.6246  1.5047
 2411SOL    HW218870   0.618   3.365   5.832 -3.3919  0.5798 -0.0285
 2412SOL     OW18871   1.534   2.345   3.148  0.2834  0.0302 -0.1007
 2412SOL    HW118872   1.565   2.366   3.060  0.4450  2.2789  0.4867
 2412SOL    HW218873   1.472   2.417   3.157  0.4684  0.6707 -4.0833
 2413SOL     OW18874   2.941   3.890   8.246 -0.4878 -0.0724 -0.2018
 2413SOL    HW118875   2.992   3.813   8.224  1.0230  1.2512 -1.3111
 2413SOL    HW218876   2.863   3.840   8.272 -1.4475  1.4761 -0.0929
 2414SOL     OW18877   2.027   2.216   5.262  0.3798 -0.3790  0.7682
 2414SOL    HW118878   2.107   2.268   5.261  0.2748 -0.2384  0.0599
 2414SOL    HW218879   1.964   2.284   5.285 -3.1576 -2.7088 -1.9273
 2415SOL     OW18880   3.506   4.346  13.362  0.4360  0.0562  0.1778
 2415SOL    HW118881   3.474   4.408  13.297 -0.4738 -0.8740 -0.2735
 2415SOL    HW218882   3.421   4.329  13.403  0.3608  0.2207  0.0888
 2416SOL     OW18883   0.522   1.067   8.208 -0.7613 -0.0811 -0.2605
 2416SOL    HW118884   0.493   0.982   8.243 -0.5089  0.4988  1.3493
 2416SOL    HW218885   0.519   1.127   8.283 -1.5696  0.1870 -0.5100
 2417SOL     OW18886   1.054   3.127   3.169  0.1601  0.2416  0.0053
 2417SOL    HW118887   0.960   3.117   3.156 -0.2400 -1.3336  4.4542
 2417SOL    HW218888   1.057   3.216   3.133 -0.9184  0.4916  0.5445
 2418SOL     OW18889   0.465   0.451  12.569 -0.0228  0.2492  0.4303
 2418SOL    HW118890   0.479   0.436  12.475 -0.1684  1.6544  0.1906
 2418SOL    HW218891   0.527   0.388  12.605 -1.5724 -0.9313  1.0704
 2419SOL     OW18892   3.867   0.319   4.205 -0.1373 -0.2251 -0.4579
 2419SOL    HW118893   3.816   0.336   4.284 -1.9338  0.2237 -1.7223
 2419SOL    HW218894   3.804   0.282   4.142 -0.5010  2.5170 -1.6872
 2420SOL     OW18895   3.977   2.148  11.550  0.2690 -0.1052  0.7669
 2420SOL    HW118896   3.966   2.236  11.585 -0.8526  0.3909 -0.8551
 2420SOL    HW218897   3.901   2.106  11.590  0.6809 -2.8694 -1.3677
 2421SOL     OW18898   1.595   0.278   7.515  0.3513  0.1807 -0.3225
 2421SOL    HW118899   1.560   0.306   7.600  2.7701  0.2931  0.6256
 2421SOL    HW218900   1.667   0.339   7.500  2.3122 -1.5492  2.0991
 2422SOL     OW18901   2.196   2.368   4.210 -0.4353 -0.1452  0.1997
 2422SOL    HW118902   2.219   2.434   4.145 -0.6123 -1.5924 -1.3395
 2422SOL    HW218903   2.102   2.360   4.192 -0.5600 -0.5719  1.0384
 2423SOL     OW18904   2.200   0.534   3.065  0.6119  0.1923 -0.0705
 2423SOL    HW118905   2.231   0.554   2.977 -0.2824 -1.7206 -0.8275
 2423SOL    HW218906   2.206   0.619   3.108  3.2704 -0.2709  0.4665
 2424SOL     OW18907   1.639   3.902   9.610 -0.1513  0.2035 -0.2441
 2424SOL    HW118908   1.547   3.906   9.633 -0.0418 -1.8977  0.6037
 2424SOL    HW218909   1.647   3.988   9.569  1.4510  1.2094  2.1639
 2425SOL     OW18910   2.919   3.084   5.365 -0.1626  0.2594  0.2247
 2425SOL    HW118911   2.860   3.118   5.298  0.0678 -1.1792 -0.7034
 2425SOL    HW218912   2.894   2.993   5.379 -1.2969  0.4058 -0.7902
 2426SOL     OW18913   4.593   0.882   5.454  0.4013 -0.5929 -0.1447
 2426SOL    HW118914   4.563   0.968   5.485 -0.5561 -0.9351 -0.1071
 2426SOL    HW218915   4.539   0.889   5.375 -0.9738  0.9164  0.9111
 2427SOL     OW18916   2.531   2.272   4.625 -0.2940  0.4104  0.4355
 2427SOL    HW118917   2.596   2.333   4.661  0.0867  0.3722 -0.1716
 2427SOL    HW218918   2.486   2.327   4.561  1.3309 -1.1446 -2.0432
 2428SOL     OW18919   3.291   0.364   3.614  0.5988  0.1721 -0.1338
 2428SOL    HW118920   3.238   0.310   3.672 -1.6400  1.1444 -1.2982
 2428SOL    HW218921   3.305   0.304   3.540  1.4212 -0.8704  0.8511
 2429SOL     OW18922   3.377   3.938   9.412 -0.2862  0.1628 -0.0313
 2429SOL    HW118923   3.353   4.012   9.467 -3.7003 -0.6375 -0.4696
 2429SOL    HW218924   3.393   3.861   9.466 -1.3351  0.6370  0.9399
 2430SOL     OW18925   2.648   1.138   6.910 -0.2270 -0.4431  0.2333
 2430SOL    HW118926   2.649   1.151   6.815 -0.0823 -0.8049  0.1856
 2430SOL    HW218927   2.564   1.096   6.928 -0.4737 -1.0214 -2.2398
 2431SOL     OW18928   0.264   4.633   9.888  0.0743 -0.8377  0.4779
 2431SOL    HW118929   0.199   4.584   9.838  0.4930  1.0237 -1.9145
 2431SOL    HW218930   0.329   4.651   9.819  0.0016 -1.9789  0.0995
 2432SOL     OW18931   1.283   1.762   0.945 -0.2133 -0.5991 -0.0133
 2432SOL    HW118932   1.307   1.670   0.951  1.3367 -0.1927  0.1575
 2432SOL    HW218933   1.367   1.791   0.909 -1.3774  0.2859 -2.0128
 2433SOL     OW18934   2.379   0.082   4.081  0.0536  0.1697 -1.0639
 2433SOL    HW118935   2.352   0.172   4.062  2.1696  1.3698  1.6114
 2433SOL    HW218936   2.293   0.042   4.096  0.8736 -0.9268  0.8241
 2434SOL     OW18937   4.024   2.982   8.003  0.3554  0.5624  0.2750
 2434SOL    HW118938   3.981   2.897   8.008  0.0523  0.6316 -1.1360
 2434SOL    HW218939   4.101   2.957   7.951 -0.4887 -1.0401 -0.2072
 2435SOL     OW18940   0.116   0.913   2.864 -0.0338 -0.1897  0.4679
 2435SOL    HW118941   0.061   0.911   2.942  0.3258  3.2401  0.7808
 2435SOL    HW218942   0.147   0.822   2.861 -1.7974 -0.9044  3.6558
 2436SOL     OW18943   4.096   3.396  15.193 -0.2861 -0.5932 -0.0866
 2436SOL    HW118944   4.088   3.465  15.258 -0.4823 -0.6788 -0.0220
 2436SOL    HW218945   4.094   3.454  15.117 -1.4148 -0.6886 -0.1193
 2437SOL     OW18946   2.313   2.145   1.877 -0.0558 -0.6037 -0.1348
 2437SOL    HW118947   2.322   2.202   1.954 -1.6545  0.0648 -0.4490
 2437SOL    HW218948   2.333   2.063   1.922  0.5743  0.1980  1.0536
 2438SOL     OW18949   1.695   3.529   5.696  0.0086 -0.7264  0.3338
 2438SOL    HW118950   1.657   3.611   5.727  1.3421 -0.4937  1.3057
 2438SOL    HW218951   1.787   3.552   5.698  0.1997 -1.4194 -0.5960
 2439SOL     OW18952   1.682   1.857  10.645 -0.1098  0.2859  0.0543
 2439SOL    HW118953   1.768   1.893  10.667  0.9566 -0.8269 -2.2870
 2439SOL    HW218954   1.630   1.915  10.700 -1.4958 -2.1335  1.2740
 2440SOL     OW18955   1.024   4.017   0.573  0.1971  0.3414  0.2556
 2440SOL    HW118956   1.016   4.062   0.489  1.7992  0.0336 -0.0461
 2440SOL    HW218957   1.102   4.055   0.613  0.2478  1.6507 -1.0697
 2441SOL     OW18958   0.927   1.324   8.074  0.2324  0.2931 -0.4803
 2441SOL    HW118959   0.978   1.404   8.078 -0.4167  0.6721  0.1366
 2441SOL    HW218960   0.838   1.353   8.094  0.0810 -0.7897  0.4247
 2442SOL     OW18961   0.054   0.934   1.411  0.2290 -1.3115  0.1001
 2442SOL    HW118962   0.073   0.965   1.322  0.0864 -1.4501  0.0215
 2442SOL    HW218963   4.732   1.006   1.435 -0.9039 -1.9743 -0.6693
 2443SOL     OW18964   2.894   3.950   3.152  0.4063  0.0639 -0.1443
 2443SOL    HW118965   2.974   3.973   3.199 -0.2989  1.5325  0.3323
 2443SOL    HW218966   2.832   3.977   3.220  1.8006 -2.0062  1.9249
 2444SOL     OW18967   3.935   1.886   6.904  0.0748 -0.0947 -0.3061
 2444SOL    HW118968   3.846   1.918   6.890 -0.0728 -0.3133  0.1288
 2444SOL    HW218969   3.973   1.945   6.838  0.3283  0.7884  0.6363
 2445SOL     OW18970   3.893   4.112  17.537  0.3291  0.1297 -0.2057
 2445SOL    HW118971   3.833   4.080  17.605  0.2906 -0.9895 -0.7692
 2445SOL    HW218972   3.979   4.100  17.577  0.2909  2.8934  0.6557
 2446SOL     OW18973   0.069   3.702   4.206  0.5345  0.3588  0.6309
 2446SOL    HW118974   0.124   3.732   4.134 -1.2340  0.6580 -0.5961
 2446SOL    HW218975   4.726   3.676   4.160  0.6076  1.0421  0.1309
 2447SOL     OW18976   1.745   3.470   8.573  0.2496 -0.6745  0.1333
 2447SOL    HW118977   1.706   3.420   8.645 -0.0907 -0.5737  0.0173
 2447SOL    HW218978   1.739   3.422   8.491 -1.6513  1.6721 -1.0890
 2448SOL     OW18979   4.255   4.436   6.712  0.1237  0.2126  0.0642
 2448SOL    HW118980   4.326   4.462   6.772  1.0138  1.6875 -1.6201
 2448SOL    HW218981   4.296   4.360   6.671 -1.0671 -0.5362  0.2897
 2449SOL     OW18982   3.367   2.118   2.148 -0.4415  0.3607 -0.1405
 2449SOL    HW118983   3.286   2.070   2.126  0.5287 -0.6658 -1.4735
 2449SOL    HW218984   3.365   2.194   2.090  1.3924  0.7675  0.3361
 2450SOL     OW18985   2.417   2.930   7.221  0.2067 -0.1349 -0.1019
 2450SOL    HW118986   2.454   3.017   7.233  1.4104 -0.4842 -1.3054
 2450SOL    HW218987   2.462   2.898   7.143 -1.6625 -0.1687 -1.1790
 2451SOL     OW18988   1.474   2.449   7.006  1.1173 -0.0678  0.4997
 2451SOL    HW118989   1.441   2.438   7.095  0.6834  1.2356  0.4993
 2451SOL    HW218990   1.423   2.378   6.968 -0.7021  1.1603  0.6511
 2452SOL     OW18991   4.696   0.835   8.391  1.0456 -0.6204 -0.2512
 2452SOL    HW118992   0.007   0.851   8.472 -1.7153  1.9273  0.8662
 2452SOL    HW218993   4.670   0.749   8.424  1.6288 -1.0226 -0.8493
 2453SOL     OW18994   2.412   0.726   5.338  0.1121  0.4690 -0.2394
 2453SOL    HW118995   2.322   0.721   5.306 -0.5032  0.2407  1.5289
 2453SOL    HW218996   2.401   0.667   5.412 -0.4570 -0.8984 -1.4235
 2454SOL     OW18997   0.546   0.432   2.506 -0.7395  0.1398 -0.3566
 2454SOL    HW118998   0.608   0.491   2.462  0.3054 -1.9935 -1.7442
 2454SOL    HW218999   0.467   0.485   2.499 -1.2904 -0.5184  0.9441
 2455SOL     OW19000   4.425   0.176   4.615 -0.8765 -0.0229  0.1006
 2455SOL    HW119001   4.479   0.109   4.659 -1.7965 -0.3673  0.7012
 2455SOL    HW219002   4.357   0.118   4.581 -1.1860  0.3692  0.0614
 2456SOL     OW19003   0.200   4.247  15.053 -0.2846 -0.1182  0.3352
 2456SOL    HW119004   0.122   4.226  15.104  0.3919 -1.1320  0.9710
 2456SOL    HW219005   0.211   4.342  15.048  0.0980 -0.2848 -1.9832
 2457SOL     OW19006   0.990   2.933   9.974  0.1001  0.0967  0.2727
 2457SOL    HW119007   0.944   2.962  10.053 -1.5566  0.8481 -0.9633
 2457SOL    HW219008   0.976   3.000   9.908 -2.6098 -0.5939  0.1474
 2458SOL     OW19009   2.608   0.501   6.853  0.3244  0.2756 -0.1238
 2458SOL    HW119010   2.618   0.595   6.867 -1.0262  0.1192  1.8977
 2458SOL    HW219011   2.692   0.468   6.886  1.2675 -0.3728 -3.1712
 2459SOL     OW19012   3.405   2.782   9.575 -0.0125  0.0360  0.2697
 2459SOL    HW119013   3.493   2.760   9.545  0.5980  2.0092  0.6228
 2459SOL    HW219014   3.425   2.848   9.641  0.3826  0.0109  0.1768
 2460SOL     OW19015   2.890   0.313   8.321  0.8249  0.3100 -0.0593
 2460SOL    HW119016   2.879   0.240   8.261 -3.3912  0.3750  0.6814
 2460SOL    HW219017   2.839   0.278   8.394 -2.5028 -1.7359 -3.3979
 2461SOL     OW19018   4.234   0.717   7.371  0.5424 -0.1265 -0.0130
 2461SOL    HW119019   4.231   0.674   7.456  1.5932  3.1872  1.6798
 2461SOL    HW219020   4.140   0.721   7.354  0.5629 -0.2112 -0.1543
 2462SOL     OW19021   0.253   3.627   1.299 -0.3070  0.1076  0.0361
 2462SOL    HW119022   0.206   3.710   1.293 -0.2027  0.2693  1.4720
 2462SOL    HW219023   0.262   3.619   1.394  3.3063  2.0164 -0.1598
 2463SOL     OW19024   2.005   2.480   0.127 -0.0109 -0.0260  0.1053
 2463SOL    HW119025   1.921   2.447   0.157  0.7374 -1.6430  0.4441
 2463SOL    HW219026   2.052   2.491   0.210 -0.2508  0.6348  0.1564
 2464SOL     OW19027   2.989   4.432  14.851  0.5461 -0.0264  0.0935
 2464SOL    HW119028   2.924   4.497  14.823 -1.6004 -0.8102  3.2122
 2464SOL    HW219029   3.032   4.479  14.922 -0.5122  1.2805 -0.1248
 2465SOL     OW19030   2.573   3.996   2.106  0.3151 -0.1272 -0.4416
 2465SOL    HW119031   2.527   3.916   2.131  1.2645 -0.7512 -0.7112
 2465SOL    HW219032   2.539   4.048   2.179 -0.5914  0.9298 -1.6168
 2466SOL     OW19033   1.548   2.972   3.197 -0.2507 -0.2907  0.2436
 2466SOL    HW119034   1.579   2.938   3.281  2.1967  0.4340 -0.3620
 2466SOL    HW219035   1.561   3.064   3.216  2.5940 -1.1914  2.6626
 2467SOL     OW19036   4.570   1.543   8.409  0.5823  0.0471  0.1072
 2467SOL    HW119037   4.540   1.573   8.495 -5.0061 -1.0543 -1.4785
 2467SOL    HW219038   4.498   1.480   8.405  1.0218 -0.5387  1.1729
 2468SOL     OW19039   3.063   4.449   5.421 -0.4629 -0.1919  0.1912
 2468SOL    HW119040   3.073   4.536   5.384  3.3227 -0.4363  0.6435
 2468SOL    HW219041   3.156   4.431   5.430 -0.5791 -1.0341 -0.2947
 2469SOL     OW19042   2.984   2.387  15.183  0.1653  0.2483  0.2532
 2469SOL    HW119043   2.908   2.371  15.127  0.9326  1.0589 -1.0087
 2469SOL    HW219044   3.043   2.410  15.111  1.1054  0.4770  1.0932
 2470SOL     OW19045   4.279   2.071  10.486  0.0082 -0.1984  0.1324
 2470SOL    HW119046   4.314   1.984  10.502  1.1672  0.5684  1.7674
 2470SOL    HW219047   4.185   2.055  10.494  0.3230 -1.4334  1.2214
 2471SOL     OW19048   4.037   0.050   4.878  0.0709  0.0249  0.3453
 2471SOL    HW119049   3.975   0.019   4.943  1.2592 -0.8837  1.0522
 2471SOL    HW219050   3.992   0.013   4.802 -1.3910 -0.0184  1.2291
 2472SOL     OW19051   1.947   0.949   9.777 -0.3149  0.2076  0.2949
 2472SOL    HW119052   1.975   1.023   9.831  1.8402 -1.0992  0.9794
 2472SOL    HW219053   1.887   0.912   9.842  1.5874 -1.7745  0.9175
 2473SOL     OW19054   3.518   2.759   1.840 -0.3154 -0.8782  0.8317
 2473SOL    HW119055   3.479   2.678   1.808 -0.9617 -1.6846  3.7127
 2473SOL    HW219056   3.438   2.811   1.838  0.3053 -0.0835 -3.4854
 2474SOL     OW19057   2.895   3.672   7.924  0.1072 -0.3669 -0.0529
 2474SOL    HW119058   2.973   3.686   7.977  1.5312  0.0979 -2.2876
 2474SOL    HW219059   2.900   3.576   7.919  0.6283 -0.3083 -0.6179
 2475SOL     OW19060   4.034   3.505   6.546 -0.0864 -0.3006  0.4026
 2475SOL    HW119061   4.060   3.418   6.514  1.8559  1.4938 -2.9051
 2475SOL    HW219062   3.940   3.486   6.554 -0.1494 -0.2960 -0.2961
 2476SOL     OW19063   3.629   3.314   5.932  0.6980  0.1981 -0.1734
 2476SOL    HW119064   3.577   3.239   5.902  0.8772 -0.1889  0.5007
 2476SOL    HW219065   3.718   3.278   5.927  0.0682 -1.3493 -0.2356
 2477SOL     OW19066   2.920   2.139   2.310  0.5711 -0.3090  0.4014
 2477SOL    HW119067   2.941   2.184   2.228  0.9047 -0.6068  0.3174
 2477SOL    HW219068   3.005   2.115   2.346  1.0283  0.5854 -0.0752
 2478SOL     OW19069   0.151   0.421  10.181  0.2507 -0.5068 -0.6369
 2478SOL    HW119070   0.193   0.507  10.179 -1.7828  0.4541 -2.3890
 2478SOL    HW219071   0.216   0.370  10.228  1.3263  0.9125 -0.5665
 2479SOL     OW19072   1.530   0.009   8.620  0.1788 -0.0697 -0.5099
 2479SOL    HW119073   1.460   4.725   8.559  0.7034  0.7752 -1.4175
 2479SOL    HW219074   1.487   0.082   8.665 -0.0643  0.0485 -0.9394
 2480SOL     OW19075   2.983   3.927   5.087  0.2029 -0.1466 -0.1702
 2480SOL    HW119076   3.046   3.973   5.143  1.5261 -2.8336  0.5302
 2480SOL    HW219077   2.949   3.866   5.151  0.3017 -3.2310 -3.0619
 2481SOL     OW19078   4.458   2.486   3.919  0.5846 -0.0331 -0.3475
 2481SOL    HW119079   4.394   2.416   3.938  0.0027  1.3868  2.9012
 2481SOL    HW219080   4.495   2.439   3.845  0.4098 -2.7076  1.2419
 2482SOL     OW19081   3.036   4.487   4.890 -0.1410  0.0571  0.9605
 2482SOL    HW119082   3.091   4.502   4.813  1.1352 -0.1119  1.8299
 2482SOL    HW219083   2.949   4.500   4.852  1.0786  4.2227 -0.4114
 2483SOL     OW19084   3.645   2.399   2.117 -0.0765 -0.3520 -0.4968
 2483SOL    HW119085   3.693   2.318   2.101 -1.2845 -0.9687 -1.0512
 2483SOL    HW219086   3.665   2.443   2.034  1.0030 -0.4056 -0.2620
 2484SOL     OW19087   3.771   2.335  13.173  0.6349 -0.4554 -0.1323
 2484SOL    HW119088   3.776   2.332  13.077  5.1140  1.5176  0.0188
 2484SOL    HW219089   3.862   2.362  13.185 -0.0156  2.1978 -1.0662
 2485SOL     OW19090   3.431   1.293  10.880  0.5548 -0.1091 -0.3653
 2485SOL    HW119091   3.475   1.379  10.880 -1.1354  0.7564 -1.4591
 2485SOL    HW219092   3.498   1.239  10.921 -0.1651  0.7912  2.0327
 2486SOL     OW19093   2.014   4.605   1.211 -0.0527  0.1811 -0.4023
 2486SOL    HW119094   2.017   4.526   1.158 -0.4162 -0.3844  0.4277
 2486SOL    HW219095   2.030   4.673   1.146 -0.1348 -0.2901 -0.9140
 2487SOL     OW19096   4.318   1.687   4.637 -0.2790  0.0789 -0.6953
 2487SOL    HW119097   4.239   1.738   4.618 -0.7800 -0.1979  0.6195
 2487SOL    HW219098   4.286   1.605   4.674  2.1919 -0.6770 -0.2404
 2488SOL     OW19099   0.146   2.231   0.988 -0.6798 -0.3568  0.1186
 2488SOL    HW119100   0.097   2.170   1.043  0.7853 -1.6711 -0.0619
 2488SOL    HW219101   0.123   2.311   1.036  0.0124  0.5677 -1.1004
 2489SOL     OW19102   3.768   2.148   6.407 -0.0741 -0.3119  0.3689
 2489SOL    HW119103   3.768   2.164   6.313  1.1667  1.8583  0.7240
 2489SOL    HW219104   3.758   2.238   6.439 -1.2561 -0.5911  0.7877
 2490SOL     OW19105   0.999   4.255   7.679  0.0478 -0.2839 -0.0674
 2490SOL    HW119106   0.909   4.251   7.646  0.0438 -1.1850  0.0341
 2490SOL    HW219107   1.043   4.315   7.619  1.2972 -0.1824  0.9421
 2491SOL     OW19108   0.572   1.018   4.414  0.2002  0.1560 -0.1960
 2491SOL    HW119109   0.480   0.991   4.421  0.0872 -0.0113 -2.2841
 2491SOL    HW219110   0.591   1.046   4.504 -1.6114 -0.4690  0.3897
 2492SOL     OW19111   3.165   0.771   4.876 -0.1116 -0.0444  0.1413
 2492SOL    HW119112   3.224   0.839   4.844 -2.6465  1.0645 -2.2232
 2492SOL    HW219113   3.084   0.796   4.831  0.7810  2.7106  0.0548
 2493SOL     OW19114   2.745   0.423  15.023 -0.3479 -0.5038  0.6561
 2493SOL    HW119115   2.732   0.348  15.081 -1.3337  1.4208  2.9503
 2493SOL    HW219116   2.834   0.404  14.996  0.6430  3.5392  1.0270
 2494SOL     OW19117   4.399   1.466   9.496  0.3949  0.1199 -0.1259
 2494SOL    HW119118   4.446   1.383   9.506  0.4140 -0.0760 -1.8325
 2494SOL    HW219119   4.313   1.427   9.480  0.1341  0.4608  0.4489
 2495SOL     OW19120   2.666   2.975   9.729  0.1273 -0.4945  0.0934
 2495SOL    HW119121   2.695   2.943   9.815 -0.7427 -1.6383 -0.0400
 2495SOL    HW219122   2.718   2.920   9.672  1.3181  1.5260 -0.7533
 2496SOL     OW19123   1.793   1.355   4.680  0.1407  0.1989 -0.4702
 2496SOL    HW119124   1.711   1.332   4.637  1.4898 -3.2275 -1.2473
 2496SOL    HW219125   1.786   1.305   4.762 -2.0682 -0.0975 -0.8355
 2497SOL     OW19126   3.101   2.900   0.983  0.6918 -0.3152 -0.3501
 2497SOL    HW119127   3.025   2.917   0.927  1.6731  1.7946 -1.0535
 2497SOL    HW219128   3.062   2.897   1.070  1.8423 -1.6371  0.1198
 2498SOL     OW19129   4.365   2.740   1.751 -0.1734 -0.7995  0.1373
 2498SOL    HW119130   4.407   2.738   1.837 -0.1344 -1.2773  0.1081
 2498SOL    HW219131   4.281   2.706   1.783  0.3579 -1.3175  0.9611
 2499SOL     OW19132   1.752   2.727   5.881 -0.5813 -1.1839 -0.6599
 2499SOL    HW119133   1.790   2.797   5.829 -0.3871 -0.8089 -0.0128
 2499SOL    HW219134   1.684   2.699   5.819 -1.1615  1.8420 -1.4144
 2500SOL     OW19135   3.231   4.612   8.788 -0.8727  0.3382 -0.0761
 2500SOL    HW119136   3.286   4.550   8.837 -1.7748 -0.5563 -0.1840
 2500SOL    HW219137   3.185   4.658   8.858 -0.3099  1.7502 -0.6334
 2501SOL     OW19138   1.207   2.971   8.764 -0.1406  0.0991  0.6284
 2501SOL    HW119139   1.132   2.999   8.816 -0.6915  0.4539 -0.3507
 2501SOL    HW219140   1.276   2.935   8.819 -0.9435 -1.2814  0.7477
 2502SOL     OW19141   0.863   0.535   2.701 -0.2059 -0.5730 -0.2084
 2502SOL    HW119142   0.954   0.511   2.715  0.4169  1.3886 -0.8677
 2502SOL    HW219143   0.844   0.460   2.645  0.8264 -1.0210  0.0449
 2503SOL     OW19144   0.545   3.230   9.620 -0.5864  0.1266 -0.4735
 2503SOL    HW119145   0.518   3.319   9.596  2.4449  1.0640 -0.4475
 2503SOL    HW219146   0.608   3.246   9.691 -0.0373  1.1027 -1.1792
 2504SOL     OW19147   2.075   4.719   4.883  0.1530 -0.0151  0.2351
 2504SOL    HW119148   1.995   0.025   4.912  0.3157 -0.9176  2.0089
 2504SOL    HW219149   2.067   4.717   4.787  2.0270 -1.4661  0.1116
 2505SOL     OW19150   3.747   0.362   4.441  0.2925 -0.0473  0.0897
 2505SOL    HW119151   3.728   0.446   4.400  0.1386  0.3697  1.0137
 2505SOL    HW219152   3.798   0.399   4.513  0.5695  0.0514 -0.1593
 2506SOL     OW19153   4.226   0.023   2.599 -0.0273  0.2255 -0.2324
 2506SOL    HW119154   4.198   0.110   2.628  0.8149  0.7522 -1.0205
 2506SOL    HW219155   4.305   0.044   2.549  0.3162 -1.3662 -0.3524
 2507SOL     OW19156   2.174   2.870   4.436 -0.3840 -0.0645 -0.3560
 2507SOL    HW119157   2.181   2.831   4.523 -0.6177 -2.6792 -1.5203
 2507SOL    HW219158   2.107   2.938   4.441 -0.4183 -0.0790 -0.6558
 2508SOL     OW19159   0.905   3.650   3.973  0.2984 -0.5328  0.1061
 2508SOL    HW119160   0.883   3.661   4.066 -2.5745  2.1213 -0.8864
 2508SOL    HW219161   0.999   3.659   3.985  0.2091 -0.1245  0.4897
 2509SOL     OW19162   1.608   1.044  10.821 -0.0517 -0.3985  0.2144
 2509SOL    HW119163   1.604   1.137  10.843 -0.3520 -0.4006  0.1697
 2509SOL    HW219164   1.688   1.027  10.871  1.6404  3.1920 -1.2547
 2510SOL     OW19165   2.177   0.467   1.234  0.0859  0.3900  0.9329
 2510SOL    HW119166   2.177   0.383   1.281 -1.3543  0.8997  1.8341
 2510SOL    HW219167   2.219   0.526   1.296  1.2546 -0.2160  0.7254
 2511SOL     OW19168   3.635   1.446  12.062 -0.2578  0.3029 -0.2505
 2511SOL    HW119169   3.690   1.484  11.994  0.4752  1.4928  0.9959
 2511SOL    HW219170   3.676   1.372  12.107 -2.5815 -0.5580  0.4505
 2512SOL     OW19171   3.433   2.070   5.907 -0.2568 -0.2685  0.0782
 2512SOL    HW119172   3.428   2.008   5.834  3.0683 -0.1156 -0.3082
 2512SOL    HW219173   3.485   2.140   5.867 -1.2232  0.5489  0.2534
 2513SOL     OW19174   2.074   0.560   8.388 -0.3042 -0.1232 -0.0802
 2513SOL    HW119175   2.001   0.523   8.339 -0.5886  0.3817 -0.0306
 2513SOL    HW219176   2.140   0.571   8.319  0.5894 -1.5878  0.5267
 2514SOL     OW19177   2.281   2.241  12.820  0.0325  0.2651  0.0880
 2514SOL    HW119178   2.346   2.292  12.770 -0.6015  0.3044 -0.7029
 2514SOL    HW219179   2.339   2.167  12.837  1.0691  1.0991  0.1910
 2515SOL     OW19180   0.508   3.087   8.706 -0.1731  0.0400  1.3340
 2515SOL    HW119181   0.438   3.035   8.666 -0.4789  0.1519  1.7144
 2515SOL    HW219182   0.501   3.179   8.682  3.0276  0.6881  2.8609
 2516SOL     OW19183   0.816   3.051   6.681 -0.4141 -0.4283  0.2954
 2516SOL    HW119184   0.866   3.122   6.641 -0.5538 -0.3480  0.2633
 2516SOL    HW219185   0.887   3.017   6.736 -0.5958 -1.3917 -0.0627
 2517SOL     OW19186   3.090   0.821  13.849 -0.1697  0.6030  0.4931
 2517SOL    HW119187   3.179   0.852  13.832  0.2723 -1.3437 -0.7464
 2517SOL    HW219188   3.055   0.815  13.760  0.5336 -2.2321  0.3910
 2518SOL     OW19189   1.730   1.866  13.260 -0.0025 -0.4212 -0.1338
 2518SOL    HW119190   1.644   1.838  13.231 -0.7427  0.3265  1.2918
 2518SOL    HW219191   1.754   1.796  13.321 -0.1289 -1.8032 -1.6639
 2519SOL     OW19192   4.110   0.244   8.410  0.2481  0.4773  0.4583
 2519SOL    HW119193   4.067   0.172   8.455  0.9077 -0.3289 -0.2087
 2519SOL    HW219194   4.144   0.288   8.488 -0.8067  0.9509  0.6522
 2520SOL     OW19195   3.433   2.482   8.397 -0.0714 -0.4317 -0.0553
 2520SOL    HW119196   3.496   2.520   8.336 -1.5833  1.7793 -0.2315
 2520SOL    HW219197   3.427   2.396   8.356  0.8834 -0.9991  1.0001
 2521SOL     OW19198   2.436   3.118   1.633  0.1934 -0.6979  0.4319
 2521SOL    HW119199   2.357   3.071   1.607  1.4359 -1.5752 -1.7043
 2521SOL    HW219200   2.463   3.065   1.707  0.5251 -2.3172 -0.8664
 2522SOL     OW19201   2.838   3.586   7.143 -0.1363  0.0169 -0.1987
 2522SOL    HW119202   2.930   3.574   7.118 -0.6077 -0.9206 -1.4075
 2522SOL    HW219203   2.832   3.497   7.177 -1.5596  0.6256  1.1405
 2523SOL     OW19204   1.302   3.445   0.703  0.4431  0.5130 -0.6721
 2523SOL    HW119205   1.272   3.366   0.660 -0.9039  1.2922 -1.1485
 2523SOL    HW219206   1.397   3.433   0.708  0.1461 -0.9968  1.4860
 2524SOL     OW19207   1.323   0.249  16.530  0.0582 -0.1660 -0.4250
 2524SOL    HW119208   1.287   0.238  16.442  0.4254 -0.1318 -0.5803
 2524SOL    HW219209   1.369   0.332  16.517 -1.0336  0.5087  0.0340
 2525SOL     OW19210   4.689   2.242   9.154  0.7107  0.2444 -0.5787
 2525SOL    HW119211   4.686   2.326   9.109  1.1312  0.4587 -0.2071
 2525SOL    HW219212   4.678   2.277   9.243  1.6890  0.7217 -0.6446
 2526SOL     OW19213   1.085   1.975   2.322 -0.1933 -0.2984 -0.5151
 2526SOL    HW119214   1.144   1.901   2.307 -1.5189 -1.3980 -0.3734
 2526SOL    HW219215   1.028   1.932   2.386  1.3357  0.1519  1.1405
 2527SOL     OW19216   2.592   4.706   2.604  0.2606  0.3892  0.0743
 2527SOL    HW119217   2.662   4.641   2.592 -1.7635 -1.3684 -2.2133
 2527SOL    HW219218   2.534   4.686   2.531  1.9325 -2.2075 -0.5794
 2528SOL     OW19219   2.498   3.252  11.081 -0.2122 -0.0019  0.1173
 2528SOL    HW119220   2.593   3.259  11.094  0.0953 -2.0098 -1.0896
 2528SOL    HW219221   2.478   3.173  11.130 -2.2591  0.6974  0.4056
 2529SOL     OW19222   0.650   2.417   2.789  0.9134  0.0724  0.2211
 2529SOL    HW119223   0.618   2.470   2.716 -0.6963  1.1335  1.6807
 2529SOL    HW219224   0.622   2.329   2.764  0.1775  0.5938 -0.7650
 2530SOL     OW19225   1.547   0.381  10.235 -0.3230 -0.8351 -0.4947
 2530SOL    HW119226   1.586   0.448  10.180  1.0499 -0.6871  0.6730
 2530SOL    HW219227   1.591   0.399  10.318 -1.3292  3.3025 -0.8590
 2531SOL     OW19228   1.326   1.079  17.182 -0.1509  0.4640  0.3225
 2531SOL    HW119229   1.366   1.061  17.267  1.5405 -1.0968 -0.8251
 2531SOL    HW219230   1.391   1.094  17.114 -0.6246 -1.1947 -0.4806
 2532SOL     OW19231   2.633   0.386  13.644  0.1065 -0.2942  0.2301
 2532SOL    HW119232   2.538   0.391  13.639  0.1090  1.0762  1.5353
 2532SOL    HW219233   2.658   0.348  13.728 -0.9278 -0.3128  0.5233
 2533SOL     OW19234   4.249   1.813   8.940 -0.2352 -0.3474  0.1137
 2533SOL    HW119235   4.206   1.728   8.937 -1.2673  0.1976 -0.2747
 2533SOL    HW219236   4.179   1.874   8.962 -1.3622 -2.1588  1.5258
 2534SOL     OW19237   0.151   0.418   9.173  0.0487 -0.4464  0.8703
 2534SOL    HW119238   0.145   0.332   9.216 -0.5437 -0.8488 -0.0175
 2534SOL    HW219239   0.062   0.452   9.187  0.6699  0.9915  1.2371
 2535SOL     OW19240   3.404   0.940   1.085 -0.0309  0.2212 -0.4571
 2535SOL    HW119241   3.309   0.932   1.079 -0.0826  0.4531  0.0806
 2535SOL    HW219242   3.434   0.888   1.010 -0.8682 -2.4489  1.0434
 2536SOL     OW19243   2.404   1.130   5.326  0.3863 -0.7017 -0.2327
 2536SOL    HW119244   2.337   1.152   5.261  0.7893 -0.8770 -0.7162
 2536SOL    HW219245   2.457   1.076   5.267  2.4519 -1.9612  2.7770
 2537SOL     OW19246   2.484   4.546   5.520  0.1794  0.2242  0.2342
 2537SOL    HW119247   2.454   4.582   5.437 -0.7774  0.7278  0.7893
 2537SOL    HW219248   2.577   4.565   5.512  0.7601 -2.4371  0.6857
 2538SOL     OW19249   0.989   4.080   6.992 -0.8379 -0.1766 -0.2461
 2538SOL    HW119250   0.903   4.123   7.003 -1.0208 -1.0226  1.5941
 2538SOL    HW219251   0.963   4.005   6.938 -2.3553  0.2590 -0.1363
 2539SOL     OW19252   2.123   2.245   4.511 -0.4109  0.7901  0.0223
 2539SOL    HW119253   2.095   2.229   4.421  2.5940  3.1579 -1.3218
 2539SOL    HW219254   2.115   2.153   4.538 -0.6980  1.4081  2.0531
 2540SOL     OW19255   0.704   1.094  12.612 -0.0850 -0.5979  0.0239
 2540SOL    HW119256   0.757   1.080  12.534 -1.4473 -1.7037 -0.6998
 2540SOL    HW219257   0.615   1.081  12.579 -1.0113  1.4250  1.6859
 2541SOL     OW19258   3.415   0.534   1.412  0.1512  0.3715 -0.1356
 2541SOL    HW119259   3.458   0.529   1.497 -3.1770  0.6919  1.5630
 2541SOL    HW219260   3.430   0.624   1.384  0.1530 -0.1502 -1.8444
 2542SOL     OW19261   4.359   1.574  16.142 -0.5864 -0.5059 -0.8947
 2542SOL    HW119262   4.416   1.511  16.185  1.2931  1.8379  0.0532
 2542SOL    HW219263   4.385   1.661  16.171  0.2416 -1.1712  0.3202
 2543SOL     OW19264   2.924   2.331  12.588  0.1368  0.9631  0.4869
 2543SOL    HW119265   2.844   2.379  12.570 -0.8435 -1.6550 -2.1733
 2543SOL    HW219266   2.982   2.400  12.620  2.5654 -1.3769  1.2509
 2544SOL     OW19267   0.757   3.145   5.892 -0.4134 -0.2732 -0.0513
 2544SOL    HW119268   0.830   3.103   5.846  0.8042  0.5694  1.0936
 2544SOL    HW219269   0.808   3.220   5.924  0.5835 -1.6425  1.5693
 2545SOL     OW19270   3.719   0.917   7.033 -0.1476  0.4020 -0.3447
 2545SOL    HW119271   3.708   0.880   6.946 -2.1262  0.2611 -0.0218
 2545SOL    HW219272   3.693   0.847   7.093  0.9982 -0.9649 -1.4395
 2546SOL     OW19273   2.331   2.896   8.771 -0.1434 -0.1555  0.2402
 2546SOL    HW119274   2.302   2.978   8.811  0.0503  0.0925 -0.1272
 2546SOL    HW219275   2.313   2.917   8.679 -1.2711  1.0302  0.7383
 2547SOL     OW19276   4.252   4.148   7.521 -0.1816  0.7653 -0.0790
 2547SOL    HW119277   4.198   4.088   7.572  0.6460 -0.4276 -0.5935
 2547SOL    HW219278   4.192   4.166   7.449  0.9250 -1.7106 -1.6146
 2548SOL     OW19279   3.376   3.648  16.048  0.3587 -0.2947  0.0051
 2548SOL    HW119280   3.457   3.647  16.099 -0.0185 -1.6170  0.5838
 2548SOL    HW219281   3.335   3.721  16.094  1.1805  1.0225 -1.3565
 2549SOL     OW19282   0.026   1.144   9.794 -0.0163 -0.5835  0.2330
 2549SOL    HW119283   0.085   1.177   9.726 -0.8037 -2.8577 -1.5606
 2549SOL    HW219284   0.074   1.185   9.866  1.8371 -0.3052 -1.1416
 2550SOL     OW19285   1.858   0.100   5.010  0.1351  0.1863  0.0916
 2550SOL    HW119286   1.768   0.090   4.982 -0.5548  0.3912  2.2318
 2550SOL    HW219287   1.851   0.183   5.058  1.4544 -0.3757  1.2631
 2551SOL     OW19288   4.480   3.805  15.279 -0.1777  0.6906  0.0737
 2551SOL    HW119289   4.487   3.715  15.248  1.0409  1.4207 -1.7612
 2551SOL    HW219290   4.567   3.821  15.316  0.1656 -2.1476  0.5316
 2552SOL     OW19291   2.898   2.501   2.668 -0.1507 -0.1709  0.0576
 2552SOL    HW119292   2.805   2.499   2.692 -0.0282 -0.4660  0.4912
 2552SOL    HW219293   2.924   2.578   2.718  0.4171  0.4882 -1.2425
 2553SOL     OW19294   2.975   4.285  16.278 -0.1628 -0.7075 -0.3262
 2553SOL    HW119295   3.060   4.330  16.274  0.0569 -0.9668  1.5069
 2553SOL    HW219296   2.917   4.350  16.238 -0.0632  0.5060  1.4940
 2554SOL     OW19297   1.874   0.782   2.822  0.2211  0.3496  0.2104
 2554SOL    HW119298   1.795   0.812   2.777 -0.6227 -0.6467  1.0130
 2554SOL    HW219299   1.951   0.799   2.767  0.5040  2.6485  1.3013
 2555SOL     OW19300   4.179   0.900  15.296  0.3815  0.1498  0.2836
 2555SOL    HW119301   4.113   0.849  15.342 -0.3085  0.1548 -0.6910
 2555SOL    HW219302   4.126   0.945  15.230 -1.1077 -0.9163  0.7379
 2556SOL     OW19303   2.108   2.288   8.811  0.1651 -0.1688 -0.1749
 2556SOL    HW119304   2.201   2.309   8.819  0.3558 -1.5088  1.1475
 2556SOL    HW219305   2.103   2.244   8.726 -0.4145 -2.2864  0.9484
 2557SOL     OW19306   2.908   0.359   6.184 -0.3311 -0.1500  0.3337
 2557SOL    HW119307   2.893   0.308   6.105  0.4384  0.7343 -0.3874
 2557SOL    HW219308   2.827   0.411   6.189 -0.7719 -0.8226  0.1717
 2558SOL     OW19309   3.841   1.982  13.857  0.1403  0.5186 -0.7306
 2558SOL    HW119310   3.745   1.974  13.862 -0.0771  3.6028  0.0028
 2558SOL    HW219311   3.861   1.906  13.803  0.2515 -1.2233  1.7478
 2559SOL     OW19312   0.339   1.832  12.722 -0.4449 -0.4355 -0.0394
 2559SOL    HW119313   0.246   1.812  12.711 -0.2821  0.1519 -2.6154
 2559SOL    HW219314   0.370   1.825  12.631 -0.6714  1.1354 -0.2344
 2560SOL     OW19315   2.758   3.222   1.835 -0.2694  0.4616 -0.6435
 2560SOL    HW119316   2.707   3.288   1.789  1.1753  0.0713 -2.7894
 2560SOL    HW219317   2.821   3.278   1.880 -1.7769  0.5033  1.3988
 2561SOL     OW19318   2.779   2.287   9.990  0.0225  0.0086  0.0318
 2561SOL    HW119319   2.730   2.299   9.909  0.3677 -0.8009 -0.2951
 2561SOL    HW219320   2.846   2.354   9.983  0.4267 -0.3080  0.9197
 2562SOL     OW19321   3.309   2.580   4.881 -0.2469  0.1409  0.3785
 2562SOL    HW119322   3.364   2.627   4.817 -2.1136  0.5015 -0.9688
 2562SOL    HW219323   3.239   2.564   4.818 -0.9074  0.0381  1.1444
 2563SOL     OW19324   0.633   1.504   7.312  0.4887  0.4151 -0.3057
 2563SOL    HW119325   0.579   1.577   7.343  0.6119  0.7000 -0.7576
 2563SOL    HW219326   0.691   1.506   7.388  0.2666 -0.4149 -0.1162
 2564SOL     OW19327   1.577   1.183   5.319 -0.3349 -0.0588  0.5162
 2564SOL    HW119328   1.616   1.108   5.272 -0.7425  0.3898 -0.5448
 2564SOL    HW219329   1.556   1.157   5.409  0.9835  0.8796  1.0947
 2565SOL     OW19330   0.137   3.342  13.997  1.0196  0.0732  0.4204
 2565SOL    HW119331   0.191   3.276  13.953  0.0042 -1.1090  0.9379
 2565SOL    HW219332   0.070   3.361  13.931  0.9734  1.4135  0.8662
 2566SOL     OW19333   0.202   2.733   3.250  0.3835  0.1387  0.0035
 2566SOL    HW119334   0.147   2.656   3.269  0.0576  0.7384  1.5099
 2566SOL    HW219335   0.226   2.759   3.339  0.4554 -0.7943  0.2652
 2567SOL     OW19336   0.245   3.912   5.656  0.7398  0.1829  0.3601
 2567SOL    HW119337   0.248   4.006   5.642 -0.3733  0.4866  2.2018
 2567SOL    HW219338   0.240   3.879   5.566 -2.1801  0.4215  0.4263
 2568SOL     OW19339   2.230   2.896   1.497 -0.0130  0.2714  0.0771
 2568SOL    HW119340   2.254   2.821   1.552 -0.1828  1.2735  1.5195
 2568SOL    HW219341   2.164   2.927   1.559  1.1423 -0.2171  1.5590
 2569SOL     OW19342   2.696   1.372   5.928  0.9439  0.6259 -0.1924
 2569SOL    HW119343   2.729   1.387   6.016 -0.8474 -0.4898  0.6516
 2569SOL    HW219344   2.771   1.399   5.874  2.0990 -1.2476  0.4497
 2570SOL     OW19345   3.510   2.561  13.469 -0.2671 -0.1846  0.4038
 2570SOL    HW119346   3.517   2.655  13.487  1.6488 -0.4670  1.0929
 2570SOL    HW219347   3.504   2.566  13.373 -1.2438  2.0600  0.5859
 2571SOL     OW19348   4.464   3.593   7.942 -0.3191 -0.2706  0.9479
 2571SOL    HW119349   4.424   3.680   7.944 -1.7830 -0.8719 -1.5898
 2571SOL    HW219350   4.392   3.541   7.979 -1.0582  0.2419  0.2415
 2572SOL     OW19351   1.623   2.343   2.888  0.7337 -0.4238 -0.1589
 2572SOL    HW119352   1.543   2.291   2.878 -0.4697  1.6581 -1.2111
 2572SOL    HW219353   1.608   2.404   2.816 -2.9531 -0.3018  0.7563
 2573SOL     OW19354   1.340   0.619   6.043  0.4636 -0.4531  0.0350
 2573SOL    HW119355   1.360   0.554   5.976 -2.1968 -1.5365  0.3148
 2573SOL    HW219356   1.248   0.627   6.018  0.5563  0.9224  0.1337
 2574SOL     OW19357   3.511   0.944  17.174 -0.2448 -0.6085 -0.2312
 2574SOL    HW119358   3.567   1.018  17.147  2.5799 -2.4456  0.5371
 2574SOL    HW219359   3.437   0.974  17.121 -0.1630  0.3463  0.1950
 2575SOL     OW19360   1.941   3.807  13.089 -0.2408  0.1581 -0.3177
 2575SOL    HW119361   1.977   3.732  13.042  0.0452  0.8367 -1.1869
 2575SOL    HW219362   1.968   3.880  13.033  0.5420 -0.3826 -0.6446
 2576SOL     OW19363   0.746   2.838  16.448  0.1919  0.6289  0.4066
 2576SOL    HW119364   0.816   2.773  16.444 -0.1292  0.2464  0.9879
 2576SOL    HW219365   0.687   2.801  16.514  0.0241  0.9047  0.4113
 2577SOL     OW19366   4.044   4.712   3.360  0.1129 -0.6360  0.1173
 2577SOL    HW119367   4.019   0.067   3.370  2.0454 -0.1168  0.2181
 2577SOL    HW219368   4.129   4.710   3.405  0.4059 -0.1875 -0.4250
 2578SOL     OW19369   4.105   2.926   2.333  0.2364 -0.0472 -0.1181
 2578SOL    HW119370   4.119   2.859   2.266  0.2355 -1.4949  1.2985
 2578SOL    HW219371   4.077   2.998   2.277 -1.0116 -1.5106 -1.3722
 2579SOL     OW19372   1.501   0.429   9.795 -0.1658 -0.1210  0.2722
 2579SOL    HW119373   1.475   0.431   9.703  0.1699 -0.1900  0.1791
 2579SOL    HW219374   1.527   0.520   9.804 -1.0199  0.1172  0.4003
 2580SOL     OW19375   2.243   2.260   1.013 -0.1000 -0.3973 -0.0654
 2580SOL    HW119376   2.252   2.287   1.105 -1.4951  0.5732 -0.2109
 2580SOL    HW219377   2.158   2.221   1.030 -0.1678  0.2839  1.1966
 2581SOL     OW19378   4.317   3.232  15.906 -0.3400 -0.1776 -0.4692
 2581SOL    HW119379   4.346   3.186  15.984  0.1291 -0.6769 -0.9366
 2581SOL    HW219380   4.221   3.236  15.909 -0.3178  0.1201 -0.1721
 2582SOL     OW19381   4.294   0.704  12.991 -0.0773 -0.4716 -0.2101
 2582SOL    HW119382   4.304   0.608  12.990 -3.0571 -0.7647 -0.5814
 2582SOL    HW219383   4.202   0.703  13.016 -0.3222  2.7577 -0.9995
 2583SOL     OW19384   1.769   3.392   5.126 -0.1332 -0.7268  0.2528
 2583SOL    HW119385   1.709   3.383   5.052 -0.4505  2.3028  0.1429
 2583SOL    HW219386   1.852   3.365   5.087 -0.8991 -1.2031 -1.0383
 2584SOL     OW19387   0.721   3.254   3.547  0.2673 -0.3979  0.2946
 2584SOL    HW119388   0.727   3.190   3.617 -0.8240 -1.0651 -0.2250
 2584SOL    HW219389   0.697   3.333   3.597 -1.6089 -0.8581  0.1279
 2585SOL     OW19390   2.364   0.990   7.732  0.1553  0.5575  0.3371
 2585SOL    HW119391   2.345   0.962   7.643 -1.7841  0.4624  0.7744
 2585SOL    HW219392   2.333   1.079   7.718  3.6758  1.2874 -2.6306
 2586SOL     OW19393   0.815   3.700   9.921 -0.2536 -0.5164  0.1403
 2586SOL    HW119394   0.869   3.654   9.856 -2.4565 -1.2967 -1.1216
 2586SOL    HW219395   0.881   3.737   9.980  1.4273  0.9962 -2.6786
 2587SOL     OW19396   1.943   4.584   2.615 -0.0164 -0.1648 -0.0072
 2587SOL    HW119397   2.032   4.551   2.631  0.2469 -1.1491 -3.5384
 2587SOL    HW219398   1.956   4.657   2.554  2.8827 -0.7305 -0.0621
 2588SOL     OW19399   2.305   0.424   2.496 -1.1632 -0.1074 -0.1742
 2588SOL    HW119400   2.262   0.466   2.421  3.5971  1.3960 -2.0701
 2588SOL    HW219401   2.297   0.474   2.577  0.2445  1.3789 -0.9760
 2589SOL     OW19402   1.110   1.515   8.101 -0.3103 -0.3119  0.4010
 2589SOL    HW119403   1.134   1.571   8.174 -0.7816  0.0057  0.3106
 2589SOL    HW219404   1.165   1.558   8.036  0.0020 -0.0713  0.8267
 2590SOL     OW19405   3.597   1.883   8.738  0.4180  0.2038 -0.5297
 2590SOL    HW119406   3.519   1.845   8.696 -1.5737  0.6329  2.7844
 2590SOL    HW219407   3.603   1.836   8.821 -0.9298 -1.8155 -1.5558
 2591SOL     OW19408   1.453   2.643  11.482 -0.2740  0.1314  0.0401
 2591SOL    HW119409   1.379   2.701  11.467  0.9022  1.7479  0.4921
 2591SOL    HW219410   1.405   2.564  11.504  1.7682 -1.2669 -0.4905
 2592SOL     OW19411   2.383   1.427   2.266 -0.1876 -0.7449 -0.6354
 2592SOL    HW119412   2.333   1.395   2.190 -0.4758 -2.5879  0.3187
 2592SOL    HW219413   2.462   1.374   2.257 -0.3796 -1.6693  3.1555
 2593SOL     OW19414   0.558   0.293   6.956  0.0916 -0.0924  0.0378
 2593SOL    HW119415   0.621   0.332   7.016 -2.2168  1.7124  1.2700
 2593SOL    HW219416   0.606   0.218   6.921 -0.0457  0.6877 -1.8012
 2594SOL     OW19417   4.673   1.576   4.817  0.1800  0.1098 -0.3155
 2594SOL    HW119418   4.729   1.564   4.894  0.5692  0.5686 -0.5214
 2594SOL    HW219419   4.589   1.537   4.841  0.6544 -1.3238 -0.9864
 2595SOL     OW19420   0.450   0.603   5.639 -0.3876  0.2912 -0.0873
 2595SOL    HW119421   0.401   0.569   5.564  1.0500 -0.4117 -0.7112
 2595SOL    HW219422   0.375   0.605   5.699  0.9869 -1.6655  1.6859
 2596SOL     OW19423   0.161   3.306   1.204 -0.1057 -0.6376  0.3263
 2596SOL    HW119424   0.151   3.238   1.272  1.3187  0.9417  2.1197
 2596SOL    HW219425   0.255   3.325   1.210 -0.2594  0.4132 -0.6662
 2597SOL     OW19426   3.335   0.825   2.203 -0.3254  0.5708  0.2020
 2597SOL    HW119427   3.329   0.741   2.248 -0.4584 -0.7974 -2.3413
 2597SOL    HW219428   3.351   0.885   2.276  0.1147  2.0277 -1.0840
 2598SOL     OW19429   3.041   4.717   0.912  0.0934  0.4623 -0.4246
 2598SOL    HW119430   3.107   4.701   0.980 -2.8849 -0.5164  2.2235
 2598SOL    HW219431   3.097   4.718   0.834 -2.8947 -1.6855 -2.5694
 2599SOL     OW19432   2.641   3.032  15.961  0.2180 -0.6667  0.1214
 2599SOL    HW119433   2.560   3.007  16.007 -0.8674  1.6037 -0.5442
 2599SOL    HW219434   2.680   3.094  16.022 -0.9156  1.2147 -1.0441
 2600SOL     OW19435   0.499   2.651   1.751  0.4572 -0.3995  0.5018
 2600SOL    HW119436   0.522   2.578   1.808  0.9071 -0.6852 -0.0540
 2600SOL    HW219437   0.530   2.726   1.802  1.1733  1.9362 -3.3933
 2601SOL     OW19438   2.876   1.457  12.729  0.5580 -0.2027 -0.6067
 2601SOL    HW119439   2.851   1.394  12.796 -0.9691 -0.2689 -1.2521
 2601SOL    HW219440   2.949   1.401  12.701  0.2785 -0.5172 -0.6951
 2602SOL     OW19441   0.164   4.555   7.285  0.5474  0.0320  0.7100
 2602SOL    HW119442   0.082   4.508   7.272  0.5662  0.1815  0.0173
 2602SOL    HW219443   0.217   4.508   7.221 -1.5518 -0.8495 -0.3758
 2603SOL     OW19444   1.885   0.746  16.509 -0.0041  0.6762 -0.4377
 2603SOL    HW119445   1.942   0.789  16.444  0.0941 -0.5944 -1.1812
 2603SOL    HW219446   1.798   0.763  16.473  0.0477  0.5537 -0.6178
 2604SOL     OW19447   3.200   4.163   0.162 -0.2547 -0.1295 -0.8002
 2604SOL    HW119448   3.252   4.083   0.160  0.5207  0.3290  0.6449
 2604SOL    HW219449   3.145   4.156   0.084  1.1807 -1.3891 -1.6848
 2605SOL     OW19450   4.218   2.244   4.933  0.8317  0.4581 -0.4237
 2605SOL    HW119451   4.158   2.169   4.929  1.0810  0.3223 -1.6176
 2605SOL    HW219452   4.163   2.322   4.938 -0.3261 -0.2394 -2.0484
 2606SOL     OW19453   1.009   0.081   1.873  0.6950 -0.6687 -0.0606
 2606SOL    HW119454   1.088   0.098   1.924  1.1130  1.6740 -1.4644
 2606SOL    HW219455   0.945   0.143   1.909 -1.5310 -1.5677 -2.4695
 2607SOL     OW19456   2.804   1.275  16.985 -0.1902  0.2020 -0.3025
 2607SOL    HW119457   2.830   1.312  16.900  0.6035 -0.3642 -0.3146
 2607SOL    HW219458   2.711   1.264  16.967 -0.1522  0.4706 -0.6648
 2608SOL     OW19459   4.476   1.259  14.893 -0.4384  0.6634 -0.1364
 2608SOL    HW119460   4.514   1.340  14.857  0.0580 -0.2616 -1.7002
 2608SOL    HW219461   4.428   1.223  14.818  0.8145 -1.9165  0.2960
 2609SOL     OW19462   0.611   0.534  14.191  0.2520 -0.0606  0.2272
 2609SOL    HW119463   0.667   0.554  14.116  1.0569  0.4013  0.9565
 2609SOL    HW219464   0.647   0.601  14.249  0.8466  1.0653 -1.4313
 2610SOL     OW19465   0.019   0.293   3.503 -0.4613  0.2164  0.0355
 2610SOL    HW119466   0.113   0.310   3.499 -0.1067 -1.7264  0.1428
 2610SOL    HW219467   0.000   0.314   3.595 -1.5105  1.2348 -0.4073
 2611SOL     OW19468   2.207   4.099  15.411  0.1502  0.3698  0.0367
 2611SOL    HW119469   2.126   4.121  15.457  0.2146 -0.1518  0.4001
 2611SOL    HW219470   2.213   4.171  15.349  0.6273  0.6307  0.3787
 2612SOL     OW19471   1.364   0.060  10.219 -0.1355  0.1201 -0.1297
 2612SOL    HW119472   1.365   0.150  10.251  0.2230 -0.5173  1.6431
 2612SOL    HW219473   1.411   0.025  10.295 -0.0748 -0.1857 -0.3095
 2613SOL     OW19474   1.307   0.972   6.423 -0.0444  0.4053 -0.6713
 2613SOL    HW119475   1.309   1.032   6.348 -0.7967  2.1664  0.7124
 2613SOL    HW219476   1.235   0.914   6.399 -1.3778  1.0231  1.8245
 2614SOL     OW19477   4.619   1.230   4.815  0.2873 -0.6355  0.5941
 2614SOL    HW119478   4.555   1.296   4.841 -1.4530 -1.4538 -1.5527
 2614SOL    HW219479   4.650   1.202   4.901 -1.4497 -2.3263  0.6597
 2615SOL     OW19480   1.126   1.761   2.907  0.5940 -1.0963  0.1893
 2615SOL    HW119481   1.073   1.684   2.928 -0.3607 -0.0875  1.4229
 2615SOL    HW219482   1.204   1.737   2.957  1.0895  0.1000 -0.0145
 2616SOL     OW19483   0.399   1.349   4.054  0.1531  0.6637  0.7906
 2616SOL    HW119484   0.437   1.355   4.141  0.2486  0.1914  0.7800
 2616SOL    HW219485   0.400   1.254   4.051 -1.8028  0.7303 -2.1871
 2617SOL     OW19486   0.161   1.181  12.983 -0.1969  0.2594  0.3741
 2617SOL    HW119487   0.069   1.194  12.961 -0.7621 -0.0294  2.5909
 2617SOL    HW219488   0.182   1.110  12.923 -2.4394  1.8646 -2.2863
 2618SOL     OW19489   0.602   3.658  14.065 -0.1371  0.5723 -0.7285
 2618SOL    HW119490   0.616   3.688  13.975  4.0769 -1.0050 -0.5894
 2618SOL    HW219491   0.662   3.583  14.064 -0.5726  0.2238 -0.5285
 2619SOL     OW19492   3.068   0.724   6.773  0.3689  0.2823  0.3380
 2619SOL    HW119493   3.057   0.678   6.857  1.2922 -2.6770 -1.1731
 2619SOL    HW219494   3.124   0.662   6.727 -0.5179 -0.1063 -0.2106
 2620SOL     OW19495   4.533   0.022  13.352 -0.0004 -0.2298 -0.0723
 2620SOL    HW119496   4.577   0.056  13.429  0.5036 -2.1474  0.4939
 2620SOL    HW219497   4.585   4.679  13.339  0.7058  0.0272  1.1122
 2621SOL     OW19498   4.351   2.120   3.406 -0.3706  0.2118 -0.4310
 2621SOL    HW119499   4.291   2.091   3.475  1.4732  0.9952  1.4692
 2621SOL    HW219500   4.409   2.045   3.399 -0.7866 -0.4092  2.8536
 2622SOL     OW19501   2.960   4.151  16.528 -0.2191  0.1164  0.0049
 2622SOL    HW119502   2.865   4.157  16.534 -0.2463  1.1510 -1.4709
 2622SOL    HW219503   2.979   4.185  16.441  1.7137 -0.6412  0.1345
 2623SOL     OW19504   2.638   1.233   3.722 -0.1035  1.0053 -0.0056
 2623SOL    HW119505   2.580   1.280   3.783 -1.3516 -2.6860  1.6275
 2623SOL    HW219506   2.704   1.297   3.696  0.8974 -0.5840 -1.3416
 2624SOL     OW19507   4.039   1.210   7.747  0.0191 -0.5454 -0.4511
 2624SOL    HW119508   4.085   1.255   7.818  1.2162 -2.8491  0.2381
 2624SOL    HW219509   4.001   1.287   7.705  2.2577  0.6595 -0.2216
 2625SOL     OW19510   4.001   3.792   9.213  0.4238 -0.0506  0.2015
 2625SOL    HW119511   3.926   3.738   9.237 -0.5599  0.7202 -1.1766
 2625SOL    HW219512   4.021   3.748   9.130 -1.6455  0.3483 -0.5126
 2626SOL     OW19513   4.527   2.392   8.776  0.0063 -0.4483  0.2905
 2626SOL    HW119514   4.493   2.422   8.861  1.0368  2.3035 -0.2636
 2626SOL    HW219515   4.585   2.321   8.803  0.1547 -1.5223 -2.9530
 2627SOL     OW19516   3.240   4.587  15.948  0.1285  0.0509 -0.7163
 2627SOL    HW119517   3.303   4.530  15.993 -1.1695 -0.6742  0.2077
 2627SOL    HW219518   3.285   4.618  15.870  0.0030  1.5071 -0.2007
 2628SOL     OW19519   0.037   4.686   3.559 -0.3515 -0.4400 -0.4585
 2628SOL    HW119520   0.071   4.603   3.594  0.7525 -0.5832 -1.8798
 2628SOL    HW219521   0.097   0.011   3.602 -0.9564  0.5248 -1.0135
 2629SOL     OW19522   2.785   4.006   2.839 -0.0341 -0.3046 -0.3213
 2629SOL    HW119523   2.730   4.037   2.911  0.0348  0.2458 -0.5053
 2629SOL    HW219524   2.724   3.988   2.768  1.1905 -0.1276 -1.4133
 2630SOL     OW19525   2.206   2.729   6.663  0.4396 -0.4469  0.1413
 2630SOL    HW119526   2.248   2.717   6.578 -0.1908 -0.9350 -0.0941
 2630SOL    HW219527   2.221   2.640   6.693  0.5987 -0.9980 -1.5400
 2631SOL     OW19528   0.094   0.540   3.279 -0.5084 -0.2051  0.1495
 2631SOL    HW119529   0.151   0.597   3.227  0.3705 -0.0483  1.2892
 2631SOL    HW219530   0.146   0.520   3.356  0.1423  0.8511 -0.0195
 2632SOL     OW19531   2.109   4.580  11.651  0.2050  0.0109  0.3163
 2632SOL    HW119532   2.014   4.581  11.656  0.2897 -0.0735  1.8892
 2632SOL    HW219533   2.130   4.527  11.728  0.3579 -1.1410 -0.5111
 2633SOL     OW19534   1.115   0.820   5.594 -0.6752  0.0356  0.1980
 2633SOL    HW119535   1.172   0.769   5.537 -1.5838 -1.7870  0.9127
 2633SOL    HW219536   1.074   0.750   5.645  0.8133  1.3011  3.1355
 2634SOL     OW19537   1.266   2.906   0.518 -0.3455  0.0356 -0.2686
 2634SOL    HW119538   1.228   2.984   0.478 -2.0063 -0.8436 -0.3977
 2634SOL    HW219539   1.309   2.949   0.591 -0.4705 -1.1333  0.5007
 2635SOL     OW19540   2.206   1.595   1.879  0.1536 -0.0541 -0.4844
 2635SOL    HW119541   2.216   1.513   1.928 -0.4994  0.8360  1.1383
 2635SOL    HW219542   2.271   1.602   1.809  1.4393 -1.0670  0.5885
 2636SOL     OW19543   4.392   0.891   7.753 -0.3069 -0.1756  0.0329
 2636SOL    HW119544   4.349   0.950   7.692 -0.4551 -0.6096 -0.2846
 2636SOL    HW219545   4.323   0.831   7.779 -2.3033  2.1858  0.1092
 2637SOL     OW19546   1.542   3.115   6.252 -0.1210  0.5035  0.0911
 2637SOL    HW119547   1.469   3.130   6.193  0.1616  2.5004  0.2356
 2637SOL    HW219548   1.505   3.054   6.315  1.7331  1.5985  2.2401
 2638SOL     OW19549   3.717   3.022   2.569  0.6692  0.0555 -0.2400
 2638SOL    HW119550   3.675   3.015   2.483 -0.2145  0.7425  0.1405
 2638SOL    HW219551   3.759   2.936   2.576 -1.3866 -0.9295 -0.0111
 2639SOL     OW19552   2.482   1.634  15.111  0.3874  0.0437 -0.2520
 2639SOL    HW119553   2.409   1.682  15.150  1.3485  0.2152  1.3212
 2639SOL    HW219554   2.518   1.704  15.056 -0.9430  1.1629  0.3022
 2640SOL     OW19555   0.841   4.325   0.939  1.0285  0.0232 -0.3628
 2640SOL    HW119556   0.822   4.247   0.887 -0.4440 -0.4986  0.9689
 2640SOL    HW219557   0.795   4.393   0.889  1.9907  0.2366 -0.9490
 2641SOL     OW19558   2.923   1.411   3.124 -0.0732 -0.1665  0.5934
 2641SOL    HW119559   2.946   1.420   3.217 -1.8929  1.2591  0.9078
 2641SOL    HW219560   2.962   1.493   3.093 -1.8219  0.2943 -0.4014
 2642SOL     OW19561   3.313   4.511  17.457 -0.1622  0.1845 -0.0301
 2642SOL    HW119562   3.317   4.499  17.552  1.2032 -1.2478 -0.2880
 2642SOL    HW219563   3.383   4.571  17.432 -1.0965  1.7589  1.0377
 2643SOL     OW19564   3.995   1.537  15.104  0.2824 -0.2004 -0.1542
 2643SOL    HW119565   4.023   1.455  15.145 -1.2508 -0.7878 -0.2959
 2643SOL    HW219566   4.075   1.588  15.119 -0.6807 -0.0991  4.5431
 2644SOL     OW19567   4.710   1.348   6.914  0.3634  0.5195 -0.0430
 2644SOL    HW119568   4.735   1.355   6.822 -1.4552 -3.5403 -0.8857
 2644SOL    HW219569   0.054   1.359   6.963 -0.3088  0.1859  1.1400
 2645SOL     OW19570   0.043   2.057  16.920  0.6308 -0.3841 -0.0068
 2645SOL    HW119571   0.122   2.111  16.922  0.7617 -0.5369 -1.3953
 2645SOL    HW219572   4.710   2.115  16.888  1.3711 -0.0318 -0.9643
 2646SOL     OW19573   3.546   3.417   7.287  0.2414 -0.0316  0.0672
 2646SOL    HW119574   3.532   3.323   7.275  2.6983 -0.8783  4.1760
 2646SOL    HW219575   3.494   3.439   7.364  0.1796 -0.0257  0.0239
 2647SOL     OW19576   4.039   3.067  12.991 -0.4054 -0.0965  0.0711
 2647SOL    HW119577   4.079   2.981  13.006  0.0465  0.0237 -0.4508
 2647SOL    HW219578   4.101   3.123  13.038 -1.3039  0.5838  0.4478
 2648SOL     OW19579   0.656   4.586   3.872  0.0573  0.3570 -0.0459
 2648SOL    HW119580   0.576   4.559   3.918  1.7455 -0.1075  2.5730
 2648SOL    HW219581   0.717   4.596   3.945  0.9396 -0.6605 -0.6367
 2649SOL     OW19582   3.149   3.295   1.690 -0.1552 -0.0145 -0.0510
 2649SOL    HW119583   3.167   3.389   1.684 -0.8825  0.1308  0.0727
 2649SOL    HW219584   3.059   3.291   1.657 -0.5535  0.1588  1.0120
 2650SOL     OW19585   2.900   2.884   2.485 -0.0577  0.0730 -0.2552
 2650SOL    HW119586   2.868   2.898   2.574  2.1785 -3.0207  1.0369
 2650SOL    HW219587   2.905   2.975   2.455  0.5438  0.0223 -0.3233
 2651SOL     OW19588   2.087   3.475   7.049 -0.1607  0.0396  0.6147
 2651SOL    HW119589   2.035   3.395   7.041 -0.7889  0.5973 -0.8874
 2651SOL    HW219590   2.153   3.437   7.107  2.1116  0.5351 -1.6814
 2652SOL     OW19591   2.270   0.014   2.748 -0.0859 -0.2287 -0.0632
 2652SOL    HW119592   2.339   0.033   2.685 -0.1642 -1.7591 -0.6007
 2652SOL    HW219593   2.241   0.099   2.781  1.8964  0.3615  0.1526
 2653SOL     OW19594   0.305   2.901  13.931  0.2583  0.0797  0.1556
 2653SOL    HW119595   0.276   2.983  13.892 -0.3287  1.0868  2.6835
 2653SOL    HW219596   0.308   2.845  13.854 -0.1322  0.3586 -0.0639
 2654SOL     OW19597   4.624   0.099   7.343  0.4756 -0.3034 -0.4728
 2654SOL    HW119598   4.651   0.082   7.253  1.2982  0.7474 -0.4321
 2654SOL    HW219599   4.638   0.194   7.342 -1.0649 -0.1023 -1.9829
 2655SOL     OW19600   4.070   0.889  11.880  0.0437  0.6072  0.0269
 2655SOL    HW119601   3.976   0.890  11.900  0.0150 -0.8489 -0.0098
 2655SOL    HW219602   4.077   0.918  11.789  1.7440 -2.8274 -0.9213
 2656SOL     OW19603   1.222   0.194   6.401  0.2491 -0.7300 -0.4919
 2656SOL    HW119604   1.298   0.195   6.458 -0.4248  1.0057  0.3765
 2656SOL    HW219605   1.243   0.107   6.367  0.3458 -1.8409  2.4448
 2657SOL     OW19606   3.654   1.605   3.026  0.2562  0.5041  0.3202
 2657SOL    HW119607   3.672   1.692   3.063  0.1402  0.5046  0.3747
 2657SOL    HW219608   3.559   1.601   3.035 -0.1566  4.5412 -2.2638
 2658SOL     OW19609   3.233   2.011  17.371  0.5816  0.1218  0.0345
 2658SOL    HW119610   3.253   1.929  17.326 -2.2767 -1.0176  0.8830
 2658SOL    HW219611   3.231   2.070  17.296 -2.1253  0.1552  0.1563
 2659SOL     OW19612   3.636   3.178   6.436 -0.0133  0.4363  0.6971
 2659SOL    HW119613   3.651   3.221   6.352  1.7275  1.9248  1.7617
 2659SOL    HW219614   3.590   3.250   6.479  0.7072  1.0741  0.4092
 2660SOL     OW19615   3.764   2.814   8.194  0.0744 -0.1134 -0.1409
 2660SOL    HW119616   3.801   2.786   8.110  1.2032  0.3461  0.1963
 2660SOL    HW219617   3.836   2.859   8.238  1.2300 -1.3637 -0.7569
 2661SOL     OW19618   1.779   1.843   6.338  0.4516 -0.2628  0.2942
 2661SOL    HW119619   1.772   1.858   6.244 -1.1219 -2.0474  0.1244
 2661SOL    HW219620   1.789   1.934   6.367 -2.5407 -0.0162  0.5566
 2662SOL     OW19621   2.918   3.156   5.908  0.3707  0.4900 -0.0534
 2662SOL    HW119622   2.907   3.250   5.915  0.2631  0.3129  2.1259
 2662SOL    HW219623   2.886   3.125   5.993 -1.2488 -1.8664 -1.4920
 2663SOL     OW19624   0.873   4.053  15.484 -0.0416  0.7208  0.4152
 2663SOL    HW119625   0.823   4.053  15.566 -1.1776 -2.1995 -0.2684
 2663SOL    HW219626   0.955   4.091  15.516  0.8190  0.3302 -1.3009
 2664SOL     OW19627   3.460   1.650  13.075  0.0262  0.2933  0.2858
 2664SOL    HW119628   3.494   1.560  13.070  0.2641  0.3783  0.4274
 2664SOL    HW219629   3.396   1.659  13.004  0.1164 -2.0844 -0.1124
 2665SOL     OW19630   2.964   2.695   7.805  0.1727 -0.2374 -0.2569
 2665SOL    HW119631   2.882   2.648   7.791  1.3381 -2.1603 -0.5705
 2665SOL    HW219632   3.000   2.630   7.864  1.2912 -1.2583 -2.0777
 2666SOL     OW19633   1.216   1.872  12.495 -0.2727 -0.0999 -0.9040
 2666SOL    HW119634   1.135   1.850  12.540 -0.2433 -1.3269 -1.4532
 2666SOL    HW219635   1.188   1.958  12.462  0.3292  0.7795  0.8661
 2667SOL     OW19636   3.101   1.658  12.562 -0.5108  0.1855 -0.1076
 2667SOL    HW119637   3.092   1.732  12.502  2.4052 -1.2927 -2.3854
 2667SOL    HW219638   3.012   1.663  12.596 -0.3359 -1.3233  0.5747
 2668SOL     OW19639   4.601   4.268   3.547 -0.0729  0.2035  0.6869
 2668SOL    HW119640   4.661   4.282   3.621  0.7787 -1.7466  0.3575
 2668SOL    HW219641   4.532   4.324   3.582 -0.4073  1.8143 -2.5262
 2669SOL     OW19642   3.164   1.009   4.431  0.0454  0.3117 -0.7472
 2669SOL    HW119643   3.079   0.966   4.442 -0.7569  1.3788 -2.6826
 2669SOL    HW219644   3.147   1.074   4.499  0.2582  1.2068 -1.5499
 2670SOL     OW19645   3.036   2.897   4.762 -0.4495 -0.3792  0.3198
 2670SOL    HW119646   2.981   2.845   4.821 -0.4698  0.8306  1.3639
 2670SOL    HW219647   3.107   2.916   4.824  0.3867  1.9890 -1.3978
 2671SOL     OW19648   0.244   2.144  15.491  0.2586  0.8404 -0.1045
 2671SOL    HW119649   0.251   2.220  15.434 -2.0080 -0.9277 -2.7550
 2671SOL    HW219650   0.284   2.074  15.439  1.7353  2.0048 -0.5396
 2672SOL     OW19651   2.375   4.148   1.494 -0.4570  0.0232 -0.1403
 2672SOL    HW119652   2.428   4.227   1.502 -0.4955  0.0343  0.0143
 2672SOL    HW219653   2.396   4.110   1.580  1.6155  1.9016  0.1925
 2673SOL     OW19654   0.062   3.036   9.327  0.2024 -0.1040 -0.8387
 2673SOL    HW119655   4.735   3.107   9.338 -0.8020 -1.1517  0.0351
 2673SOL    HW219656   0.130   3.076   9.382 -2.8862  1.3427  1.9469
 2674SOL     OW19657   3.585   3.048   5.858  0.5057  0.4568  0.3723
 2674SOL    HW119658   3.502   3.047   5.810  1.3126 -0.7948 -0.9926
 2674SOL    HW219659   3.637   3.000   5.794 -1.0278 -1.1209  0.3194
 2675SOL     OW19660   0.199   1.718   0.705 -0.2560  0.5676  0.1320
 2675SOL    HW119661   0.131   1.774   0.668 -0.7112 -0.4130 -0.5205
 2675SOL    HW219662   0.175   1.641   0.653 -1.3544 -0.9177  2.8110
 2676SOL     OW19663   0.853   3.725   4.223 -0.1987 -0.1603 -0.3377
 2676SOL    HW119664   0.920   3.782   4.260 -1.4880  0.2321  1.4473
 2676SOL    HW219665   0.775   3.774   4.250  1.7650  2.4807  0.4842
 2677SOL     OW19666   1.864   0.856   1.792  0.2955  0.3540  0.0545
 2677SOL    HW119667   1.848   0.814   1.708 -0.8282  0.9748 -0.0430
 2677SOL    HW219668   1.796   0.922   1.804  0.5088  0.4360  0.8194
 2678SOL     OW19669   2.316   3.048   4.832 -0.0178  0.3372  0.5359
 2678SOL    HW119670   2.297   3.137   4.863 -0.8152 -0.0786  1.2445
 2678SOL    HW219671   2.237   2.996   4.840 -0.9538  1.8124  0.9342
 2679SOL     OW19672   2.973   1.684   9.320  0.3519 -0.4615 -0.2730
 2679SOL    HW119673   3.002   1.744   9.388 -0.9742  0.6222 -0.6723
 2679SOL    HW219674   3.028   1.606   9.333  0.3382 -0.4388 -0.0834
 2680SOL     OW19675   1.460   4.639   5.742 -0.4121  0.5138  0.5059
 2680SOL    HW119676   1.381   4.645   5.796 -1.3603 -2.5989 -0.5295
 2680SOL    HW219677   1.511   4.580   5.798 -0.1615  0.7598  0.5308
 2681SOL     OW19678   3.543   3.832   3.656 -0.4576  0.1388  0.9311
 2681SOL    HW119679   3.572   3.859   3.569  3.0557 -1.2661  1.6690
 2681SOL    HW219680   3.519   3.919   3.688  1.6123  0.6386  1.1345
 2682SOL     OW19681   2.402   3.336  10.226 -0.6312  0.1713 -0.4778
 2682SOL    HW119682   2.354   3.332  10.309  1.2000 -3.4577  0.4320
 2682SOL    HW219683   2.360   3.407  10.178  0.8463  0.4746 -1.3388
 2683SOL     OW19684   2.072   3.208  10.272 -0.4362 -0.5007 -0.1337
 2683SOL    HW119685   2.076   3.169  10.185 -2.2149  0.4231 -0.6188
 2683SOL    HW219686   2.066   3.301  10.254  0.0865 -0.3195  0.6074
 2684SOL     OW19687   2.636   4.160   8.860  0.1625  0.2174 -1.0362
 2684SOL    HW119688   2.559   4.198   8.818 -1.0340 -2.1941 -1.0404
 2684SOL    HW219689   2.607   4.123   8.944  1.3389  1.0599 -0.2529
 2685SOL     OW19690   4.112   3.060   4.999  0.2504 -0.4604  0.7149
 2685SOL    HW119691   4.066   3.104   5.071  1.0754  0.3497  0.7380
 2685SOL    HW219692   4.050   2.991   4.974  0.4508  0.0152 -1.0840
 2686SOL     OW19693   0.772   2.069   5.309 -0.5401  0.2125  0.0950
 2686SOL    HW119694   0.776   1.974   5.299  2.4351  0.3785 -0.2073
 2686SOL    HW219695   0.825   2.099   5.235 -1.4735  1.3679 -0.0998
 2687SOL     OW19696   1.315   4.678   6.355 -0.0540 -0.1422  0.2588
 2687SOL    HW119697   1.398   4.715   6.326 -0.0590  0.6808  1.3107
 2687SOL    HW219698   1.335   4.585   6.364  0.1054 -0.2048 -0.7150
 2688SOL     OW19699   0.527   3.527  12.789 -0.4424 -0.3692  0.0752
 2688SOL    HW119700   0.464   3.583  12.744 -2.4226 -3.1655 -0.6829
 2688SOL    HW219701   0.519   3.450  12.733 -1.4131 -0.5312  0.4335
 2689SOL     OW19702   2.246   4.123   3.435  0.0179  0.3175  0.2776
 2689SOL    HW119703   2.168   4.079   3.469 -1.0032  1.2616 -0.8523
 2689SOL    HW219704   2.321   4.085   3.481 -0.2763 -2.5068 -1.5550
 2690SOL     OW19705   4.690   2.611   5.222 -0.0302  0.0623  0.1365
 2690SOL    HW119706   4.701   2.526   5.180  1.3201  0.4909 -0.3685
 2690SOL    HW219707   4.595   2.620   5.219 -0.2747 -1.8677  1.5681
 2691SOL     OW19708   3.337   1.624   7.287  0.2943  0.3002 -0.0476
 2691SOL    HW119709   3.401   1.691   7.262  0.7492 -0.4119 -0.7847
 2691SOL    HW219710   3.309   1.594   7.200 -0.6261 -2.1422  1.1122
 2692SOL     OW19711   3.089   2.196   1.312 -0.4038  0.5552 -0.1312
 2692SOL    HW119712   3.146   2.126   1.344  0.5585  1.3219 -0.1981
 2692SOL    HW219713   3.155   2.265   1.311  1.5262 -1.2878  0.8935
 2693SOL     OW19714   3.812   2.392   6.582  0.0967  0.4312  0.7032
 2693SOL    HW119715   3.759   2.464   6.616  2.5201  1.9297  1.3357
 2693SOL    HW219716   3.889   2.432   6.543  0.6924 -1.7119 -0.3545
 2694SOL     OW19717   4.072   4.601   3.799  0.3321  0.1434 -0.3405
 2694SOL    HW119718   4.142   4.574   3.859  1.6415  0.4082 -1.7658
 2694SOL    HW219719   4.060   4.524   3.744 -0.1279 -0.9152  1.2241
 2695SOL     OW19720   0.940   3.534   2.124  0.3333 -0.2249  0.2471
 2695SOL    HW119721   1.021   3.580   2.102 -0.7312  1.3393 -0.3102
 2695SOL    HW219722   0.947   3.523   2.219  0.4276  2.5183  0.5488
 2696SOL     OW19723   2.304   1.807  15.211 -0.0023 -0.3605  0.7697
 2696SOL    HW119724   2.303   1.788  15.305 -1.6367  0.4399  0.9171
 2696SOL    HW219725   2.367   1.880  15.206 -1.1167  0.5366 -0.2651
 2697SOL     OW19726   1.949   1.232  12.157  0.7893  0.0168  0.2151
 2697SOL    HW119727   2.030   1.248  12.204  0.8266 -0.5323  0.3378
 2697SOL    HW219728   1.967   1.267  12.070  2.6697  1.1623  1.0780
 2698SOL     OW19729   0.217   1.884  11.721  0.3198 -0.4142  0.3955
 2698SOL    HW119730   0.139   1.837  11.691  1.8592 -2.4787 -0.3914
 2698SOL    HW219731   0.184   1.973  11.707  0.1462 -0.4630  0.4835
 2699SOL     OW19732   0.614   3.096   0.685 -0.6116 -0.1028 -0.0235
 2699SOL    HW119733   0.603   3.012   0.642  0.2937 -0.1765 -0.1282
 2699SOL    HW219734   0.705   3.099   0.716 -0.7388  2.5789  0.1373
 2700SOL     OW19735   3.712   3.382  11.626  0.4823 -0.4708  0.0074
 2700SOL    HW119736   3.641   3.408  11.685 -0.8694 -0.4391 -1.6083
 2700SOL    HW219737   3.688   3.425  11.543 -0.5507  1.3200  1.2341
 2701SOL     OW19738   0.376   3.520   5.382  0.2627  0.4172 -0.0385
 2701SOL    HW119739   0.448   3.481   5.431  0.6995  0.2268 -0.8470
 2701SOL    HW219740   0.371   3.602   5.432  1.6306  0.1852  0.4885
 2702SOL     OW19741   4.687   1.700   3.932  0.4874 -0.1413 -0.1269
 2702SOL    HW119742   4.689   1.614   3.890  2.7174  0.1913 -0.6874
 2702SOL    HW219743   0.034   1.736   3.904  0.8270 -1.6398 -1.0310
 2703SOL     OW19744   4.361   0.241   3.396 -0.8956  0.0418 -0.0001
 2703SOL    HW119745   4.271   0.247   3.365 -0.9935  1.4325  0.5326
 2703SOL    HW219746   4.388   0.322   3.439 -1.2973  0.0638  0.2025
 2704SOL     OW19747   1.946   0.824  13.066  0.5587  0.1931 -0.1265
 2704SOL    HW119748   2.032   0.812  13.026  1.1652  1.1116  0.9070
 2704SOL    HW219749   1.982   0.851  13.150 -1.2217  1.0096  0.3668
 2705SOL     OW19750   2.896   2.379   7.952  0.0106 -0.8734 -0.2217
 2705SOL    HW119751   2.855   2.430   8.023 -1.6349 -1.9120 -0.4363
 2705SOL    HW219752   2.977   2.364   8.001  0.6625 -2.5629 -1.8183
 2706SOL     OW19753   4.226   4.065  11.041 -0.3235  0.1479 -0.2575
 2706SOL    HW119754   4.271   3.998  10.990 -1.3941  0.0715 -1.1095
 2706SOL    HW219755   4.185   4.014  11.110  2.2305  0.5980  1.5547
 2707SOL     OW19756   0.106   1.564   0.313  0.7125  0.0128  0.1732
 2707SOL    HW119757   0.026   1.610   0.289  0.7476 -0.2098 -0.3940
 2707SOL    HW219758   0.140   1.543   0.225  3.1187  1.8227  0.6843
 2708SOL     OW19759   3.630   0.918  10.677 -0.0403  0.6247  0.7158
 2708SOL    HW119760   3.553   0.861  10.673  0.1328  0.2339  3.0459
 2708SOL    HW219761   3.616   0.971  10.755 -1.2397  0.9178  0.3092
 2709SOL     OW19762   1.969   0.301  10.204  0.0157 -0.7068  0.0410
 2709SOL    HW119763   2.039   0.339  10.256 -1.5054 -0.8811  2.2219
 2709SOL    HW219764   1.942   0.221  10.249  1.2226 -1.2875 -0.2908
 2710SOL     OW19765   1.647   0.928   4.021  0.1239  0.2467 -0.2535
 2710SOL    HW119766   1.573   0.938   4.080  0.4454 -1.6765  0.4724
 2710SOL    HW219767   1.601   0.948   3.940  0.8464 -2.5304 -1.3628
 2711SOL     OW19768   1.180   3.923   6.670 -0.8419  0.0234 -1.1045
 2711SOL    HW119769   1.213   4.012   6.661 -1.5575  0.3167 -0.7527
 2711SOL    HW219770   1.252   3.880   6.715 -1.5709  0.5954  0.5933
 2712SOL     OW19771   3.159   2.590   0.158 -0.2140  0.5789  0.1167
 2712SOL    HW119772   3.245   2.550   0.147 -0.1431  0.2163  1.8516
 2712SOL    HW219773   3.178   2.683   0.157 -0.5378  0.6722  2.2586
 2713SOL     OW19774   0.744   1.777   2.922  0.7755 -0.7854  0.8208
 2713SOL    HW119775   0.829   1.757   2.961  1.6713  1.5254  0.0354
 2713SOL    HW219776   0.688   1.786   2.998 -0.4119 -2.8846  0.2042
 2714SOL     OW19777   2.929   1.301   6.508 -0.2748 -0.4068  0.3569
 2714SOL    HW119778   2.872   1.234   6.548 -0.9274 -0.1564 -0.1450
 2714SOL    HW219779   2.994   1.238   6.476 -0.7001 -0.9298  0.5119
 2715SOL     OW19780   3.297   3.906   3.139 -0.7168 -0.3444  0.0385
 2715SOL    HW119781   3.320   3.847   3.211  0.5695 -1.7755 -1.5496
 2715SOL    HW219782   3.207   3.874   3.125 -0.5439 -0.3589 -1.0050
 2716SOL     OW19783   4.393   3.930   5.832  0.4711  0.1365 -0.1796
 2716SOL    HW119784   4.445   3.908   5.910  0.1973 -0.6474 -0.2191
 2716SOL    HW219785   4.347   3.847   5.829 -0.4835  0.6304  0.8351
 2717SOL     OW19786   2.673   3.092   2.390 -0.7344 -0.1331  0.0717
 2717SOL    HW119787   2.687   3.087   2.295 -0.1443  2.7159  0.0275
 2717SOL    HW219788   2.762   3.077   2.423  0.0549 -1.5861 -2.6469
 2718SOL     OW19789   4.475   2.481   6.222  0.4300 -0.9293 -0.3832
 2718SOL    HW119790   4.569   2.496   6.226  0.1772  0.7899 -1.2194
 2718SOL    HW219791   4.478   2.434   6.139 -0.7639  1.6746 -1.8844
 2719SOL     OW19792   3.323   2.007   4.369 -0.7232  0.5695  0.7335
 2719SOL    HW119793   3.236   1.996   4.408 -0.1043  0.8741  2.2120
 2719SOL    HW219794   3.310   2.088   4.319 -0.5983 -0.5165 -1.0516
 2720SOL     OW19795   3.991   2.601  13.456 -1.1871 -0.2732  0.0086
 2720SOL    HW119796   3.918   2.557  13.500 -0.4079 -1.3637  0.2095
 2720SOL    HW219797   3.973   2.694  13.466 -0.0193  0.1416 -1.8893
 2721SOL     OW19798   1.637   2.851  16.457 -0.6790  0.3858  0.5185
 2721SOL    HW119799   1.605   2.897  16.379 -1.5888 -1.1024  0.0028
 2721SOL    HW219800   1.646   2.759  16.430  2.1866  1.0290 -0.7123
 2722SOL     OW19801   3.729   0.397  14.452  0.1621 -0.4127 -0.9306
 2722SOL    HW119802   3.661   0.457  14.423  0.0447  1.7846  3.8879
 2722SOL    HW219803   3.672   0.320  14.457  1.2450 -1.4197 -4.2996
 2723SOL     OW19804   3.100   2.610   8.124 -0.3489  0.7611 -0.2274
 2723SOL    HW119805   3.157   2.652   8.059  0.6873  1.6013  1.2355
 2723SOL    HW219806   3.132   2.657   8.200 -0.9584 -0.2329  0.6374
 2724SOL     OW19807   3.129   4.704   2.605  0.0614  0.2692  0.0244
 2724SOL    HW119808   3.147   0.046   2.657  1.0100 -0.1420  0.3007
 2724SOL    HW219809   3.186   4.647   2.655  2.5183  0.6044 -2.4215
 2725SOL     OW19810   4.006   3.130  16.711  0.1906  0.2414 -0.1279
 2725SOL    HW119811   4.065   3.068  16.669 -1.8023 -0.1978 -2.3481
 2725SOL    HW219812   4.073   3.186  16.751 -0.0774  0.9187 -0.6236
 2726SOL     OW19813   2.093   3.367   2.066 -0.0091 -0.8123  0.0187
 2726SOL    HW119814   2.003   3.359   2.100 -0.5403  0.7118 -1.0107
 2726SOL    HW219815   2.100   3.462   2.076 -2.3803 -0.6409  0.2209
 2727SOL     OW19816   3.329   3.921   0.160 -0.8589  0.4185 -0.2473
 2727SOL    HW119817   3.392   3.849   0.170  0.1822  0.9427 -3.1086
 2727SOL    HW219818   3.259   3.897   0.221 -0.4619  0.9036  0.4026
 2728SOL     OW19819   3.525   3.813   2.118 -0.0142 -0.2015  0.0832
 2728SOL    HW119820   3.525   3.909   2.113  2.2614  0.0013  3.7753
 2728SOL    HW219821   3.614   3.795   2.148  0.4824  3.7445  1.0356
 2729SOL     OW19822   2.314   3.410   4.245  0.1780  0.6384  0.0653
 2729SOL    HW119823   2.347   3.500   4.245  2.0834 -0.0711  0.3361
 2729SOL    HW219824   2.376   3.369   4.304  0.1044 -0.6022 -0.7230
 2730SOL     OW19825   0.636   3.826  15.512  0.2651 -0.2745 -0.3790
 2730SOL    HW119826   0.589   3.908  15.523 -2.1751 -1.1956 -4.0973
 2730SOL    HW219827   0.710   3.855  15.460 -1.5690 -0.7593 -3.2759
 2731SOL     OW19828   3.877   1.674   9.919 -0.1847 -0.0781  0.1735
 2731SOL    HW119829   3.870   1.650   9.827  1.3718 -1.0979  0.3252
 2731SOL    HW219830   3.946   1.741   9.915 -0.9630  0.6140 -1.4997
 2732SOL     OW19831   2.551   0.055  16.240 -0.2361 -0.4244 -0.3347
 2732SOL    HW119832   2.618   0.005  16.193  0.0503  2.7111 -3.2876
 2732SOL    HW219833   2.516   4.722  16.295 -0.3101 -1.0124 -1.1371
 2733SOL     OW19834   1.314   2.303   5.374  0.3296 -0.1994 -0.2393
 2733SOL    HW119835   1.298   2.396   5.360 -0.3414 -0.3968 -0.8102
 2733SOL    HW219836   1.403   2.309   5.408  0.2658  0.1205 -0.1322
 2734SOL     OW19837   1.359   4.454   5.283 -0.1230  0.4527  0.1138
 2734SOL    HW119838   1.433   4.429   5.338  1.7510  0.0412 -2.5867
 2734SOL    HW219839   1.285   4.436   5.341  0.4672  3.2710  1.7299
 2735SOL     OW19840   3.386   1.987   9.067 -0.0380  0.3287  0.2936
 2735SOL    HW119841   3.309   2.037   9.042 -1.2798 -0.4771  2.5507
 2735SOL    HW219842   3.336   1.914   9.103  0.9584 -0.3588  0.2862
 2736SOL     OW19843   3.658   0.673  12.171 -0.4323 -0.4567 -0.4856
 2736SOL    HW119844   3.722   0.712  12.111 -1.5069  0.9801 -0.6966
 2736SOL    HW219845   3.595   0.743  12.184 -1.1439 -1.2214  0.1673
 2737SOL     OW19846   2.466   3.214   2.578  0.1105 -0.2939 -0.5785
 2737SOL    HW119847   2.390   3.250   2.533 -0.4242 -1.9542 -1.0111
 2737SOL    HW219848   2.530   3.211   2.508  0.7080  1.3003 -0.0888
 2738SOL     OW19849   0.618   3.000   9.747  0.2150 -0.2829 -0.3036
 2738SOL    HW119850   0.695   2.987   9.692  0.6893 -3.1586  1.0637
 2738SOL    HW219851   0.569   3.070   9.703  0.3457 -0.2964 -0.4718
 2739SOL     OW19852   4.253   4.170   9.489  0.4696 -0.0991 -0.3486
 2739SOL    HW119853   4.180   4.108   9.497  0.5231  0.0826  1.4617
 2739SOL    HW219854   4.248   4.208   9.401 -1.8358  2.3581  0.8463
 2740SOL     OW19855   1.710   0.880   8.342  0.0848 -0.1485 -0.1722
 2740SOL    HW119856   1.783   0.927   8.302 -1.2014  0.5670 -1.6821
 2740SOL    HW219857   1.736   0.791   8.316 -1.9274 -1.2655  1.6102
 2741SOL     OW19858   3.071   1.766   5.893 -0.4726  0.1524 -0.6850
 2741SOL    HW119859   3.165   1.764   5.909 -0.5872  0.3962  0.0193
 2741SOL    HW219860   3.079   1.788   5.801 -0.0175  0.6577 -0.5185
 2742SOL     OW19861   2.854   0.257   4.108  0.4693 -0.5967 -0.1023
 2742SOL    HW119862   2.841   0.249   4.203 -3.3480  1.4596 -0.4441
 2742SOL    HW219863   2.805   0.338   4.097  2.5256  0.7309  0.6183
 2743SOL     OW19864   3.601   2.354   3.770  0.7385  0.1678  0.1414
 2743SOL    HW119865   3.553   2.376   3.850 -2.8861  1.1188 -2.2703
 2743SOL    HW219866   3.637   2.440   3.752  0.3920  0.5110  1.1027
 2744SOL     OW19867   3.511   1.195  15.030  0.1674  0.0785 -0.0113
 2744SOL    HW119868   3.468   1.275  14.999 -0.8080 -0.6616 -0.5741
 2744SOL    HW219869   3.461   1.120  14.997  0.7485 -0.0310 -0.6373
 2745SOL     OW19870   4.660   4.048   5.738  0.3163 -0.0841 -0.1685
 2745SOL    HW119871   4.571   4.022   5.758 -0.4116  1.0665 -1.9068
 2745SOL    HW219872   4.666   4.109   5.664 -0.0125  0.7603  0.4987
 2746SOL     OW19873   4.410   3.669  11.776 -0.2343 -0.1985  0.1307
 2746SOL    HW119874   4.448   3.699  11.858  0.4159 -2.4964  0.6870
 2746SOL    HW219875   4.426   3.575  11.785 -2.3147 -0.6882 -1.1706
 2747SOL     OW19876   2.213   0.764   3.554 -0.0341  0.6700 -0.2633
 2747SOL    HW119877   2.286   0.825   3.548  1.0205 -0.1660  4.0529
 2747SOL    HW219878   2.132   0.809   3.578 -0.8803 -0.6456 -0.6152
 2748SOL     OW19879   4.080   3.930   9.433 -0.0511 -0.2193 -0.4097
 2748SOL    HW119880   4.062   3.889   9.349 -1.3561 -2.1382  0.8076
 2748SOL    HW219881   4.054   3.861   9.495 -1.5951  0.8671  0.1578
 2749SOL     OW19882   2.501   0.808   6.868 -0.3793  0.0932 -0.3433
 2749SOL    HW119883   2.577   0.782   6.920 -2.4633 -0.0245  2.6605
 2749SOL    HW219884   2.439   0.840   6.934 -1.2979 -0.9004 -0.7330
 2750SOL     OW19885   0.286   2.892   3.834  0.0812  0.3815  0.1470
 2750SOL    HW119886   0.337   2.849   3.903  1.8874  2.1260 -0.0923
 2750SOL    HW219887   0.223   2.824   3.813  0.2310  0.0929  0.6382
 2751SOL     OW19888   1.991   3.235   6.654 -0.5306 -0.3051  0.3615
 2751SOL    HW119889   1.980   3.140   6.662  0.0046 -0.4028 -0.0342
 2751SOL    HW219890   1.924   3.260   6.718 -1.0077 -0.0259 -0.2490
 2752SOL     OW19891   3.980   0.458   2.036 -0.3240  0.2580  0.4220
 2752SOL    HW119892   4.018   0.426   2.117 -0.8487 -3.1715 -0.7128
 2752SOL    HW219893   3.984   0.554   2.041  1.1656  0.0944  2.3926
 2753SOL     OW19894   4.119   0.632   9.838  0.3758  0.2613 -0.2324
 2753SOL    HW119895   4.185   0.665   9.899  0.3063  1.7925 -0.9923
 2753SOL    HW219896   4.171   0.557   9.810  2.4313  1.6653 -0.1800
 2754SOL     OW19897   3.373   0.021  13.930 -0.1870  0.0194  0.3051
 2754SOL    HW119898   3.422   0.098  13.959  0.3849  0.1523 -0.9825
 2754SOL    HW219899   3.373   0.037  13.835 -1.6393 -1.3517  0.0815
 2755SOL     OW19900   4.498   3.394   5.711 -0.2357  0.1174 -0.6756
 2755SOL    HW119901   4.522   3.443   5.632 -1.7887  1.5585 -0.2492
 2755SOL    HW219902   4.583   3.386   5.754  0.0409  0.8829 -1.0868
 2756SOL     OW19903   1.356   4.550   4.681  0.0116 -0.1642  0.4922
 2756SOL    HW119904   1.265   4.538   4.710 -0.0044  2.5611  1.6421
 2756SOL    HW219905   1.352   4.494   4.604 -2.9755 -0.4545  0.8401
 2757SOL     OW19906   3.235   3.185   7.260  0.4294  0.0505  0.6037
 2757SOL    HW119907   3.240   3.235   7.179  0.1278 -0.3831  0.3117
 2757SOL    HW219908   3.157   3.134   7.236  0.6680  0.2726 -0.6510
 2758SOL     OW19909   4.304   2.211   9.024  0.2862 -0.1135  0.6401
 2758SOL    HW119910   4.252   2.158   8.963  2.4582  0.5912 -1.8323
 2758SOL    HW219911   4.310   2.158   9.104 -2.4439 -1.4532 -0.0252
 2759SOL     OW19912   4.541   2.480   0.058  0.4754  0.1386 -0.4391
 2759SOL    HW119913   4.576   2.486  17.715 -0.8174  0.4889 -0.9291
 2759SOL    HW219914   4.626   2.466   0.100 -0.7343 -0.6678  1.7363
 2760SOL     OW19915   3.148   2.660   6.281 -0.3810 -0.1233 -0.3413
 2760SOL    HW119916   3.053   2.658   6.292 -0.2829  0.2459  0.6115
 2760SOL    HW219917   3.153   2.598   6.208  0.8506 -0.6990  0.2355
 2761SOL     OW19918   0.142   1.091   2.405 -0.3016  0.1264  0.2765
 2761SOL    HW119919   0.127   1.096   2.500  2.0339  0.6839  0.6204
 2761SOL    HW219920   0.212   1.027   2.418 -0.2674  0.0418 -0.3422
 2762SOL     OW19921   0.350   2.816   6.348 -0.1427 -0.5722  0.2782
 2762SOL    HW119922   0.431   2.859   6.374 -0.0043 -0.5881 -0.1284
 2762SOL    HW219923   0.281   2.864   6.393 -1.3399 -1.9510 -0.0722
 2763SOL     OW19924   1.096   1.944  15.655 -0.1988  0.2536 -0.3914
 2763SOL    HW119925   1.153   1.905  15.588  0.5539 -1.2952  1.1341
 2763SOL    HW219926   1.143   2.027  15.662  0.2196  0.2694 -3.4709
 2764SOL     OW19927   4.104   2.867  17.612  0.0140 -0.3563 -0.2402
 2764SOL    HW119928   4.194   2.856  17.580  0.0112  2.1444 -1.0793
 2764SOL    HW219929   4.078   2.777  17.590  1.4677 -0.6272 -0.8344
 2765SOL     OW19930   0.250   0.295   9.468  0.5368  0.9104 -0.4175
 2765SOL    HW119931   0.290   0.224   9.417  0.2018  1.3026 -1.2225
 2765SOL    HW219932   0.185   0.252   9.523 -0.1210  1.2981 -0.8954
 2766SOL     OW19933   1.976   3.729   7.003 -0.1666 -0.1215 -0.5357
 2766SOL    HW119934   1.919   3.720   6.926  1.9202  2.7255 -2.4456
 2766SOL    HW219935   2.015   3.642   7.004  0.8774  0.4169  2.6169
 2767SOL     OW19936   0.244   1.577  11.740 -0.6807  0.0276  0.1133
 2767SOL    HW119937   0.152   1.574  11.766 -0.5867 -1.7573  0.2452
 2767SOL    HW219938   0.279   1.638  11.804  1.2193  0.5387 -1.4212
 2768SOL     OW19939   2.564   3.202   6.944 -0.2687 -0.1466  0.0730
 2768SOL    HW119940   2.486   3.218   6.996 -0.7230 -1.2844 -0.2692
 2768SOL    HW219941   2.534   3.128   6.892 -0.4887  0.7322 -1.0556
 2769SOL     OW19942   0.526   0.226   0.010  0.3269  0.2692 -0.5689
 2769SOL    HW119943   0.499   0.137   0.035 -1.8235  0.7771 -1.0922
 2769SOL    HW219944   0.475   0.238  17.676  2.8374  0.9459 -2.0831
 2770SOL     OW19945   0.369   3.969   7.187 -0.1064 -0.7828 -0.4802
 2770SOL    HW119946   0.419   3.893   7.158  2.4948 -0.1744  2.3521
 2770SOL    HW219947   0.341   4.000   7.101  1.4507 -1.0763 -1.0877
 2771SOL     OW19948   3.071   4.116  15.924  0.4214  0.2436  0.7657
 2771SOL    HW119949   3.083   4.076  16.010 -1.8300 -0.9507  0.5155
 2771SOL    HW219950   3.012   4.054  15.882  1.3337  1.1178 -1.8194
 2772SOL     OW19951   4.360   3.027   8.166  0.1049  0.0893 -0.5826
 2772SOL    HW119952   4.450   3.005   8.189  0.8294  2.0697 -1.5682
 2772SOL    HW219953   4.330   2.955   8.110  0.3348  0.1257 -0.7511
 2773SOL     OW19954   4.474   0.618   7.243 -0.5435  0.0937  0.2508
 2773SOL    HW119955   4.472   0.663   7.158 -1.6087  2.6502  1.6077
 2773SOL    HW219956   4.380   0.621   7.256 -0.2500  0.2101  2.2727
 2774SOL     OW19957   2.415   0.561   7.721 -0.2694  0.3475 -0.0169
 2774SOL    HW119958   2.508   0.585   7.712  0.7751 -2.7020  2.5910
 2774SOL    HW219959   2.411   0.474   7.681 -0.0172  0.2199  0.2326
 2775SOL     OW19960   4.568   4.392   4.640  0.1321  0.1322  0.3493
 2775SOL    HW119961   4.586   4.302   4.665  2.0524  0.6905  1.0256
 2775SOL    HW219962   4.476   4.405   4.661  0.1280  3.4579 -1.6822
 2776SOL     OW19963   3.289   3.704   6.254  0.2376 -0.2369 -0.3410
 2776SOL    HW119964   3.313   3.713   6.162  2.8590  1.8526  0.5810
 2776SOL    HW219965   3.348   3.630   6.269  2.1272  0.8443 -2.5837
 2777SOL     OW19966   1.708   0.466   9.440  0.3333 -0.1470  0.3697
 2777SOL    HW119967   1.803   0.459   9.429  0.4921 -0.7576  2.1757
 2777SOL    HW219968   1.695   0.401   9.509 -0.9958  0.5101  0.7359
 2778SOL     OW19969   3.926   4.356   2.765 -0.0731  0.2621 -0.9509
 2778SOL    HW119970   3.868   4.297   2.815  2.3440 -0.5602  0.8524
 2778SOL    HW219971   4.000   4.363   2.824  1.7235 -1.6259 -2.9988
 2779SOL     OW19972   1.297   3.144   8.154  0.0551 -0.0656  0.0606
 2779SOL    HW119973   1.237   3.198   8.206 -1.6651 -1.8408 -0.1085
 2779SOL    HW219974   1.253   3.176   8.075 -1.0627  0.6270  0.9520
 2780SOL     OW19975   1.791   4.032   6.731 -0.7617 -0.2306 -0.1325
 2780SOL    HW119976   1.757   3.956   6.683 -2.5432 -0.0140  0.7720
 2780SOL    HW219977   1.869   3.997   6.773 -0.1521  0.1193 -0.9684
 2781SOL     OW19978   4.252   0.158  10.919 -0.5371  0.0234  0.8665
 2781SOL    HW119979   4.308   0.183  10.845 -1.1051 -0.9241  0.1175
 2781SOL    HW219980   4.177   0.210  10.890 -0.7721 -1.4952 -1.2241
 2782SOL     OW19981   0.862   2.748   3.094 -0.2113 -0.3425  0.3922
 2782SOL    HW119982   0.919   2.674   3.114  0.3158  0.4186  1.6859
 2782SOL    HW219983   0.778   2.707   3.075 -0.9338  0.6658  1.4972
 2783SOL     OW19984   3.389   1.506   0.180 -0.1451 -0.7853 -0.0634
 2783SOL    HW119985   3.312   1.452   0.198 -0.4538  0.3753  2.2534
 2783SOL    HW219986   3.359   1.521   0.091  0.6198  1.2784  0.0190
 2784SOL     OW19987   3.285   2.891   7.412  0.1748  0.6166  0.1702
 2784SOL    HW119988   3.229   2.956   7.454 -0.6114  0.4218 -0.5645
 2784SOL    HW219989   3.295   2.938   7.330 -3.9607 -0.5664 -1.0183
 2785SOL     OW19990   4.081   2.531   5.709 -0.2160 -0.5562  0.0418
 2785SOL    HW119991   3.994   2.523   5.672  1.2260  2.3862 -4.0049
 2785SOL    HW219992   4.064   2.535   5.803 -1.7370  0.2796 -0.2728
 2786SOL     OW19993   1.232   0.239   1.595 -0.2082 -0.1189 -0.1037
 2786SOL    HW119994   1.217   0.333   1.609 -0.7901  0.2518 -3.2920
 2786SOL    HW219995   1.312   0.247   1.544  0.4421  0.5275  0.9929
 2787SOL     OW19996   3.349   2.479   5.177  0.2012  0.0461 -0.5302
 2787SOL    HW119997   3.311   2.477   5.090 -1.2528  1.2096  0.0837
 2787SOL    HW219998   3.362   2.573   5.187  1.0152  0.0824 -1.8857
 2788SOL     OW19999   4.725   0.903  11.911 -0.3521 -0.0962  0.3392
 2788SOL    HW120000   0.008   0.849  11.834 -0.7265  0.7741 -0.3803
 2788SOL    HW220001   4.637   0.933  11.889 -0.9339 -1.4352  0.8366
 2789SOL     OW20002   4.587   4.079   4.376 -0.4869 -0.7521 -0.0325
 2789SOL    HW120003   4.607   4.062   4.468 -1.1375  1.0167  0.4308
 2789SOL    HW220004   4.555   4.169   4.379  1.5415  0.0121 -0.9220
 2790SOL     OW20005   1.546   1.903   2.258  0.7971  0.2397  0.2467
 2790SOL    HW120006   1.528   1.994   2.238 -1.3865 -0.6830 -1.9244
 2790SOL    HW220007   1.594   1.865   2.184 -1.5038 -1.6063 -0.3027
 2791SOL     OW20008   0.139   3.596   9.918 -0.0914 -0.5873 -0.3500
 2791SOL    HW120009   0.217   3.650   9.931 -1.5872  1.0362  1.9999
 2791SOL    HW220010   0.083   3.635   9.986  0.0814 -1.8381  0.5090
 2792SOL     OW20011   2.852   0.645   5.743  0.2695  0.5254 -0.1758
 2792SOL    HW120012   2.815   0.733   5.737  0.2906  0.3335 -3.2144
 2792SOL    HW220013   2.823   0.602   5.662 -3.4203 -0.9592  1.9135
 2793SOL     OW20014   1.036   0.308  15.877 -0.4771 -0.0562 -0.0683
 2793SOL    HW120015   0.979   0.384  15.885 -1.4307 -0.7425 -0.3824
 2793SOL    HW220016   1.002   0.253  15.806  0.7843  1.8396 -2.1391
 2794SOL     OW20017   4.117   2.564   8.417  0.1095  0.0145 -0.3760
 2794SOL    HW120018   4.058   2.493   8.443 -0.5578  0.5181 -0.5019
 2794SOL    HW220019   4.203   2.523   8.422 -0.8041 -2.0061 -1.0701
 2795SOL     OW20020   2.391   1.332   1.818  0.3416  0.0634  0.5201
 2795SOL    HW120021   2.433   1.418   1.811 -0.2723  0.3072 -0.2337
 2795SOL    HW220022   2.334   1.326   1.740  1.0977 -2.0122  0.1167
 2796SOL     OW20023   1.140   0.458  10.976 -0.5335 -0.2578 -0.4519
 2796SOL    HW120024   1.205   0.516  11.015  0.4983 -1.0729 -0.9740
 2796SOL    HW220025   1.194   0.396  10.927 -1.4615 -1.2497 -0.2341
 2797SOL     OW20026   3.003   3.217  11.105 -0.0939  0.1902 -0.5222
 2797SOL    HW120027   3.036   3.132  11.133 -0.9426  0.4997  1.4096
 2797SOL    HW220028   3.086   3.255  11.075  0.6136 -2.3115 -1.7428
 2798SOL     OW20029   2.848   1.266   7.045  0.1847  0.1284  0.1574
 2798SOL    HW120030   2.771   1.239   6.995  0.4175  0.3276 -0.3050
 2798SOL    HW220031   2.821   1.251   7.136 -1.1806 -0.4888 -0.3515
 2799SOL     OW20032   2.048   2.646  12.603 -0.0012  0.2137  0.0543
 2799SOL    HW120033   2.010   2.558  12.609  0.5731 -0.0443 -0.0811
 2799SOL    HW220034   1.968   2.691  12.630  0.5495  1.9086 -1.0802
 2800SOL     OW20035   1.971   4.655   6.022 -0.1244  0.0269 -0.3627
 2800SOL    HW120036   2.040   4.703   6.068  0.5097 -0.7943 -0.4597
 2800SOL    HW220037   2.025   4.593   5.973 -0.9435 -1.3715  0.5134
 2801SOL     OW20038   3.805   4.370   1.349 -0.4228 -0.0592  0.0406
 2801SOL    HW120039   3.737   4.437   1.353 -1.9642 -1.6479  0.4213
 2801SOL    HW220040   3.834   4.359   1.439 -0.5033 -1.8329 -0.1626
 2802SOL     OW20041   1.349   2.786   1.636 -0.5331 -0.3805 -0.3247
 2802SOL    HW120042   1.439   2.780   1.667  0.0296 -1.3722 -2.0926
 2802SOL    HW220043   1.361   2.782   1.541 -0.8326 -3.7546 -0.2264
 2803SOL     OW20044   0.967   3.009   2.221  0.0443 -0.6195  0.1043
 2803SOL    HW120045   1.009   2.925   2.205 -0.6163 -1.0171  0.4898
 2803SOL    HW220046   1.021   3.055   2.157 -2.2505  1.1073 -0.5938
 2804SOL     OW20047   0.513   1.740   7.059 -0.1211  0.0783  0.0798
 2804SOL    HW120048   0.562   1.672   7.104  0.1590  0.8206  0.8920
 2804SOL    HW220049   0.430   1.732   7.106 -0.1009 -1.0839 -0.0766
 2805SOL     OW20050   2.009   1.920   2.217  0.4857 -0.8740  0.0426
 2805SOL    HW120051   2.017   1.990   2.152  1.5859 -0.9328  0.1059
 2805SOL    HW220052   1.970   1.971   2.288  0.3088 -0.1767 -0.5572
 2806SOL     OW20053   0.777   0.763   4.782 -0.3570 -0.3582 -0.0614
 2806SOL    HW120054   0.831   0.688   4.757 -0.4420 -0.6503  0.6342
 2806SOL    HW220055   0.697   0.726   4.820  0.2900  1.0819  2.6970
 2807SOL     OW20056   2.113   2.719   8.670  0.1578  0.5321  0.2376
 2807SOL    HW120057   2.148   2.808   8.671  1.7521 -0.0996 -0.3885
 2807SOL    HW220058   2.033   2.738   8.721  0.2177 -1.2531  0.9665
 2808SOL     OW20059   3.805   0.232   1.952 -0.1484 -0.2031 -0.2440
 2808SOL    HW120060   3.862   0.306   1.973 -2.6911  0.9884  2.3523
 2808SOL    HW220061   3.849   0.194   1.875 -1.2592 -0.3536 -0.8025
 2809SOL     OW20062   4.702   0.813   3.071 -0.2176  0.5589  0.3928
 2809SOL    HW120063   4.723   0.787   3.161  0.5933 -2.0738 -0.5734
 2809SOL    HW220064   4.640   0.885   3.084 -1.1497 -0.4076  1.4033
 2810SOL     OW20065   3.829   4.373   4.909  0.6812  0.0674 -0.0729
 2810SOL    HW120066   3.798   4.289   4.942 -3.3709  1.8742  0.6926
 2810SOL    HW220067   3.906   4.392   4.964  0.3118 -1.5686  0.9837
 2811SOL     OW20068   0.219   4.280   6.236 -0.2827  0.1025  0.2127
 2811SOL    HW120069   0.263   4.364   6.247  2.0554 -1.0221 -0.4775
 2811SOL    HW220070   0.203   4.257   6.328 -0.4815 -0.1254  0.1224
 2812SOL     OW20071   0.638   0.442   3.924  0.0040  0.0737 -0.4431
 2812SOL    HW120072   0.670   0.355   3.899 -0.2012  0.5399 -2.3175
 2812SOL    HW220073   0.572   0.464   3.859  0.4527 -0.9079 -1.2351
 2813SOL     OW20074   1.536   0.412   7.738 -0.1391 -0.3819  0.1456
 2813SOL    HW120075   1.483   0.455   7.805 -0.2167 -0.4626  0.1368
 2813SOL    HW220076   1.616   0.416   7.791 -0.8604 -0.9169  1.2775
 2814SOL     OW20077   4.433   1.115  16.996  0.1670  0.1750  0.5911
 2814SOL    HW120078   4.449   1.171  17.072  0.3442 -1.3047  1.6596
 2814SOL    HW220079   4.406   1.034  17.039 -0.1697  0.3890  0.7789
 2815SOL     OW20080   2.087   4.391  11.882  0.5968  0.2337  0.2388
 2815SOL    HW120081   2.103   4.310  11.930  0.5652  1.4944  2.4194
 2815SOL    HW220082   2.067   4.448  11.956  0.7007  0.3323  0.1910
 2816SOL     OW20083   3.100   1.755  16.788 -0.6564  0.4129  1.1101
 2816SOL    HW120084   3.096   1.791  16.699 -0.5082 -4.0076 -0.7422
 2816SOL    HW220085   3.164   1.684  16.783 -1.5857 -0.3674  0.2214
 2817SOL     OW20086   1.535   0.910   2.363  0.0951 -0.2668 -0.4559
 2817SOL    HW120087   1.521   0.954   2.447 -0.0004  3.2651 -2.3221
 2817SOL    HW220088   1.462   0.849   2.373  1.7789 -2.3107 -0.7187
 2818SOL     OW20089   3.615   3.946   4.402  0.9310 -0.3815 -0.1209
 2818SOL    HW120090   3.567   3.994   4.334  1.3392 -1.2113 -1.0083
 2818SOL    HW220091   3.571   3.863   4.385  0.1579 -0.1116  0.5771
 2819SOL     OW20092   3.301   2.396   1.251  0.4738  0.1736  0.2164
 2819SOL    HW120093   3.396   2.404   1.255  0.5223  1.8024 -3.6682
 2819SOL    HW220094   3.275   2.487   1.239  0.3461  0.1428  0.2527
 2820SOL     OW20095   1.754   1.529  13.160  0.2670 -0.2602  0.1381
 2820SOL    HW120096   1.822   1.566  13.104 -0.6155  1.3831  0.1560
 2820SOL    HW220097   1.788   1.524  13.250  0.2241  1.0507  0.2175
 2821SOL     OW20098   2.604   3.950   3.972 -0.2404  0.0091 -0.6387
 2821SOL    HW120099   2.529   3.912   4.017  1.3217 -2.4956 -0.1583
 2821SOL    HW220100   2.572   4.013   3.907 -1.0497 -1.5141 -1.7038
 2822SOL     OW20101   0.930   1.009   8.646 -0.5203 -0.5094  0.0917
 2822SOL    HW120102   0.870   1.024   8.573 -1.8188 -1.1516  1.0318
 2822SOL    HW220103   1.012   1.002   8.598 -0.4177  1.6559 -0.0685
 2823SOL     OW20104   4.077   2.993   3.563  0.0559 -1.0439  0.0936
 2823SOL    HW120105   4.023   2.975   3.486  1.2976  1.9961 -1.5014
 2823SOL    HW220106   4.108   2.904   3.579  1.0430 -0.6311  0.4381
 2824SOL     OW20107   4.520   2.206   5.296 -0.1925 -0.0630 -0.0950
 2824SOL    HW120108   4.511   2.225   5.203  0.7987  2.4304  0.3154
 2824SOL    HW220109   4.575   2.128   5.291  0.0117  0.0376  0.5062
 2825SOL     OW20110   2.132   2.513   1.451 -0.5923  0.1409 -0.3584
 2825SOL    HW120111   2.109   2.422   1.431 -0.3921 -0.1402  0.7238
 2825SOL    HW220112   2.197   2.537   1.385 -1.0619 -0.6340 -1.1163
 2826SOL     OW20113   3.098   2.379   4.167 -0.7158 -0.0026 -0.2424
 2826SOL    HW120114   3.008   2.371   4.137 -0.5684 -0.1281 -0.6474
 2826SOL    HW220115   3.109   2.474   4.171 -0.5601 -0.0161 -0.3593
 2827SOL     OW20116   2.817   4.480   5.304  0.3849  0.1412 -0.1822
 2827SOL    HW120117   2.897   4.447   5.344 -1.1379 -3.0306  0.2381
 2827SOL    HW220118   2.788   4.549   5.363 -0.9966 -0.2086 -0.4490
 2828SOL     OW20119   2.823   2.413  11.608  0.1782 -0.3896  0.0760
 2828SOL    HW120120   2.761   2.414  11.681  0.6362 -1.6857  0.4850
 2828SOL    HW220121   2.885   2.347  11.638 -0.6562 -0.7674  0.9704
 2829SOL     OW20122   3.762   0.594   1.769 -0.3409  0.6493  0.4188
 2829SOL    HW120123   3.818   0.530   1.725 -1.2256 -0.2515  0.6019
 2829SOL    HW220124   3.757   0.662   1.702 -1.0966 -0.1171 -0.2931
 2830SOL     OW20125   3.916   0.989   1.349  0.0729  0.0945 -0.0030
 2830SOL    HW120126   3.946   0.943   1.270 -1.9444 -1.8292  0.3613
 2830SOL    HW220127   3.826   1.001   1.320 -0.6218 -3.2834  0.7116
 2831SOL     OW20128   2.744   2.156   7.276 -0.0159  0.2929  0.2553
 2831SOL    HW120129   2.836   2.133   7.288 -0.1248  0.5454  1.5180
 2831SOL    HW220130   2.715   2.134   7.364  0.2844  0.7925  0.4755
 2832SOL     OW20131   3.499   3.535   1.536 -0.3604 -0.1029  0.7828
 2832SOL    HW120132   3.496   3.630   1.548  0.7204  0.2843 -2.0719
 2832SOL    HW220133   3.411   3.512   1.567  0.4433  0.2237  3.2945
 2833SOL     OW20134   2.807   2.482   9.099  0.1204  0.1947 -0.0598
 2833SOL    HW120135   2.805   2.440   9.184 -0.4862 -1.4324 -0.8854
 2833SOL    HW220136   2.714   2.503   9.085 -0.1286  0.4967  2.0343
 2834SOL     OW20137   3.120   1.127   3.095  0.1873  0.2287  0.0545
 2834SOL    HW120138   3.140   1.034   3.087 -1.2650  0.2351 -3.4455
 2834SOL    HW220139   3.029   1.118   3.125  0.2384 -1.2038 -0.2321
 2835SOL     OW20140   3.081   2.856   6.585  0.1335  0.1035  0.0402
 2835SOL    HW120141   3.131   2.811   6.654 -1.2027 -1.8597 -0.2806
 2835SOL    HW220142   3.059   2.936   6.633  0.4089 -1.0857  2.1831
 2836SOL     OW20143   0.591   2.499   3.479  0.0616  0.2732 -0.2106
 2836SOL    HW120144   0.630   2.579   3.515  0.5104 -0.4270  0.8772
 2836SOL    HW220145   0.558   2.540   3.399  1.5505 -0.0609 -0.9764
 2837SOL     OW20146   1.467   4.032   5.473  0.0429  0.1105  0.0340
 2837SOL    HW120147   1.549   4.021   5.521  0.0616 -0.5674 -0.1597
 2837SOL    HW220148   1.426   3.946   5.478 -1.1245  0.6949  0.4224
 2838SOL     OW20149   2.698   2.890  16.791 -0.1196 -0.8889  0.1038
 2838SOL    HW120150   2.768   2.898  16.856 -0.9151 -1.7533  1.0730
 2838SOL    HW220151   2.667   2.981  16.794  0.2507 -0.7796  0.5508
 2839SOL     OW20152   2.788   2.013   5.514  0.0108  0.0510 -0.0401
 2839SOL    HW120153   2.850   2.015   5.587 -0.4955  1.3074  0.3667
 2839SOL    HW220154   2.711   1.986   5.564  0.8985 -1.2002  0.6427
 2840SOL     OW20155   3.740   3.818   9.527  0.3228  0.1721  0.6046
 2840SOL    HW120156   3.829   3.798   9.556  0.6202  0.4279 -0.1263
 2840SOL    HW220157   3.722   3.907   9.557 -2.6998 -0.5513  0.8456
 2841SOL     OW20158   3.938   0.089   9.772  0.5708 -0.0587  0.1572
 2841SOL    HW120159   3.865   0.046   9.816  0.0598 -0.2604 -0.8979
 2841SOL    HW220160   3.895   0.110   9.689  0.2887 -1.0288  0.0564
 2842SOL     OW20161   1.214   2.955   3.354  0.2442 -0.3204  0.2664
 2842SOL    HW120162   1.151   3.023   3.330  0.1311 -0.6733 -0.4287
 2842SOL    HW220163   1.170   2.871   3.339  0.8380 -0.8024  1.2143
 2843SOL     OW20164   2.460   1.724   4.386 -0.0097  0.6105 -0.3022
 2843SOL    HW120165   2.524   1.791   4.365  0.1157  0.8730  0.9313
 2843SOL    HW220166   2.389   1.734   4.323  1.2856 -0.0254 -1.8578
 2844SOL     OW20167   4.535   0.905   6.577  0.1989 -0.0114 -0.4169
 2844SOL    HW120168   4.560   0.945   6.494  2.0237 -1.3742 -0.5441
 2844SOL    HW220169   4.617   0.912   6.625 -1.5447  1.0781  2.3963
 2845SOL     OW20170   1.095   4.465   6.766  0.0511 -0.3720  0.3304
 2845SOL    HW120171   1.151   4.532   6.726 -1.2520  1.3884  1.4407
 2845SOL    HW220172   1.003   4.491   6.766  0.4539  1.0771 -0.8475
 2846SOL     OW20173   2.389   1.935   2.058  0.3817  0.4038  0.2616
 2846SOL    HW120174   2.396   2.006   2.122  0.3364  0.4385  0.2275
 2846SOL    HW220175   2.402   1.853   2.108  0.7582  1.6492  2.2237
 2847SOL     OW20176   0.409   1.393   8.342 -0.3248  0.4933 -0.2135
 2847SOL    HW120177   0.421   1.396   8.247  0.4161  0.3131 -0.1246
 2847SOL    HW220178   0.337   1.332   8.359 -0.7944  0.9852 -0.4413
 2848SOL     OW20179   3.777   1.090   3.256 -0.3502  0.0533  0.1624
 2848SOL    HW120180   3.815   1.067   3.341  0.2720 -0.3418 -0.2232
 2848SOL    HW220181   3.826   1.170   3.238  0.2111 -0.5043 -0.7766
 2849SOL     OW20182   1.042   0.858   4.345  0.5171  0.2487 -0.1869
 2849SOL    HW120183   0.953   0.845   4.377  1.2460 -0.9428  1.3100
 2849SOL    HW220184   1.030   0.874   4.251 -0.4316 -0.4347 -0.1777
 2850SOL     OW20185   2.334   3.584   8.671 -0.3184 -0.4478 -0.6991
 2850SOL    HW120186   2.376   3.660   8.714 -0.2966  0.1204 -1.7318
 2850SOL    HW220187   2.252   3.583   8.720  1.1442 -1.4011  1.7649
 2851SOL     OW20188   0.919   0.940   7.452 -0.4365 -1.0232 -1.0382
 2851SOL    HW120189   0.892   0.939   7.544 -0.9853 -0.7163 -1.1942
 2851SOL    HW220190   0.839   0.908   7.410 -0.6849 -0.6132 -0.8793
 2852SOL     OW20191   2.135   2.501   7.507  0.3551 -0.2133  0.1145
 2852SOL    HW120192   2.192   2.424   7.516 -0.5389 -0.7516  1.1911
 2852SOL    HW220193   2.094   2.455   7.433 -1.1495 -1.6737  1.8478
 2853SOL     OW20194   1.629   2.858   4.939  0.0019  0.1453 -0.2305
 2853SOL    HW120195   1.716   2.848   4.978 -0.5366 -0.1819  0.8770
 2853SOL    HW220196   1.617   2.953   4.949  2.4250  0.4502 -0.2896
 2854SOL     OW20197   3.519   2.324   7.592  0.4114  0.6753  0.3821
 2854SOL    HW120198   3.539   2.417   7.604 -1.1202  1.0959 -0.2970
 2854SOL    HW220199   3.449   2.329   7.527  1.0782  4.4589 -0.0640
 2855SOL     OW20200   1.530   4.349  11.240 -0.3389  0.8703  0.1436
 2855SOL    HW120201   1.446   4.329  11.199 -0.6733 -1.7886  2.1544
 2855SOL    HW220202   1.585   4.277  11.209  0.5702  1.2235  0.9345
 2856SOL     OW20203   4.346   3.845   7.950 -0.0590  0.2607  0.6842
 2856SOL    HW120204   4.359   3.903   7.875  1.1083 -0.6605  0.1754
 2856SOL    HW220205   4.251   3.836   7.941 -0.0199  0.4904  0.0335
 2857SOL     OW20206   1.660   4.013   7.161 -0.3589  0.4252 -0.2794
 2857SOL    HW120207   1.718   4.086   7.139 -1.3614  0.7281 -1.9240
 2857SOL    HW220208   1.729   3.948   7.173  1.3703  2.1518 -0.8448
 2858SOL     OW20209   3.541   0.304   7.170 -0.2345  0.0558 -0.1526
 2858SOL    HW120210   3.466   0.282   7.227  0.6252 -1.0692  0.5533
 2858SOL    HW220211   3.512   0.384   7.127  0.6124 -0.6647 -2.0728
 2859SOL     OW20212   4.736   3.690   2.574 -0.1166  0.4691  0.1455
 2859SOL    HW120213   4.687   3.743   2.637 -1.8970 -0.7826 -0.2087
 2859SOL    HW220214   4.695   3.604   2.577  1.9397 -0.5325 -0.4400
 2860SOL     OW20215   3.821   0.179   2.214 -0.4737 -0.2679  0.1914
 2860SOL    HW120216   3.836   0.189   2.120 -2.7809  1.3981  0.0039
 2860SOL    HW220217   3.804   0.085   2.226  2.3120 -0.7434  0.4493
 2861SOL     OW20218   0.136   2.641   1.513 -0.1544  0.3038 -0.0009
 2861SOL    HW120219   0.227   2.632   1.487 -0.3926  1.6486 -1.2827
 2861SOL    HW220220   0.133   2.674   1.602 -0.4682 -1.7937  0.7728
 2862SOL     OW20221   1.187   4.646   3.881  0.1749 -0.2784  0.2084
 2862SOL    HW120222   1.153   4.726   3.843  2.0188 -0.2294 -1.3556
 2862SOL    HW220223   1.117   4.632   3.945  0.4238 -3.9401 -0.2730
 2863SOL     OW20224   0.450   4.148   3.683  0.0598 -0.2710 -0.1899
 2863SOL    HW120225   0.503   4.068   3.682  0.8358  0.2607 -2.1253
 2863SOL    HW220226   0.372   4.115   3.639  0.0608  1.1910 -1.2778
 2864SOL     OW20227   3.369   0.680   5.628  0.4271 -0.0339  0.1380
 2864SOL    HW120228   3.427   0.674   5.703 -0.2256  2.4895  0.8600
 2864SOL    HW220229   3.314   0.757   5.645  0.1997 -0.4727  1.3876
 2865SOL     OW20230   4.636   2.174   4.251  0.2485  0.6777 -0.3031
 2865SOL    HW120231   4.708   2.218   4.205 -0.1206  0.2267 -1.3217
 2865SOL    HW220232   4.675   2.143   4.333  0.4824 -0.8463 -0.9868
 2866SOL     OW20233   2.039   1.670   2.788  0.4685  0.2644  0.6910
 2866SOL    HW120234   2.029   1.690   2.881 -3.3345 -1.4853  0.7020
 2866SOL    HW220235   1.996   1.747   2.750 -0.3748  0.5795  2.2769
 2867SOL     OW20236   0.250   2.539   6.390  0.1345  0.0674 -0.5769
 2867SOL    HW120237   0.262   2.509   6.480  0.0911  3.5431  0.5776
 2867SOL    HW220238   0.289   2.626   6.389 -0.7961  0.4890 -0.2393
 2868SOL     OW20239   4.669   0.318  11.028 -0.0426  0.2398  0.0897
 2868SOL    HW120240   4.591   0.279  11.067  0.3189  1.3102  1.8695
 2868SOL    HW220241   4.728   0.296  11.101  2.0227 -1.6125 -2.1315
 2869SOL     OW20242   4.729   2.715   2.196 -0.6796  0.6972  0.2584
 2869SOL    HW120243   0.020   2.667   2.118 -0.2514  0.0709  0.7969
 2869SOL    HW220244   0.063   2.780   2.196  1.2366 -1.4112 -0.9073
 2870SOL     OW20245   1.088   0.662   5.953  0.1952  0.4928 -0.7550
 2870SOL    HW120246   1.059   0.660   5.861  2.4793 -1.6269 -1.4370
 2870SOL    HW220247   1.012   0.624   5.998  0.5965 -0.8806 -1.2261
 2871SOL     OW20248   2.334   2.565   6.257  0.0774  0.0865 -0.0601
 2871SOL    HW120249   2.394   2.563   6.332  0.1743 -1.6800 -0.1850
 2871SOL    HW220250   2.267   2.631   6.277  0.6595  1.1292 -1.5798
 2872SOL     OW20251   1.214   2.084   5.032 -0.0378 -0.1303  0.1429
 2872SOL    HW120252   1.275   2.090   4.958 -0.9370 -1.7149 -0.7325
 2872SOL    HW220253   1.225   1.989   5.038 -3.6446 -0.6882 -2.1539
 2873SOL     OW20254   2.043   2.484   0.433  0.0787  0.7213  0.2618
 2873SOL    HW120255   2.120   2.439   0.467 -0.3065 -1.3762 -1.6597
 2873SOL    HW220256   2.027   2.545   0.506  0.3205  0.8679  0.1912
 2874SOL     OW20257   2.534   2.430   7.398 -0.2191  0.2750  0.0333
 2874SOL    HW120258   2.626   2.415   7.376 -0.7847 -1.5672 -1.0575
 2874SOL    HW220259   2.526   2.393   7.486  1.0255  0.6425  0.3011
 2875SOL     OW20260   4.298   2.796   7.989  0.1551  0.5051 -0.2784
 2875SOL    HW120261   4.227   2.737   8.018  2.4356 -1.6434  0.9560
 2875SOL    HW220262   4.299   2.791   7.894  0.5085 -0.7135 -0.2101
 2876SOL     OW20263   4.398   4.707  15.184 -0.0517 -0.6104  0.6942
 2876SOL    HW120264   4.371   4.658  15.106 -0.0227  1.5265 -0.6743
 2876SOL    HW220265   4.325   4.700  15.245  0.0862  1.4016  1.0948
 2877SOL     OW20266   1.608   1.337   6.692 -0.7000  0.4389 -0.3112
 2877SOL    HW120267   1.580   1.255   6.652  1.2857 -0.6907  0.5949
 2877SOL    HW220268   1.691   1.346   6.647 -0.2326 -0.1676  0.4343
 2878SOL     OW20269   1.799   4.159   1.171  0.7615 -0.2938  0.4452
 2878SOL    HW120270   1.716   4.206   1.170  0.5610 -0.6623 -0.8451
 2878SOL    HW220271   1.794   4.095   1.100  1.8721 -0.0715  0.1659
 2879SOL     OW20272   1.074   2.779   2.101 -1.2961  0.2590  0.7120
 2879SOL    HW120273   1.075   2.719   2.026 -1.0750  0.5023  0.5193
 2879SOL    HW220274   1.154   2.822   2.069 -2.5493  1.6540 -0.5786
 2880SOL     OW20275   0.499   3.062   6.800 -0.2181 -0.0052  0.0764
 2880SOL    HW120276   0.484   3.151   6.767  0.0391 -1.1914 -3.1775
 2880SOL    HW220277   0.578   3.070   6.853 -0.0848  1.4260 -0.3330
 2881SOL     OW20278   2.909   0.017   4.618  0.0674 -0.4415 -0.3018
 2881SOL    HW120279   2.995   4.711   4.623  0.1342 -0.1662  0.9584
 2881SOL    HW220280   2.859   4.695   4.675 -2.3992  2.5795  0.6997
 2882SOL     OW20281   3.715   3.308   2.272  0.1124 -0.1106  0.0320
 2882SOL    HW120282   3.664   3.228   2.282 -0.6292  0.3436 -0.0665
 2882SOL    HW220283   3.736   3.325   2.364 -0.4879 -2.6454  0.6162
 2883SOL     OW20284   3.381   3.764   5.650  0.0321  0.0707 -0.0655
 2883SOL    HW120285   3.335   3.847   5.657 -3.4411 -1.8075 -0.6671
 2883SOL    HW220286   3.471   3.794   5.659  0.6653 -2.2425  1.2769
 2884SOL     OW20287   3.932   0.787   7.627 -0.0702 -0.2278 -0.4535
 2884SOL    HW120288   3.948   0.849   7.557  1.2194 -0.9709 -0.8211
 2884SOL    HW220289   3.956   0.846   7.698 -2.4341  1.3218 -0.9503
 2885SOL     OW20290   1.194   3.564   3.324  0.0395 -0.0617  0.1299
 2885SOL    HW120291   1.116   3.613   3.300 -0.3009 -1.8456 -2.4764
 2885SOL    HW220292   1.154   3.478   3.340 -1.9479  0.6394 -1.1693
 2886SOL     OW20293   0.429   0.030   6.652 -0.1740  0.0268 -0.1360
 2886SOL    HW120294   0.481   4.708   6.707 -0.3813 -0.1339 -0.1109
 2886SOL    HW220295   0.469   0.012   6.567 -0.8288 -0.6076 -0.3098
 2887SOL     OW20296   1.208   3.151  15.514 -0.3424 -0.5978  0.1318
 2887SOL    HW120297   1.297   3.182  15.496  0.1173 -1.2020  1.3646
 2887SOL    HW220298   1.173   3.192  15.436 -1.5049 -0.4166  0.7588
 2888SOL     OW20299   0.828   3.543   4.436  0.6265  0.5072  0.2892
 2888SOL    HW120300   0.868   3.569   4.353 -0.3508  1.0503 -0.0174
 2888SOL    HW220301   0.902   3.509   4.487  0.6170 -0.1494 -0.1333
 2889SOL     OW20302   0.046   1.866   7.963  0.3241  0.0960  0.5334
 2889SOL    HW120303   4.708   1.837   8.015 -1.4851  0.6994 -1.6979
 2889SOL    HW220304   0.119   1.818   8.003 -0.4923 -1.2092  0.4550
 2890SOL     OW20305   3.589   4.105   7.276  0.0392 -0.0683  0.3120
 2890SOL    HW120306   3.498   4.080   7.262  0.6354 -1.5227 -0.9185
 2890SOL    HW220307   3.595   4.179   7.214 -0.2098 -0.6384 -0.3893
 2891SOL     OW20308   2.422   1.761   0.236  0.7017  0.4746 -0.3895
 2891SOL    HW120309   2.459   1.673   0.241  0.3580  0.3808  0.5919
 2891SOL    HW220310   2.335   1.742   0.201  1.0830 -3.4471  0.8268
 2892SOL     OW20311   3.066   2.345   8.185 -0.4814 -0.4887  0.7344
 2892SOL    HW120312   3.084   2.439   8.181 -1.3342 -0.4555 -2.0548
 2892SOL    HW220313   3.092   2.328   8.276  1.0778 -1.9935  0.0190
 2893SOL     OW20314   4.700   4.521  14.946  0.7204 -0.4563  0.5467
 2893SOL    HW120315   4.624   4.495  14.998  0.9508  0.3861  1.3249
 2893SOL    HW220316   0.029   4.531  15.015  1.9856 -0.0197 -0.7287
 2894SOL     OW20317   1.061   1.775   4.940 -0.3923 -0.1545 -0.2128
 2894SOL    HW120318   1.014   1.697   4.910 -0.2471 -0.9944  1.7312
 2894SOL    HW220319   0.994   1.840   4.922 -0.1699  0.0017 -0.4850
 2895SOL     OW20320   2.445   3.692   6.111 -0.0405  0.0374  0.2022
 2895SOL    HW120321   2.440   3.786   6.094 -0.4766  0.0736  0.5596
 2895SOL    HW220322   2.536   3.688   6.143 -0.0467  1.1084  0.3422
 2896SOL     OW20323   3.981   2.051   5.202 -0.6321  0.2530  0.1174
 2896SOL    HW120324   3.898   2.094   5.184  1.1252  2.6114 -2.2853
 2896SOL    HW220325   3.991   2.077   5.293 -2.5914 -2.8144  1.2094
 2897SOL     OW20326   1.771   0.338   3.672 -0.2701  0.3836 -0.2966
 2897SOL    HW120327   1.842   0.397   3.649  0.1757  0.3413  0.9544
 2897SOL    HW220328   1.690   0.389   3.681  0.2085  1.2110 -0.7149
 2898SOL     OW20329   1.890   3.395   4.409  0.7338 -0.5726 -1.0263
 2898SOL    HW120330   1.923   3.345   4.483 -3.4451  0.1100  1.3525
 2898SOL    HW220331   1.797   3.370   4.413  0.4876  0.5371  0.1999
 2899SOL     OW20332   0.785   3.167   3.121 -0.1307  0.7245  0.0577
 2899SOL    HW120333   0.776   3.219   3.042 -2.3932 -1.5782 -1.2268
 2899SOL    HW220334   0.720   3.219   3.169  0.5892  0.4507  1.3342
 2900SOL     OW20335   3.462   4.490   2.122  0.1417  0.3486  0.5599
 2900SOL    HW120336   3.410   4.410   2.129  0.4753  0.0782 -0.0386
 2900SOL    HW220337   3.469   4.509   2.215  1.9604 -1.2842  0.7368
 2901SOL     OW20338   0.346   0.298  13.605 -0.7404  0.1073  0.3883
 2901SOL    HW120339   0.299   0.302  13.689  2.1659 -1.9262  2.1359
 2901SOL    HW220340   0.313   0.380  13.571 -1.2829 -0.0442  0.5570
 2902SOL     OW20341   2.668   3.995   5.519 -0.0056 -0.2095 -0.6349
 2902SOL    HW120342   2.601   4.054   5.484  1.1682  1.9082  0.6898
 2902SOL    HW220343   2.635   3.982   5.608  0.1846  0.2963 -0.4887
 2903SOL     OW20344   3.916   3.849  16.559  0.6128  0.0196  0.1528
 2903SOL    HW120345   3.998   3.799  16.558  0.5985  0.0464 -2.3179
 2903SOL    HW220346   3.935   3.915  16.626 -1.1324 -1.1332  1.7861
 2904SOL     OW20347   2.009   0.645  15.561 -0.0053  0.0095 -0.0196
 2904SOL    HW120348   1.962   0.711  15.612 -1.1299  0.1012 -1.1557
 2904SOL    HW220349   1.999   0.571  15.621  0.5942  1.1977  1.5441
 2905SOL     OW20350   2.013   2.942  15.887 -0.3648  0.4436 -0.1169
 2905SOL    HW120351   1.923   2.928  15.917 -0.3714  0.2993 -0.2005
 2905SOL    HW220352   2.064   2.878  15.937 -1.0254  0.5597  0.6985
 2906SOL     OW20353   4.286   0.419  12.985 -0.6270  0.4329 -0.1892
 2906SOL    HW120354   4.231   0.367  13.044  0.6911 -0.3041  0.3993
 2906SOL    HW220355   4.232   0.444  12.910 -0.2221 -2.2377 -1.3497
 2907SOL     OW20356   2.810   1.114   4.750 -0.7043  0.4994  0.0508
 2907SOL    HW120357   2.766   1.162   4.680 -0.2033 -0.5430 -0.9716
 2907SOL    HW220358   2.743   1.125   4.817 -0.7934  0.2923 -0.0036
 2908SOL     OW20359   3.978   0.924   7.844 -0.4471  0.8273  0.3350
 2908SOL    HW120360   3.967   1.018   7.827 -0.5456  0.6505 -0.5698
 2908SOL    HW220361   3.990   0.914   7.939  0.1054 -0.9558  0.0742
 2909SOL     OW20362   2.725   2.885   6.874  0.2342 -0.2617 -0.1423
 2909SOL    HW120363   2.732   2.792   6.857  0.1143 -0.3390  0.2287
 2909SOL    HW220364   2.647   2.914   6.827 -0.4158 -0.5333  0.7611
 2910SOL     OW20365   4.394   2.100   8.679 -0.5468 -0.6224 -0.2668
 2910SOL    HW120366   4.301   2.116   8.665 -0.2458 -0.0948 -1.6388
 2910SOL    HW220367   4.456   2.156   8.632  1.0224 -0.6881  1.7263
 2911SOL     OW20368   1.520   1.125   6.578  0.0727 -0.2249 -0.1308
 2911SOL    HW120369   1.587   1.064   6.546  1.0145  1.6598 -1.8420
 2911SOL    HW220370   1.448   1.085   6.530 -0.9821 -0.1620  1.4279
 2912SOL     OW20371   2.667   3.153   3.228  0.4456  0.0992 -0.1783
 2912SOL    HW120372   2.723   3.119   3.297 -0.8739 -1.3979  0.1613
 2912SOL    HW220373   2.722   3.224   3.195  0.0649 -0.6062 -2.3309
 2913SOL     OW20374   2.988   1.421  15.182 -0.6067 -0.9136 -0.3616
 2913SOL    HW120375   2.921   1.359  15.213 -2.8085  2.5344  1.8351
 2913SOL    HW220376   3.002   1.469  15.263  0.0718  0.5263 -1.3567
 2914SOL     OW20377   1.333   0.748  15.030  0.0384  0.1725 -0.1904
 2914SOL    HW120378   1.306   0.839  15.024 -1.3400 -0.2197 -0.0142
 2914SOL    HW220379   1.331   0.715  14.940 -1.5684 -1.3119  0.3806
 2915SOL     OW20380   0.751   4.404   2.208  0.0623 -0.0317 -0.3223
 2915SOL    HW120381   0.774   4.312   2.222  0.4171 -0.1252 -1.5144
 2915SOL    HW220382   0.837   4.441   2.224 -1.1143  2.5445  0.1355
 2916SOL     OW20383   0.444   1.686   1.238 -0.1744  0.2781 -0.2916
 2916SOL    HW120384   0.400   1.602   1.232 -0.4750  0.3077  1.4399
 2916SOL    HW220385   0.381   1.742   1.194  0.8724  1.0619 -0.8003
 2917SOL     OW20386   3.653   0.082   4.812 -0.0921  0.4356 -0.5256
 2917SOL    HW120387   3.726   0.044   4.862  0.4908 -0.4540 -2.0383
 2917SOL    HW220388   3.627   0.130   4.890  1.1447  0.2532  0.0091
 2918SOL     OW20389   0.715   2.552  16.567  0.4091  0.2730 -0.2338
 2918SOL    HW120390   0.728   2.558  16.473 -0.7371  0.5894 -0.3704
 2918SOL    HW220391   0.796   2.596  16.591  0.6613 -0.6574  0.6206
 2919SOL     OW20392   0.342   3.714   6.464  0.0561  0.0185 -0.3110
 2919SOL    HW120393   0.270   3.689   6.522  0.2413  2.0118  0.7712
 2919SOL    HW220394   0.301   3.786   6.417  1.6999  0.7011 -0.6860
 2920SOL     OW20395   0.123   2.068   3.892 -0.6797  0.4934 -0.0727
 2920SOL    HW120396   0.077   2.010   3.952 -0.2286  1.1851  0.9353
 2920SOL    HW220397   0.076   2.053   3.810  0.2294 -2.0555 -0.1296
 2921SOL     OW20398   0.672   0.742   4.170 -0.1531 -0.1223 -0.4885
 2921SOL    HW120399   0.693   0.738   4.263 -0.6954  0.1095 -0.3536
 2921SOL    HW220400   0.760   0.750   4.134 -0.0063  0.3327 -0.0251
 2922SOL     OW20401   2.371   2.292   4.878 -0.0232  0.1596  0.3657
 2922SOL    HW120402   2.378   2.200   4.903  0.1026  0.2549  0.6863
 2922SOL    HW220403   2.439   2.291   4.811  1.8911  1.2709  2.3022
 2923SOL     OW20404   4.648   2.662   7.309  0.8639 -0.1652  0.1546
 2923SOL    HW120405   4.735   2.660   7.270 -0.6121  0.5445 -3.1725
 2923SOL    HW220406   4.593   2.704   7.242  2.5203  1.3907 -0.2413
 2924SOL     OW20407   2.324   0.809   7.134 -0.3795 -0.8268 -0.3169
 2924SOL    HW120408   2.276   0.728   7.150 -0.3307 -0.2519  2.7546
 2924SOL    HW220409   2.248   0.860   7.104 -2.0028 -1.2043  3.1280
 2925SOL     OW20410   3.132   0.765  12.612  0.0918 -0.3639 -0.4250
 2925SOL    HW120411   3.149   0.731  12.700 -0.7852  0.8435  0.2126
 2925SOL    HW220412   3.040   0.791  12.612  0.1547 -0.1206  1.1692
 2926SOL     OW20413   4.612   1.290   2.016 -0.0809  0.0369 -0.2612
 2926SOL    HW120414   4.616   1.375   2.060 -0.4695  1.1865 -2.4648
 2926SOL    HW220415   4.695   1.247   2.035 -0.2485  0.1691  0.7800
 2927SOL     OW20416   0.001   2.726   6.691 -0.2841 -0.1642 -0.5824
 2927SOL    HW120417   0.018   2.732   6.785  1.1952  2.3733 -0.9891
 2927SOL    HW220418   4.661   2.670   6.682 -0.8587  0.5364  0.0023
 2928SOL     OW20419   4.515   1.720   9.117 -0.2499 -0.2092  0.1252
 2928SOL    HW120420   4.544   1.803   9.155  0.3448  0.2620 -1.3393
 2928SOL    HW220421   4.439   1.749   9.067 -1.8529 -0.7916  2.2417
 2929SOL     OW20422   1.343   3.307   3.205 -0.2709  0.6588  0.3927
 2929SOL    HW120423   1.281   3.381   3.210  0.2556  1.1524 -0.5970
 2929SOL    HW220424   1.335   3.275   3.115  2.5499  1.8538 -0.2615
 2930SOL     OW20425   2.926   1.631  16.981  0.0651  0.2980 -0.0514
 2930SOL    HW120426   2.966   1.638  16.894 -0.6703  0.0794 -0.4089
 2930SOL    HW220427   2.964   1.704  17.029  0.3731  0.0812  0.0288
 2931SOL     OW20428   3.999   0.215   3.879  0.6804  0.2923  0.7453
 2931SOL    HW120429   3.965   0.126   3.867  0.5101  0.5072 -0.4248
 2931SOL    HW220430   3.927   0.275   3.858 -0.1633 -0.7790  0.5914
 2932SOL     OW20431   0.767   3.260  11.202  0.5503  0.3676 -0.2109
 2932SOL    HW120432   0.803   3.299  11.281  3.8491 -1.3709 -0.8492
 2932SOL    HW220433   0.745   3.171  11.228  0.1452  0.0996 -1.4851
 2933SOL     OW20434   1.293   2.585   2.854 -0.0971  0.3939  0.6422
 2933SOL    HW120435   1.202   2.559   2.844  0.4358 -0.5730 -1.7653
 2933SOL    HW220436   1.315   2.576   2.761  1.4729 -1.0317  1.1565
 2934SOL     OW20437   4.344   1.765   9.531 -0.4482  0.0215 -0.0613
 2934SOL    HW120438   4.410   1.806   9.475 -0.1313 -2.4463 -1.5207
 2934SOL    HW220439   4.356   1.670   9.528 -1.2772 -0.1010  0.4318
 2935SOL     OW20440   3.189   0.969   7.896 -0.2274  0.5317 -0.1528
 2935SOL    HW120441   3.212   0.878   7.911 -0.5081  0.3513 -0.7943
 2935SOL    HW220442   3.161   1.001   7.981 -1.1528 -2.9524  0.8598
 2936SOL     OW20443   0.085   1.668   6.145  0.5327 -0.1487  0.5719
 2936SOL    HW120444   0.088   1.687   6.051  1.6671  0.0793  0.6444
 2936SOL    HW220445   0.172   1.702   6.169  0.0701  0.5239  1.2850
 2937SOL     OW20446   0.610   1.736  10.736 -0.0820 -0.3516  0.2426
 2937SOL    HW120447   0.706   1.737  10.729 -0.1539 -1.1779 -0.9093
 2937SOL    HW220448   0.602   1.722  10.831 -0.4797 -0.8286  0.1411
 2938SOL     OW20449   2.729   1.962  13.310 -0.5961 -0.0509  0.1248
 2938SOL    HW120450   2.680   1.992  13.387  1.5849  2.0302  0.7018
 2938SOL    HW220451   2.791   2.034  13.298 -0.8776 -0.1134 -1.6906
 2939SOL     OW20452   3.306   0.563   4.969  0.0847 -0.1659  0.5308
 2939SOL    HW120453   3.290   0.492   4.908  1.3955 -0.2437  0.2746
 2939SOL    HW220454   3.249   0.628   4.927  1.1956  0.6126  0.2055
 2940SOL     OW20455   4.556   1.756   2.197  0.7450  0.0637  0.1193
 2940SOL    HW120456   4.576   1.779   2.288 -0.0085 -0.5847  0.4439
 2940SOL    HW220457   4.528   1.843   2.166 -2.1239 -1.0094 -0.2774
 2941SOL     OW20458   1.010   0.400   7.072 -1.0203  1.3322 -0.0471
 2941SOL    HW120459   1.089   0.443   7.104 -2.1882  3.6122 -0.1685
 2941SOL    HW220460   1.011   0.433   6.982 -0.0918 -1.5719 -1.0931
 2942SOL     OW20461   3.486   4.308  15.846  0.4141 -0.0212  0.1898
 2942SOL    HW120462   3.456   4.249  15.915  0.8969 -0.9695 -0.4009
 2942SOL    HW220463   3.491   4.391  15.893  0.0603  0.1221 -0.0231
 2943SOL     OW20464   0.653   2.306   2.224 -0.0679 -0.0240 -0.3905
 2943SOL    HW120465   0.664   2.385   2.278 -2.5241  0.9586 -1.3256
 2943SOL    HW220466   0.719   2.249   2.263  0.2985  0.3315 -0.4792
 2944SOL     OW20467   3.387   1.713   8.251  0.2129  0.0167  0.4590
 2944SOL    HW120468   3.363   1.663   8.330  1.2033 -0.1203  0.6699
 2944SOL    HW220469   3.440   1.647   8.208 -1.3283 -1.0854  0.2338
 2945SOL     OW20470   1.014   4.549   8.698  1.3213  0.6528  0.2046
 2945SOL    HW120471   1.027   4.641   8.676 -1.0059  0.6016 -1.4434
 2945SOL    HW220472   0.932   4.539   8.649  1.0241 -0.0173  0.8326
 2946SOL     OW20473   1.820   2.164   6.303 -0.0294 -0.1589  0.1573
 2946SOL    HW120474   1.882   2.234   6.282 -0.2736 -0.4316 -1.4499
 2946SOL    HW220475   1.789   2.183   6.392 -1.2329 -1.0910 -0.0650
 2947SOL     OW20476   0.224   2.476   2.086 -0.0244  0.2732  0.0348
 2947SOL    HW120477   0.268   2.425   2.019 -0.1829 -0.1010  0.2152
 2947SOL    HW220478   0.274   2.553   2.059 -1.6673  1.6151  0.7384
 2948SOL     OW20479   3.541   2.625   4.426 -0.8935 -0.3918 -0.6111
 2948SOL    HW120480   3.554   2.701   4.369 -0.7236  2.5298  3.3546
 2948SOL    HW220481   3.530   2.553   4.364 -2.1556 -0.3639 -0.4130
 2949SOL     OW20482   1.211   1.012   2.940 -0.1941 -0.2715 -0.0335
 2949SOL    HW120483   1.268   1.086   2.920 -0.5565 -0.9300 -3.5442
 2949SOL    HW220484   1.153   1.034   2.866  1.0521  0.8929 -0.6565
 2950SOL     OW20485   0.980   1.593   7.847 -0.1600 -0.0404 -0.1440
 2950SOL    HW120486   0.908   1.651   7.870  1.6837  1.6492  1.4628
 2950SOL    HW220487   0.987   1.553   7.934 -0.6532  0.5372  0.1633
 2951SOL     OW20488   4.013   3.117   9.549  0.4314 -0.1695 -0.2424
 2951SOL    HW120489   3.972   3.171   9.617 -1.4298 -0.4207 -1.1518
 2951SOL    HW220490   4.035   3.182   9.483 -1.2171 -0.9408 -1.5628
 2952SOL     OW20491   1.724   0.101  10.913 -0.7500 -0.0926  0.2036
 2952SOL    HW120492   1.799   0.124  10.968 -0.8371 -4.7508  2.3063
 2952SOL    HW220493   1.693   0.184  10.877 -1.9915 -0.5967  0.0977
 2953SOL     OW20494   2.888   2.666   3.041 -0.3024 -0.0642 -0.3981
 2953SOL    HW120495   2.885   2.572   3.024  0.2217  0.0875 -1.3548
 2953SOL    HW220496   2.904   2.661   3.135  0.4085 -1.5185 -0.5901
 2954SOL     OW20497   0.682   2.604   5.432  0.3532 -0.1124 -0.4312
 2954SOL    HW120498   0.713   2.645   5.513 -0.7684  0.0600 -0.0842
 2954SOL    HW220499   0.689   2.515   5.466  2.3127 -0.6622 -2.3368
 2955SOL     OW20500   0.475   1.074  12.499 -0.0627  0.1476 -0.1975
 2955SOL    HW120501   0.386   1.038  12.504  0.2640 -0.4906  0.8600
 2955SOL    HW220502   0.499   1.055  12.408  2.0586 -2.0001  0.8274
 2956SOL     OW20503   1.205   3.549   5.385  0.1343 -0.1662 -0.0631
 2956SOL    HW120504   1.294   3.581   5.374  0.4014 -0.8711  0.0705
 2956SOL    HW220505   1.190   3.572   5.477  2.0191 -0.4394  0.3049
 2957SOL     OW20506   0.198   0.755  16.596  0.2833 -0.0262 -0.4854
 2957SOL    HW120507   0.248   0.681  16.632 -0.6039  0.1621  1.1219
 2957SOL    HW220508   0.118   0.710  16.571  0.9575 -1.2175 -0.4976
 2958SOL     OW20509   4.070   1.880   2.129  0.1745  0.3727  0.3086
 2958SOL    HW120510   4.137   1.934   2.087 -0.2346  0.2814 -0.4605
 2958SOL    HW220511   4.095   1.901   2.219  2.4305 -0.2301 -0.1917
 2959SOL     OW20512   4.033   0.023   8.553 -0.5488  0.4205 -0.3166
 2959SOL    HW120513   3.970   4.698   8.516 -1.1078  1.4149 -1.0191
 2959SOL    HW220514   4.020   0.009   8.647 -0.4421 -0.1035 -0.3769
 2960SOL     OW20515   0.887   0.407   4.099  0.6927 -0.2071 -0.2034
 2960SOL    HW120516   0.947   0.479   4.121  0.1742 -0.0915  0.8028
 2960SOL    HW220517   0.923   0.336   4.153  2.3816 -0.7283 -2.0058
 2961SOL     OW20518   0.708   0.756  12.051 -0.2470 -0.0521  0.1246
 2961SOL    HW120519   0.767   0.727  11.981 -2.1435 -0.7795 -1.1578
 2961SOL    HW220520   0.649   0.804  11.994  0.2999  1.1947  0.5875
 2962SOL     OW20521   2.053   0.410  17.610 -0.4949  0.2758 -0.1125
 2962SOL    HW120522   2.109   0.393  17.686 -0.6673  1.8321  0.3562
 2962SOL    HW220523   2.045   0.504  17.596  1.6140  0.3875 -0.4787
 2963SOL     OW20524   0.647   1.049  16.377 -0.3539 -0.0567  0.4203
 2963SOL    HW120525   0.642   1.002  16.460 -2.5995  0.0809  0.3696
 2963SOL    HW220526   0.722   1.108  16.389 -1.7889  1.6804  1.0245
 2964SOL     OW20527   3.661   4.705   8.006  0.1983  0.0829  0.0104
 2964SOL    HW120528   3.649   0.059   7.979  1.8681 -0.1084 -1.3824
 2964SOL    HW220529   3.704   4.663   7.932 -0.9247  1.1220 -1.2228
 2965SOL     OW20530   3.372   4.461   4.292 -0.5081 -0.3630 -0.6146
 2965SOL    HW120531   3.378   4.539   4.347  0.3338 -1.5185  0.9594
 2965SOL    HW220532   3.278   4.443   4.301 -0.8147  1.0422 -1.0452
 2966SOL     OW20533   0.312   1.819   1.037 -0.3675 -0.0561  0.0468
 2966SOL    HW120534   0.322   1.913   1.022  0.7854 -0.2088 -0.1284
 2966SOL    HW220535   0.381   1.779   0.985  0.2281 -0.7234  1.3354
 2967SOL     OW20536   3.407   1.100  16.471 -0.0240  1.0227 -0.0533
 2967SOL    HW120537   3.478   1.085  16.409  1.2279 -0.4768  1.7500
 2967SOL    HW220538   3.343   1.032  16.449  1.0751 -0.3965  1.1739
 2968SOL     OW20539   3.983   4.138   3.407 -0.3746  0.0753  0.3069
 2968SOL    HW120540   4.074   4.132   3.435 -0.1639 -0.8150 -0.5215
 2968SOL    HW220541   3.972   4.225   3.369  2.3292 -0.1562 -0.9818
 2969SOL     OW20542   2.808   0.918   3.581  0.2804  0.6144 -0.0475
 2969SOL    HW120543   2.884   0.937   3.525 -1.4505  1.2524 -2.1883
 2969SOL    HW220544   2.755   0.995   3.560  0.2846 -0.0913 -2.6500
 2970SOL     OW20545   3.955   2.945   0.804  0.2937 -0.4707  0.4932
 2970SOL    HW120546   4.024   3.008   0.780  1.5422 -0.9016  3.0072
 2970SOL    HW220547   3.901   2.984   0.872 -0.2071 -1.2232  0.5137
 2971SOL     OW20548   1.130   0.508   2.750  0.2023 -0.5539  0.2436
 2971SOL    HW120549   1.190   0.490   2.822  0.4531  0.0884  0.1891
 2971SOL    HW220550   1.189   0.518   2.675 -2.6122  1.0149 -1.7684
 2972SOL     OW20551   1.660   4.497   2.374  0.0814  0.0927  0.0921
 2972SOL    HW120552   1.588   4.455   2.326 -0.8885  0.3130  1.3472
 2972SOL    HW220553   1.615   4.551   2.438  2.2670  0.5470  1.2144
 2973SOL     OW20554   2.132   4.264  12.558 -0.2545  0.7021 -0.0275
 2973SOL    HW120555   2.041   4.238  12.548 -0.8549  1.8831  2.3519
 2973SOL    HW220556   2.164   4.184  12.599 -1.7035 -0.2504 -0.7816
 2974SOL     OW20557   3.522   2.707   3.295 -0.2583 -0.1457  0.1220
 2974SOL    HW120558   3.506   2.789   3.341 -0.6974 -0.3054  0.2537
 2974SOL    HW220559   3.437   2.663   3.293  0.5387 -1.7176  0.6563
 2975SOL     OW20560   3.601   1.765  13.291 -0.0247 -0.4973 -0.7916
 2975SOL    HW120561   3.553   1.731  13.215 -1.4960  1.8876 -0.9527
 2975SOL    HW220562   3.575   1.857  13.285 -0.3754 -0.4337  1.9597
 2976SOL     OW20563   1.070   0.971   1.720  0.2308 -0.9555 -0.0634
 2976SOL    HW120564   0.977   0.993   1.726  0.9127  1.5210  1.4529
 2976SOL    HW220565   1.094   1.007   1.806  0.8527 -2.1458  0.2618
 2977SOL     OW20566   4.705   2.871   2.950 -0.3952  0.2416  0.3319
 2977SOL    HW120567   4.705   2.897   2.857  1.9361  0.8053  0.4960
 2977SOL    HW220568   0.058   2.900   2.967 -0.6885  0.3198  1.6843
 2978SOL     OW20569   0.714   3.096   9.980  0.3031  0.1306  0.1525
 2978SOL    HW120570   0.683   3.012   9.944 -2.5912  1.1103  0.3481
 2978SOL    HW220571   0.732   3.143   9.899  1.0963  2.7997  1.8888
 2979SOL     OW20572   0.628   1.045   2.926 -0.3647 -0.1798 -0.9805
 2979SOL    HW120573   0.629   0.977   2.993  3.4331 -1.1831 -2.0388
 2979SOL    HW220574   0.538   1.041   2.893 -0.7228 -1.7993  0.2153
 2980SOL     OW20575   1.546   1.568   1.555 -0.6715  0.3951 -0.0125
 2980SOL    HW120576   1.459   1.550   1.520  0.6551 -0.8556 -2.6122
 2980SOL    HW220577   1.549   1.503   1.625  1.9142 -0.9692 -1.4151
 2981SOL     OW20578   0.686   0.863  16.583 -0.3832  0.1474 -0.3964
 2981SOL    HW120579   0.664   0.775  16.553  0.6816  0.1322 -1.1146
 2981SOL    HW220580   0.770   0.859  16.629 -0.0279 -1.3006 -1.1847
 2982SOL     OW20581   0.940   1.533   4.556  0.7003  0.1957 -0.5751
 2982SOL    HW120582   0.992   1.455   4.574 -1.4915 -1.2607 -0.4896
 2982SOL    HW220583   0.921   1.521   4.463 -2.5169  1.9720 -0.1522
 2983SOL     OW20584   1.958   4.369   9.072 -0.9902 -0.4397  0.0977
 2983SOL    HW120585   1.980   4.341   9.161 -1.2756 -0.5868  0.1216
 2983SOL    HW220586   1.910   4.449   9.093 -0.4371 -0.6759  2.3110
 2984SOL     OW20587   3.048   0.360   2.422  0.7786  0.6793 -0.1081
 2984SOL    HW120588   3.016   0.338   2.509  0.9527  1.6777  0.2113
 2984SOL    HW220589   3.089   0.445   2.436  2.8232 -0.3851  0.4594
 2985SOL     OW20590   1.456   4.187   8.790  0.3673 -0.2822  0.5564
 2985SOL    HW120591   1.388   4.121   8.807  0.4046 -0.7247 -0.9708
 2985SOL    HW220592   1.429   4.264   8.840  0.4638  0.6925 -0.8777
 2986SOL     OW20593   2.043   1.684   7.116 -0.4777 -0.7708 -0.3154
 2986SOL    HW120594   2.086   1.602   7.136  0.0715 -0.4382 -0.1333
 2986SOL    HW220595   1.951   1.657   7.126 -0.8893  0.8766  0.4157
 2987SOL     OW20596   3.653   1.541  17.235 -0.3688 -0.3901 -0.2069
 2987SOL    HW120597   3.613   1.462  17.270 -0.2569  1.0347  3.1547
 2987SOL    HW220598   3.593   1.552  17.161 -0.5080  0.9757  0.1069
 2988SOL     OW20599   4.523   4.100   9.505 -0.4123 -0.1421  1.0514
 2988SOL    HW120600   4.439   4.133   9.538  0.2815  1.1765  1.5325
 2988SOL    HW220601   4.491   4.094   9.415 -1.5002 -2.4220  1.6059
 2989SOL     OW20602   3.789   4.170  14.535 -0.2405 -0.3527 -0.6491
 2989SOL    HW120603   3.842   4.198  14.460  1.1934 -0.7469  0.2109
 2989SOL    HW220604   3.700   4.180  14.502 -0.2696 -2.8836 -1.3578
 2990SOL     OW20605   0.172   1.933   0.114  0.9133  0.3552  0.5487
 2990SOL    HW120606   0.105   2.000   0.125  0.0538 -0.6647  1.4839
 2990SOL    HW220607   0.205   1.913   0.202 -1.2816  0.7800  1.4528
 2991SOL     OW20608   1.202   1.168  12.029 -1.3855 -0.0132 -0.6059
 2991SOL    HW120609   1.203   1.140  11.937  0.2164  0.8153 -0.8304
 2991SOL    HW220610   1.110   1.192  12.020 -1.1485  0.8562 -0.6293
 2992SOL     OW20611   3.590   2.324   4.920  0.8518  0.0974 -0.3049
 2992SOL    HW120612   3.580   2.405   4.970 -4.1393 -0.1459 -0.9382
 2992SOL    HW220613   3.613   2.361   4.834 -2.9613 -0.3519 -1.4930
 2993SOL     OW20614   0.115   4.506   6.439  0.0226 -0.4445 -0.0958
 2993SOL    HW120615   0.088   4.414   6.428  0.7425 -0.6275 -0.3091
 2993SOL    HW220616   0.076   4.528   6.523 -1.6786 -0.5247 -0.8591
 2994SOL     OW20617   1.124   0.705  10.528 -0.1390 -0.2544 -0.8582
 2994SOL    HW120618   1.170   0.635  10.574 -0.9673  1.1858  2.1662
 2994SOL    HW220619   1.187   0.738  10.465 -0.5320  1.2993 -0.4387
 2995SOL     OW20620   3.940   3.517   2.050 -0.1077 -0.0510  0.1646
 2995SOL    HW120621   4.020   3.569   2.050 -0.5382  0.6393  2.3794
 2995SOL    HW220622   3.979   3.430   2.055  1.2153  0.4089 -2.1608
 2996SOL     OW20623   2.961   0.889   6.162 -0.6145  0.1786  0.7751
 2996SOL    HW120624   3.001   0.976   6.158  0.4742 -0.2835  1.4008
 2996SOL    HW220625   3.006   0.848   6.088 -1.3048  0.4865  0.1911
 2997SOL     OW20626   0.148   2.370   4.845  0.0098 -0.3749  0.2467
 2997SOL    HW120627   0.083   2.363   4.915 -0.9780  1.8492 -0.4394
 2997SOL    HW220628   0.104   2.431   4.786  0.7880  1.2370  1.3470
 2998SOL     OW20629   4.251   4.384   3.349  0.1342 -0.1625 -0.6858
 2998SOL    HW120630   4.325   4.428   3.390 -1.7190  0.1085  2.3766
 2998SOL    HW220631   4.281   4.306   3.303  0.8495  0.2694 -0.9491
 2999SOL     OW20632   0.116   0.949  17.607  0.8094  0.1680 -0.2332
 2999SOL    HW120633   0.065   1.030  17.606  0.3266 -0.1549 -1.9114
 2999SOL    HW220634   0.179   0.976  17.541  3.8259 -1.7317  1.8487
 3000SOL     OW20635   3.383   2.600  11.455 -0.0144 -0.3483  0.9609
 3000SOL    HW120636   3.411   2.671  11.398  1.9937 -0.4330  1.8394
 3000SOL    HW220637   3.430   2.531  11.407  0.7654  0.4031  0.6493
 3001SOL     OW20638   2.827   3.399   5.210  0.1982 -0.3870 -0.0209
 3001SOL    HW120639   2.855   3.462   5.276  1.6557 -1.4923  0.3972
 3001SOL    HW220640   2.911   3.356   5.198  0.5958  0.2191  0.5519
 3002SOL     OW20641   4.627   0.541   9.266 -0.3624 -0.4516  0.0767
 3002SOL    HW120642   4.599   0.451   9.283  1.2758 -0.9175  0.3024
 3002SOL    HW220643   4.562   0.584   9.321  0.1651 -0.8428  1.0000
 3003SOL     OW20644   4.010   3.065   2.868 -0.7319  0.6126 -0.0389
 3003SOL    HW120645   3.980   2.985   2.911 -0.6616  1.0739  0.8682
 3003SOL    HW220646   4.090   3.038   2.822 -0.6014 -0.9490  1.0920
 3004SOL     OW20647   1.845   2.258   0.433 -0.0761 -0.0904 -0.5342
 3004SOL    HW120648   1.839   2.337   0.380  2.4097  0.3533 -0.1655
 3004SOL    HW220649   1.917   2.287   0.488  1.1290 -1.1383 -1.5577
 3005SOL     OW20650   3.582   2.919   8.778 -0.0547  0.1439 -0.4728
 3005SOL    HW120651   3.670   2.956   8.769  0.3891 -1.4330 -2.4082
 3005SOL    HW220652   3.528   2.998   8.783 -1.9900 -1.1498 -0.8127
 3006SOL     OW20653   0.296   1.781  10.400 -0.2649  0.2584 -0.0740
 3006SOL    HW120654   0.342   1.786  10.316 -2.7992 -0.6178 -1.5366
 3006SOL    HW220655   0.253   1.696  10.396  0.7564 -0.2215 -0.8242
 3007SOL     OW20656   3.228   0.133  12.550  0.3867 -0.2281 -0.0851
 3007SOL    HW120657   3.251   0.210  12.499  1.1788 -1.0451 -0.9570
 3007SOL    HW220658   3.133   0.141  12.553  0.3885 -0.0235 -0.5589
 3008SOL     OW20659   1.610   1.242   0.213 -0.2937 -0.0854  0.2425
 3008SOL    HW120660   1.538   1.190   0.248 -2.0774  2.2620  0.0643
 3008SOL    HW220661   1.669   1.168   0.198  0.7046  0.0256  3.5444
 3009SOL     OW20662   1.872   1.096   7.146 -0.1784  0.6751  0.1295
 3009SOL    HW120663   1.810   1.041   7.099 -0.2826 -0.4957  1.6417
 3009SOL    HW220664   1.829   1.182   7.148 -0.2387  0.6816 -2.5432
 3010SOL     OW20665   0.712   2.929   2.080  0.1134 -0.2962 -0.1841
 3010SOL    HW120666   0.765   2.851   2.061 -0.0220 -0.8531  1.6591
 3010SOL    HW220667   0.771   2.962   2.148  1.0904 -0.4385 -0.9541
 3011SOL     OW20668   1.850   1.713   9.235 -0.0644  0.2816 -0.1711
 3011SOL    HW120669   1.933   1.754   9.209  0.3657 -0.6879 -0.2994
 3011SOL    HW220670   1.840   1.742   9.326 -0.6851  0.1787 -0.2073
 3012SOL     OW20671   2.540   2.697   7.660 -0.0127 -0.4852 -0.2395
 3012SOL    HW120672   2.529   2.792   7.669  1.2109 -0.4190  0.4954
 3012SOL    HW220673   2.531   2.685   7.566 -0.3256  1.9661 -0.5330
 3013SOL     OW20674   3.779   1.138   6.852  0.0481  0.1177 -0.0527
 3013SOL    HW120675   3.869   1.104   6.848 -0.4855 -1.0857 -2.1712
 3013SOL    HW220676   3.761   1.148   6.945 -0.4642  1.9531 -0.3510
 3014SOL     OW20677   4.163   0.010   6.989 -0.2426  0.3178 -0.3204
 3014SOL    HW120678   4.162   4.733   6.894  0.5704  1.3480 -0.4735
 3014SOL    HW220679   4.222   0.085   6.984 -2.2657  1.8763 -0.7174
 3015SOL     OW20680   2.343   0.373   7.282  0.2859 -0.2766 -0.5527
 3015SOL    HW120681   2.346   0.304   7.348  3.3878 -0.3790 -0.7882
 3015SOL    HW220682   2.420   0.425   7.307  0.0134 -0.7268  1.1965
 3016SOL     OW20683   3.007   2.015   6.558 -0.9578 -0.0518 -0.4308
 3016SOL    HW120684   3.098   2.028   6.530 -1.2703 -0.3806 -1.5881
 3016SOL    HW220685   2.998   2.087   6.620 -0.3950 -1.0404  0.7952
 3017SOL     OW20686   1.781   2.324   7.797 -0.2458 -0.0528 -0.6498
 3017SOL    HW120687   1.775   2.279   7.881 -1.3401 -0.3799 -0.9091
 3017SOL    HW220688   1.871   2.356   7.788 -1.3343  3.3531  0.2966
 3018SOL     OW20689   1.577   0.861   8.600  0.3572 -0.1316  0.8693
 3018SOL    HW120690   1.526   0.939   8.581 -0.7579 -0.9122  0.6584
 3018SOL    HW220691   1.598   0.850   8.507  3.4505  2.2850  1.2772
 3019SOL     OW20692   1.867   1.573  12.607  0.3581 -0.1365  0.2225
 3019SOL    HW120693   1.802   1.531  12.663 -0.9924  2.2683  0.4417
 3019SOL    HW220694   1.922   1.625  12.666 -0.9249 -1.3928  2.4770
 3020SOL     OW20695   3.070   3.994  16.169  0.1974 -0.1701  0.3363
 3020SOL    HW120696   3.045   4.077  16.210  3.1644  0.1300  1.5413
 3020SOL    HW220697   2.994   3.936  16.176 -0.8556  0.7408 -3.8114
 3021SOL     OW20698   0.864   2.173   2.341  0.5194 -0.6227 -0.3296
 3021SOL    HW120699   0.918   2.231   2.395  2.4288  0.3743 -3.2913
 3021SOL    HW220700   0.930   2.106   2.320  1.0591 -0.7854  1.9307
 3022SOL     OW20701   2.251   1.208   4.771  0.2262  0.3398  0.2986
 3022SOL    HW120702   2.289   1.229   4.686 -0.1184 -1.7917 -0.3737
 3022SOL    HW220703   2.199   1.287   4.786 -2.2416 -1.2611  0.2311
 3023SOL     OW20704   2.078   2.080   1.120  0.1197  0.0602  0.1919
 3023SOL    HW120705   2.049   2.020   1.051  3.1164 -0.8003 -0.2798
 3023SOL    HW220706   1.999   2.071   1.173  0.5669 -0.8438  0.7018
 3024SOL     OW20707   3.704   4.508   3.430 -0.4978 -0.1742  1.0146
 3024SOL    HW120708   3.773   4.449   3.401 -1.9886 -1.2268 -0.4114
 3024SOL    HW220709   3.665   4.547   3.351  1.0554  1.8310  1.2351
 3025SOL     OW20710   3.915   3.408  16.848 -0.3284 -0.1503  0.4936
 3025SOL    HW120711   3.982   3.473  16.871  1.7796 -1.4569 -1.8903
 3025SOL    HW220712   3.836   3.462  16.846 -1.1858 -1.4194  0.1221
 3026SOL     OW20713   4.194   2.279  12.122  0.5728  0.0260 -0.2149
 3026SOL    HW120714   4.103   2.292  12.146  1.0700  0.4164  1.4597
 3026SOL    HW220715   4.223   2.370  12.114  2.6340 -0.6357 -0.4762
 3027SOL     OW20716   1.466   0.319   8.975  0.3427  0.1894 -0.5430
 3027SOL    HW120717   1.520   0.339   9.052 -0.3746  0.0937 -0.0137
 3027SOL    HW220718   1.381   0.293   9.010  0.8581 -2.0537 -0.9618
 3028SOL     OW20719   0.486   3.281   4.572  0.1596 -0.0654 -0.2531
 3028SOL    HW120720   0.469   3.333   4.494  0.2762  0.8806  0.3618
 3028SOL    HW220721   0.484   3.188   4.547 -2.4018 -0.0311 -0.1513
 3029SOL     OW20722   3.509   2.330   1.747 -0.0251  0.1200  0.2540
 3029SOL    HW120723   3.520   2.235   1.744 -0.1456  0.0991  0.4498
 3029SOL    HW220724   3.598   2.362   1.762  0.4293  0.0982 -2.4233
 3030SOL     OW20725   3.495   2.821   3.601 -0.0904  0.6955 -0.0023
 3030SOL    HW120726   3.427   2.857   3.544 -0.9067  0.3228  0.7444
 3030SOL    HW220727   3.520   2.901   3.649 -0.1275  0.1415  0.9443
 3031SOL     OW20728   1.627   1.499   8.480  0.5805 -0.2694 -0.3620
 3031SOL    HW120729   1.568   1.467   8.549  0.7856  1.1509  0.4762
 3031SOL    HW220730   1.630   1.591   8.506  0.6681 -0.3457 -0.0979
 3032SOL     OW20731   0.675   0.804   1.837 -0.2361 -0.0548 -0.1011
 3032SOL    HW120732   0.658   0.719   1.796  2.1590 -1.4838  1.8395
 3032SOL    HW220733   0.598   0.803   1.894 -1.3728 -1.0044 -1.6518
 3033SOL     OW20734   2.324   1.205   3.847 -0.0202 -0.1639  0.5752
 3033SOL    HW120735   2.276   1.220   3.766 -1.6238  1.4932  1.8262
 3033SOL    HW220736   2.329   1.296   3.879  0.5419 -0.7810  2.2769
 3034SOL     OW20737   1.251   3.353   6.331  0.3543 -0.3695  0.2531
 3034SOL    HW120738   1.321   3.294   6.305 -0.5293 -0.4296 -1.9868
 3034SOL    HW220739   1.215   3.301   6.403  1.2838 -1.6860 -0.2433
 3035SOL     OW20740   2.587   0.960  17.599 -0.4619 -0.1144  0.0666
 3035SOL    HW120741   2.635   0.977  17.518  0.2702  0.3917  0.6091
 3035SOL    HW220742   2.660   0.945  17.659 -0.1376  0.7680 -0.1146
 3036SOL     OW20743   4.557   0.468   2.657 -0.8447  0.0036 -0.4824
 3036SOL    HW120744   4.467   0.465   2.688 -0.9028 -0.5531 -0.6972
 3036SOL    HW220745   4.603   0.518   2.724 -1.3574 -1.5275  0.9901
 3037SOL     OW20746   2.584   1.466   5.152  0.0722 -0.2562 -0.8921
 3037SOL    HW120747   2.519   1.409   5.111 -0.0913 -0.5781 -0.1817
 3037SOL    HW220748   2.650   1.407   5.189 -0.4237 -0.4300 -0.2963
 3038SOL     OW20749   0.175   1.379   0.538  0.0605  0.3199 -0.6773
 3038SOL    HW120750   0.176   1.426   0.455  1.5227 -0.2190 -0.9779
 3038SOL    HW220751   0.252   1.324   0.524 -0.0789 -0.1116  0.2155
 3039SOL     OW20752   2.171   3.596   5.402 -0.4683  0.4834  0.7235
 3039SOL    HW120753   2.167   3.543   5.481 -1.4471 -0.5147  0.0004
 3039SOL    HW220754   2.078   3.616   5.396 -0.3125  0.6960 -0.9128
 3040SOL     OW20755   0.713   3.028   5.366 -0.2468  0.4548  0.0796
 3040SOL    HW120756   0.709   3.006   5.273 -2.0122  0.9076  0.0544
 3040SOL    HW220757   0.742   3.119   5.362 -0.9882  0.6919  0.0985
 3041SOL     OW20758   3.214   1.581   1.959 -0.6717  0.0684  0.3190
 3041SOL    HW120759   3.136   1.542   2.000  0.6486 -1.5070  1.3262
 3041SOL    HW220760   3.272   1.567   2.034 -0.1961  0.6034  0.0449
 3042SOL     OW20761   0.602   0.285   2.127  0.2160 -0.0631 -0.3493
 3042SOL    HW120762   0.573   0.199   2.096 -0.5573  0.3847 -0.8405
 3042SOL    HW220763   0.641   0.253   2.208  1.3323 -1.5474 -1.4613
 3043SOL     OW20764   4.004   0.916   2.395  0.0093  0.1548 -0.3887
 3043SOL    HW120765   4.081   0.907   2.339  0.0294 -0.2469 -0.2942
 3043SOL    HW220766   3.957   0.981   2.343 -3.7137 -1.6131  0.7152
 3044SOL     OW20767   0.758   4.059  15.055 -0.0440  0.7151  0.8377
 3044SOL    HW120768   0.793   4.146  15.034 -0.4403  0.5694 -0.3720
 3044SOL    HW220769   0.716   4.034  14.973 -1.2678  1.8942  1.1066
 3045SOL     OW20770   1.104   3.589   6.746 -0.0884  0.1931  0.0089
 3045SOL    HW120771   1.164   3.515   6.758 -0.5292 -0.1687 -0.0177
 3045SOL    HW220772   1.170   3.657   6.735 -0.3939  0.3135 -1.1125
 3046SOL     OW20773   3.284   1.581  16.683  0.3476  0.0093  0.2549
 3046SOL    HW120774   3.285   1.622  16.596  0.5234 -0.4324  0.0524
 3046SOL    HW220775   3.326   1.497  16.665 -1.0797 -1.2844  2.9899
 3047SOL     OW20776   4.098   3.715   3.994 -0.1480 -0.4881 -0.1840
 3047SOL    HW120777   4.185   3.705   3.954 -0.8596 -1.6150 -1.4760
 3047SOL    HW220778   4.117   3.746   4.082 -1.4618  0.4384 -0.2286
 3048SOL     OW20779   4.630   0.280   8.057  0.0868 -0.2812 -0.0488
 3048SOL    HW120780   4.612   0.188   8.037  0.1909 -0.4447  0.6242
 3048SOL    HW220781   4.619   0.333   7.977 -1.3163 -0.6318 -0.0801
 3049SOL     OW20782   1.783   3.540  11.773  0.2652 -0.0063  0.2749
 3049SOL    HW120783   1.754   3.480  11.705 -0.0500  1.2383 -0.6882
 3049SOL    HW220784   1.878   3.527  11.767  0.1249 -0.6036 -0.7231
 3050SOL     OW20785   3.903   1.359   5.034 -0.0558 -0.2880  0.4813
 3050SOL    HW120786   3.977   1.298   5.033 -0.6420 -0.9753 -1.2379
 3050SOL    HW220787   3.939   1.421   5.097 -0.9248  0.4779  0.2189
 3051SOL     OW20788   1.951   1.791   6.084  0.0759  0.0638 -0.2461
 3051SOL    HW120789   1.896   1.781   6.007 -0.4443  2.1015 -0.1402
 3051SOL    HW220790   2.025   1.834   6.041  0.9601  0.8734  2.0941
 3052SOL     OW20791   3.148   4.275   2.727 -0.4040 -0.6025  0.2543
 3052SOL    HW120792   3.240   4.298   2.741 -1.2602  3.3462 -0.6731
 3052SOL    HW220793   3.108   4.282   2.814 -0.4446  3.6692 -0.0914
 3053SOL     OW20794   4.138   1.626   8.100 -0.8811  0.3056 -0.1034
 3053SOL    HW120795   4.069   1.591   8.156 -1.0399  0.1656 -0.3853
 3053SOL    HW220796   4.212   1.638   8.160 -1.1589  0.1104  0.2732
 3054SOL     OW20797   3.380   2.461  16.546  0.7670 -0.0523  0.3128
 3054SOL    HW120798   3.317   2.410  16.597 -1.3139  2.2486  0.0689
 3054SOL    HW220799   3.403   2.528  16.611 -1.9275  0.7275  0.4985
 3055SOL     OW20800   0.680   1.902   8.303  0.2537 -0.0911 -0.5086
 3055SOL    HW120801   0.589   1.880   8.283  0.3831 -1.5090  0.5079
 3055SOL    HW220802   0.715   1.904   8.214 -1.3538  0.5475 -1.1353
 3056SOL     OW20803   1.766   4.159   7.620  0.3789  0.6499 -0.1139
 3056SOL    HW120804   1.768   4.247   7.581 -1.5920  1.1449  0.8998
 3056SOL    HW220805   1.797   4.107   7.546 -0.9271  0.7496 -0.7370
 3057SOL     OW20806   1.370   3.804   6.813  0.1652 -0.4513 -0.0165
 3057SOL    HW120807   1.380   3.832   6.903  3.0068  0.6431 -0.6713
 3057SOL    HW220808   1.420   3.722   6.813  0.2093 -0.4295 -2.1553
 3058SOL     OW20809   3.440   0.798   1.316 -0.0938 -0.1546 -0.5493
 3058SOL    HW120810   3.451   0.859   1.243 -2.3769 -1.6842 -2.1951
 3058SOL    HW220811   3.409   0.865   1.377  0.4374 -0.3433 -0.0767
 3059SOL     OW20812   0.084   0.935   0.152 -0.8615 -0.0757 -0.0852
 3059SOL    HW120813   0.148   0.864   0.158 -0.8844 -0.1010 -0.1364
 3059SOL    HW220814   0.074   0.937   0.056  0.6865  0.8808 -0.2309
 3060SOL     OW20815   4.230   2.347  14.325 -0.0468  0.4254  0.0016
 3060SOL    HW120816   4.258   2.255  14.332  1.0604  0.6407 -1.7639
 3060SOL    HW220817   4.141   2.320  14.300  0.1323 -0.5097  0.3814
 3061SOL     OW20818   1.059   1.659   1.995  0.8599 -0.6214 -0.8911
 3061SOL    HW120819   1.018   1.679   1.910  1.8422 -0.4073 -1.3123
 3061SOL    HW220820   1.104   1.740   2.018  0.6058 -0.7497  0.0371
 3062SOL     OW20821   1.967   2.780   5.550 -0.0484 -0.1098  0.0959
 3062SOL    HW120822   1.899   2.738   5.603  1.5764 -0.6675  1.7516
 3062SOL    HW220823   1.965   2.871   5.579  0.7699 -0.6062  1.7406
 3063SOL     OW20824   4.591   0.239   8.551 -0.5817  0.4191 -0.7027
 3063SOL    HW120825   4.633   0.305   8.496  1.5035  1.3634  2.0506
 3063SOL    HW220826   4.572   0.290   8.630 -0.6983 -3.0627  1.5145
 3064SOL     OW20827   0.883   3.263   2.841 -0.6267  0.0433  0.4502
 3064SOL    HW120828   0.893   3.168   2.837  0.4838  0.1419  0.8976
 3064SOL    HW220829   0.948   3.275   2.772 -1.2374  1.3905  0.1136
 3065SOL     OW20830   4.356   1.654   8.237 -0.6638 -0.3485 -0.0706
 3065SOL    HW120831   4.400   1.735   8.210 -1.2318  0.1707  0.5370
 3065SOL    HW220832   4.418   1.622   8.303  0.1943  1.8022  0.1683
 3066SOL     OW20833   4.458   4.311   1.965 -0.0556 -0.3108 -0.0619
 3066SOL    HW120834   4.456   4.217   1.984  1.3813 -0.7704 -2.0962
 3066SOL    HW220835   4.542   4.327   1.921 -0.1694 -0.2292 -0.2520
 3067SOL     OW20836   0.039   3.641   8.295 -0.0957 -0.7170  0.7117
 3067SOL    HW120837   0.036   3.547   8.278  0.2648 -0.7320  0.7398
 3067SOL    HW220838   4.683   3.660   8.307  0.2022  0.6596  0.8933
 3068SOL     OW20839   0.416   2.271   2.395 -0.6454  0.2508  0.2167
 3068SOL    HW120840   0.499   2.273   2.347 -0.3744  1.5068  0.7237
 3068SOL    HW220841   0.440   2.328   2.468  2.7635  0.1077 -0.7850
 3069SOL     OW20842   2.312   0.967   3.303 -0.0153  0.1077  0.4771
 3069SOL    HW120843   2.235   0.951   3.357  0.7068  0.8412  1.7180
 3069SOL    HW220844   2.338   1.054   3.332 -2.8101  0.4620  1.8721
 3070SOL     OW20845   1.348   3.231   1.100 -0.6038 -0.1586  0.3462
 3070SOL    HW120846   1.276   3.281   1.140 -3.0315 -1.7801 -1.9610
 3070SOL    HW220847   1.383   3.191   1.179  2.3865  0.3355 -0.7397
 3071SOL     OW20848   0.042   1.880   7.313 -0.0911  0.0702 -0.1057
 3071SOL    HW120849   4.691   1.880   7.354  1.7110 -0.5344  3.7984
 3071SOL    HW220850   0.056   1.975   7.308  1.4890  0.0721  4.1538
 3072SOL     OW20851   3.859   3.192  11.956 -0.0156  0.5590 -0.8721
 3072SOL    HW120852   3.893   3.281  11.943  1.3545  0.4713  1.8605
 3072SOL    HW220853   3.869   3.158  11.867 -2.1459  1.6455 -1.5173
 3073SOL     OW20854   0.713   3.953  11.917  0.5051 -0.3857 -0.4504
 3073SOL    HW120855   0.624   3.980  11.897  0.5674 -0.3566 -0.6858
 3073SOL    HW220856   0.700   3.862  11.889  1.7632 -0.5136 -0.6527
 3074SOL     OW20857   0.577   1.236  13.384 -0.0603 -0.2454  0.6406
 3074SOL    HW120858   0.574   1.314  13.439 -1.1158  0.4189 -0.3609
 3074SOL    HW220859   0.632   1.260  13.309 -0.4017 -1.4089  0.0159
 3075SOL     OW20860   3.606   0.153  17.197 -0.1343  0.1252  0.2670
 3075SOL    HW120861   3.675   0.140  17.133  1.1036  4.9348  0.6637
 3075SOL    HW220862   3.559   0.226  17.157  1.1541  0.5339 -0.4786
 3076SOL     OW20863   3.066   3.127   8.407 -0.3915  0.4016  0.0324
 3076SOL    HW120864   2.998   3.192   8.390  0.0195  0.1724 -2.4473
 3076SOL    HW220865   3.049   3.067   8.334  0.1441 -0.8718  0.9458
 3077SOL     OW20866   3.466   1.950  10.254 -0.2968 -0.1886 -0.0028
 3077SOL    HW120867   3.540   1.905  10.295 -0.2315 -1.8135 -1.8866
 3077SOL    HW220868   3.430   2.005  10.324  1.2844 -0.1291  0.7638
 3078SOL     OW20869   0.135   4.022   7.583 -0.0354 -0.1318  0.2362
 3078SOL    HW120870   0.197   3.986   7.520 -0.1466 -0.8670  0.5512
 3078SOL    HW220871   0.196   4.077   7.633 -0.6019  1.9046 -1.3209
 3079SOL     OW20872   4.280   0.527   4.208  0.1415 -0.0332  0.7557
 3079SOL    HW120873   4.241   0.581   4.277  1.1192  2.2973 -0.4921
 3079SOL    HW220874   4.228   0.447   4.207 -0.7375  0.5759 -1.5335
 3080SOL     OW20875   2.592   0.266   5.723  0.3154  0.0985 -0.1671
 3080SOL    HW120876   2.649   0.315   5.783  2.0247 -0.6756 -1.1583
 3080SOL    HW220877   2.557   0.200   5.783  0.1373  0.8618  0.5737
 3081SOL     OW20878   4.604   3.496  12.674 -0.1056 -0.1423  0.5621
 3081SOL    HW120879   4.571   3.480  12.763 -0.6978 -1.1832  0.1542
 3081SOL    HW220880   4.675   3.433  12.671 -0.5541 -0.5610 -1.2468
 3082SOL     OW20881   4.074   2.786   6.697  0.4889 -0.1567  0.5663
 3082SOL    HW120882   4.028   2.776   6.781  0.9355 -0.9818  0.7072
 3082SOL    HW220883   4.143   2.720   6.692  0.5080 -0.0586 -0.5283
 3083SOL     OW20884   0.221   3.939   6.339  0.1959 -0.0462 -0.3046
 3083SOL    HW120885   0.185   4.016   6.384  2.3308  0.2023  0.9798
 3083SOL    HW220886   0.299   3.981   6.303  0.1172 -0.2607 -0.7246
 3084SOL     OW20887   4.368   0.191  14.991 -0.0769 -0.4496  0.0132
 3084SOL    HW120888   4.427   0.130  14.948 -0.7064 -1.3613  0.4413
 3084SOL    HW220889   4.297   0.129  15.010  1.4090 -1.9227  0.7550
 3085SOL     OW20890   2.880   2.349   5.977  0.6514 -0.5864 -0.0221
 3085SOL    HW120891   2.902   2.438   6.002 -2.0228  0.5824 -1.8807
 3085SOL    HW220892   2.959   2.310   5.938  1.7619  1.1001  0.5611
 3086SOL     OW20893   3.984   4.638   1.863 -0.1993  0.1223 -0.0300
 3086SOL    HW120894   3.951   4.607   1.947  1.8064 -2.2373 -0.1006
 3086SOL    HW220895   4.063   4.585   1.851 -0.9876 -1.1216  0.1903
 3087SOL     OW20896   0.031   0.557   4.815 -0.5037 -1.0019 -0.3263
 3087SOL    HW120897   4.705   0.565   4.886  1.9850  2.2321  1.5103
 3087SOL    HW220898   4.720   0.501   4.753  0.4992 -1.3919 -0.7495
 3088SOL     OW20899   2.707   2.673   4.223  0.1047 -0.3469 -0.0302
 3088SOL    HW120900   2.682   2.591   4.265 -1.5662 -0.7046 -1.6674
 3088SOL    HW220901   2.624   2.699   4.181  1.0088  0.3984 -1.3579
 3089SOL     OW20902   1.756   3.610   6.035  0.0749 -0.0098 -0.2994
 3089SOL    HW120903   1.675   3.590   6.081 -0.6710  1.1601 -1.0945
 3089SOL    HW220904   1.739   3.692   5.989  2.9768  0.0755 -1.2822
 3090SOL     OW20905   2.110   0.198   5.320  0.4099 -0.1337  1.3345
 3090SOL    HW120906   2.098   0.291   5.299 -1.8829 -0.4828  1.1992
 3090SOL    HW220907   2.171   0.177   5.249 -0.2506  2.6253 -0.0355
 3091SOL     OW20908   2.978   1.420   2.014  0.6694 -0.0802  0.3217
 3091SOL    HW120909   3.015   1.342   1.971 -0.7389  0.0783 -1.1932
 3091SOL    HW220910   2.883   1.405   2.009  0.7555 -0.7742  0.8183
 3092SOL     OW20911   4.074   0.277  12.581  0.0636  0.3906  0.3630
 3092SOL    HW120912   4.124   0.310  12.506  0.6813 -1.4644 -0.0302
 3092SOL    HW220913   4.088   0.183  12.573  0.6986  0.3468  1.9183
 3093SOL     OW20914   4.288   1.318   9.215  0.2347 -0.1861  0.0762
 3093SOL    HW120915   4.213   1.335   9.272 -0.6199  0.6435 -1.2805
 3093SOL    HW220916   4.313   1.232   9.248 -2.8342 -1.8120 -1.8011
 3094SOL     OW20917   0.753   3.060   1.100 -0.0931 -0.2179 -0.1544
 3094SOL    HW120918   0.778   2.999   1.030  1.4396  0.7929 -0.4754
 3094SOL    HW220919   0.667   3.088   1.070 -1.6348 -2.0770  2.5595
 3095SOL     OW20920   4.242   4.396  16.667  0.3816  0.0340 -0.5813
 3095SOL    HW120921   4.268   4.323  16.722  1.3762  0.4393 -0.5174
 3095SOL    HW220922   4.321   4.408  16.614 -0.6257  3.1186 -1.3878
 3096SOL     OW20923   0.152   2.999  10.499  0.1674 -0.1455  0.1245
 3096SOL    HW120924   0.105   3.028  10.421 -0.9514  1.5272  1.4093
 3096SOL    HW220925   0.091   2.928  10.520  1.6891 -0.5833  3.0245
 3097SOL     OW20926   0.966   3.205   5.481 -0.2063  0.1436  0.2743
 3097SOL    HW120927   0.900   3.258   5.438 -1.2086 -1.4060 -0.0786
 3097SOL    HW220928   1.037   3.210   5.416 -0.6342  1.0213 -0.1301
 3098SOL     OW20929   3.741   2.886  14.459  0.1631 -0.0232  0.0542
 3098SOL    HW120930   3.753   2.807  14.512 -0.7029  2.1628  3.4799
 3098SOL    HW220931   3.760   2.851  14.371  0.0308 -1.3225  0.5410
 3099SOL     OW20932   0.948   0.960  16.387  0.5588 -0.6512  0.0703
 3099SOL    HW120933   0.951   0.930  16.478  2.9723 -0.4696  0.0428
 3099SOL    HW220934   0.915   1.048  16.400  2.6578  0.5501 -2.6656
 3100SOL     OW20935   0.398   4.297   2.967  0.0886 -0.3483  0.6163
 3100SOL    HW120936   0.369   4.386   2.986  1.2193  0.1930 -0.1811
 3100SOL    HW220937   0.449   4.278   3.046  1.4613 -0.3754 -0.2787
 3101SOL     OW20938   2.610   4.638   8.265  0.1984 -0.0578  0.4431
 3101SOL    HW120939   2.701   4.624   8.237  0.1266 -0.4132  0.3823
 3101SOL    HW220940   2.614   4.581   8.342  0.8512 -1.4547 -0.6072
 3102SOL     OW20941   0.809   3.154   4.710 -0.0383  0.7132 -0.0522
 3102SOL    HW120942   0.858   3.094   4.767  0.4683 -0.4491 -1.7341
 3102SOL    HW220943   0.740   3.187   4.769 -1.4160 -0.9551 -0.7420
 3103SOL     OW20944   1.176   0.114   7.750  0.2492  0.3733  0.1652
 3103SOL    HW120945   1.174   0.188   7.811  1.0712  2.5058 -2.4037
 3103SOL    HW220946   1.168   0.042   7.812  0.4499  0.2308  0.0242
 3104SOL     OW20947   0.829   1.834   8.968  0.5362  0.0121  0.0580
 3104SOL    HW120948   0.875   1.854   8.887 -0.1440 -0.9921 -0.5672
 3104SOL    HW220949   0.744   1.817   8.927  1.6324 -1.0961 -1.7639
 3105SOL     OW20950   1.042   2.478   7.522  0.1085  0.2928  0.1270
 3105SOL    HW120951   1.029   2.571   7.504 -2.0669  0.3972  2.2908
 3105SOL    HW220952   0.957   2.434   7.530 -0.1379  0.7230 -0.1234
 3106SOL     OW20953   2.932   3.150   2.434  0.2121 -0.3305 -0.6808
 3106SOL    HW120954   2.977   3.194   2.506  1.2503 -1.8358 -0.4211
 3106SOL    HW220955   2.978   3.181   2.356  1.2964  2.0552  0.8866
 3107SOL     OW20956   1.009   4.126   6.291 -0.2391 -0.3589 -0.5745
 3107SOL    HW120957   1.022   4.126   6.196 -1.2289 -0.1886 -0.7114
 3107SOL    HW220958   1.000   4.220   6.306  2.1539 -0.4478  1.4740
 3108SOL     OW20959   4.025   0.416   1.759 -0.3271  0.2472 -0.0435
 3108SOL    HW120960   4.117   0.428   1.780 -0.0115  1.3085 -2.0559
 3108SOL    HW220961   3.986   0.424   1.847 -0.1026 -0.9117  0.1579
 3109SOL     OW20962   0.006   0.466   5.601 -0.3074 -0.1079 -0.2488
 3109SOL    HW120963   4.682   0.412   5.652  0.7422 -1.4770 -0.4516
 3109SOL    HW220964   4.687   0.544   5.599 -0.7406 -0.4164 -0.4147
 3110SOL     OW20965   4.540   1.206   3.236  0.4702 -0.3300 -0.0143
 3110SOL    HW120966   4.482   1.208   3.312  0.9173 -1.7294  0.3639
 3110SOL    HW220967   4.497   1.131   3.194 -0.9366  1.3946 -1.6483
 3111SOL     OW20968   2.126   2.156  10.558  0.3928  0.1065  0.2051
 3111SOL    HW120969   2.203   2.180  10.506  2.1383  0.4800  2.9876
 3111SOL    HW220970   2.075   2.236  10.567  2.7226  1.6529 -0.2128
 3112SOL     OW20971   1.336   3.602   6.366  0.1343  0.2501 -0.1702
 3112SOL    HW120972   1.314   3.510   6.381 -0.0941  0.4824  0.9622
 3112SOL    HW220973   1.250   3.636   6.390  0.0224  0.9230 -1.5087
 3113SOL     OW20974   2.106   4.377   6.307 -0.1502 -0.1746 -0.4693
 3113SOL    HW120975   2.016   4.409   6.309  0.2616  0.9373  0.4777
 3113SOL    HW220976   2.121   4.329   6.389  2.6183 -1.2694 -1.6299
 3114SOL     OW20977   3.111   0.240   6.281  0.2228 -0.1771 -0.3161
 3114SOL    HW120978   3.145   0.286   6.358  2.3626 -1.3063 -0.5888
 3114SOL    HW220979   3.062   0.306   6.231  0.7957 -0.1222 -0.7976
 3115SOL     OW20980   0.639   1.818   0.620  0.4565 -0.1993  0.4329
 3115SOL    HW120981   0.570   1.869   0.663  0.0002 -1.5618  1.3036
 3115SOL    HW220982   0.597   1.736   0.595  0.6199  0.2563 -1.3667
 3116SOL     OW20983   2.715   1.637   4.987  0.1641 -0.4090 -0.4994
 3116SOL    HW120984   2.809   1.633   5.004 -0.0541  2.6052  1.4603
 3116SOL    HW220985   2.682   1.573   5.050 -0.4101  2.5844  2.2160
 3117SOL     OW20986   1.472   2.173  12.213 -0.0806 -0.3530 -0.6925
 3117SOL    HW120987   1.547   2.113  12.215  1.4356  1.5674 -0.3936
 3117SOL    HW220988   1.414   2.139  12.281  0.5419 -1.4180 -0.6950
 3118SOL     OW20989   2.997   1.402   6.145 -0.2487  0.1089 -0.0406
 3118SOL    HW120990   2.950   1.485   6.141  0.7534  0.6737 -0.1875
 3118SOL    HW220991   3.055   1.425   6.217 -0.6213  0.7963  0.0432
 3119SOL     OW20992   4.438   4.442   6.122  0.3062 -0.3954 -0.1183
 3119SOL    HW120993   4.471   4.524   6.159 -1.5283  0.4379 -0.3460
 3119SOL    HW220994   4.515   4.409   6.075  0.3553 -0.7949  0.2504
 3120SOL     OW20995   2.806   2.854   2.160  0.1526  0.9588 -0.2005
 3120SOL    HW120996   2.761   2.934   2.133 -1.9444  0.1641  0.9428
 3120SOL    HW220997   2.744   2.821   2.225 -1.6236 -0.7216 -2.7332
 3121SOL     OW20998   3.336   2.209  11.965 -0.0767  0.6031 -0.1546
 3121SOL    HW120999   3.265   2.270  11.948 -1.9191 -0.9468  1.9538
 3121SOL    HW221000   3.375   2.192  11.879  0.8007 -0.5369  0.4632
 3122SOL     OW21001   4.538   3.238   3.696 -0.2123  0.0322 -0.3594
 3122SOL    HW121002   4.630   3.257   3.711 -0.5850  0.6075  1.2185
 3122SOL    HW221003   4.543   3.206   3.607  1.1233 -0.0046 -0.2706
 3123SOL     OW21004   3.159   0.310   1.594  0.0948  0.0826 -0.2664
 3123SOL    HW121005   3.069   0.279   1.600  0.3643 -0.5525  0.4664
 3123SOL    HW221006   3.184   0.297   1.686 -0.1512 -2.3573 -0.5641
 3124SOL     OW21007   1.644   0.832   2.111 -0.1641 -0.1580 -0.2004
 3124SOL    HW121008   1.594   0.862   2.187  0.4529 -0.5749  0.3708
 3124SOL    HW221009   1.637   0.910   2.056 -1.5612  0.8976  1.5005
 3125SOL     OW21010   4.060   1.378   9.331 -0.2940 -0.7102 -0.0765
 3125SOL    HW121011   3.966   1.359   9.329 -0.3958 -0.2348 -0.0060
 3125SOL    HW221012   4.079   1.344   9.418  2.1877 -0.7730 -0.6613
 3126SOL     OW21013   2.567   1.501   3.472 -0.2228 -0.4498  0.1416
 3126SOL    HW121014   2.592   1.476   3.561  1.5363  1.1682  0.1051
 3126SOL    HW221015   2.652   1.516   3.429 -0.8212  1.5253 -0.3605
 3127SOL     OW21016   2.946   4.647   7.373 -0.6806  0.0333  0.2397
 3127SOL    HW121017   2.871   4.593   7.351  1.5278 -2.1708 -1.8028
 3127SOL    HW221018   3.005   4.585   7.415 -0.5368  0.0908  0.1229
 3128SOL     OW21019   1.753   2.499   3.483  0.3848 -0.7493 -0.4533
 3128SOL    HW121020   1.783   2.543   3.562  1.2987 -1.2732 -0.5123
 3128SOL    HW221021   1.660   2.488   3.506  0.1818  0.3778 -0.7246
 3129SOL     OW21022   0.655   1.064   4.676 -0.0790  0.5969 -0.1141
 3129SOL    HW121023   0.634   1.140   4.731  1.6635  0.3717  0.8667
 3129SOL    HW221024   0.690   1.000   4.738  0.7162 -1.0967 -2.3547
 3130SOL     OW21025   1.357   1.811   7.728 -0.0171  0.3625 -0.2838
 3130SOL    HW121026   1.440   1.768   7.705  0.6746  0.6872  1.6297
 3130SOL    HW221027   1.378   1.876   7.795 -0.8248 -0.2816  0.5948
 3131SOL     OW21028   3.928   0.396   5.226  0.1458 -0.2499  0.7876
 3131SOL    HW121029   3.910   0.441   5.143  0.1043 -1.7660 -0.0099
 3131SOL    HW221030   4.007   0.346   5.207 -0.2770 -0.6707  0.1630
 3132SOL     OW21031   4.305   4.199   4.875 -0.3772 -0.4611  0.5532
 3132SOL    HW121032   4.227   4.189   4.821  0.1656 -0.3655 -0.2500
 3132SOL    HW221033   4.312   4.115   4.921 -1.2110 -1.0727 -0.4414
 3133SOL     OW21034   4.206   3.305  16.806  0.4025  0.2708 -0.2608
 3133SOL    HW121035   4.269   3.315  16.877  1.1020  0.4211 -0.9089
 3133SOL    HW221036   4.149   3.378  16.828  2.1601  2.1026 -1.8002
 3134SOL     OW21037   0.039   0.859   6.059  0.1813  0.1906  0.1740
 3134SOL    HW121038   0.058   0.874   5.967  1.5398  1.2488  0.6268
 3134SOL    HW221039   0.071   0.941   6.097  1.6494 -0.4611  0.3519
 3135SOL     OW21040   1.451   1.109   8.532  0.2763 -0.3653 -0.3360
 3135SOL    HW121041   1.481   1.150   8.451 -1.3358 -0.0292 -0.7703
 3135SOL    HW221042   1.443   1.179   8.597  2.9749  0.1120 -0.5135
 3136SOL     OW21043   1.098   2.132   1.927 -1.1158 -0.1307 -0.5620
 3136SOL    HW121044   1.119   2.177   2.009  1.0523 -0.3622 -1.0038
 3136SOL    HW221045   1.096   2.215   1.881  1.6044 -0.3115 -0.9864
 3137SOL     OW21046   3.703   2.264   8.391  0.1054  0.0100  0.5482
 3137SOL    HW121047   3.672   2.241   8.479 -3.0977  0.4540 -0.4670
 3137SOL    HW221048   3.714   2.179   8.348 -1.3253  1.0453 -1.8705
 3138SOL     OW21049   2.198   1.078   7.989  0.2951 -0.0918 -0.2338
 3138SOL    HW121050   2.273   1.068   7.930  0.9105  0.1414  0.5109
 3138SOL    HW221051   2.230   1.028   8.064  0.4820  1.0887  0.4746
 3139SOL     OW21052   1.556   1.788   1.954 -0.2657  0.2038 -0.1095
 3139SOL    HW121053   1.542   1.694   1.947 -0.8270  0.4965 -2.9151
 3139SOL    HW221054   1.643   1.805   1.918 -0.2691 -1.2762 -0.7961
 3140SOL     OW21055   3.705   2.258   9.558 -0.1826 -0.1570  0.3325
 3140SOL    HW121056   3.779   2.270   9.617 -0.6667 -0.6379  1.0524
 3140SOL    HW221057   3.752   2.279   9.477 -2.2663 -1.5986 -1.2544
 3141SOL     OW21058   0.393   3.289   2.100 -0.3810 -0.6271  0.4411
 3141SOL    HW121059   0.415   3.353   2.032  0.4164 -0.8167  0.5223
 3141SOL    HW221060   0.332   3.343   2.151 -1.3149 -0.6360 -0.6747
 3142SOL     OW21061   3.133   0.359   8.472  0.2069 -0.0889 -0.5150
 3142SOL    HW121062   3.046   0.336   8.441 -0.5211  0.8407  0.8887
 3142SOL    HW221063   3.139   0.325   8.561 -2.1171  1.0659  0.0659
 3143SOL     OW21064   2.423   0.942   3.582 -0.3511 -0.1881 -0.1510
 3143SOL    HW121065   2.454   0.910   3.498  0.3654 -1.8230  0.7266
 3143SOL    HW221066   2.468   1.026   3.585 -0.7054 -0.0180  0.4592
 3144SOL     OW21067   0.524   2.513   7.243  0.0863 -0.1744  0.0428
 3144SOL    HW121068   0.506   2.544   7.155  0.4046  2.6493  0.9727
 3144SOL    HW221069   0.535   2.596   7.290  3.6415  0.0635 -1.2446
 3145SOL     OW21070   2.376   3.500  17.378 -0.0645  0.3792  0.2931
 3145SOL    HW121071   2.361   3.421  17.326  1.7641 -0.2033  0.6519
 3145SOL    HW221072   2.302   3.488  17.438 -0.4617  1.0149 -0.0820
 3146SOL     OW21073   4.089   1.235  12.269  0.0402  0.0130 -0.1777
 3146SOL    HW121074   4.107   1.180  12.345 -1.8111 -3.3273 -2.0889
 3146SOL    HW221075   4.168   1.288  12.265 -0.9357  1.6068  1.7558
 3147SOL     OW21076   1.120   2.679   1.802 -0.6161  0.7762  0.0132
 3147SOL    HW121077   1.205   2.659   1.763 -1.1418 -2.8012  0.7199
 3147SOL    HW221078   1.082   2.731   1.732 -1.7837 -0.1891 -0.0751
 3148SOL     OW21079   1.298   4.602   7.218 -0.2717 -0.0612 -0.0575
 3148SOL    HW121080   1.336   4.539   7.280  0.1685  1.3760  1.1338
 3148SOL    HW221081   1.307   4.558   7.134 -0.1513  1.3125 -0.7650
 3149SOL     OW21082   2.007   1.219   4.558  0.7395  0.7224  0.1588
 3149SOL    HW121083   1.952   1.268   4.618 -2.3979 -3.5567  0.7959
 3149SOL    HW221084   1.936   1.203   4.496  1.4934 -0.9115 -0.2921
 3150SOL     OW21085   2.935   3.383   7.878  0.3314 -0.2217  0.2973
 3150SOL    HW121086   2.970   3.316   7.820 -0.2102 -1.8804  1.8969
 3150SOL    HW221087   2.866   3.336   7.925 -0.2098  0.1091 -0.1696
 3151SOL     OW21088   4.026   4.436   5.078  1.2343  0.3047 -0.3472
 3151SOL    HW121089   4.033   4.501   5.148  0.2353 -1.1549  1.1067
 3151SOL    HW221090   4.110   4.450   5.033  1.4742 -1.6389 -0.5237
 3152SOL     OW21091   0.760   3.779   7.107 -0.3715  0.1437 -0.0571
 3152SOL    HW121092   0.802   3.778   7.193  0.3662 -1.2188 -0.4392
 3152SOL    HW221093   0.736   3.871   7.093 -1.0935  0.1351  1.1436
 3153SOL     OW21094   0.497   0.825  12.910 -0.4931 -0.5271  0.2820
 3153SOL    HW121095   0.499   0.733  12.937  1.5994 -0.0878  1.6165
 3153SOL    HW221096   0.580   0.841  12.865 -0.4803 -0.0800  0.4658
 3154SOL     OW21097   2.794   4.660  14.850  0.0228  0.1020  0.4035
 3154SOL    HW121098   2.708   4.630  14.879 -0.4558  1.3755  0.2739
 3154SOL    HW221099   2.791   4.667  14.755 -0.1442  0.7779  0.4618
 3155SOL     OW21100   2.076   3.835   1.216 -0.2708  0.3623 -0.2001
 3155SOL    HW121101   1.993   3.857   1.261 -0.3004  0.3451 -0.2468
 3155SOL    HW221102   2.126   3.878   1.286 -0.3401  2.2002 -1.2900
 3156SOL     OW21103   3.332   2.213   3.450  0.2875  0.0915 -0.2320
 3156SOL    HW121104   3.366   2.124   3.456 -0.1699  0.0494  1.5191
 3156SOL    HW221105   3.243   2.201   3.416  0.6216 -1.1619 -0.6504
 3157SOL     OW21106   4.683   4.127   5.395 -0.1833 -0.4021  0.0622
 3157SOL    HW121107   0.019   4.065   5.399 -0.1764 -0.4626 -1.1217
 3157SOL    HW221108   4.621   4.092   5.331  0.3805 -1.5342  0.1363
 3158SOL     OW21109   3.936   4.447  17.656  0.8791  0.2195  0.0247
 3158SOL    HW121110   3.876   4.482  17.721  0.9262 -0.8778  0.6538
 3158SOL    HW221111   3.907   4.492  17.577  1.8104 -0.2006 -0.5520
 3159SOL     OW21112   4.309   2.878  10.440 -0.5018  0.4381 -0.3600
 3159SOL    HW121113   4.389   2.856  10.392  0.6711  1.3115  1.1850
 3159SOL    HW221114   4.310   2.971  10.420  0.2064  0.1546 -1.6743
 3160SOL     OW21115   2.024   1.960  12.233 -0.6164 -0.0710  0.7031
 3160SOL    HW121116   2.079   1.910  12.172 -1.5222 -0.8611  0.5415
 3160SOL    HW221117   1.998   2.030  12.173  1.8866 -0.5459 -0.9635
 3161SOL     OW21118   3.194   1.129  17.270  0.1031 -0.4714  0.2235
 3161SOL    HW121119   3.107   1.115  17.232 -0.7165 -0.1406  1.9552
 3161SOL    HW221120   3.250   1.096  17.200 -0.2365 -2.1033  0.7103
 3162SOL     OW21121   1.634   2.119   7.689 -0.0951  0.4272 -0.2109
 3162SOL    HW121122   1.655   2.052   7.755  1.8806  1.6761  0.4048
 3162SOL    HW221123   1.683   2.192   7.725  0.7680  0.0451 -0.6265
 3163SOL     OW21124   0.197   1.839   4.144 -0.4259  0.2548 -0.1100
 3163SOL    HW121125   0.223   1.908   4.205 -3.1142  2.1862 -1.1395
 3163SOL    HW221126   0.118   1.883   4.112 -1.2385 -0.1887  1.2354
 3164SOL     OW21127   4.192   0.070  12.879 -0.1058 -0.0148 -0.1181
 3164SOL    HW121128   4.149   0.138  12.931 -1.4761  0.2588 -1.5790
 3164SOL    HW221129   4.155   0.097  12.795  0.4535  0.2731 -0.2693
 3165SOL     OW21130   2.193   2.430  11.031  0.1257  0.0983  0.3579
 3165SOL    HW121131   2.191   2.391  11.119 -0.3326 -2.6105 -0.8601
 3165SOL    HW221132   2.207   2.347  10.986  2.4577  0.6644  0.0548
 3166SOL     OW21133   0.451   4.129  15.065  0.0727 -0.9217  0.1888
 3166SOL    HW121134   0.382   4.191  15.042  0.1743 -0.0465  2.2540
 3166SOL    HW221135   0.534   4.167  15.037  0.1570 -1.3295 -0.1298
 3167SOL     OW21136   0.624   3.297   3.294  0.0276  0.6931 -0.0105
 3167SOL    HW121137   0.671   3.290   3.378 -0.6966 -1.5432  0.2132
 3167SOL    HW221138   0.562   3.224   3.299  1.7686 -0.6698  2.0949
 3168SOL     OW21139   3.756   0.840  11.509 -0.2023  0.3257  0.2764
 3168SOL    HW121140   3.755   0.844  11.413  2.9204 -0.4453  0.2059
 3168SOL    HW221141   3.803   0.920  11.530 -0.2148  0.1443  1.0062
 3169SOL     OW21142   1.786   0.968   7.743 -0.0673  0.0666 -0.2564
 3169SOL    HW121143   1.755   1.050   7.781  2.4353  0.7722  0.2598
 3169SOL    HW221144   1.859   0.953   7.803 -0.5655  0.8089  0.5258
 3170SOL     OW21145   2.351   1.999  12.529 -0.0162 -0.3249 -0.3030
 3170SOL    HW121146   2.385   1.920  12.572 -2.9232 -2.4387 -1.9451
 3170SOL    HW221147   2.258   1.982  12.545 -0.2864  1.5697  0.1985
 3171SOL     OW21148   3.471   3.593   2.422 -0.1935 -0.0898  0.0290
 3171SOL    HW121149   3.417   3.597   2.343 -1.9448  2.1940  1.3619
 3171SOL    HW221150   3.473   3.687   2.439  1.8288 -0.3076  1.0782
 3172SOL     OW21151   2.168   0.538   4.908  0.0935 -0.4608  0.2419
 3172SOL    HW121152   2.193   0.604   4.844 -2.8868 -1.5131 -1.9886
 3172SOL    HW221153   2.181   0.461   4.852  2.2252 -0.6702  1.0215
 3173SOL     OW21154   2.294   2.614   9.241  0.0583  0.2120  0.1726
 3173SOL    HW121155   2.219   2.596   9.184  0.4119 -0.6961  0.0051
 3173SOL    HW221156   2.305   2.709   9.246  3.0924 -0.2398  2.3766
 3174SOL     OW21157   3.106   1.631   3.054 -0.1418 -0.0020 -0.0717
 3174SOL    HW121158   3.051   1.699   3.092 -0.8587 -0.5999 -0.0303
 3174SOL    HW221159   3.099   1.641   2.959  2.0672 -0.0533 -0.2395
 3175SOL     OW21160   2.525   3.001   6.524  0.1221 -0.1707  0.5050
 3175SOL    HW121161   2.597   2.998   6.461 -0.2827 -0.8445  0.0665
 3175SOL    HW221162   2.453   3.031   6.468 -1.7398 -0.6508  2.6191
 3176SOL     OW21163   1.813   3.685   8.385  0.3696 -0.9752 -0.2762
 3176SOL    HW121164   1.751   3.747   8.347  0.4029 -0.1286  1.0322
 3176SOL    HW221165   1.755   3.611   8.403  0.1111 -0.6126  0.4067
 3177SOL     OW21166   3.028   4.434   5.714 -0.5000  0.6484  0.1766
 3177SOL    HW121167   3.018   4.361   5.652 -1.1942  0.2915  0.7124
 3177SOL    HW221168   3.124   4.435   5.714 -0.4788 -0.2970 -1.3645
 3178SOL     OW21169   3.832   1.563   7.911  0.4346  1.1346  0.1137
 3178SOL    HW121170   3.878   1.635   7.867  2.5982  0.0041  0.5229
 3178SOL    HW221171   3.746   1.599   7.892  1.6230  3.3300 -1.2288
 3179SOL     OW21172   4.191   3.438   6.932 -0.6648  0.3570  0.0225
 3179SOL    HW121173   4.235   3.497   6.994  0.8206  0.9670 -1.6309
 3179SOL    HW221174   4.242   3.441   6.852 -0.0034 -0.5147  0.4166
 3180SOL     OW21175   2.627   2.053   1.710 -0.1045 -0.6616 -0.0862
 3180SOL    HW121176   2.721   2.035   1.709 -0.3902 -2.1914  1.2135
 3180SOL    HW221177   2.612   2.140   1.747 -0.5867 -1.1203  0.7966
 3181SOL     OW21178   4.149   3.932  10.025 -0.3464  0.0936  0.1046
 3181SOL    HW121179   4.132   3.845   9.988  0.2125 -0.0597  0.2016
 3181SOL    HW221180   4.221   3.952   9.967  0.4151  1.2628  1.4558
 3182SOL     OW21181   2.280   0.378   4.703 -0.1504  0.4019  0.1975
 3182SOL    HW121182   2.205   0.398   4.647 -1.6896 -1.8174  1.4911
 3182SOL    HW221183   2.280   0.283   4.689 -0.8680  0.2428  1.2901
 3183SOL     OW21184   3.279   4.217   3.029  0.4788  0.0967  0.4450
 3183SOL    HW121185   3.320   4.131   3.044  0.0150 -0.1800  0.1430
 3183SOL    HW221186   3.207   4.212   3.092 -0.4413 -0.7575 -0.6436
 3184SOL     OW21187   2.178   3.355   4.936  0.2332 -0.1199  0.1486
 3184SOL    HW121188   2.185   3.431   4.993 -0.3098  1.7958 -2.3582
 3184SOL    HW221189   2.238   3.384   4.866 -0.0126  0.6389  0.2564
 3185SOL     OW21190   0.408   3.477   9.640  0.0501  0.5138 -0.4818
 3185SOL    HW121191   0.318   3.453   9.661  0.6739 -1.8989 -0.5395
 3185SOL    HW221192   0.412   3.573   9.637 -0.9822  0.3957 -5.5648
 3186SOL     OW21193   1.008   0.609   9.080 -0.0317  0.1200  0.3990
 3186SOL    HW121194   1.039   0.589   8.992  0.7498 -0.9340  0.8987
 3186SOL    HW221195   0.974   0.694   9.053  3.1863  0.8074 -1.5458
 3187SOL     OW21196   3.422   1.992   1.499 -0.0529 -0.1405  0.2512
 3187SOL    HW121197   3.345   1.971   1.446  0.0784  1.2996 -0.5094
 3187SOL    HW221198   3.422   1.930   1.572  1.1228  0.5026  0.7845
 3188SOL     OW21199   1.706   3.095   5.087  0.0185  0.4198  0.1557
 3188SOL    HW121200   1.651   3.143   5.025  0.1830  2.4367  1.5494
 3188SOL    HW221201   1.791   3.140   5.079  0.9877 -1.4169  0.1863
 3189SOL     OW21202   0.431   0.094   3.472  0.4215  0.0275  0.1551
 3189SOL    HW121203   0.441   0.017   3.528  3.2255 -2.1752 -3.4003
 3189SOL    HW221204   0.423   0.052   3.386 -0.0583 -1.1675  0.7724
 3190SOL     OW21205   1.647   0.273   8.531 -0.0578  0.2682 -0.1558
 3190SOL    HW121206   1.616   0.205   8.590  1.0536  1.8651  2.2470
 3190SOL    HW221207   1.733   0.293   8.567  0.8256 -0.1980 -2.0048
 3191SOL     OW21208   2.806   3.357   6.550  0.6933  0.3054 -0.4773
 3191SOL    HW121209   2.861   3.435   6.551 -0.5245  1.1767 -1.8385
 3191SOL    HW221210   2.740   3.374   6.617  1.2922  0.4319  0.0803
 3192SOL     OW21211   3.199   1.484   6.309  0.8604 -0.3286 -0.3541
 3192SOL    HW121212   3.133   1.509   6.374 -0.0276  0.3831 -1.5104
 3192SOL    HW221213   3.263   1.553   6.326 -0.0932  0.4669  0.0185
 3193SOL     OW21214   3.331   1.799   7.635 -0.7111 -0.4309 -0.1631
 3193SOL    HW121215   3.417   1.825   7.602 -1.1229  0.3551 -0.6185
 3193SOL    HW221216   3.353   1.812   7.727 -0.6757  1.9635 -0.5003
 3194SOL     OW21217   3.929   0.623   6.205  0.5073 -0.3599  0.4621
 3194SOL    HW121218   3.866   0.578   6.261 -2.0904  0.4782 -1.7887
 3194SOL    HW221219   3.939   0.564   6.130  1.8263 -0.1190  0.4537
 3195SOL     OW21220   4.125   0.232  16.774 -0.0815 -0.3903  0.3677
 3195SOL    HW121221   4.147   0.293  16.704 -2.1171 -0.5690 -0.4251
 3195SOL    HW221222   4.206   0.230  16.825  0.6332 -1.3079 -0.8149
 3196SOL     OW21223   1.188   2.139   8.875 -0.2468 -0.1489  0.9125
 3196SOL    HW121224   1.171   2.129   8.781  2.2449  0.1089  0.4279
 3196SOL    HW221225   1.104   2.115   8.913 -0.2510  1.0792  1.6661
 3197SOL     OW21226   4.109   1.684   8.390 -0.7830  0.4923 -0.1689
 3197SOL    HW121227   4.138   1.602   8.430  1.8198  0.8977 -1.2651
 3197SOL    HW221228   4.191   1.696   8.342 -0.8572  1.4771 -0.0349
 3198SOL     OW21229   4.527   3.420  11.807  0.1881  0.2962  0.3157
 3198SOL    HW121230   4.594   3.407  11.740  0.5046 -0.1539  0.7213
 3198SOL    HW221231   4.578   3.385  11.880  2.1450 -1.7099 -1.9818
 3199SOL     OW21232   3.768   0.389   3.867  0.1553  0.3729  0.3921
 3199SOL    HW121233   3.689   0.394   3.813  1.0257 -0.5469 -0.9782
 3199SOL    HW221234   3.740   0.328   3.936 -2.0424  0.9385  0.0145
 3200SOL     OW21235   4.351   0.116  13.642  0.3181 -0.8309  0.1866
 3200SOL    HW121236   4.445   0.104  13.639  0.1083 -2.5721  0.6777
 3200SOL    HW221237   4.327   0.099  13.551 -0.1908  1.6688 -0.1596
 3201SOL     OW21238   1.588   4.578   8.330  0.6449 -0.0591  0.2317
 3201SOL    HW121239   1.590   4.496   8.280  2.6282  0.7532 -1.0565
 3201SOL    HW221240   1.654   4.562   8.398  1.0255 -1.3367 -0.4383
 3202SOL     OW21241   4.281   2.728   6.188  0.1869 -0.6342  0.1676
 3202SOL    HW121242   4.226   2.736   6.266 -1.5290 -1.8836 -0.8871
 3202SOL    HW221243   4.349   2.670   6.223  0.4003 -2.1647 -2.7543
 3203SOL     OW21244   4.660   2.280   2.385 -0.3402  0.1545 -0.6798
 3203SOL    HW121245   0.018   2.293   2.384 -0.5018  1.4220  0.1879
 3203SOL    HW221246   4.658   2.185   2.396 -1.5069  0.1834 -0.5986
 3204SOL     OW21247   0.491   2.898   5.844 -1.0999  0.1882  0.2337
 3204SOL    HW121248   0.435   2.822   5.825  0.3760 -1.3994  2.1698
 3204SOL    HW221249   0.514   2.891   5.937 -1.8484  1.0678  0.4779
 3205SOL     OW21250   3.585   1.613   3.370  0.1325 -0.2342 -0.0939
 3205SOL    HW121251   3.634   1.688   3.336 -0.6017 -0.3153 -1.3685
 3205SOL    HW221252   3.552   1.650   3.452 -1.3794  0.6537 -1.1011
 3206SOL     OW21253   3.080   2.615   8.761 -0.7160  0.5413  0.0697
 3206SOL    HW121254   3.091   2.687   8.823 -1.8027 -0.0094  0.9072
 3206SOL    HW221255   3.172   2.592   8.750 -0.5138  1.5295 -0.2533
 3207SOL     OW21256   3.749   1.141   4.245 -0.5536  0.5625 -0.0744
 3207SOL    HW121257   3.739   1.089   4.325  1.2065 -0.7056 -0.6597
 3207SOL    HW221258   3.770   1.226   4.284 -1.9845  0.9204 -0.0944
 3208SOL     OW21259   4.515   0.911   5.848 -0.6687  0.0617 -0.0326
 3208SOL    HW121260   4.429   0.924   5.808 -0.4069  1.4961 -0.1261
 3208SOL    HW221261   4.548   1.000   5.838 -0.1159  0.1139  2.2012
 3209SOL     OW21262   1.514   4.245  13.426 -0.1705  0.1346 -0.0038
 3209SOL    HW121263   1.601   4.206  13.440 -0.7671 -1.0124  0.5126
 3209SOL    HW221264   1.463   4.192  13.487  0.5749 -0.1238  0.3986
 3210SOL     OW21265   2.957   4.624   9.146  0.0342  0.2083 -0.0406
 3210SOL    HW121266   3.050   4.633   9.168  0.3847 -0.5736 -1.2294
 3210SOL    HW221267   2.944   4.692   9.080  0.9534 -1.3213 -1.7939
 3211SOL     OW21268   2.131   2.609   4.543  0.0875  0.0755  0.0829
 3211SOL    HW121269   2.060   2.575   4.598 -1.0996  0.8401 -0.9800
 3211SOL    HW221270   2.093   2.570   4.464 -1.1200 -2.1162  1.7578
 3212SOL     OW21271   4.080   0.199   6.648  0.0248  0.0096 -0.1220
 3212SOL    HW121272   4.153   0.258   6.631  0.8141 -0.7710  0.5341
 3212SOL    HW221273   4.135   0.130   6.685 -1.6354 -0.5525  1.3181
 3213SOL     OW21274   2.655   3.386   4.104  0.5080  0.1640  0.1269
 3213SOL    HW121275   2.719   3.419   4.166 -1.3591  4.4284 -0.1556
 3213SOL    HW221276   2.632   3.297   4.130 -0.1022 -0.2584 -1.8916
 3214SOL     OW21277   3.693   1.296   7.949  0.1134  0.4533  0.1383
 3214SOL    HW121278   3.773   1.246   7.964  0.5442  1.8369  2.4162
 3214SOL    HW221279   3.725   1.381   7.920 -1.3356  0.4784 -1.3885
 3215SOL     OW21280   2.198   2.517  17.499  0.0737  0.3608  0.5553
 3215SOL    HW121281   2.154   2.519  17.414 -0.6840 -0.0433  0.9429
 3215SOL    HW221282   2.133   2.551  17.560  0.6093  0.3202  1.1432
 3216SOL     OW21283   3.895   1.132   2.305 -0.4289  0.0293  0.1326
 3216SOL    HW121284   3.882   1.195   2.235 -0.4773  1.5797  1.5352
 3216SOL    HW221285   3.952   1.184   2.361 -0.3162  0.9169 -0.8226
 3217SOL     OW21286   0.974   0.520   1.958  0.1067  0.1335 -0.6131
 3217SOL    HW121287   1.027   0.599   1.955  1.2444 -0.6375 -1.0601
 3217SOL    HW221288   0.954   0.496   2.049 -3.1623 -1.3830 -1.7074
 3218SOL     OW21289   1.952   3.104   5.963  0.0740  0.4643 -0.0470
 3218SOL    HW121290   1.977   3.057   6.043  0.7916  0.4976 -0.2532
 3218SOL    HW221291   2.021   3.170   5.959  1.5673 -0.8938  3.0762
 3219SOL     OW21292   4.012   2.299   5.915 -0.4018 -0.2218 -0.0570
 3219SOL    HW121293   3.943   2.332   5.857  1.0402 -0.4266 -1.8694
 3219SOL    HW221294   4.056   2.381   5.938  1.4788 -1.0409 -0.7375
 3220SOL     OW21295   3.893   2.284   8.756 -0.5195 -0.0357  0.7547
 3220SOL    HW121296   3.799   2.263   8.758 -0.7506  0.9096 -0.2766
 3220SOL    HW221297   3.891   2.364   8.810  1.0434  1.1420 -0.9406
 3221SOL     OW21298   2.886   3.574  16.022 -0.1830  0.2029 -0.1100
 3221SOL    HW121299   2.930   3.606  16.101 -1.0734 -0.4662  0.6534
 3221SOL    HW221300   2.806   3.626  16.036 -1.8212 -1.9244 -1.6036
 3222SOL     OW21301   0.761   2.163   8.449  0.5674 -0.1841 -0.1232
 3222SOL    HW121302   0.725   2.082   8.412  0.5843 -0.6670  0.9304
 3222SOL    HW221303   0.839   2.172   8.394  0.0008 -0.7748 -1.0161
 3223SOL     OW21304   3.919   1.358   2.096 -0.4575  0.4224 -0.0197
 3223SOL    HW121305   3.898   1.442   2.055 -2.6655 -0.2873 -0.3535
 3223SOL    HW221306   3.991   1.325   2.041 -0.9799  0.0735 -0.4964
 3224SOL     OW21307   3.884   3.553   2.345 -0.5748  0.7634 -1.0863
 3224SOL    HW121308   3.980   3.553   2.337 -0.4616  0.7540  0.2478
 3224SOL    HW221309   3.854   3.464   2.327 -0.0165  0.8709 -2.5819
 3225SOL     OW21310   1.002   2.736   7.459 -0.1703 -0.0958  0.3832
 3225SOL    HW121311   0.954   2.806   7.414  0.0830  0.0046  0.2726
 3225SOL    HW221312   1.091   2.769   7.453  0.6416 -1.8122  3.0492
 3226SOL     OW21313   1.850   1.934   6.648  0.2710  0.1595  0.2681
 3226SOL    HW121314   1.906   1.904   6.720  0.2556 -1.1362 -0.2785
 3226SOL    HW221315   1.910   1.922   6.574 -0.2086  3.2501 -0.6209
 3227SOL     OW21316   1.366   2.514   0.976 -0.0006 -0.2838  0.0765
 3227SOL    HW121317   1.430   2.465   1.028 -0.7306 -0.5033  0.7633
 3227SOL    HW221318   1.288   2.461   0.994  1.0991 -1.1700  2.1745
 3228SOL     OW21319   3.958   2.652   0.916  0.7005 -0.1085 -0.0647
 3228SOL    HW121320   3.901   2.719   0.879  0.2738 -0.3467  0.1695
 3228SOL    HW221321   3.902   2.576   0.904  0.6854 -0.3887  1.8372
 3229SOL     OW21322   3.663   2.707   5.738  0.3378 -0.3784 -0.6710
 3229SOL    HW121323   3.663   2.678   5.829  2.6462  0.8275 -0.2837
 3229SOL    HW221324   3.626   2.796   5.737  1.8455  0.2656  0.7725
 3230SOL     OW21325   3.188   1.956   7.456  0.2883 -0.0198 -0.3035
 3230SOL    HW121326   3.261   1.900   7.484 -0.5282 -0.5491  0.7490
 3230SOL    HW221327   3.170   2.005   7.536  1.9663 -0.1986  0.1796
 3231SOL     OW21328   3.990   0.857   6.967 -0.4531 -0.2415 -0.3085
 3231SOL    HW121329   3.912   0.912   6.973 -0.2561 -0.2813  2.4446
 3231SOL    HW221330   3.976   0.798   6.893 -3.2556  2.1450 -1.6454
 3232SOL     OW21331   1.511   1.328   1.767 -0.1632 -0.7169  0.7290
 3232SOL    HW121332   1.583   1.265   1.760  0.6145  0.4474 -1.8522
 3232SOL    HW221333   1.432   1.275   1.772 -0.0552 -1.0003 -0.5888
 3233SOL     OW21334   1.932   0.121   2.055 -0.5380  0.3101  0.0649
 3233SOL    HW121335   1.856   0.085   2.103  0.4531  1.3296  2.3862
 3233SOL    HW221336   1.973   0.037   2.033 -1.3473 -0.2896  0.8154
 3234SOL     OW21337   1.218   2.397   4.940 -0.5080  0.1409  0.3022
 3234SOL    HW121338   1.247   2.308   4.962 -1.7638 -0.3741 -0.1524
 3234SOL    HW221339   1.285   2.458   4.973  1.2903 -1.4989 -0.2776
 3235SOL     OW21340   0.275   1.878  15.389 -0.0645 -0.2070 -0.3267
 3235SOL    HW121341   0.251   1.824  15.314 -0.9806  1.8742 -1.5393
 3235SOL    HW221342   0.237   1.823  15.457 -1.3383  0.8913 -0.1503
 3236SOL     OW21343   3.081   2.504   4.692 -0.8973 -0.5854 -0.0010
 3236SOL    HW121344   3.048   2.550   4.615  0.7109 -0.1778 -0.4464
 3236SOL    HW221345   3.009   2.443   4.710 -1.6010  0.6513  1.4467
 3237SOL     OW21346   3.283   1.533  17.207 -0.0851  0.4138 -0.4083
 3237SOL    HW121347   3.217   1.468  17.181  1.7131 -0.9784 -1.5257
 3237SOL    HW221348   3.317   1.559  17.122 -1.3700 -1.7781 -1.5913
 3238SOL     OW21349   3.912   0.409   6.594  0.0204 -0.4754  0.1029
 3238SOL    HW121350   3.934   0.331   6.645  0.6887 -0.0301  0.5013
 3238SOL    HW221351   3.998   0.451   6.588 -0.5007  1.0824  4.0101
 3239SOL     OW21352   0.534   4.583   7.487  0.4096  0.1094  0.2687
 3239SOL    HW121353   0.537   4.622   7.575 -1.2179 -0.4537  0.5570
 3239SOL    HW221354   0.624   4.587   7.453  0.3995  0.8886  0.3193
 3240SOL     OW21355   3.676   2.981   4.885  0.2217 -0.0541 -0.9017
 3240SOL    HW121356   3.711   2.911   4.830  2.1390 -0.2082  0.5091
 3240SOL    HW221357   3.674   3.058   4.828  0.7335  0.1513 -0.6409
 3241SOL     OW21358   0.369   1.714   3.235 -0.3915  0.1974 -0.6697
 3241SOL    HW121359   0.349   1.643   3.297  2.4275  1.4046  1.6316
 3241SOL    HW221360   0.283   1.720   3.195 -0.6414 -0.5316 -0.2462
 3242SOL     OW21361   1.490   0.689  16.097  0.5108 -0.7965 -0.1145
 3242SOL    HW121362   1.425   0.750  16.132 -0.2752 -1.4899 -0.3428
 3242SOL    HW221363   1.442   0.651  16.023 -1.8919  1.9476  0.0277
 3243SOL     OW21364   2.875   0.241   1.612 -0.3667 -0.1803  0.3674
 3243SOL    HW121365   2.796   0.188   1.607  0.5440 -1.6027  0.8321
 3243SOL    HW221366   2.861   0.284   1.696 -0.2642 -2.0666  1.3393
 3244SOL     OW21367   1.782   1.274   9.845 -0.0506 -0.1748 -0.9828
 3244SOL    HW121368   1.876   1.267   9.858 -0.5153 -1.4865  1.7012
 3244SOL    HW221369   1.764   1.365   9.823 -0.5713  0.0082  0.1902
 3245SOL     OW21370   3.890   2.755   6.106  0.0972 -0.0799  0.1537
 3245SOL    HW121371   3.871   2.848   6.115 -0.3432 -0.1059 -0.5348
 3245SOL    HW221372   3.809   2.714   6.076  0.9599  0.0603 -2.3698
 3246SOL     OW21373   1.016   0.196  14.356  0.0022  0.2493  0.4884
 3246SOL    HW121374   1.095   0.148  14.382 -0.0895 -0.2768 -0.1984
 3246SOL    HW221375   0.975   0.120  14.314  0.2577  0.3830 -0.0010
 3247SOL     OW21376   4.317   4.458  10.906 -0.5661 -0.2172 -0.2954
 3247SOL    HW121377   4.288   4.492  10.822  0.7981 -1.9747 -1.4820
 3247SOL    HW221378   4.382   4.402  10.865  0.4733 -1.9677  3.6937
 3248SOL     OW21379   0.228   0.018   8.469  0.0173  0.1968 -0.0984
 3248SOL    HW121380   0.309   4.731   8.514  0.0845  1.6112  0.5212
 3248SOL    HW221381   0.173   4.678   8.486  0.6839 -0.1004  0.6928
 3249SOL     OW21382   2.371   4.461   4.231 -0.0276 -0.1855  0.0786
 3249SOL    HW121383   2.332   4.546   4.249 -0.8466 -0.7554  1.0052
 3249SOL    HW221384   2.443   4.484   4.172 -0.0929  0.1822  0.1457
 3250SOL     OW21385   0.621   4.370   7.811 -0.1416  0.5359 -0.4078
 3250SOL    HW121386   0.579   4.443   7.765 -0.5008  0.0345 -0.8734
 3250SOL    HW221387   0.644   4.406   7.896 -3.1581 -0.8268  0.9622
 3251SOL     OW21388   2.336   2.495   7.828 -0.0289  0.4187 -0.3850
 3251SOL    HW121389   2.356   2.513   7.920  2.0359  0.0561 -0.7806
 3251SOL    HW221390   2.412   2.536   7.786 -0.1804  1.4118  0.3246
 3252SOL     OW21391   3.041   4.496  17.366  0.2442  0.6731 -0.4203
 3252SOL    HW121392   3.115   4.487  17.426  0.7273  0.3432 -1.0694
 3252SOL    HW221393   3.094   4.493  17.287  1.9719  0.7561  0.7291
 3253SOL     OW21394   2.345   2.974   4.255 -0.2172  0.7176  0.3361
 3253SOL    HW121395   2.287   2.938   4.322 -0.7547 -1.4336 -1.2751
 3253SOL    HW221396   2.430   2.960   4.296  0.8421  1.2481 -1.6681
 3254SOL     OW21397   1.740   1.924  17.202 -0.5220 -0.3717  0.7694
 3254SOL    HW121398   1.826   1.884  17.210 -0.8517 -1.3733 -0.5420
 3254SOL    HW221399   1.689   1.861  17.253 -3.0043  0.3152 -0.8927
 3255SOL     OW21400   0.239   0.775   3.631  0.2029  0.2184 -0.2161
 3255SOL    HW121401   0.251   0.830   3.708  1.6045 -0.0034 -0.2896
 3255SOL    HW221402   0.238   0.686   3.666 -2.1678 -0.9648 -3.2856
 3256SOL     OW21403   1.896   3.608   9.325 -0.3016 -0.2579  0.7170
 3256SOL    HW121404   1.973   3.630   9.377  0.0403 -0.3962  0.2712
 3256SOL    HW221405   1.878   3.696   9.293  0.3276 -0.9185 -1.4935
 3257SOL     OW21406   0.463   0.954   6.004  0.2969  0.5879 -0.2872
 3257SOL    HW121407   0.417   0.916   5.929  0.9355 -0.6262 -0.0763
 3257SOL    HW221408   0.391   1.002   6.044  2.7129  5.0222 -1.3021
 3258SOL     OW21409   3.707   4.304   6.871  0.0034 -0.1483  0.0589
 3258SOL    HW121410   3.800   4.287   6.863  0.1207  0.5907 -0.1291
 3258SOL    HW221411   3.670   4.223   6.836 -0.7506 -0.1808  0.9166
 3259SOL     OW21412   1.267   4.475   6.973  0.1779  0.1087 -0.1999
 3259SOL    HW121413   1.351   4.442   6.941  1.3299  0.0392  2.8603
 3259SOL    HW221414   1.207   4.450   6.903  1.3992 -3.4297  0.0651
 3260SOL     OW21415   3.105   1.805   0.089 -0.4009 -0.1416 -0.6835
 3260SOL    HW121416   3.120   1.717   0.124 -0.5453  1.2969  3.1028
 3260SOL    HW221417   3.191   1.836   0.060 -0.8623  0.5940 -1.2615
 3261SOL     OW21418   2.806   4.071   3.365 -0.2657 -0.8098  0.3977
 3261SOL    HW121419   2.736   4.136   3.369 -0.1667 -0.6513 -0.6006
 3261SOL    HW221420   2.798   4.037   3.454  1.0342  2.0740  1.6068
 3262SOL     OW21421   1.417   0.321   3.867 -0.3400 -0.0863 -0.1347
 3262SOL    HW121422   1.355   0.392   3.851 -0.1957 -0.2215 -1.2838
 3262SOL    HW221423   1.432   0.293   3.777  0.2887 -1.8414  0.5140
 3263SOL     OW21424   2.983   2.139   6.988 -0.1071  0.2430 -0.1575
 3263SOL    HW121425   2.902   2.183   7.015 -0.1481 -0.9122  1.6246
 3263SOL    HW221426   3.043   2.213   6.997  0.1038  0.0865 -0.2843
 3264SOL     OW21427   2.365   3.932   9.282 -0.8601 -0.2607 -0.2188
 3264SOL    HW121428   2.439   3.897   9.331 -0.7419  1.0991  0.5715
 3264SOL    HW221429   2.314   3.962   9.357 -1.5807  0.2290 -0.9035
 3265SOL     OW21430   4.310   2.846   5.923  0.4358 -0.2248  0.4396
 3265SOL    HW121431   4.293   2.806   6.008 -1.7725 -0.0160  0.1203
 3265SOL    HW221432   4.363   2.779   5.880 -0.4785 -1.1092  0.7035
 3266SOL     OW21433   2.973   3.352   3.285  0.0223  0.3346 -0.6057
 3266SOL    HW121434   2.936   3.323   3.202 -0.2669 -0.2555 -0.2706
 3266SOL    HW221435   3.031   3.416   3.245 -0.1788  2.2878  2.1974
 3267SOL     OW21436   4.026   3.518   9.470 -0.7368 -0.4142  0.8815
 3267SOL    HW121437   4.089   3.448   9.455 -0.3288 -0.0051  0.7006
 3267SOL    HW221438   3.980   3.515   9.386 -0.0113  1.3032  0.4403
 3268SOL     OW21439   1.108   0.495   8.850 -0.0727 -0.4670  0.1394
 3268SOL    HW121440   1.094   0.418   8.795  3.1796 -0.7792 -0.2288
 3268SOL    HW221441   1.054   0.554   8.797 -0.6138 -1.0250  0.0645
 3269SOL     OW21442   3.845   1.708   5.638 -0.4639  0.4475  0.2871
 3269SOL    HW121443   3.765   1.699   5.587  1.7169  3.2628 -3.6678
 3269SOL    HW221444   3.866   1.615   5.651 -0.0485  0.5521  0.3611
 3270SOL     OW21445   0.448   4.010   0.977 -0.2716  0.5831 -0.5746
 3270SOL    HW121446   0.368   3.982   0.932 -0.2102 -1.3505  0.5299
 3270SOL    HW221447   0.462   4.098   0.942 -1.7917  0.7139 -0.8575
 3271SOL     OW21448   4.448   0.063  17.141  0.0896 -0.2841 -0.4297
 3271SOL    HW121449   4.396   0.117  17.201  1.3978  1.1134 -0.5300
 3271SOL    HW221450   4.416   0.098  17.058  0.8191 -1.3317 -1.1549
 3272SOL     OW21451   0.835   3.103   7.669  0.0077  0.6478  0.4300
 3272SOL    HW121452   0.832   3.062   7.756  2.3176 -3.4394 -1.4476
 3272SOL    HW221453   0.806   3.191   7.695  0.5611  1.3619 -1.4021
 3273SOL     OW21454   3.896   2.725   3.251  0.5798  0.4725  0.0840
 3273SOL    HW121455   3.981   2.681   3.253 -0.0185 -0.6934  0.0034
 3273SOL    HW221456   3.880   2.746   3.160 -3.0001  0.2301  0.6754
 3274SOL     OW21457   2.880   0.247  11.930  0.3483  0.5669 -0.0481
 3274SOL    HW121458   2.912   0.257  11.841  1.4490  1.0460  0.4070
 3274SOL    HW221459   2.945   0.289  11.986 -1.0712  0.2979  1.8256
 3275SOL     OW21460   0.495   0.036   2.890  0.2450  0.3157 -0.3679
 3275SOL    HW121461   0.465   0.072   2.807  1.3047 -1.0568 -1.3406
 3275SOL    HW221462   0.590   0.052   2.893  0.4983 -0.8704 -2.2714
 3276SOL     OW21463   2.072   1.111  13.243 -0.3113 -0.4505  0.3397
 3276SOL    HW121464   2.137   1.047  13.214 -0.0585  0.2707 -0.6798
 3276SOL    HW221465   2.016   1.055  13.297 -1.0576 -0.5221 -0.5078
 3277SOL     OW21466   3.093   2.257   5.829 -0.3916  0.2191  0.4959
 3277SOL    HW121467   3.045   2.185   5.787 -0.1908 -0.6294  1.7162
 3277SOL    HW221468   3.153   2.291   5.762 -2.0865 -0.7587 -1.5186
 3278SOL     OW21469   4.505   2.713  15.799 -0.1898 -0.4577  0.3400
 3278SOL    HW121470   4.458   2.658  15.736  0.9405 -0.1777 -0.7586
 3278SOL    HW221471   4.504   2.663  15.880 -0.9931  0.0393  0.6396
 3279SOL     OW21472   4.515   0.638   2.349  0.4356 -0.3866  0.0570
 3279SOL    HW121473   4.444   0.676   2.400  0.2465 -1.4986  0.6261
 3279SOL    HW221474   4.467   0.618   2.269  0.9422 -0.3966 -0.2477
 3280SOL     OW21475   0.451   4.020  11.880  0.0561  0.3320 -0.0409
 3280SOL    HW121476   0.479   4.051  11.794  0.8801  1.0499  0.4815
 3280SOL    HW221477   0.394   4.086  11.919 -2.1804 -1.1761 -0.7420
 3281SOL     OW21478   4.452   0.873   5.179 -0.0036 -0.7269 -0.0638
 3281SOL    HW121479   4.385   0.874   5.110 -0.7654  0.6645  0.7029
 3281SOL    HW221480   4.471   0.967   5.175 -1.0556 -0.4771  0.9553
 3282SOL     OW21481   3.558   1.773   8.996 -0.2051 -0.5611 -0.1361
 3282SOL    HW121482   3.556   1.861   9.034 -0.4510 -0.4488 -0.4214
 3282SOL    HW221483   3.466   1.747   9.004 -0.4138  0.1346 -0.3104
 3283SOL     OW21484   4.440   3.131   4.584  0.0912 -0.2541 -0.1447
 3283SOL    HW121485   4.419   3.099   4.672 -0.0737  1.4091  0.4248
 3283SOL    HW221486   4.536   3.138   4.578  0.1165  0.7525  1.2875
 3284SOL     OW21487   2.802   3.200   9.334 -0.1704 -0.2998  0.5447
 3284SOL    HW121488   2.810   3.243   9.419 -0.5795  0.4932  0.1780
 3284SOL    HW221489   2.897   3.199   9.318  0.1069 -2.0952  2.2279
 3285SOL     OW21490   3.513   2.033   0.594 -0.2706 -0.0942  0.0123
 3285SOL    HW121491   3.488   2.082   0.515  1.3668  1.0580  0.2064
 3285SOL    HW221492   3.544   1.949   0.561 -1.0503 -0.5021  0.3291
 3286SOL     OW21493   3.922   1.406   5.681 -0.1101 -0.0218 -0.1088
 3286SOL    HW121494   3.875   1.324   5.696 -0.1710  0.0340  0.0003
 3286SOL    HW221495   3.955   1.435   5.765  1.4518  1.6893 -1.3188
 3287SOL     OW21496   1.798   1.081   5.514 -0.1374 -0.2152 -0.7191
 3287SOL    HW121497   1.768   0.995   5.544 -0.4376  0.2832  0.4203
 3287SOL    HW221498   1.786   1.069   5.420  1.1035 -0.2461 -0.8676
 3288SOL     OW21499   0.386   3.044   3.629 -0.6459  0.0410 -0.4873
 3288SOL    HW121500   0.349   2.991   3.699  0.6514  2.4929  2.0483
 3288SOL    HW221501   0.479   3.055   3.650 -0.7908  1.2810 -0.5081
 3289SOL     OW21502   3.666   1.844   4.113 -0.5128 -0.0124 -0.3181
 3289SOL    HW121503   3.723   1.774   4.145  1.1483  1.1110 -0.7905
 3289SOL    HW221504   3.712   1.923   4.144  2.3059 -1.0810 -1.7362
 3290SOL     OW21505   0.587   0.509   1.815  0.2701  0.3494 -0.4699
 3290SOL    HW121506   0.565   0.506   1.908  0.1969 -1.5240 -0.5640
 3290SOL    HW221507   0.525   0.578   1.788 -0.5308 -1.2551 -2.7560
 3291SOL     OW21508   4.128   3.397  16.536 -0.6422  0.5378  0.2575
 3291SOL    HW121509   4.091   3.311  16.515  0.5607  0.7537 -2.5880
 3291SOL    HW221510   4.194   3.378  16.603 -1.0493 -0.3665  0.4072
 3292SOL     OW21511   2.784   1.605   3.352 -0.4407 -0.1569  0.0749
 3292SOL    HW121512   2.796   1.682   3.409 -0.0727  0.5264 -0.9261
 3292SOL    HW221513   2.876   1.587   3.335 -0.3379 -0.4766  0.9978
 3293SOL     OW21514   4.039   2.961   9.081  0.2675 -0.0657  0.2460
 3293SOL    HW121515   3.987   2.891   9.122 -1.5084  1.0805 -0.0680
 3293SOL    HW221516   3.982   3.037   9.087 -1.1243 -0.9891 -1.3550
 3294SOL     OW21517   2.912   0.575  12.156 -0.3928 -0.2379  0.1662
 3294SOL    HW121518   2.853   0.601  12.085  1.4505  4.1849  0.2886
 3294SOL    HW221519   2.988   0.532  12.116  0.5510  2.0505 -0.5022
 3295SOL     OW21520   1.251   2.284   3.136 -0.7978 -0.6798  0.1484
 3295SOL    HW121521   1.341   2.289   3.167 -0.3298  0.9887 -1.4819
 3295SOL    HW221522   1.217   2.198   3.157  0.0820 -1.5022 -1.8468
 3296SOL     OW21523   2.041   4.562   8.683 -0.3562  0.2759  0.8139
 3296SOL    HW121524   2.085   4.511   8.751 -0.3236 -0.5240  0.1969
 3296SOL    HW221525   1.978   4.495   8.655 -0.9829  1.8104 -1.4106
 3297SOL     OW21526   1.534   4.217   5.216  0.0186  0.2501  0.2378
 3297SOL    HW121527   1.507   4.129   5.243  1.1552 -0.2169 -0.1199
 3297SOL    HW221528   1.538   4.258   5.302 -0.3378  0.3689  0.1956
 3298SOL     OW21529   4.676   0.476   8.747 -0.2734  0.5806 -0.2635
 3298SOL    HW121530   4.654   0.538   8.678 -2.1423  1.3395  1.0070
 3298SOL    HW221531   0.027   0.446   8.722 -0.4325 -0.8772  0.9187
 3299SOL     OW21532   3.565   3.782  10.328 -0.0562 -0.3385 -0.4673
 3299SOL    HW121533   3.574   3.689  10.309  0.5132 -0.4274  0.2553
 3299SOL    HW221534   3.502   3.786  10.400 -0.4528 -0.8495 -0.7897
 3300SOL     OW21535   2.350   2.604   1.324  0.2186  0.1985  0.3746
 3300SOL    HW121536   2.334   2.595   1.230 -1.7860 -0.5544  0.7803
 3300SOL    HW221537   2.432   2.653   1.323  0.6423 -0.4394  2.2386
 3301SOL     OW21538   2.020   3.516   6.499 -0.4072  0.4674  0.2151
 3301SOL    HW121539   2.043   3.526   6.591  1.3290 -1.0919 -0.0578
 3301SOL    HW221540   1.938   3.561   6.477 -0.1878  1.4682  1.4169
 3302SOL     OW21541   4.608   1.966   5.385  0.3479  0.4154 -1.0157
 3302SOL    HW121542   4.660   2.019   5.445  2.2284  0.5646 -2.7423
 3302SOL    HW221543   4.547   1.921   5.443 -2.0467  2.7001 -1.7965
 3303SOL     OW21544   3.667   1.390   6.723 -0.0560 -0.0737  0.2135
 3303SOL    HW121545   3.723   1.466   6.713  0.1935 -0.3505 -0.4632
 3303SOL    HW221546   3.728   1.319   6.742 -0.4402 -0.9699 -1.8374
 3304SOL     OW21547   2.505   1.958   3.779  0.2723  0.1057  0.2142
 3304SOL    HW121548   2.430   2.015   3.765  0.4931  0.8805  2.1762
 3304SOL    HW221549   2.478   1.938   3.869 -1.2221  2.7532  0.3516
 3305SOL     OW21550   2.848   0.231   5.156  0.4158 -0.3069  0.1126
 3305SOL    HW121551   2.929   0.252   5.202  0.7000 -0.7778 -0.1744
 3305SOL    HW221552   2.798   0.176   5.216 -0.3529 -0.7176 -0.8843
 3306SOL     OW21553   3.023   0.542   3.855 -0.3139 -0.5168  0.0694
 3306SOL    HW121554   3.027   0.476   3.924  0.8849 -2.9884 -2.3320
 3306SOL    HW221555   3.038   0.621   3.907  1.0531 -1.9714  1.8831
 3307SOL     OW21556   2.119   3.716   7.772 -0.2634 -0.2745  0.1070
 3307SOL    HW121557   2.052   3.752   7.830  0.0485 -0.3249  0.4996
 3307SOL    HW221558   2.105   3.622   7.780 -3.1940  0.3766  2.8918
 3308SOL     OW21559   0.526   2.824   0.587  0.7877 -0.4332  0.5384
 3308SOL    HW121560   0.435   2.854   0.590  1.0425  0.2639  1.2105
 3308SOL    HW221561   0.526   2.772   0.667 -0.8349  0.1616  0.9222
 3309SOL     OW21562   0.649   0.217  12.564 -0.1562 -0.4149 -0.3830
 3309SOL    HW121563   0.639   0.170  12.481 -0.0118  0.9450 -1.1592
 3309SOL    HW221564   0.729   0.263  12.538 -0.1652 -0.8117 -1.0992
 3310SOL     OW21565   4.007   2.586   8.962  0.1079 -0.1278 -0.1507
 3310SOL    HW121566   4.058   2.649   8.912 -1.9480  2.0925  0.5384
 3310SOL    HW221567   3.976   2.634   9.039  0.5772  1.3039 -0.8587
 3311SOL     OW21568   2.877   2.548   9.619 -0.2281  0.0341  0.3509
 3311SOL    HW121569   2.968   2.573   9.598  0.0030 -2.1346 -1.2701
 3311SOL    HW221570   2.896   2.463   9.659 -0.1832  0.7004  1.7382
 3312SOL     OW21571   2.684   2.579  17.618  0.2286  0.3210 -0.0516
 3312SOL    HW121572   2.683   2.494  17.574  0.3696 -0.0832  0.7298
 3312SOL    HW221573   2.725   2.644  17.561  4.0832 -0.5726  1.7047
 3313SOL     OW21574   1.005   2.534   6.079  0.2128  0.3591  0.2709
 3313SOL    HW121575   0.973   2.444   6.077 -0.2562  0.5195  0.6472
 3313SOL    HW221576   1.069   2.525   6.008  0.6156  2.6830  0.3374
 3314SOL     OW21577   0.740   2.672  12.490 -0.4295  0.5800 -0.5149
 3314SOL    HW121578   0.799   2.641  12.421  0.4200  1.4043 -0.1658
 3314SOL    HW221579   0.676   2.601  12.491  1.0575 -0.7411  0.6808
 3315SOL     OW21580   1.723   1.756   1.488  0.1726 -0.4280  0.1004
 3315SOL    HW121581   1.674   1.781   1.410  2.8225  2.7497 -0.5256
 3315SOL    HW221582   1.659   1.710   1.542 -1.2902 -0.4666 -1.6760
 3316SOL     OW21583   1.684   1.647   5.121 -0.1402 -0.0062 -0.2606
 3316SOL    HW121584   1.653   1.730   5.156  0.1598  0.1794 -0.4437
 3316SOL    HW221585   1.641   1.583   5.179 -1.4302  1.1467  0.0626
 3317SOL     OW21586   3.587   1.866   7.576  0.5073  0.3931 -0.5134
 3317SOL    HW121587   3.636   1.914   7.642 -0.2255 -0.7620  0.8673
 3317SOL    HW221588   3.608   1.912   7.494  0.4954 -1.5214 -1.5957
 3318SOL     OW21589   0.854   0.754   7.721  0.4754  0.2125  0.3527
 3318SOL    HW121590   0.770   0.786   7.689  1.1316  1.4243 -0.1520
 3318SOL    HW221591   0.832   0.662   7.739 -1.6548  0.5588 -0.5461
 3319SOL     OW21592   0.651   0.674  15.735 -0.8014  0.3559  1.3583
 3319SOL    HW121593   0.642   0.581  15.714  1.2414  1.1504 -2.9573
 3319SOL    HW221594   0.568   0.708  15.700  0.5742  0.7820 -1.4097
 3320SOL     OW21595   0.565   3.336  13.377 -0.4324  0.3038 -0.4070
 3320SOL    HW121596   0.633   3.277  13.344  0.1604  0.3572  0.7464
 3320SOL    HW221597   0.585   3.422  13.342  1.6689  0.4101  1.0567
 3321SOL     OW21598   0.889   0.270   5.844 -0.8448  0.0239 -0.0010
 3321SOL    HW121599   0.919   0.185   5.813  3.1920  0.6931  2.0162
 3321SOL    HW221600   0.795   0.262   5.831 -0.7237  1.3361 -1.6041
 3322SOL     OW21601   0.630   4.178  13.284  0.0269 -0.4595 -0.0134
 3322SOL    HW121602   0.694   4.185  13.213  1.2944  2.5846  1.4695
 3322SOL    HW221603   0.679   4.199  13.363  1.7035 -1.8668 -0.6938
 3323SOL     OW21604   0.317   1.755  16.242  0.4844  0.3014  0.1994
 3323SOL    HW121605   0.304   1.661  16.227 -2.2827  0.9093 -1.1937
 3323SOL    HW221606   0.388   1.753  16.179  0.7567  0.0844  0.5118
 3324SOL     OW21607   3.958   3.614  10.122  0.0077  0.0372  0.4928
 3324SOL    HW121608   3.892   3.652  10.180  0.4573  1.0583  0.3326
 3324SOL    HW221609   4.029   3.585  10.179  0.9727  0.3799 -0.5396
 3325SOL     OW21610   2.213   1.859  12.764 -0.0507  0.4878 -0.7050
 3325SOL    HW121611   2.154   1.784  12.758  1.6464 -1.1595  3.1702
 3325SOL    HW221612   2.294   1.825  12.801 -0.3838 -1.5592 -1.8535
 3326SOL     OW21613   3.300   2.554   2.322  0.4532 -0.2285 -0.5180
 3326SOL    HW121614   3.274   2.643   2.343 -0.8676 -1.3764  2.7498
 3326SOL    HW221615   3.293   2.566   2.227  0.9194  3.1394 -0.1151
 3327SOL     OW21616   4.652   3.909  14.426 -0.2775 -0.0079 -0.0726
 3327SOL    HW121617   4.588   3.973  14.393  0.0723  0.8012  0.8230
 3327SOL    HW221618   4.612   3.823  14.438 -0.0587  0.0640  1.1782
 3328SOL     OW21619   0.199   0.342   4.799 -0.4387 -0.2497 -0.6166
 3328SOL    HW121620   0.179   0.296   4.881 -0.7815 -2.2404 -1.8332
 3328SOL    HW221621   0.132   0.410   4.807 -1.0452 -0.8621 -0.4489
 3329SOL     OW21622   3.041   0.059   8.619 -0.4089 -0.2949  0.1030
 3329SOL    HW121623   3.109   0.103   8.670 -1.9472 -0.5162  2.3538
 3329SOL    HW221624   3.094   4.723   8.588  1.0011  0.5365  0.5683
 3330SOL     OW21625   1.637   0.846   1.105  0.3384  0.4628 -0.0477
 3330SOL    HW121626   1.557   0.888   1.075 -0.6721 -1.7110 -0.3546
 3330SOL    HW221627   1.662   0.777   1.043  0.2020 -0.0628  0.4823
 3331SOL     OW21628   0.458   2.458   8.910  0.1076  0.0466 -0.3648
 3331SOL    HW121629   0.467   2.403   8.987 -1.1954 -2.1630 -1.8079
 3331SOL    HW221630   0.399   2.417   8.847 -1.1562  4.0298 -1.7836
 3332SOL     OW21631   0.213   2.093   2.564 -0.3527 -0.1625 -0.2880
 3332SOL    HW121632   0.272   2.046   2.624  2.9423 -1.0286 -4.2352
 3332SOL    HW221633   0.273   2.146   2.512 -0.5915  2.2418  1.8457
 3333SOL     OW21634   1.916   0.331   3.412 -0.3818 -0.3796  0.1891
 3333SOL    HW121635   1.958   0.271   3.474 -0.1340 -1.7290 -1.2841
 3333SOL    HW221636   1.973   0.406   3.429 -1.5846  0.0404  2.4567
 3334SOL     OW21637   0.676   3.414  10.490 -0.0536  0.0593 -0.3684
 3334SOL    HW121638   0.652   3.322  10.500 -2.5138  0.6396 -0.8146
 3334SOL    HW221639   0.759   3.408  10.442  0.4449 -2.1551  0.7414
 3335SOL     OW21640   4.206   3.489   8.658 -0.2944 -0.2139 -0.0514
 3335SOL    HW121641   4.121   3.445   8.648 -2.0541  2.9079  0.8679
 3335SOL    HW221642   4.252   3.477   8.575 -0.2040  1.0576 -0.1969
 3336SOL     OW21643   3.779   3.134   3.945  0.0741  0.3275  0.4839
 3336SOL    HW121644   3.835   3.211   3.952 -0.7602  0.8967  0.9459
 3336SOL    HW221645   3.837   3.062   3.970 -0.1271  0.9043  2.6122
 3337SOL     OW21646   3.639   0.047  15.102 -0.1654 -0.5068  0.5298
 3337SOL    HW121647   3.647   0.105  15.178 -2.5842  0.2348  0.2131
 3337SOL    HW221648   3.571   4.724  15.134  0.1335 -0.9719  0.3091
 3338SOL     OW21649   0.659   3.646   3.566 -0.0642 -0.2988 -0.1897
 3338SOL    HW121650   0.735   3.702   3.555 -0.3045  0.0525 -0.0880
 3338SOL    HW221651   0.599   3.702   3.615  0.5755 -0.3423  0.6291
 3339SOL     OW21652   2.848   0.831   8.103  0.3596  0.1883  0.2215
 3339SOL    HW121653   2.806   0.904   8.057 -0.3543  1.0492  2.2771
 3339SOL    HW221654   2.791   0.761   8.071  1.3908  0.2073 -1.6602
 3340SOL     OW21655   0.907   2.753   4.049 -0.0103 -0.0459  0.0541
 3340SOL    HW121656   0.903   2.660   4.070 -1.0166 -0.1348 -0.5522
 3340SOL    HW221657   0.897   2.747   3.954  0.3570  0.6491 -0.0285
 3341SOL     OW21658   3.466   2.874   6.620 -0.4637 -0.0050 -0.0966
 3341SOL    HW121659   3.428   2.876   6.532  1.3074 -1.6194 -0.8895
 3341SOL    HW221660   3.450   2.783   6.646 -1.0756  0.4471  1.1060
 3342SOL     OW21661   3.188   1.575   5.275 -0.3446  1.1180  0.2959
 3342SOL    HW121662   3.176   1.629   5.353  2.1162  0.2329  1.2599
 3342SOL    HW221663   3.171   1.485   5.302  1.5995  0.8296  0.5362
 3343SOL     OW21664   2.638   4.329   4.009  0.3491  0.7421  0.0557
 3343SOL    HW121665   2.654   4.414   3.969 -0.7420  1.5271  1.3093
 3343SOL    HW221666   2.611   4.289   3.926 -1.1718  0.6607  0.5923
 3344SOL     OW21667   1.727   3.369  14.660 -0.1152 -0.0283 -0.2158
 3344SOL    HW121668   1.691   3.423  14.589 -1.9620 -0.2883  0.5064
 3344SOL    HW221669   1.776   3.433  14.711  0.2292 -0.7148  0.3092
 3345SOL     OW21670   3.251   0.781   4.297  0.2103  0.4485 -0.3829
 3345SOL    HW121671   3.249   0.860   4.351 -1.5671  0.3318 -0.2684
 3345SOL    HW221672   3.343   0.755   4.295  0.1109  0.0306  0.4339
 3346SOL     OW21673   4.697   2.526   9.086  0.3418  0.1095 -0.3887
 3346SOL    HW121674   0.033   2.512   9.147 -0.3909 -1.1850  0.1841
 3346SOL    HW221675   4.627   2.549   9.147 -0.6980 -1.9964 -0.8125
 3347SOL     OW21676   0.585   2.893   3.476  0.0881  0.9379 -0.0069
 3347SOL    HW121677   0.665   2.861   3.434 -0.9530  0.0016 -1.2983
 3347SOL    HW221678   0.614   2.966   3.530  1.1008  1.3092 -1.0366
 3348SOL     OW21679   2.425   3.009   9.658  0.2975  0.2427 -0.6143
 3348SOL    HW121680   2.515   2.992   9.683 -0.0688  0.3324  0.7321
 3348SOL    HW221681   2.380   2.948   9.716  0.2072 -0.4179 -1.3856
 3349SOL     OW21682   2.197   1.099  11.707 -0.8437  1.2217  0.7804
 3349SOL    HW121683   2.244   1.143  11.777  1.4870  0.0967 -0.0824
 3349SOL    HW221684   2.261   1.119  11.639 -0.7465 -2.1721 -0.1222
 3350SOL     OW21685   4.571   0.187  13.130  0.1374  0.7851 -0.1693
 3350SOL    HW121686   4.557   0.117  13.066 -1.7198  0.2435  0.8376
 3350SOL    HW221687   4.575   0.137  13.211 -1.9929 -0.1640 -0.6383
 3351SOL     OW21688   1.561   3.705   1.293 -0.0941  0.6966  0.4857
 3351SOL    HW121689   1.565   3.797   1.319 -1.3465  0.2496  2.2425
 3351SOL    HW221690   1.637   3.703   1.234  0.3763 -2.0532  1.2198
 3352SOL     OW21691   0.065   3.095   7.488  0.3869  0.5726  0.3804
 3352SOL    HW121692   0.115   3.167   7.528  0.6313 -0.3082  1.6657
 3352SOL    HW221693   0.128   3.024   7.490  0.0079  0.2110 -0.5799
 3353SOL     OW21694   1.845   1.490  12.325  0.4212  0.3797  0.3400
 3353SOL    HW121695   1.763   1.477  12.278  0.3886 -1.5038  0.8975
 3353SOL    HW221696   1.818   1.519  12.412  1.0160  0.2528  0.5703
 3354SOL     OW21697   4.360   3.617   5.788  0.1060 -0.3972 -0.0441
 3354SOL    HW121698   4.406   3.538   5.758 -1.4774 -1.0643 -0.7169
 3354SOL    HW221699   4.343   3.659   5.703  1.8189  0.1884 -0.0981
 3355SOL     OW21700   2.247   3.233   6.921  0.0486  0.2189 -0.1572
 3355SOL    HW121701   2.294   3.289   6.859  0.1573 -2.0979 -2.1543
 3355SOL    HW221702   2.225   3.159   6.864  0.7425  1.0050 -1.4630
 3356SOL     OW21703   4.572   1.415  12.842 -0.3182 -0.2227 -0.2764
 3356SOL    HW121704   4.593   1.326  12.869 -0.7730 -0.8039 -1.8142
 3356SOL    HW221705   4.616   1.465  12.911 -0.3096  0.6551 -0.9146
 3357SOL     OW21706   2.913   0.204   0.544 -0.5784  0.0995  0.0198
 3357SOL    HW121707   2.863   0.123   0.553  0.5444 -0.2548  3.1200
 3357SOL    HW221708   2.848   0.272   0.529 -2.6149 -2.6596 -3.8202
 3358SOL     OW21709   2.753   2.564   6.477  0.1324 -0.0849 -0.0143
 3358SOL    HW121710   2.697   2.640   6.493 -0.4519 -0.4118 -0.5199
 3358SOL    HW221711   2.778   2.542   6.567  2.3211  1.0518 -0.3366
 3359SOL     OW21712   1.908   4.590   9.653 -0.2865  0.3144  0.1641
 3359SOL    HW121713   1.893   4.536   9.731 -0.0823 -0.8296 -0.5889
 3359SOL    HW221714   1.892   4.680   9.682  0.4675  0.8999 -1.2382
 3360SOL     OW21715   0.897   1.092   3.950 -0.1095 -0.2311  0.6572
 3360SOL    HW121716   0.982   1.130   3.970  1.4950 -1.4833 -3.8475
 3360SOL    HW221717   0.891   1.121   3.858  1.6443 -0.1098  0.5848
 3361SOL     OW21718   1.212   2.338   3.923 -0.2223  0.8536  0.9300
 3361SOL    HW121719   1.307   2.345   3.931 -0.3749  1.5046  2.2422
 3361SOL    HW221720   1.191   2.323   3.831 -0.2926  0.2234  1.0475
 3362SOL     OW21721   0.931   1.028  15.728  0.3150  0.3286 -0.0264
 3362SOL    HW121722   0.875   1.024  15.650 -0.1185 -1.7472  0.3856
 3362SOL    HW221723   0.912   0.942  15.767  0.6957  0.8523  1.2948
 3363SOL     OW21724   0.732   2.125   4.662  0.2359 -0.2867  0.0626
 3363SOL    HW121725   0.746   2.165   4.577 -1.2417 -0.0196 -0.0535
 3363SOL    HW221726   0.689   2.196   4.711  1.0125 -0.5967  1.2067
 3364SOL     OW21727   0.137   3.427   3.302 -0.3443  0.0208 -0.1777
 3364SOL    HW121728   0.054   3.457   3.265 -0.6427 -0.8336 -0.2062
 3364SOL    HW221729   0.200   3.497   3.286  1.1111 -1.7748 -2.2551
 3365SOL     OW21730   2.545   3.657  14.095  0.2558 -0.1817  0.1587
 3365SOL    HW121731   2.605   3.716  14.050 -0.7679  0.9371  0.2540
 3365SOL    HW221732   2.613   3.609  14.143  1.0287  2.8891  2.1442
 3366SOL     OW21733   1.561   1.202   8.855  0.0956 -0.2498  0.8449
 3366SOL    HW121734   1.511   1.124   8.880 -0.8347  1.1107  3.1610
 3366SOL    HW221735   1.552   1.262   8.929  0.5074  0.9840 -0.1166
 3367SOL     OW21736   3.478   1.897   6.383 -0.4911 -1.0819 -0.0715
 3367SOL    HW121737   3.475   1.807   6.416 -0.6792 -0.9653  0.2318
 3367SOL    HW221738   3.490   1.945   6.466  2.3710 -0.2980 -0.9239
 3368SOL     OW21739   4.139   0.491  11.038 -0.4923 -0.0835  0.3122
 3368SOL    HW121740   4.230   0.487  11.009 -0.3613  1.6929  0.4779
 3368SOL    HW221741   4.160   0.459  11.126 -1.2416  1.9179  1.2063
 3369SOL     OW21742   1.962   1.057   6.388 -0.0680  0.1751  0.0172
 3369SOL    HW121743   1.929   0.968   6.378 -2.0097  1.0350 -1.3859
 3369SOL    HW221744   1.965   1.085   6.297 -0.4358  2.7184  0.7858
 3370SOL     OW21745   3.344   4.516   5.458  0.5150 -0.5100  0.6777
 3370SOL    HW121746   3.337   4.542   5.366  1.3432 -0.5538  0.6026
 3370SOL    HW221747   3.379   4.597   5.493  3.5398 -0.4860 -2.4718
 3371SOL     OW21748   1.826   4.196   6.529  0.6780  0.5950  0.1807
 3371SOL    HW121749   1.824   4.146   6.610 -1.7314 -0.1692 -0.3804
 3371SOL    HW221750   1.852   4.130   6.465  2.9014  2.1511 -0.5392
 3372SOL     OW21751   3.594   0.918   1.610 -0.5742 -0.6850 -0.6023
 3372SOL    HW121752   3.581   0.900   1.517 -3.7530 -1.0087 -0.1079
 3372SOL    HW221753   3.669   0.859   1.617 -1.7851 -2.1401  0.2355
 3373SOL     OW21754   3.944   2.432  12.779  0.3287  0.2900 -0.1279
 3373SOL    HW121755   3.878   2.378  12.822 -1.3150 -0.1371 -3.1740
 3373SOL    HW221756   4.008   2.367  12.748 -0.1924 -0.7497  0.9991
 3374SOL     OW21757   3.434   1.004  17.619 -0.7735 -0.7020 -0.7494
 3374SOL    HW121758   3.505   1.045  17.571 -0.3888 -3.3942 -2.4818
 3374SOL    HW221759   3.426   1.077  17.681  1.4675 -0.2375 -1.0381
 3375SOL     OW21760   3.783   1.661   2.302  0.1126 -0.2729 -0.1539
 3375SOL    HW121761   3.857   1.718   2.323 -0.3946  0.2549  0.2080
 3375SOL    HW221762   3.803   1.587   2.360  0.9718  0.7967  0.9111
 3376SOL     OW21763   0.363   4.293   4.857 -0.1524  0.0265 -0.1372
 3376SOL    HW121764   0.364   4.319   4.765  0.1467 -0.5170 -0.2887
 3376SOL    HW221765   0.450   4.257   4.872  0.4245  0.7901 -1.7557
 3377SOL     OW21766   1.994   3.484   5.794  0.3825 -0.3416 -0.2677
 3377SOL    HW121767   2.086   3.477   5.769  0.5797 -0.7859  0.5783
 3377SOL    HW221768   1.979   3.574   5.765  1.6616 -0.3873 -1.0667
 3378SOL     OW21769   1.306   2.471   4.263 -0.4333 -0.2879  0.1516
 3378SOL    HW121770   1.385   2.476   4.316  0.1081 -1.2455 -0.5503
 3378SOL    HW221771   1.257   2.547   4.295  0.6776 -0.0999  1.4103
 3379SOL     OW21772   2.002   4.004   5.555 -0.1620  0.4483 -0.3393
 3379SOL    HW121773   2.031   4.069   5.491 -0.3134  1.1328  0.2939
 3379SOL    HW221774   2.059   4.034   5.626  1.0461  0.0418 -1.1337
 3380SOL     OW21775   2.535   2.239  16.154  0.5769  1.0196  0.0076
 3380SOL    HW121776   2.512   2.220  16.245 -1.1934 -0.8830 -0.8470
 3380SOL    HW221777   2.613   2.188  16.133  1.0861  1.4242  0.9467
 3381SOL     OW21778   3.496   4.692  17.372  0.4401 -0.0468  0.6283
 3381SOL    HW121779   3.418   0.010  17.373 -0.7174 -1.6707  0.0683
 3381SOL    HW221780   3.550   4.722  17.299  1.1171  0.3805  1.3008
 3382SOL     OW21781   2.511   1.784   6.778 -0.0225  0.0009 -0.4266
 3382SOL    HW121782   2.466   1.715   6.826 -1.6675  1.0114 -0.4985
 3382SOL    HW221783   2.494   1.759   6.687  0.3382 -0.9763 -0.2203
 3383SOL     OW21784   1.052   4.717  15.284 -0.1367 -0.4016  0.4583
 3383SOL    HW121785   1.003   4.735  15.364 -0.2908 -3.5040  1.0473
 3383SOL    HW221786   1.081   0.066  15.253  1.4166 -0.9802  0.3088
 3384SOL     OW21787   1.479   2.486   7.705  0.2155 -0.2056 -0.1840
 3384SOL    HW121788   1.528   2.425   7.760  2.7064  0.5356 -1.6000
 3384SOL    HW221789   1.394   2.442   7.704  0.7970 -1.3485  0.7356
 3385SOL     OW21790   0.548   4.314   6.126  0.2209  0.0220 -0.2025
 3385SOL    HW121791   0.601   4.366   6.066 -0.2774  2.7973  1.7510
 3385SOL    HW221792   0.487   4.381   6.156 -0.5694 -0.7741 -0.0205
 3386SOL     OW21793   2.733   0.343   2.112  0.2882 -0.2413  0.5093
 3386SOL    HW121794   2.809   0.400   2.122  1.0999 -1.3508  0.6295
 3386SOL    HW221795   2.745   0.283   2.186  0.2433  1.5604  1.9596
 3387SOL     OW21796   1.442   0.403  12.353  0.3137  0.1725 -0.1960
 3387SOL    HW121797   1.492   0.384  12.433  1.7395  2.0150 -0.6488
 3387SOL    HW221798   1.479   0.339  12.292 -1.8001 -0.8470 -0.3813
 3388SOL     OW21799   4.188   3.551   1.410  0.5020  0.0961  0.1220
 3388SOL    HW121800   4.103   3.536   1.368  0.5516 -1.1625  0.4513
 3388SOL    HW221801   4.222   3.618   1.351 -2.0042 -0.6844 -2.2000
 3389SOL     OW21802   0.068   0.573   3.969  0.4918 -0.3729 -0.2753
 3389SOL    HW121803   4.721   0.582   3.923  1.0558  2.4851 -0.7610
 3389SOL    HW221804   0.129   0.559   3.897  0.1493  2.3210 -1.1083
 3390SOL     OW21805   3.000   3.570   5.027 -0.6698  0.2896 -0.7883
 3390SOL    HW121806   2.980   3.618   4.947 -2.5735  0.2090 -0.3551
 3390SOL    HW221807   3.063   3.625   5.074  0.8751 -0.0494 -2.4724
 3391SOL     OW21808   2.417   4.118   2.288  0.3249  0.3905  0.1232
 3391SOL    HW121809   2.396   4.083   2.374  1.4930  0.5430  0.4638
 3391SOL    HW221810   2.341   4.173   2.267 -1.1053 -1.6152 -0.0049
 3392SOL     OW21811   4.046   2.157   6.468  0.0029 -0.0757 -0.0285
 3392SOL    HW121812   3.969   2.193   6.424  0.2151 -0.8991 -1.0844
 3392SOL    HW221813   4.114   2.185   6.407  2.3637 -1.8451  1.7804
 3393SOL     OW21814   0.888   1.589   6.071 -0.3421 -0.1011  0.3868
 3393SOL    HW121815   0.978   1.562   6.054 -0.2110  1.3157 -1.0974
 3393SOL    HW221816   0.858   1.512   6.120 -1.4800  1.1583  1.6478
 3394SOL     OW21817   0.571   2.124   5.496 -0.8505 -0.5035  0.8277
 3394SOL    HW121818   0.611   2.133   5.409  0.8605 -0.7632  1.5889
 3394SOL    HW221819   0.626   2.189   5.540 -0.3704  1.4630 -2.6448
 3395SOL     OW21820   0.002   2.796   5.423  0.0885  0.1503  0.6267
 3395SOL    HW121821   4.727   2.723   5.362  0.2877  0.8610 -0.2579
 3395SOL    HW221822   4.652   2.803   5.463  0.7767 -0.4674  2.1853
 3396SOL     OW21823   3.989   4.404   0.246  0.0128  1.0087 -0.3770
 3396SOL    HW121824   4.060   4.428   0.186 -0.2429 -1.3773 -1.6250
 3396SOL    HW221825   4.024   4.324   0.286  2.3970  2.1178 -0.2446
 3397SOL     OW21826   3.671   3.630  10.621  0.3711 -0.7018  0.3433
 3397SOL    HW121827   3.704   3.663  10.705  1.2006  0.6404 -0.5038
 3397SOL    HW221828   3.591   3.681  10.606  0.4412 -1.0381 -1.2321
 3398SOL     OW21829   3.367   3.112   7.694 -0.2704 -0.0889 -0.7148
 3398SOL    HW121830   3.283   3.105   7.738  0.3155 -2.9466 -0.0301
 3398SOL    HW221831   3.381   3.205   7.712 -0.0204 -0.3646  0.4895
 3399SOL     OW21832   4.191   2.698   9.251 -0.0262 -0.4357  0.3641
 3399SOL    HW121833   4.158   2.747   9.327 -2.1484 -0.0898 -0.7665
 3399SOL    HW221834   4.268   2.745   9.220 -0.5634  0.1145 -0.1531
 3400SOL     OW21835   0.012   0.471  12.405  0.5152  0.8074  0.3205
 3400SOL    HW121836   0.028   0.484  12.498 -1.5689  0.0775  0.7746
 3400SOL    HW221837   0.082   0.406  12.397  0.7702  1.2905 -1.4026
 3401SOL     OW21838   0.662   2.625   9.940 -0.0747 -0.1968  0.2283
 3401SOL    HW121839   0.723   2.569   9.987 -1.0054 -1.5601 -0.1553
 3401SOL    HW221840   0.719   2.663   9.874 -0.6626 -0.4569 -0.4372
 3402SOL     OW21841   0.050   4.440   3.769 -0.7362  0.1933 -0.4288
 3402SOL    HW121842   0.140   4.454   3.740 -0.2436 -0.1891  0.9292
 3402SOL    HW221843   0.059   4.375   3.838 -2.5709  0.8128  0.3900
 3403SOL     OW21844   4.632   2.867   4.443  0.0951  0.1700 -0.0539
 3403SOL    HW121845   4.590   2.893   4.525 -2.0385 -0.4057 -0.9585
 3403SOL    HW221846   4.647   2.950   4.398  1.3628  0.0101  0.0877
 3404SOL     OW21847   2.424   2.804   9.018  0.0275 -0.3405  0.0291
 3404SOL    HW121848   2.443   2.870   8.952  0.0374 -0.2647  0.1070
 3404SOL    HW221849   2.504   2.808   9.070  0.2759  0.1658 -0.3959
 3405SOL     OW21850   4.101   4.482   0.538 -0.4904  0.2385 -0.2647
 3405SOL    HW121851   4.186   4.438   0.547 -1.1950 -1.0195  0.2140
 3405SOL    HW221852   4.094   4.493   0.443 -0.1615  1.8213 -0.1045
 3406SOL     OW21853   0.743   0.857  12.775 -0.7848  0.0149  0.3629
 3406SOL    HW121854   0.758   0.824  12.687 -1.5316 -0.6034  0.4698
 3406SOL    HW221855   0.710   0.944  12.752 -0.4309 -0.1668 -0.8345
 3407SOL     OW21856   1.444   0.010  14.883  0.2717 -0.0824 -0.0939
 3407SOL    HW121857   1.512   0.062  14.840 -1.3741 -1.4352 -4.3456
 3407SOL    HW221858   1.433   0.063  14.963  0.4611 -0.0536 -0.0856
 3408SOL     OW21859   3.639   2.030  10.615 -0.2334  0.4002  0.1120
 3408SOL    HW121860   3.595   2.024  10.530  0.1281  0.3167 -0.0702
 3408SOL    HW221861   3.594   2.103  10.657 -1.5107 -0.0356 -0.5070
 3409SOL     OW21862   4.275   0.126  13.344 -0.1036 -0.0475  0.2807
 3409SOL    HW121863   4.286   0.220  13.327 -1.4654 -0.2625 -1.8296
 3409SOL    HW221864   4.358   0.088  13.317  0.2395  1.5579 -0.9096
 3410SOL     OW21865   2.479   3.774   3.455 -0.0245 -0.2737  0.8815
 3410SOL    HW121866   2.430   3.778   3.372  0.2754 -0.0569  0.7123
 3410SOL    HW221867   2.557   3.720   3.440 -2.1631 -3.1798  0.2616
 3411SOL     OW21868   3.798   2.438  13.591 -0.0937 -0.5250 -0.5590
 3411SOL    HW121869   3.837   2.442  13.678 -2.5442  0.3843  0.4955
 3411SOL    HW221870   3.708   2.417  13.617  0.0968 -2.6265 -1.5828
 3412SOL     OW21871   4.093   3.279   9.290 -0.1281 -0.7485 -0.5435
 3412SOL    HW121872   4.072   3.314   9.203  1.0440  1.1896 -0.0307
 3412SOL    HW221873   4.170   3.226   9.272  1.1648  2.1499 -3.5274
 3413SOL     OW21874   2.861   2.208  15.953 -0.3807  0.2243 -0.6458
 3413SOL    HW121875   2.813   2.159  16.019  1.2832  1.0428  1.1893
 3413SOL    HW221876   2.939   2.153  15.945 -0.5896 -0.0154 -1.0517
 3414SOL     OW21877   3.460   2.411   4.000 -0.5281  0.4688 -0.0115
 3414SOL    HW121878   3.481   2.363   4.080  1.5046  0.7606 -0.3746
 3414SOL    HW221879   3.371   2.383   3.981 -0.4209  2.3087 -3.2410
 3415SOL     OW21880   4.597   0.614   1.610 -0.8865 -0.6737 -0.1584
 3415SOL    HW121881   4.630   0.617   1.700 -0.7479  1.1102 -0.2652
 3415SOL    HW221882   4.554   0.699   1.605  2.6345  1.2683  2.9752
 3416SOL     OW21883   3.524   2.830   4.246 -0.2120 -0.1735  0.0215
 3416SOL    HW121884   3.462   2.897   4.218  1.1827  1.5863  1.0821
 3416SOL    HW221885   3.572   2.814   4.165 -2.3484  1.1838 -1.4830
 3417SOL     OW21886   1.858   0.555   8.754  0.4195 -0.1470 -0.2436
 3417SOL    HW121887   1.911   0.600   8.690  3.2977 -2.8786  0.2315
 3417SOL    HW221888   1.824   0.483   8.701 -1.1541  0.2200  0.2402
 3418SOL     OW21889   1.188   0.813   3.123 -0.0042 -0.0843 -0.1803
 3418SOL    HW121890   1.242   0.881   3.164  1.6977 -2.1356  0.9665
 3418SOL    HW221891   1.166   0.858   3.041 -1.6897  0.6704  0.6758
 3419SOL     OW21892   1.515   1.561   0.622  0.6144 -0.2976 -0.3059
 3419SOL    HW121893   1.560   1.521   0.548 -1.2413  1.4784 -2.3802
 3419SOL    HW221894   1.423   1.557   0.597  0.5783 -0.6803 -0.1242
 3420SOL     OW21895   2.582   2.907   5.565 -0.0884  0.9191  0.2644
 3420SOL    HW121896   2.487   2.900   5.572 -0.2337  0.7346 -1.8947
 3420SOL    HW221897   2.598   2.813   5.557 -0.0955  1.2451 -3.3975
 3421SOL     OW21898   3.285   1.212   2.805 -0.1005  0.3301  0.3414
 3421SOL    HW121899   3.380   1.212   2.814 -0.1016 -1.6439  0.3266
 3421SOL    HW221900   3.262   1.122   2.826  5.2187 -1.2064 -0.4076
 3422SOL     OW21901   4.648   3.395   5.474  0.3648  0.2489 -0.3952
 3422SOL    HW121902   4.735   3.389   5.516  0.4924  0.0257 -0.6972
 3422SOL    HW221903   4.639   3.302   5.453 -1.0167  0.8374 -2.4172
 3423SOL     OW21904   0.858   2.903   0.891 -0.3760 -0.2570  0.0319
 3423SOL    HW121905   0.803   2.825   0.892 -1.5084  0.5369  0.5858
 3423SOL    HW221906   0.939   2.854   0.883  0.2084  0.8512 -0.7711
 3424SOL     OW21907   3.755   4.540  17.447  0.7363 -0.5764  0.7820
 3424SOL    HW121908   3.680   4.481  17.438  0.9358 -0.6445 -0.3625
 3424SOL    HW221909   3.714   4.600  17.509  1.2982  0.6998 -0.0919
 3425SOL     OW21910   2.186   0.226   1.440  0.0077 -0.3397 -0.1011
 3425SOL    HW121911   2.168   0.282   1.515 -0.6377  2.2700 -2.1561
 3425SOL    HW221912   2.108   0.172   1.449 -0.6583  0.3322 -1.7610
 3426SOL     OW21913   4.547   4.732   8.421  0.3708  0.3342 -0.5448
 3426SOL    HW121914   4.557   4.712   8.514 -3.2814 -1.2209 -0.5029
 3426SOL    HW221915   4.548   0.091   8.432 -1.4522  0.3567 -0.5967
 3427SOL     OW21916   2.745   2.052  16.141  0.2831 -0.2850 -0.1211
 3427SOL    HW121917   2.785   2.078  16.223  1.4220  1.8300 -1.3488
 3427SOL    HW221918   2.754   1.958  16.154 -0.9485 -0.2764  0.8292
 3428SOL     OW21919   3.455   4.155   8.390  0.2126 -0.2087 -0.0733
 3428SOL    HW121920   3.470   4.205   8.310  0.3337  1.8376  1.2417
 3428SOL    HW221921   3.538   4.161   8.438 -0.3112  1.8963  0.5459
 3429SOL     OW21922   1.180   0.910   0.487  0.3046  0.1205 -0.1025
 3429SOL    HW121923   1.252   0.847   0.487 -0.4552 -0.7477  1.3136
 3429SOL    HW221924   1.120   0.869   0.549  0.7367  1.4577  1.2023
 3430SOL     OW21925   2.475   0.112   0.469 -0.4597  0.0893  0.1291
 3430SOL    HW121926   2.540   0.180   0.446  0.4678 -1.3629 -1.5405
 3430SOL    HW221927   2.532   0.038   0.487 -1.3866 -0.5629  0.3389
 3431SOL     OW21928   1.132   2.241   2.172 -0.4999 -0.4208  0.2018
 3431SOL    HW121929   1.221   2.265   2.198  0.0783  0.5923 -2.7133
 3431SOL    HW221930   1.110   2.157   2.211 -1.4031 -1.4652 -2.5264
 3432SOL     OW21931   0.179   4.022   8.282  0.3940  0.3594  0.5483
 3432SOL    HW121932   0.221   3.965   8.217 -0.6013  0.5942 -0.3061
 3432SOL    HW221933   0.238   3.993   8.351  0.7202 -2.4274 -0.8869
 3433SOL     OW21934   1.732   1.537   9.864  0.3372 -0.1541 -0.0015
 3433SOL    HW121935   1.704   1.625   9.888  1.3088 -0.0395  0.7323
 3433SOL    HW221936   1.803   1.527   9.928 -1.5506 -1.4733  1.8897
 3434SOL     OW21937   4.218   1.546  17.471  0.0136  0.3574  0.5016
 3434SOL    HW121938   4.194   1.471  17.526 -2.8981  0.0182 -1.2148
 3434SOL    HW221939   4.164   1.614  17.511 -0.2610  0.7766 -0.5809
 3435SOL     OW21940   1.347   3.934   7.606 -0.2524  0.6313  0.5662
 3435SOL    HW121941   1.368   4.019   7.646 -1.5222  1.3927 -0.3908
 3435SOL    HW221942   1.429   3.907   7.563 -1.8029  1.3314 -2.8229
 3436SOL     OW21943   3.794   2.811  14.215  0.0137  0.1985  0.4194
 3436SOL    HW121944   3.814   2.867  14.139 -2.2419 -1.8261 -1.6772
 3436SOL    HW221945   3.768   2.734  14.165 -0.8504  1.3754 -0.9547
 3437SOL     OW21946   2.548   0.280   7.763  0.4279  0.3834 -0.4660
 3437SOL    HW121947   2.528   0.301   7.854 -2.0528  2.2012 -1.4254
 3437SOL    HW221948   2.474   0.221   7.749  1.2561 -0.8171  0.1962
 3438SOL     OW21949   1.831   1.800   5.452 -0.2169  0.0784  0.2860
 3438SOL    HW121950   1.909   1.791   5.396  1.7841 -0.3532  3.1753
 3438SOL    HW221951   1.855   1.878   5.501 -0.5141 -0.8711  1.9395
 3439SOL     OW21952   0.911   1.925  12.933 -0.0962 -0.1483 -0.3982
 3439SOL    HW121953   0.827   1.890  12.903  0.5847 -1.5886 -0.6349
 3439SOL    HW221954   0.885   1.968  13.015  4.3189 -0.1184  0.9646
 3440SOL     OW21955   1.505   0.221   4.464 -0.0227 -0.2887  0.2230
 3440SOL    HW121956   1.571   0.268   4.414 -1.3556  0.6233 -0.6801
 3440SOL    HW221957   1.511   0.129   4.437 -1.9547  0.0416 -1.3609
 3441SOL     OW21958   1.715   4.047  11.849 -0.3498  0.2015 -0.5028
 3441SOL    HW121959   1.756   4.020  11.931 -2.5149  0.0750  0.5437
 3441SOL    HW221960   1.762   3.989  11.789  0.9784  2.2138 -1.4099
 3442SOL     OW21961   4.407   0.025   2.880  0.4558  0.4028 -0.1267
 3442SOL    HW121962   4.443   0.081   2.949 -1.1803  3.3036 -1.6016
 3442SOL    HW221963   4.456   0.069   2.810  0.9722  2.6095  1.6097
 3443SOL     OW21964   1.286   4.282  16.312 -0.0953 -0.0771  0.0514
 3443SOL    HW121965   1.379   4.290  16.330 -0.2092 -1.1774  1.1491
 3443SOL    HW221966   1.274   4.200  16.361  1.3359 -1.2272 -1.5264
 3444SOL     OW21967   4.643   4.505  13.648  0.2453 -0.2218 -0.4139
 3444SOL    HW121968   4.701   4.456  13.590  0.0080 -0.2107 -0.6575
 3444SOL    HW221969   4.628   4.586  13.600 -2.1537 -0.6435 -0.4169
 3445SOL     OW21970   4.680   3.174   8.060  0.3987  0.3997  0.0665
 3445SOL    HW121971   4.709   3.164   7.970 -1.2863 -0.9885 -0.2988
 3445SOL    HW221972   4.702   3.095   8.109  2.3712  0.1406 -1.2518
 3446SOL     OW21973   3.325   2.359   5.628  0.2781  0.0592  0.2096
 3446SOL    HW121974   3.263   2.430   5.611  1.5695  1.2567  0.5071
 3446SOL    HW221975   3.405   2.397   5.591  0.8206  1.1634  2.4940
 3447SOL     OW21976   0.710   2.192   0.046 -0.0902  0.5362  0.0113
 3447SOL    HW121977   0.759   2.136   0.106  0.4674  1.4287  0.3939
 3447SOL    HW221978   0.622   2.172   0.077  0.6039  0.8103  2.1342
 3448SOL     OW21979   4.331   3.660   5.539  0.4196  0.2436 -0.0727
 3448SOL    HW121980   4.310   3.743   5.497  0.1793 -1.1732 -2.7893
 3448SOL    HW221981   4.337   3.614   5.455 -1.3164 -2.5341  1.3103
 3449SOL     OW21982   0.506   4.719   1.948 -0.4253  0.0246  0.1099
 3449SOL    HW121983   0.559   4.689   1.874 -1.6769 -1.7051 -0.0986
 3449SOL    HW221984   0.495   4.637   1.996 -0.3864 -0.5357 -0.8342
 3450SOL     OW21985   4.672   0.301   0.902  0.6186  0.8733 -0.2133
 3450SOL    HW121986   4.692   0.324   0.993  0.0741 -1.1572  0.4236
 3450SOL    HW221987   4.708   0.372   0.850  2.9155  1.3540  1.9966
 3451SOL     OW21988   3.223   0.780   9.133 -0.2794  0.0828  0.1792
 3451SOL    HW121989   3.212   0.765   9.227  1.4471  1.3059  0.5745
 3451SOL    HW221990   3.234   0.692   9.096  1.2520 -0.0453  0.9253
 3452SOL     OW21991   3.751   0.071  13.400  0.4837  0.2225  0.5998
 3452SOL    HW121992   3.727   0.161  13.422 -0.0300 -0.0035  0.9543
 3452SOL    HW221993   3.671   0.045  13.355  0.3838  0.4898  0.6182
 3453SOL     OW21994   0.578   2.400   1.959 -0.2294 -0.0932  0.7907
 3453SOL    HW121995   0.488   2.368   1.958 -1.0338  2.2721 -2.5650
 3453SOL    HW221996   0.599   2.378   2.050  0.0584 -2.6555  0.1092
 3454SOL     OW21997   3.686   2.194   8.057 -0.4189  1.0804  0.8877
 3454SOL    HW121998   3.675   2.100   8.047 -1.4190  1.6133 -3.0187
 3454SOL    HW221999   3.620   2.229   7.998  0.6641 -0.1851 -1.0400
 3455SOL     OW22000   2.175   1.494   7.809 -0.1470 -0.1849 -0.5376
 3455SOL    HW122001   2.152   1.548   7.733 -1.0624  0.1245 -0.0439
 3455SOL    HW222002   2.085   1.472   7.832  0.1263 -1.0005 -0.2705
 3456SOL     OW22003   1.720   0.019   7.942 -0.7202 -0.3889  0.2775
 3456SOL    HW122004   1.652   0.076   7.904  0.0336  0.3848  0.0726
 3456SOL    HW222005   1.717   0.026   8.037  3.6717 -1.3243  0.5038
 3457SOL     OW22006   0.147   3.318   5.627 -0.3255 -0.5712 -0.2803
 3457SOL    HW122007   0.190   3.279   5.551 -0.4749  1.1483 -1.2257
 3457SOL    HW222008   0.207   3.287   5.695 -1.5194 -1.1649  0.5008
 3458SOL     OW22009   1.366   4.157  14.438 -0.3477  0.0459 -0.1266
 3458SOL    HW122010   1.371   4.233  14.495  0.1614  1.2000 -1.7195
 3458SOL    HW222011   1.407   4.090  14.493  0.0689  0.1559 -0.3000
 3459SOL     OW22012   2.054   4.095   4.774  0.0208  0.0355  0.1956
 3459SOL    HW122013   2.117   4.163   4.797 -0.1016  1.0615 -2.5825
 3459SOL    HW222014   2.017   4.066   4.858 -1.6302 -0.5057 -0.7236
 3460SOL     OW22015   3.033   0.416  14.952 -0.1644  0.7045 -0.4286
 3460SOL    HW122016   3.063   0.482  15.014  1.0895 -1.7011  1.5307
 3460SOL    HW222017   3.095   0.346  14.973 -0.9779  0.2257  0.3647
 3461SOL     OW22018   4.688   2.166   8.801 -0.3327 -0.0578 -0.3903
 3461SOL    HW122019   4.690   2.097   8.866  1.5038  1.6438  1.3709
 3461SOL    HW222020   0.002   2.134   8.726 -1.3443 -0.4553 -0.9004
 3462SOL     OW22021   4.440   2.379  15.180 -0.2180  0.3504 -0.4459
 3462SOL    HW122022   4.535   2.374  15.175 -0.3895 -1.7064 -1.5970
 3462SOL    HW222023   4.415   2.322  15.107  2.6891 -2.3585  0.7140
 3463SOL     OW22024   2.807   1.665   5.496  0.4573  0.2268  0.3206
 3463SOL    HW122025   2.722   1.639   5.460  0.2314 -2.7485  2.9782
 3463SOL    HW222026   2.799   1.629   5.585 -1.2649  0.8658  0.4425
 3464SOL     OW22027   2.320   4.318   5.769 -0.1307  0.1506  0.0798
 3464SOL    HW122028   2.251   4.336   5.704 -0.3842  1.4896  0.7124
 3464SOL    HW222029   2.392   4.290   5.713  1.6081  1.3157  1.7448
 3465SOL     OW22030   4.375   1.485   5.159  0.0985 -0.1704 -0.3363
 3465SOL    HW122031   4.323   1.417   5.202 -0.3586  0.9718  0.9289
 3465SOL    HW222032   4.310   1.549   5.130  0.3731 -0.4544 -1.6181
 3466SOL     OW22033   4.683   1.985   4.063  0.4197  0.5759 -0.4076
 3466SOL    HW122034   4.596   1.998   4.025 -0.7062 -2.1257  1.2174
 3466SOL    HW222035   4.660   2.026   4.146  0.9691  0.4194 -0.1748
 3467SOL     OW22036   4.424   3.462   6.712 -0.4787  0.0051 -0.0377
 3467SOL    HW122037   4.484   3.387   6.717  0.6736  0.7532 -2.5614
 3467SOL    HW222038   4.394   3.469   6.622  1.7047 -1.8256 -0.9367
 3468SOL     OW22039   3.013   3.125   4.413  0.0118 -0.1159 -0.2169
 3468SOL    HW122040   2.934   3.071   4.411  0.7705 -1.2897  1.3050
 3468SOL    HW222041   3.076   3.057   4.437 -1.2637 -1.6212 -1.1631
 3469SOL     OW22042   0.855   4.070   3.936  0.2854  0.0004  0.1726
 3469SOL    HW122043   0.799   4.146   3.951 -0.8948 -0.4366 -2.1576
 3469SOL    HW222044   0.910   4.078   4.014 -0.3240 -2.4749  0.8530
 3470SOL     OW22045   4.472   1.007   1.650  0.4025 -0.0512 -0.3057
 3470SOL    HW122046   4.456   1.009   1.745  1.0941  1.0001 -0.2096
 3470SOL    HW222047   4.404   0.948   1.617  1.9491 -2.2857  0.4514
 3471SOL     OW22048   0.072   3.099   3.430 -0.8508  0.2074  0.3017
 3471SOL    HW122049   4.715   3.093   3.413 -0.3210  0.0502 -2.5543
 3471SOL    HW222050   0.106   3.157   3.362  4.0069 -1.3376  1.4363
 3472SOL     OW22051   0.627   1.787  14.243  0.2180 -0.6209 -0.0428
 3472SOL    HW122052   0.715   1.752  14.231  0.8851  1.0677 -0.0316
 3472SOL    HW222053   0.570   1.713  14.221 -1.9560  0.7721  0.8337
 3473SOL     OW22054   3.534   0.208  14.054  0.5906 -0.1723 -0.2252
 3473SOL    HW122055   3.627   0.223  14.065  0.6667  0.1479 -1.2540
 3473SOL    HW222056   3.490   0.293  14.055  1.5556  0.3298 -0.7121
 3474SOL     OW22057   0.000   3.983   6.506 -0.1558  0.2484 -0.1749
 3474SOL    HW122058   4.737   3.924   6.431  1.7664 -0.2436  0.2068
 3474SOL    HW222059   4.643   3.983   6.524 -0.2149  1.5513 -0.5300
 3475SOL     OW22060   2.612   4.635   1.834  0.3004 -0.0951  0.2826
 3475SOL    HW122061   2.688   4.657   1.781 -1.3335  0.0294 -2.0289
 3475SOL    HW222062   2.588   4.713   1.884  0.6566 -0.2743  0.7278
 3476SOL     OW22063   1.257   0.932   7.516  0.2219  0.6516 -0.0881
 3476SOL    HW122064   1.190   0.872   7.549  0.3569  1.7095  2.0924
 3476SOL    HW222065   1.323   0.870   7.485 -0.6653  0.1850 -1.0671
 3477SOL     OW22066   4.692   2.849   6.341  0.2215 -0.0340 -0.8087
 3477SOL    HW122067   0.033   2.815   6.384 -0.3303  0.2252  0.3773
 3477SOL    HW222068   4.624   2.790   6.374  1.0072  0.3125  1.3595
 3478SOL     OW22069   0.381   1.468  12.078 -0.4734 -0.2745 -0.1768
 3478SOL    HW122070   0.450   1.420  12.032 -0.9467  0.4720 -1.6784
 3478SOL    HW222071   0.304   1.427  12.040 -1.2575 -0.2682  1.4049
 3479SOL     OW22072   2.499   1.748   4.869 -0.5325 -0.5552  0.0736
 3479SOL    HW122073   2.473   1.761   4.960 -2.6514 -0.4508 -0.5522
 3479SOL    HW222074   2.586   1.718   4.898 -0.4884  0.3166  0.8224
 3480SOL     OW22075   2.217   2.680  15.181  0.3724 -0.1169 -0.9014
 3480SOL    HW122076   2.221   2.754  15.242 -0.8679 -1.0455  0.3242
 3480SOL    HW222077   2.254   2.610  15.235  0.0810  0.1334 -0.3753
 3481SOL     OW22078   1.367   4.413   4.446  0.3377 -0.5055  0.0142
 3481SOL    HW122079   1.342   4.415   4.353  1.6541  3.3656 -0.2572
 3481SOL    HW222080   1.439   4.350   4.444  0.8479 -0.0246  2.8552
 3482SOL     OW22081   1.855   4.043   3.957 -0.5040  0.5684  0.3345
 3482SOL    HW122082   1.891   3.998   3.881  0.8011  1.7534  0.2378
 3482SOL    HW222083   1.847   3.983   4.031 -0.6615  1.2728  0.8984
 3483SOL     OW22084   0.262   2.074   2.972  0.5209 -0.1427  0.2245
 3483SOL    HW122085   0.284   2.003   2.911 -0.7420  1.1433 -1.7460
 3483SOL    HW222086   0.211   2.130   2.912 -0.7346 -4.0671 -2.3541
 3484SOL     OW22087   1.425   1.671   2.951 -0.4693 -0.1989 -0.5428
 3484SOL    HW122088   1.441   1.642   2.861  1.7150 -1.8559  0.3805
 3484SOL    HW222089   1.491   1.740   2.955 -1.0314  0.3606 -0.9120
 3485SOL     OW22090   2.083   0.862   8.951  0.0665 -0.1955  0.3155
 3485SOL    HW122091   2.087   0.905   8.865 -2.8484  0.4267  0.4986
 3485SOL    HW222092   2.074   0.940   9.006  0.2977 -0.7906  1.1927
 3486SOL     OW22093   0.124   2.762   4.273 -0.2639 -0.0633 -0.7220
 3486SOL    HW122094   0.185   2.754   4.346 -0.5113  0.4550 -0.4555
 3486SOL    HW222095   0.039   2.775   4.316  0.3120 -0.8608  0.6499
 3487SOL     OW22096   2.103   3.064   1.298 -0.5085 -0.6800 -0.5632
 3487SOL    HW122097   2.137   3.004   1.365 -0.4742  1.4804  1.3410
 3487SOL    HW222098   2.056   3.134   1.343  0.0737 -1.4168  1.2290
 3488SOL     OW22099   1.852   2.586   1.523 -0.4339 -0.7317 -0.1334
 3488SOL    HW122100   1.943   2.577   1.498  0.4701  2.8284  1.8136
 3488SOL    HW222101   1.870   2.671   1.564  2.3134 -0.0992 -2.7183
 3489SOL     OW22102   0.661   0.571   7.369 -0.3638  0.3409  0.2773
 3489SOL    HW122103   0.655   0.569   7.274 -0.9605 -1.5772  0.3431
 3489SOL    HW222104   0.729   0.508   7.392 -0.1161  0.8550  0.9757
 3490SOL     OW22105   4.641   4.537   7.094  0.3737 -0.3356  0.1681
 3490SOL    HW122106   4.669   4.625   7.069 -1.7116  0.6759  1.3983
 3490SOL    HW222107   4.589   4.561   7.171 -1.8600  2.7229 -2.3058
 3491SOL     OW22108   0.892   0.649  10.026 -0.1495  0.4435  0.4337
 3491SOL    HW122109   0.834   0.689   9.962  0.0332  2.1310  1.3379
 3491SOL    HW222110   0.838   0.626  10.101  2.0447 -1.8109  1.3400
 3492SOL     OW22111   1.792   2.493   9.737  0.3897 -0.0978 -0.3636
 3492SOL    HW122112   1.880   2.519   9.710  0.6094  0.5090  0.9453
 3492SOL    HW222113   1.794   2.517   9.830  3.1903  0.7651 -0.6620
 3493SOL     OW22114   0.037   2.465   3.435 -0.4855  0.0858  0.6882
 3493SOL    HW122115   4.683   2.444   3.456 -0.3773 -2.0878 -1.0216
 3493SOL    HW222116   0.066   2.398   3.373 -2.1278  0.5757 -0.5903
 3494SOL     OW22117   0.232   3.683   1.581 -0.2819  0.1201 -0.1770
 3494SOL    HW122118   0.219   3.777   1.595 -0.3433  0.1767 -0.5876
 3494SOL    HW222119   0.160   3.652   1.635  0.5374 -1.3095  0.0777
 3495SOL     OW22120   2.571   0.682   6.167  0.0662 -0.2557 -0.0319
 3495SOL    HW122121   2.652   0.723   6.196 -1.4730  1.7424  1.4306
 3495SOL    HW222122   2.516   0.760   6.157  0.0441 -0.4681 -1.6075
 3496SOL     OW22123   0.223   0.494   8.249 -0.5093 -0.4553  0.0707
 3496SOL    HW122124   0.187   0.431   8.312 -1.5035 -1.4518 -1.4799
 3496SOL    HW222125   0.238   0.572   8.303  0.5665  0.8602 -2.1434
 3497SOL     OW22126   4.029   4.238   7.753 -0.3527 -0.2908 -0.0374
 3497SOL    HW122127   4.003   4.158   7.707  0.4756 -1.2363  1.1164
 3497SOL    HW222128   4.029   4.294   7.676  0.0836 -0.1088  0.0915
 3498SOL     OW22129   0.850   3.061  10.216  0.2085  0.3106  0.1567
 3498SOL    HW122130   0.794   3.056  10.139 -0.6716 -2.9379  0.9746
 3498SOL    HW222131   0.820   2.986  10.268  1.5941  0.2819  0.9038
 3499SOL     OW22132   0.909   2.490  13.989 -0.6280  0.2016  0.2250
 3499SOL    HW122133   0.815   2.497  13.979 -0.7826 -1.8029  0.3158
 3499SOL    HW222134   0.934   2.576  13.955 -0.6209 -0.0484 -0.3995
 3500SOL     OW22135   4.585   1.621   5.827  0.3418  0.3397 -0.0173
 3500SOL    HW122136   4.578   1.552   5.892  3.3715 -0.6931 -0.8001
 3500SOL    HW222137   4.576   1.573   5.745 -0.0381  1.7969 -0.8266
 3501SOL     OW22138   3.127   4.267  11.253 -0.1532  0.1521 -0.3053
 3501SOL    HW122139   3.077   4.254  11.173  0.4407 -1.4053 -0.4154
 3501SOL    HW222140   3.097   4.199  11.313 -2.2865  1.2335 -0.1524
 3502SOL     OW22141   1.594   3.630   9.254 -0.1894  0.2828 -0.4986
 3502SOL    HW122142   1.595   3.598   9.164  2.0766 -1.6455  0.2346
 3502SOL    HW222143   1.624   3.721   9.250  0.6586 -0.0097 -0.6982
 3503SOL     OW22144   3.851   1.832  17.741  0.1242 -0.5348  0.0512
 3503SOL    HW122145   3.822   1.750   0.034  1.1856 -0.0551  1.8267
 3503SOL    HW222146   3.768   1.881  17.736 -0.0721 -1.0250 -1.7379
 3504SOL     OW22147   1.589   1.053   1.948  0.5467  0.0667 -0.2667
 3504SOL    HW122148   1.592   1.074   1.854  0.9122  1.5297  0.0648
 3504SOL    HW222149   1.502   1.092   1.961  1.2762  0.7790  2.4896
 3505SOL     OW22150   1.347   1.976  11.849  0.5769  0.1539 -0.1162
 3505SOL    HW122151   1.293   2.044  11.889  1.2576  0.2316  0.6755
 3505SOL    HW222152   1.289   1.904  11.870 -0.2606  1.1618  1.0068
 3506SOL     OW22153   3.830   2.392   2.383  0.2148  0.4142  0.2423
 3506SOL    HW122154   3.750   2.405   2.332  0.1235  0.5037  0.4078
 3506SOL    HW222155   3.893   2.412   2.314  0.6978 -1.3822  0.1570
 3507SOL     OW22156   1.939   2.193  13.906 -0.2070  0.5891  0.1000
 3507SOL    HW122157   2.001   2.219  13.838 -1.4469 -1.3714 -1.7799
 3507SOL    HW222158   1.905   2.112  13.868  0.4064  0.4900 -0.2283
 3508SOL     OW22159   1.478   3.507  12.566  0.1838 -0.3081 -0.6407
 3508SOL    HW122160   1.390   3.491  12.601  0.5922 -0.7034  0.2102
 3508SOL    HW222161   1.527   3.447  12.621 -0.6582  0.7268  1.2299
 3509SOL     OW22162   3.524   3.424  15.320  0.0248  0.3991 -0.0601
 3509SOL    HW122163   3.467   3.500  15.334 -0.9234 -0.2251 -0.5429
 3509SOL    HW222164   3.604   3.463  15.285  0.3858  1.4541  1.9416
 3510SOL     OW22165   3.967   2.628   9.429 -0.3167 -0.4090 -0.2358
 3510SOL    HW122166   3.949   2.661   9.517 -1.6128  0.6572 -0.9011
 3510SOL    HW222167   4.063   2.628   9.425 -0.3269 -0.7198 -0.4891
 3511SOL     OW22168   3.740   1.287  13.029  0.0250 -0.2200 -0.2027
 3511SOL    HW122169   3.804   1.351  12.997 -0.1236  0.6927  1.3035
 3511SOL    HW222170   3.708   1.344  13.099  1.6771  0.2001  0.2010
 3512SOL     OW22171   2.848   3.291   4.521 -0.1421 -0.7555  0.0320
 3512SOL    HW122172   2.936   3.263   4.497 -0.0345 -0.2014 -0.2187
 3512SOL    HW222173   2.807   3.292   4.434 -2.4071  1.2861  1.1200
 3513SOL     OW22174   0.705   0.567   3.480  0.1514 -0.7254 -0.2847
 3513SOL    HW122175   0.680   0.479   3.450  1.0792 -1.4181  1.0252
 3513SOL    HW222176   0.778   0.581   3.420  1.1401 -0.8518  0.9167
 3514SOL     OW22177   2.025   0.822   7.514 -0.1473  0.6999  0.1820
 3514SOL    HW122178   1.983   0.825   7.428 -0.6948 -0.1350  0.4160
 3514SOL    HW222179   2.069   0.738   7.522 -0.1308  0.7054  0.1476
 3515SOL     OW22180   4.233   0.720   6.904 -0.0974  0.6870 -0.2451
 3515SOL    HW122181   4.307   0.774   6.874 -0.5040  1.6640  0.5020
 3515SOL    HW222182   4.174   0.777   6.954  0.4700  0.2969  0.8578
 3516SOL     OW22183   3.048   1.348   2.872 -0.3260 -0.0364 -0.3398
 3516SOL    HW122184   3.122   1.292   2.851 -2.1178 -2.3964 -0.3433
 3516SOL    HW222185   3.054   1.359   2.967 -2.5669 -0.5859 -0.1326
 3517SOL     OW22186   3.561   2.202   1.472 -0.3610  0.2055 -0.6495
 3517SOL    HW122187   3.508   2.123   1.470  1.2379 -0.9279  1.2729
 3517SOL    HW222188   3.533   2.244   1.554 -2.5957 -1.6310 -0.4670
 3518SOL     OW22189   0.512   2.831  12.014 -0.2941 -0.1832 -0.4115
 3518SOL    HW122190   0.566   2.822  12.093 -0.0320 -1.0417 -0.6836
 3518SOL    HW222191   0.516   2.741  11.981  0.8457 -1.0249  1.9869
 3519SOL     OW22192   1.510   4.452   2.090  0.4642 -0.6667  0.3471
 3519SOL    HW122193   1.494   4.360   2.110 -1.8640  0.1031  2.1146
 3519SOL    HW222194   1.492   4.454   1.996  0.4488  1.0474  0.3752
 3520SOL     OW22195   0.556   2.126   6.885  0.3155 -0.1570  0.1084
 3520SOL    HW122196   0.516   2.044   6.858  0.7268  0.4884 -2.4277
 3520SOL    HW222197   0.575   2.106   6.977 -0.7227  2.7218  0.9520
 3521SOL     OW22198   2.985   0.836   9.962  0.6224 -0.6414 -0.4042
 3521SOL    HW122199   3.036   0.796  10.032 -0.8631 -4.8911 -1.7101
 3521SOL    HW222200   2.985   0.761   9.901  0.1276 -0.0138 -1.1834
 3522SOL     OW22201   0.107   3.553  13.316 -0.3534  0.0722 -0.3929
 3522SOL    HW122202   0.182   3.612  13.307 -0.2743  0.3094  1.8024
 3522SOL    HW222203   0.150   3.468  13.309 -1.6987 -0.5832 -0.7798
 3523SOL     OW22204   4.348   2.650   3.146  0.1035 -0.5326  0.1372
 3523SOL    HW122205   4.352   2.621   3.238 -2.3478  0.0817  0.4431
 3523SOL    HW222206   4.435   2.679   3.117 -0.7998 -0.2065 -2.1599
 3524SOL     OW22207   0.465   3.861   4.888  0.3165 -0.2535  0.7437
 3524SOL    HW122208   0.555   3.846   4.914  0.3781 -1.2781 -0.0652
 3524SOL    HW222209   0.467   3.861   4.793 -0.9592  1.9813  0.7142
 3525SOL     OW22210   4.391   2.062   6.030  0.7855 -0.2116 -0.6868
 3525SOL    HW122211   4.327   2.036   5.963 -0.8517  1.4559  0.2043
 3525SOL    HW222212   4.419   1.978   6.066 -0.7170 -0.8005 -0.8787
 3526SOL     OW22213   2.044   3.629   2.907  0.0758  0.3511 -0.0630
 3526SOL    HW122214   2.064   3.659   2.995 -0.3914  1.4263 -0.3199
 3526SOL    HW222215   1.998   3.547   2.926 -1.6027  1.2666 -0.1787
 3527SOL     OW22216   1.811   2.210   8.367 -0.1158 -0.1577  0.0546
 3527SOL    HW122217   1.772   2.255   8.442  2.0690  1.6806  0.0745
 3527SOL    HW222218   1.890   2.258   8.344 -0.8065  0.7250 -0.4931
 3528SOL     OW22219   1.790   4.087   9.419 -0.2842  0.4914  0.1218
 3528SOL    HW122220   1.812   4.122   9.333  2.3516  0.5369  0.8186
 3528SOL    HW222221   1.762   4.165   9.466 -1.2439 -0.4806  1.1681
 3529SOL     OW22222   2.297   0.649   0.620 -0.3920 -0.6368 -0.0106
 3529SOL    HW122223   2.215   0.687   0.649  0.9056  1.2086  1.2230
 3529SOL    HW222224   2.299   0.662   0.525  0.0888  0.0021  0.0870
 3530SOL     OW22225   1.996   0.060   0.365  0.1669  0.0437  0.3103
 3530SOL    HW122226   1.959   4.723   0.413 -1.1181 -0.4138 -1.3969
 3530SOL    HW222227   1.949   0.060   0.281 -1.8146  0.1332  1.4134
 3531SOL     OW22228   2.949   0.896   1.796 -0.5524  0.0299  0.1403
 3531SOL    HW122229   2.943   0.829   1.863  1.0977 -0.2918 -0.0332
 3531SOL    HW222230   2.983   0.843   1.724  0.2543 -0.6465  1.0337
 3532SOL     OW22231   2.152   0.192   2.465  0.0737 -0.2473  0.1302
 3532SOL    HW122232   2.211   0.260   2.496  0.0708 -0.7329  1.2178
 3532SOL    HW222233   2.084   0.199   2.532  0.9287 -0.4002  1.0278
 3533SOL     OW22234   0.265   4.374   3.422  0.8582  0.0062 -0.3137
 3533SOL    HW122235   0.228   4.444   3.369 -1.8029 -0.8467  0.3926
 3533SOL    HW222236   0.238   4.299   3.368  0.2160  1.4597 -2.0203
 3534SOL     OW22237   1.062   2.164   7.203  0.1411  0.0473  0.0063
 3534SOL    HW122238   1.083   2.089   7.258 -0.2218 -0.4371 -0.5106
 3534SOL    HW222239   1.121   2.224   7.247 -1.0901  0.9721  0.3872
 3535SOL     OW22240   1.541   0.616   2.005 -0.3269 -0.0851 -0.3395
 3535SOL    HW122241   1.582   0.685   2.057  0.7233 -0.6702 -0.4012
 3535SOL    HW222242   1.548   0.661   1.920  0.6519  2.0509  0.8694
 3536SOL     OW22243   3.572   1.239   4.925 -0.5409  0.3566  0.1687
 3536SOL    HW122244   3.624   1.161   4.945 -0.9170  0.0292 -0.1377
 3536SOL    HW222245   3.483   1.206   4.920 -0.3911  0.1679 -1.3842
 3537SOL     OW22246   3.290   0.284   0.660  0.5433  0.4061 -0.4594
 3537SOL    HW122247   3.344   0.267   0.737 -2.4248 -0.6175  1.4099
 3537SOL    HW222248   3.336   0.362   0.629  0.1833  0.9926  0.4981
 3538SOL     OW22249   2.044   1.076   4.861 -0.1885  0.4216  0.2006
 3538SOL    HW122250   2.044   1.088   4.956 -1.9596  0.8352  0.1632
 3538SOL    HW222251   2.122   1.123   4.832  0.8871 -1.2099  0.4766
 3539SOL     OW22252   2.657   4.409   5.110 -0.2930 -0.3152  0.4308
 3539SOL    HW122253   2.660   4.314   5.114 -1.5254 -0.3748 -0.1402
 3539SOL    HW222254   2.720   4.427   5.179 -0.2014 -0.1345  0.3017
 3540SOL     OW22255   1.784   0.291  11.121 -0.2128 -0.0772 -0.3638
 3540SOL    HW122256   1.752   0.381  11.121 -0.2415 -0.0870 -0.5177
 3540SOL    HW222257   1.875   0.316  11.138 -1.0154  2.0149  0.8523
 3541SOL     OW22258   2.721   1.462  13.961  0.4389 -0.3055 -0.1760
 3541SOL    HW122259   2.686   1.394  13.905 -0.1295 -0.2410  0.1001
 3541SOL    HW222260   2.765   1.518  13.897  2.2451 -1.3562  0.1450
 3542SOL     OW22261   2.865   0.301   7.159 -0.3035  0.1222 -0.3034
 3542SOL    HW122262   2.786   0.256   7.189  0.6901  0.4874  2.8609
 3542SOL    HW222263   2.890   0.345   7.240  2.3015  0.6646 -1.3800
 3543SOL     OW22264   4.730   0.751  12.347  0.0804 -0.5744  0.5737
 3543SOL    HW122265   4.709   0.781  12.435 -0.8813 -1.0429  0.5143
 3543SOL    HW222266   4.720   0.656  12.356  2.1361 -0.5700  2.8393
 3544SOL     OW22267   3.067   1.548   7.350  0.2252 -0.0732 -0.2150
 3544SOL    HW122268   3.148   1.589   7.319 -0.3957  1.0458 -0.3634
 3544SOL    HW222269   3.069   1.563   7.444  1.0952  1.5816 -0.4996
 3545SOL     OW22270   0.910   1.416  10.207  0.1916 -0.4450  0.3204
 3545SOL    HW122271   0.840   1.350  10.209  0.5148 -0.7708  0.8659
 3545SOL    HW222272   0.989   1.364  10.196 -0.5177 -0.5818 -4.0522
 3546SOL     OW22273   3.760   1.344  16.392 -0.1048  0.4934 -0.1255
 3546SOL    HW122274   3.811   1.354  16.312  1.4300 -2.0386  0.5148
 3546SOL    HW222275   3.813   1.405  16.443  1.7777  0.3391 -1.9080
 3547SOL     OW22276   0.562   1.269   6.206  0.7844  0.3199 -0.0844
 3547SOL    HW122277   0.509   1.314   6.272 -0.9297 -0.2033 -1.0852
 3547SOL    HW222278   0.510   1.294   6.129 -0.0506 -0.4324  0.2241
 3548SOL     OW22279   2.546   0.309   5.454 -0.3590 -0.4912 -0.7580
 3548SOL    HW122280   2.556   0.311   5.549  1.2667 -2.8745 -0.8692
 3548SOL    HW222281   2.602   0.384   5.435 -0.4105  0.0112  1.0925
 3549SOL     OW22282   3.428   0.032   2.579 -0.2657 -0.1489 -0.0336
 3549SOL    HW122283   3.482   4.701   2.540 -0.6019  0.2275 -1.1438
 3549SOL    HW222284   3.415   4.727   2.664  4.8218 -4.7940 -1.5551
 3550SOL     OW22285   4.152   4.231   3.983 -0.0547 -0.5715  0.4734
 3550SOL    HW122286   4.131   4.150   3.937  0.7475  0.3243 -1.4505
 3550SOL    HW222287   4.071   4.280   3.970 -1.5641 -2.8791  1.1306
 3551SOL     OW22288   0.581   0.678   6.761 -0.0247 -0.3586 -0.2899
 3551SOL    HW122289   0.598   0.747   6.697 -0.8479 -1.0317 -1.2371
 3551SOL    HW222290   0.641   0.707   6.830 -0.4990  1.4530 -0.6682
 3552SOL     OW22291   4.291   2.327   1.846 -0.3319  0.2070  0.1133
 3552SOL    HW122292   4.206   2.350   1.884  1.5285  4.5046  1.6589
 3552SOL    HW222293   4.281   2.242   1.803  0.0056  0.0054  0.4240
 3553SOL     OW22294   2.799   4.667   1.619 -0.1842  0.0005  0.6311
 3553SOL    HW122295   2.719   4.713   1.594 -0.0852 -0.5513 -0.7203
 3553SOL    HW222296   2.871   4.727   1.600  0.6570 -0.8916  0.9963
 3554SOL     OW22297   3.819   1.107   8.133  0.0526  0.4301  0.1677
 3554SOL    HW122298   3.848   1.052   8.206 -0.0663 -1.2644 -1.0499
 3554SOL    HW222299   3.764   1.050   8.079  2.1685 -0.7089 -0.8141
 3555SOL     OW22300   3.562   3.907   8.703  0.4591  0.0867  0.3288
 3555SOL    HW122301   3.480   3.917   8.752 -1.3232  0.2846 -2.6569
 3555SOL    HW222302   3.549   3.827   8.653  0.6939  0.7255 -0.7534
 3556SOL     OW22303   2.585   0.924   5.203  0.1953 -0.3481 -0.4439
 3556SOL    HW122304   2.671   0.885   5.214 -0.5887 -1.7133  0.8733
 3556SOL    HW222305   2.535   0.866   5.261 -1.2482 -0.3183 -1.6500
 3557SOL     OW22306   1.813   0.259   3.941  0.0402  0.5546  0.0991
 3557SOL    HW122307   1.796   0.285   3.850  0.5502 -0.2544 -0.2260
 3557SOL    HW222308   1.734   0.215   3.971  0.5036 -1.0212 -1.0279
 3558SOL     OW22309   4.509   0.688   6.043  0.0936  0.0607  0.1316
 3558SOL    HW122310   4.457   0.672   5.964 -1.8822  1.7128  1.0998
 3558SOL    HW222311   4.522   0.782   6.036 -1.1833  0.2719  0.4490
 3559SOL     OW22312   0.364   0.001  16.019  0.0578 -0.0237 -0.0245
 3559SOL    HW122313   0.456   0.020  15.997 -0.5637  1.9795 -0.8992
 3559SOL    HW222314   0.370   0.009  16.114  0.4935 -0.6502 -0.0027
 3560SOL     OW22315   1.839   3.957  12.054  0.2919 -0.0031  0.1577
 3560SOL    HW122316   1.801   3.901  12.122 -0.3202  0.0480 -0.1468
 3560SOL    HW222317   1.924   3.913  12.049 -0.4133 -1.1445 -1.8341
 3561SOL     OW22318   3.071   1.472   5.052  0.5287 -0.1776 -0.0234
 3561SOL    HW122319   3.060   1.498   5.143  2.1950  0.5460 -0.0400
 3561SOL    HW222320   3.009   1.400   5.047 -1.5149  1.4986  1.2842
 3562SOL     OW22321   1.824   4.075   2.233  0.1292  0.4710 -0.1591
 3562SOL    HW122322   1.731   4.088   2.253 -0.4669 -1.4561 -1.6693
 3562SOL    HW222323   1.865   4.029   2.307 -0.2776 -0.1330 -0.3085
 3563SOL     OW22324   1.103   0.388   2.432  0.0198  0.7803 -0.1832
 3563SOL    HW122325   1.143   0.302   2.417  0.3410  0.9872 -0.4872
 3563SOL    HW222326   1.165   0.449   2.393  1.0251 -0.0102  0.1783
 3564SOL     OW22327   3.730   3.148   4.644 -0.4332  0.8881 -0.4867
 3564SOL    HW122328   3.761   3.093   4.573 -1.9918  1.0098 -1.2729
 3564SOL    HW222329   3.796   3.216   4.636  0.2892  0.2520  0.0951
 3565SOL     OW22330   3.295   1.333   4.970  0.4096 -0.4076 -0.2322
 3565SOL    HW122331   3.368   1.353   5.029 -1.1827  2.8130  0.6712
 3565SOL    HW222332   3.235   1.398   5.007 -0.6170 -1.8408  0.5643
 3566SOL     OW22333   1.329   4.650   8.390 -0.1651 -0.3562 -0.3290
 3566SOL    HW122334   1.414   4.641   8.348  2.1386  1.9653  3.9033
 3566SOL    HW222335   1.272   4.596   8.335  0.2546 -2.1048  0.9461
 3567SOL     OW22336   1.021   1.186   3.104 -0.1785 -0.3776 -0.3693
 3567SOL    HW122337   0.969   1.188   3.024 -0.5215 -1.2172 -0.1645
 3567SOL    HW222338   0.953   1.196   3.170 -1.2044 -1.8898 -1.2110
 3568SOL     OW22339   4.249   4.718   3.566  0.7399  0.2417  0.8383
 3568SOL    HW122340   4.326   0.038   3.572  0.2005  1.0918 -0.2526
 3568SOL    HW222341   4.203   4.718   3.650  1.8604  0.1033  1.4519
 3569SOL     OW22342   1.296   3.991   7.316  0.8669 -0.1387  0.1642
 3569SOL    HW122343   1.377   4.036   7.291  0.6468 -0.3484 -0.9069
 3569SOL    HW222344   1.281   4.013   7.408 -0.3563 -0.8119  0.1202
 3570SOL     OW22345   0.834   3.116  17.544  0.2101  0.1322  0.4170
 3570SOL    HW122346   0.893   3.106  17.618  2.1906 -0.4283 -1.2479
 3570SOL    HW222347   0.799   3.029  17.557 -0.0559  0.0712 -0.7272
 3571SOL     OW22348   4.320   0.747   1.556 -0.0450 -0.6426  0.8439
 3571SOL    HW122349   4.246   0.746   1.617 -0.0826  0.4396  0.8227
 3571SOL    HW222350   4.293   0.807   1.487  2.1921 -0.4042  0.1631
 3572SOL     OW22351   0.667   1.951   6.617 -0.9702  0.3089 -0.0872
 3572SOL    HW122352   0.747   1.955   6.670 -1.6468  0.4324  0.9085
 3572SOL    HW222353   0.596   1.928   6.677  0.6651  0.0860  1.7516
 3573SOL     OW22354   3.251   1.937   3.726  0.0709 -0.7843 -0.1047
 3573SOL    HW122355   3.229   1.924   3.818  1.4552 -0.1555  0.3130
 3573SOL    HW222356   3.171   1.981   3.696  0.4498  0.6539  1.0051
 3574SOL     OW22357   1.079   4.156  15.648  0.4937  0.5986  0.1024
 3574SOL    HW122358   1.174   4.160  15.649  0.5494 -0.8356  1.4373
 3574SOL    HW222359   1.053   4.126  15.735 -0.4189  3.5495  0.8375
 3575SOL     OW22360   1.283   1.800   2.277  0.2779  0.1943  0.2822
 3575SOL    HW122361   1.282   1.810   2.181  1.4154  0.6221  0.3145
 3575SOL    HW222362   1.340   1.870   2.309 -1.9998  2.0320  0.3395
 3576SOL     OW22363   1.634   0.987   9.721  0.1674  0.3119  0.4375
 3576SOL    HW122364   1.621   0.954   9.632  0.8760  0.2668  0.3486
 3576SOL    HW222365   1.721   1.026   9.715  1.4334 -2.4915  0.4030
 3577SOL     OW22366   4.402   0.296   2.151  0.9802 -0.0924  0.4827
 3577SOL    HW122367   4.494   0.269   2.155 -0.0277 -3.6643 -0.3966
 3577SOL    HW222368   4.387   0.325   2.241 -1.9441  0.2870 -0.1140
 3578SOL     OW22369   0.058   4.386   6.699  0.5282 -0.6410 -0.2577
 3578SOL    HW122370   4.707   4.364   6.730  1.2997 -1.9639  0.9749
 3578SOL    HW222371   0.103   4.373   6.783 -0.9899 -1.1294  0.4783
 3579SOL     OW22372   4.307   3.080   3.386  0.3252  0.4738  0.0153
 3579SOL    HW122373   4.250   3.074   3.462  2.1735 -3.2750  1.0997
 3579SOL    HW222374   4.244   3.093   3.315  0.1484  1.1313  0.2902
 3580SOL     OW22375   0.589   3.568   7.905 -0.1202  0.8303 -0.5096
 3580SOL    HW122376   0.578   3.610   7.819  0.4275  0.2182 -0.8830
 3580SOL    HW222377   0.520   3.502   7.901  0.8348 -0.1731 -0.4486
 3581SOL     OW22378   1.311   2.987   5.754  0.1457  0.3653 -0.0903
 3581SOL    HW122379   1.369   3.063   5.746 -0.7613  1.0280 -0.4967
 3581SOL    HW222380   1.227   3.033   5.745  0.9355  1.7041 -0.7356
 3582SOL     OW22381   2.740   0.687   2.273  0.0013  0.3461 -0.7131
 3582SOL    HW122382   2.694   0.604   2.284 -2.3232  1.5521 -1.3600
 3582SOL    HW222383   2.670   0.750   2.256  1.2017  0.9825 -3.2546
 3583SOL     OW22384   4.628   4.553   3.354  0.0995 -0.2501 -0.1027
 3583SOL    HW122385   4.645   4.460   3.368 -0.4065 -0.6835 -2.3903
 3583SOL    HW222386   4.651   4.599   3.435 -0.4787  2.6965 -1.6092
 3584SOL     OW22387   3.124   2.876   9.739 -0.5150  0.1063 -0.2677
 3584SOL    HW122388   3.097   2.927   9.815 -2.8520 -2.8451  0.8807
 3584SOL    HW222389   3.210   2.846   9.769 -0.2071  0.0424 -1.2145
 3585SOL     OW22390   0.122   4.202   6.473 -0.1122 -0.0139 -0.0540
 3585SOL    HW122391   0.089   4.255   6.546 -1.0622 -1.3421  0.4779
 3585SOL    HW222392   0.070   4.122   6.483 -1.2553  1.0644  2.5040
 3586SOL     OW22393   1.821   3.863   8.999 -0.4542  0.5769 -0.1993
 3586SOL    HW122394   1.758   3.874   9.070 -1.9833 -1.8682 -1.1692
 3586SOL    HW222395   1.793   3.781   8.958 -0.8170  1.3350 -1.4954
 3587SOL     OW22396   2.855   4.436   1.443  0.5175  0.0895 -0.2514
 3587SOL    HW122397   2.829   4.517   1.487  0.0963 -0.4617  0.5013
 3587SOL    HW222398   2.947   4.432   1.469  0.1731 -1.2757  0.7064
 3588SOL     OW22399   3.676   2.167   3.583 -0.4558  0.6925 -0.3243
 3588SOL    HW122400   3.703   2.199   3.497 -1.0381  1.0373 -0.3852
 3588SOL    HW222401   3.672   2.239   3.646 -0.5214  0.7088 -0.3465
 3589SOL     OW22402   0.176   3.478   5.204  0.3089  0.3545  0.0587
 3589SOL    HW122403   0.247   3.498   5.266 -0.1389  1.6385  0.1532
 3589SOL    HW222404   0.106   3.452   5.263 -0.0488  0.7498 -0.1949
 3590SOL     OW22405   0.912   0.431   8.445 -0.3117 -0.1310  0.1286
 3590SOL    HW122406   0.955   0.505   8.489  0.6154 -1.6430  1.7877
 3590SOL    HW222407   0.889   0.372   8.517  1.3320 -0.0416  0.7108
 3591SOL     OW22408   3.551   2.107  13.650  0.1146 -0.2021  0.1015
 3591SOL    HW122409   3.508   2.189  13.673  0.9132  0.1289  0.4112
 3591SOL    HW222410   3.594   2.133  13.569  1.4551 -1.5621  0.3784
 3592SOL     OW22411   2.747   1.811  14.701 -0.1413  0.4117 -0.2502
 3592SOL    HW122412   2.678   1.757  14.662 -2.6096  2.3119  1.4973
 3592SOL    HW222413   2.816   1.746  14.714 -0.3247  0.0741 -0.9469
 3593SOL     OW22414   1.335   3.937   9.407  0.8242  0.0765 -0.3841
 3593SOL    HW122415   1.273   3.953   9.337  0.3488  1.5478  0.3865
 3593SOL    HW222416   1.377   4.021   9.424  2.4894 -0.6303 -0.9494
 3594SOL     OW22417   3.387   4.088   9.628  0.5645 -0.3960  0.4338
 3594SOL    HW122418   3.483   4.081   9.626  0.7095  2.2854 -3.6867
 3594SOL    HW222419   3.384   4.177   9.663 -0.4944 -0.0843 -0.4531
 3595SOL     OW22420   0.119   2.942   5.153  0.6840  0.6354  0.0253
 3595SOL    HW122421   0.190   3.006   5.161  1.9879 -0.6530 -1.1813
 3595SOL    HW222422   0.108   2.880   5.225  2.2051  0.3917  0.0408
 3596SOL     OW22423   1.851   0.983  12.243  0.7908  0.2684  0.1101
 3596SOL    HW122424   1.888   1.072  12.237  0.7235  0.4891  2.9111
 3596SOL    HW222425   1.759   0.997  12.218  0.4850  0.6126  1.4068
 3597SOL     OW22426   1.710   1.086  17.218  0.2219  0.3350 -0.1517
 3597SOL    HW122427   1.633   1.079  17.161  0.9570 -2.2818 -0.8300
 3597SOL    HW222428   1.722   0.994  17.240 -1.3155  0.3743  0.8757
 3598SOL     OW22429   2.590   1.634   5.758  0.1668 -0.4438 -0.2008
 3598SOL    HW122430   2.663   1.573   5.747  0.3521 -0.2791  0.1364
 3598SOL    HW222431   2.512   1.577   5.762 -0.3854  0.3702  0.5556
 3599SOL     OW22432   0.857   3.370   1.101  0.1558  0.4382 -0.7434
 3599SOL    HW122433   0.827   3.446   1.051  1.3489 -0.9149 -3.5050
 3599SOL    HW222434   0.849   3.302   1.035 -0.8574  1.1144 -1.3191
 3600SOL     OW22435   3.883   3.855   0.719 -0.1112 -0.2539 -0.4990
 3600SOL    HW122436   3.903   3.913   0.645  1.0736 -0.3242 -0.2309
 3600SOL    HW222437   3.887   3.767   0.682  1.9832  0.1184 -1.1414
 3601SOL     OW22438   0.172   2.342   2.320 -0.2058 -0.3406  0.5399
 3601SOL    HW122439   0.262   2.314   2.338  0.7647  0.7591 -2.6627
 3601SOL    HW222440   0.191   2.370   2.231  1.4333 -0.8461  0.7245
 3602SOL     OW22441   2.080   0.809   6.734 -0.3487  0.4592 -0.8049
 3602SOL    HW122442   2.150   0.775   6.677 -1.4831  0.4239 -2.1792
 3602SOL    HW222443   1.998   0.783   6.691  0.2404  0.3865 -1.8724
 3603SOL     OW22444   2.728   3.494  15.800  0.8339  0.4531  0.1206
 3603SOL    HW122445   2.767   3.573  15.838 -2.9767  0.9707  2.9241
 3603SOL    HW222446   2.702   3.531  15.716  1.5460 -0.3651 -0.4566
 3604SOL     OW22447   3.893   2.660  16.778  0.3281  0.0871 -0.0431
 3604SOL    HW122448   3.850   2.598  16.718  1.8932 -1.2106  0.1577
 3604SOL    HW222449   3.965   2.690  16.722  1.7970 -4.1260 -0.4735
 3605SOL     OW22450   3.295   0.962   3.394 -0.3163  0.0225  0.5511
 3605SOL    HW122451   3.309   0.914   3.312 -3.4021  1.3810 -0.8088
 3605SOL    HW222452   3.381   0.986   3.428  0.4251 -1.5819 -0.2220
 3606SOL     OW22453   0.702   1.551   4.966 -0.0619  0.4141 -0.5077
 3606SOL    HW122454   0.692   1.603   5.046 -0.7102  0.3578 -0.5569
 3606SOL    HW222455   0.636   1.594   4.911 -0.0825 -0.5730 -1.2379
 3607SOL     OW22456   3.555   3.128   5.336 -0.6525 -0.4067 -0.2622
 3607SOL    HW122457   3.535   3.213   5.296  2.4808  1.7893  2.7482
 3607SOL    HW222458   3.630   3.108   5.280  0.4604 -1.7892  1.7085
 3608SOL     OW22459   1.445   3.153   1.624 -0.6390 -0.8981 -0.0530
 3608SOL    HW122460   1.387   3.135   1.550 -0.2254  0.5809 -0.7164
 3608SOL    HW222461   1.527   3.183   1.586 -1.1834  1.1638  0.4498
 3609SOL     OW22462   1.887   1.261   8.333  0.1378 -0.0611 -0.2154
 3609SOL    HW122463   1.940   1.236   8.410 -0.4923 -1.8147 -0.3611
 3609SOL    HW222464   1.915   1.352   8.329  1.1551 -0.3429  0.3861
 3610SOL     OW22465   1.366   0.049   2.156 -0.5550 -0.1257  0.3679
 3610SOL    HW122466   1.398   4.700   2.129  1.4430  0.4762  0.8113
 3610SOL    HW222467   1.344   0.073   2.066 -0.2269 -1.0524  0.0415
 3611SOL     OW22468   3.781   0.613   4.021 -0.2957  0.0034 -0.2193
 3611SOL    HW122469   3.778   0.527   3.978 -0.5046  0.0247 -0.2437
 3611SOL    HW222470   3.688   0.626   4.035 -0.5685 -2.8062  0.5321
 3612SOL     OW22471   0.173   2.920   6.507  0.1011 -0.2822  0.0012
 3612SOL    HW122472   0.108   2.935   6.575 -2.7416 -2.8064 -2.1636
 3612SOL    HW222473   0.219   3.004   6.510  0.2712 -0.3756  0.0536
 3613SOL     OW22474   3.728   2.024   7.352  0.1145 -0.1328 -0.1520
 3613SOL    HW122475   3.772   2.088   7.407  1.4281  0.4228 -1.8511
 3613SOL    HW222476   3.796   2.000   7.289 -0.9176  0.5250 -1.5228
 3614SOL     OW22477   0.403   2.224   9.456  0.3695 -0.0906 -0.3849
 3614SOL    HW122478   0.436   2.212   9.545 -0.9037  0.5137  0.1597
 3614SOL    HW222479   0.401   2.319   9.453 -1.7141 -0.1094  0.6858
 3615SOL     OW22480   3.449   2.313  11.678  0.1884  0.1929 -0.1057
 3615SOL    HW122481   3.524   2.335  11.734 -0.1106 -0.0895  0.4059
 3615SOL    HW222482   3.377   2.355  11.725  2.5385  2.9425  1.1021
 3616SOL     OW22483   1.541   0.597  10.796  0.2796  0.2031 -0.6244
 3616SOL    HW122484   1.477   0.620  10.863  0.2458 -1.5756 -0.0202
 3616SOL    HW222485   1.542   0.665  10.729  0.6680  0.8653  0.0519
 3617SOL     OW22486   1.670   2.261   0.877  0.0702  0.1635 -0.4765
 3617SOL    HW122487   1.610   2.275   0.950 -0.7155 -0.8831 -0.9103
 3617SOL    HW222488   1.615   2.209   0.817 -0.9421  1.1068 -0.3677
 3618SOL     OW22489   0.490   1.328   4.584  0.1635  0.0392 -0.3345
 3618SOL    HW122490   0.426   1.289   4.644  0.1169  1.2840  0.4200
 3618SOL    HW222491   0.510   1.415   4.618  0.1120  0.0816 -0.4106
 3619SOL     OW22492   3.549   0.626   5.430 -0.7418 -0.0631 -0.2903
 3619SOL    HW122493   3.507   0.580   5.358  0.1482 -0.8366 -0.3103
 3619SOL    HW222494   3.481   0.621   5.497 -0.5616  4.2317  0.2272
 3620SOL     OW22495   1.029   3.906   4.646  0.3108 -0.4503  0.1144
 3620SOL    HW122496   1.060   3.974   4.586 -0.0605  0.4653  0.9554
 3620SOL    HW222497   1.074   3.928   4.728 -0.2436  0.4455  0.1700
 3621SOL     OW22498   2.926   2.407   3.329  0.1585 -0.6166  0.5501
 3621SOL    HW122499   2.832   2.427   3.336 -0.0100 -2.1143  2.5327
 3621SOL    HW222500   2.917   2.332   3.270 -1.9376 -0.2701  0.4077
 3622SOL     OW22501   0.667   3.765   5.706  0.5970  0.1041  0.4627
 3622SOL    HW122502   0.651   3.813   5.787 -2.2759 -0.7738  0.4254
 3622SOL    HW222503   0.738   3.709   5.737  2.2970  0.6066 -2.4495
 3623SOL     OW22504   0.491   1.246   5.537  0.0844 -0.6158  0.3347
 3623SOL    HW122505   0.559   1.180   5.553  1.9517  1.3327  0.3930
 3623SOL    HW222506   0.428   1.225   5.606 -0.8793 -1.9654 -0.9744
 3624SOL     OW22507   3.862   2.703   3.566 -0.1350 -0.1804  0.1596
 3624SOL    HW122508   3.869   2.730   3.474  1.4650 -0.3430  0.2307
 3624SOL    HW222509   3.791   2.641   3.550 -0.9733  0.5896  0.9421
 3625SOL     OW22510   1.884   2.708   6.942 -0.0850 -0.2855  0.2651
 3625SOL    HW122511   1.907   2.626   6.985  0.5224  0.9833  2.3687
 3625SOL    HW222512   1.790   2.696   6.925  0.2880 -0.4151 -1.7589
 3626SOL     OW22513   4.433   2.783  16.720 -0.0976 -0.1068  0.2087
 3626SOL    HW122514   4.466   2.786  16.630  0.3391 -1.9396  0.2993
 3626SOL    HW222515   4.507   2.826  16.763 -0.7928  1.7463 -0.4580
 3627SOL     OW22516   0.127   1.544   8.374  0.1630 -0.4177  0.3365
 3627SOL    HW122517   0.040   1.559   8.337  0.2546 -1.2982 -0.2285
 3627SOL    HW222518   0.158   1.483   8.307  3.8427 -0.7497  2.3130
 3628SOL     OW22519   2.363   2.685   1.640 -0.2907 -0.2390  0.4769
 3628SOL    HW122520   2.387   2.618   1.704 -0.0932 -1.2364 -0.6220
 3628SOL    HW222521   2.338   2.628   1.566 -0.0188 -0.1704  0.3320
 3629SOL     OW22522   1.822   1.906   3.147  0.0890 -0.5731 -0.0583
 3629SOL    HW122523   1.785   1.914   3.234 -0.6590  2.5836 -0.6941
 3629SOL    HW222524   1.783   1.985   3.111 -0.0853 -0.5423  0.2008
 3630SOL     OW22525   4.491   3.966  11.411 -0.2470 -0.0588 -0.0498
 3630SOL    HW122526   4.492   3.870  11.410 -2.2469 -0.0740 -1.6624
 3630SOL    HW222527   4.585   3.977  11.400 -0.1595  1.6284  2.6480
 3631SOL     OW22528   2.920   1.792   3.119 -0.5229 -0.9701  0.4772
 3631SOL    HW122529   2.831   1.821   3.142  0.5196  1.7262  1.0843
 3631SOL    HW222530   2.933   1.861   3.053  0.4540 -0.7440  0.9095
 3632SOL     OW22531   3.801   0.505   4.671 -0.0004  0.1645 -0.5295
 3632SOL    HW122532   3.853   0.582   4.650  0.0901  0.2609  0.0388
 3632SOL    HW222533   3.722   0.557   4.685 -1.0666 -1.6286  0.1214
 3633SOL     OW22534   3.848   4.684   5.022  0.1944  0.9424 -0.4635
 3633SOL    HW122535   3.814   4.722   5.104 -2.0579  1.9264 -1.8503
 3633SOL    HW222536   3.806   4.598   5.020 -1.3256  1.6437  1.0210
 3634SOL     OW22537   1.410   4.471   6.076  0.3445 -0.2118  0.2196
 3634SOL    HW122538   1.408   4.567   6.082 -1.7833 -0.2003 -0.8762
 3634SOL    HW222539   1.469   4.448   6.148  1.4375  0.4579 -0.4543
 3635SOL     OW22540   2.678   0.281  12.619 -0.8099  0.5659  0.2956
 3635SOL    HW122541   2.693   0.234  12.701  0.6535 -0.2227 -0.3995
 3635SOL    HW222542   2.584   0.270  12.609 -0.9253 -0.6425  2.7308
 3636SOL     OW22543   1.836   2.151   4.309 -0.1486 -0.2112 -0.2045
 3636SOL    HW122544   1.836   2.076   4.368  0.1329 -0.8227 -0.9886
 3636SOL    HW222545   1.894   2.118   4.240  0.3092 -2.4560  1.2676
 3637SOL     OW22546   0.851   3.940   0.956  0.2305  0.4726 -0.1315
 3637SOL    HW122547   0.770   3.950   1.006  0.3411  0.2569  0.0897
 3637SOL    HW222548   0.836   3.850   0.925  0.5992  0.0235  0.9791
 3638SOL     OW22549   4.735   3.457   5.826 -0.2236 -0.3115 -0.2104
 3638SOL    HW122550   0.018   3.406   5.905 -0.0477 -1.7210 -1.1609
 3638SOL    HW222551   0.050   3.408   5.762  0.8455  0.1022  0.3423
 3639SOL     OW22552   3.059   1.948  11.777 -0.0638 -0.1923 -0.5174
 3639SOL    HW122553   3.006   1.870  11.792 -0.0121 -0.5927 -2.4006
 3639SOL    HW222554   3.141   1.907  11.751  0.8385 -0.7316  3.2822
 3640SOL     OW22555   3.203   0.891  16.415  0.7164  0.3988 -0.5944
 3640SOL    HW122556   3.162   0.838  16.346  0.3842 -1.5444  1.1209
 3640SOL    HW222557   3.141   0.899  16.487 -1.4421 -2.2844 -2.1349
 3641SOL     OW22558   2.494   0.643   8.333  0.4936 -0.1428  0.2238
 3641SOL    HW122559   2.586   0.619   8.323  0.2978 -1.3696  1.3834
 3641SOL    HW222560   2.496   0.710   8.401 -0.9301  0.9014 -0.7689
 3642SOL     OW22561   1.133   2.549  15.407  0.1937 -0.1431  0.0509
 3642SOL    HW122562   1.064   2.493  15.444 -0.4544 -0.5042 -1.7105
 3642SOL    HW222563   1.126   2.524  15.315 -1.1688 -2.0637  0.6708
 3643SOL     OW22564   3.939   1.678   3.722 -0.4109  0.1543  0.4271
 3643SOL    HW122565   3.891   1.616   3.778  0.2729 -0.4948  0.2839
 3643SOL    HW222566   3.864   1.737   3.708  1.4657  2.0110 -1.7560
 3644SOL     OW22567   3.197   0.465   2.743 -0.0041  0.0586 -0.2216
 3644SOL    HW122568   3.208   0.500   2.655 -0.6353  1.2332  0.1639
 3644SOL    HW222569   3.122   0.406   2.739  2.3377 -2.9886  0.6011
 3645SOL     OW22570   2.062   1.260  16.829 -0.0430 -0.4551  0.0476
 3645SOL    HW122571   2.014   1.222  16.903 -0.3710 -1.0750 -0.4845
 3645SOL    HW222572   2.102   1.334  16.874 -3.1698  0.7009  0.9852
 3646SOL     OW22573   3.801   2.203   2.024  0.2788 -0.0294 -0.1118
 3646SOL    HW122574   3.843   2.200   1.938 -0.4540 -0.5586 -0.4565
 3646SOL    HW222575   3.754   2.120   2.027  1.1921 -0.6605 -2.7001
 3647SOL     OW22576   4.298   2.628   4.088 -0.5672  0.6945 -0.2211
 3647SOL    HW122577   4.245   2.551   4.069  1.0169 -0.5616  0.4647
 3647SOL    HW222578   4.364   2.608   4.020 -0.1107 -0.5671  0.6026
 3648SOL     OW22579   2.842   1.502   9.897 -0.4132  0.3695  0.3679
 3648SOL    HW122580   2.856   1.550   9.978 -1.7991 -0.1100  0.8940
 3648SOL    HW222581   2.853   1.413   9.932  0.9603  1.3941  2.4964
 3649SOL     OW22582   3.309   0.362   2.111  0.3847  0.4820  0.2239
 3649SOL    HW122583   3.385   0.325   2.155  1.2497  0.5292 -1.2077
 3649SOL    HW222584   3.309   0.324   2.023 -3.9837  1.1910 -0.0916
 3650SOL     OW22585   0.888   1.068  10.120  0.6697  0.0043 -0.4780
 3650SOL    HW122586   0.942   1.008  10.068  1.7721  1.4376 -0.9861
 3650SOL    HW222587   0.873   1.135  10.053  0.1480 -0.3600 -0.7247
 3651SOL     OW22588   2.273   2.268   7.524 -0.1771  0.0303  0.2554
 3651SOL    HW122589   2.239   2.218   7.599 -2.5535 -1.2672 -1.6554
 3651SOL    HW222590   2.282   2.200   7.457 -0.9942 -0.1849  0.3630
 3652SOL     OW22591   1.393   0.982   3.436 -0.2583  0.1144 -0.0264
 3652SOL    HW122592   1.462   1.045   3.457  0.4380 -0.7316  0.2060
 3652SOL    HW222593   1.341   1.035   3.375 -1.3283  0.6241  1.3215
 3653SOL     OW22594   1.380   0.283   8.699 -0.0929  0.0224 -0.7225
 3653SOL    HW122595   1.285   0.281   8.682 -0.2981 -1.8045  0.5950
 3653SOL    HW222596   1.383   0.268   8.793 -0.5929 -1.4274 -0.9296
 3654SOL     OW22597   2.332   3.353   7.606 -0.2720 -0.0181  0.5277
 3654SOL    HW122598   2.427   3.354   7.622 -0.1973  0.7260  0.0678
 3654SOL    HW222599   2.310   3.261   7.597  0.4035 -0.0974 -0.3772
 3655SOL     OW22600   3.544   1.563   7.866 -0.4805 -0.4605  0.8219
 3655SOL    HW122601   3.514   1.523   7.785  1.1525  1.0246 -0.4909
 3655SOL    HW222602   3.531   1.656   7.846  0.0715 -0.3333  1.0602
 3656SOL     OW22603   3.315   2.898   3.924 -0.3586  0.3224 -0.3539
 3656SOL    HW122604   3.371   2.823   3.942  1.3998  1.9056  0.8325
 3656SOL    HW222605   3.291   2.928   4.012 -0.9123  0.5055 -0.5642
 3657SOL     OW22606   3.565   2.086   1.815  0.0740  0.1910 -0.4646
 3657SOL    HW122607   3.627   2.041   1.758 -0.3510  2.8289 -2.9996
 3657SOL    HW222608   3.529   2.014   1.868  1.3603 -0.1521 -0.0617
 3658SOL     OW22609   1.562   2.767  16.712  0.3370 -0.1552 -0.2312
 3658SOL    HW122610   1.482   2.730  16.674 -0.3948 -1.0785  2.1604
 3658SOL    HW222611   1.597   2.817  16.638  0.7871  0.7092  0.5711
 3659SOL     OW22612   0.521   2.713   4.207 -0.5145 -0.3896 -0.3251
 3659SOL    HW122613   0.574   2.633   4.199  3.3559  1.7387  4.0720
 3659SOL    HW222614   0.577   2.790   4.200 -0.8041 -0.3541 -2.2024
 3660SOL     OW22615   1.444   2.077   1.819 -0.6984  0.3115 -0.4073
 3660SOL    HW122616   1.452   1.981   1.827  0.9592  0.4327 -0.5763
 3660SOL    HW222617   1.361   2.083   1.772 -0.5205  0.4228 -0.7066
 3661SOL     OW22618   1.484   3.203   6.688  0.2693 -0.1036  0.8036
 3661SOL    HW122619   1.562   3.234   6.641 -0.8801 -0.9498 -1.6482
 3661SOL    HW222620   1.517   3.154   6.763  1.1481 -1.8987 -0.7543
 3662SOL     OW22621   2.785   4.527   4.255  0.7091  0.4469  0.3577
 3662SOL    HW122622   2.707   4.568   4.218  0.3806  0.8011  1.4463
 3662SOL    HW222623   2.772   4.543   4.348 -3.0079  2.0469 -0.4494
 3663SOL     OW22624   2.994   0.438   3.598  0.1333 -0.1473 -0.0440
 3663SOL    HW122625   2.922   0.500   3.582 -0.3416 -1.3897 -2.6443
 3663SOL    HW222626   3.012   0.472   3.686 -1.9659 -0.6997  0.6112
 3664SOL     OW22627   0.762   1.620   8.707 -0.3274 -0.3897 -0.1105
 3664SOL    HW122628   0.711   1.623   8.626 -1.7357  0.9751  0.8458
 3664SOL    HW222629   0.695   1.649   8.768 -0.6069 -2.0147  0.3515
 3665SOL     OW22630   4.639   1.472   9.050 -0.1022  0.5707 -0.0332
 3665SOL    HW122631   4.680   1.550   9.012 -1.3257  1.3243  0.1918
 3665SOL    HW222632   4.577   1.517   9.108 -3.2555  0.4537 -3.3375
 3666SOL     OW22633   3.150   0.556  17.534  0.4275  0.2311 -0.2278
 3666SOL    HW122634   3.228   0.612  17.534  0.7560 -0.2267 -0.4006
 3666SOL    HW222635   3.186   0.476  17.573 -0.3603 -0.2853 -0.5523
 3667SOL     OW22636   0.901   2.373   6.465 -0.0986 -0.0651 -0.6009
 3667SOL    HW122637   0.875   2.365   6.557 -0.3880  0.0915 -0.6675
 3667SOL    HW222638   0.822   2.341   6.422 -0.1107 -1.0499  0.1444
 3668SOL     OW22639   4.454   0.530  14.089  0.4921  0.5168 -0.1152
 3668SOL    HW122640   4.378   0.503  14.141 -0.5438  0.3107 -1.7385
 3668SOL    HW222641   4.500   0.569  14.163  2.0753 -0.4524 -0.5921
 3669SOL     OW22642   1.962   3.196   7.109 -0.2502 -0.3803 -0.0343
 3669SOL    HW122643   1.880   3.193   7.159 -1.5120 -0.4475 -2.1072
 3669SOL    HW222644   1.970   3.109   7.071  0.1073  0.5642 -2.1347
 3670SOL     OW22645   1.034   0.518  17.678  0.0584 -0.0641 -0.5794
 3670SOL    HW122646   0.966   0.468  17.633 -0.9279  1.1817 -0.4853
 3670SOL    HW222647   1.101   0.450  17.677 -1.3055 -1.3415 -3.4266
 3671SOL     OW22648   2.935   2.642   5.712  0.0732  0.9399  0.0401
 3671SOL    HW122649   2.854   2.665   5.666 -0.1890  0.3436  0.2041
 3671SOL    HW222650   2.925   2.653   5.807  2.1369 -2.0536  0.6041
 3672SOL     OW22651   0.499   2.880   5.483 -0.1390 -0.6914  0.1416
 3672SOL    HW122652   0.521   2.832   5.403  0.6434  0.5632 -0.4031
 3672SOL    HW222653   0.420   2.831   5.506  0.5726 -2.8265 -1.9874
 3673SOL     OW22654   2.464   1.476  13.609  0.0258  0.1503 -0.0267
 3673SOL    HW122655   2.369   1.467  13.616  0.2478 -1.8893  0.4596
 3673SOL    HW222656   2.463   1.547  13.545  1.4994  1.7000  1.6901
 3674SOL     OW22657   2.800   4.593   7.109  0.5941  0.3576 -0.5930
 3674SOL    HW122658   2.825   4.561   7.022 -1.0125 -0.8661 -0.6097
 3674SOL    HW222659   2.798   4.512   7.158 -1.4331  0.8176  0.0856
 3675SOL     OW22660   1.393   2.593   3.122  0.4523 -0.2191  0.4942
 3675SOL    HW122661   1.457   2.641   3.070  0.2640 -0.8196 -0.2968
 3675SOL    HW222662   1.320   2.600   3.060  1.4109  0.7656 -0.5257
 3676SOL     OW22663   2.216   3.382   9.663  0.3188  0.3902 -0.1925
 3676SOL    HW122664   2.145   3.378   9.599 -0.0391 -1.3326  0.3220
 3676SOL    HW222665   2.154   3.382   9.737 -2.4556  0.2804 -2.5075
 3677SOL     OW22666   4.352   3.967  15.893 -0.7918  0.8605 -0.7106
 3677SOL    HW122667   4.287   3.978  15.824 -1.4970 -1.6714 -0.4422
 3677SOL    HW222668   4.369   3.873  15.885 -1.6367  0.8477 -2.4060
 3678SOL     OW22669   2.201   0.188   9.676  0.1563  0.7564  0.0551
 3678SOL    HW122670   2.124   0.245   9.682  0.3442  1.0091  0.0590
 3678SOL    HW222671   2.273   0.246   9.651 -0.1899  0.6968 -1.0690
 3679SOL     OW22672   1.671   2.475   0.237 -0.1711 -0.3902  0.8250
 3679SOL    HW122673   1.599   2.513   0.287 -0.3481  1.6495 -0.9572
 3679SOL    HW222674   1.623   2.422   0.172 -0.3456 -0.7914  1.2821
 3680SOL     OW22675   2.316   2.280   2.406  0.0288 -0.5355  0.1154
 3680SOL    HW122676   2.288   2.367   2.435  0.0252 -0.8416  1.0248
 3680SOL    HW222677   2.257   2.267   2.332 -0.4585 -1.5818  0.6917
 3681SOL     OW22678   1.760   1.021   3.331  0.1569  0.4361  0.1098
 3681SOL    HW122679   1.846   1.028   3.289 -0.0486  0.5506 -0.2876
 3681SOL    HW222680   1.702   1.046   3.259  0.8298 -0.1815 -0.6463
 3682SOL     OW22681   0.598   0.881   3.139  0.9179 -0.0542  0.3176
 3682SOL    HW122682   0.549   0.872   3.220  0.7930 -0.1930  0.2253
 3682SOL    HW222683   0.578   0.798   3.097 -0.2042  2.1858 -3.6635
 3683SOL     OW22684   1.739   0.028  13.165 -0.7974 -0.0184 -0.1074
 3683SOL    HW122685   1.802   4.719  13.221  0.3746  1.2568 -0.3804
 3683SOL    HW222686   1.780   0.017  13.080 -0.1234 -0.1482  0.2341
 3684SOL     OW22687   3.052   1.442   3.364 -0.5677 -0.5748 -0.1369
 3684SOL    HW122688   3.124   1.411   3.309 -0.9736 -2.2446  0.2739
 3684SOL    HW222689   3.074   1.407   3.451 -0.0806 -0.7315 -0.3208
 3685SOL     OW22690   1.449   1.633  13.373  0.0900 -0.4845  0.2095
 3685SOL    HW122691   1.445   1.700  13.305 -1.6759 -0.8494 -0.0529
 3685SOL    HW222692   1.357   1.617  13.395 -0.0010  0.4671  0.5357
 3686SOL     OW22693   2.618   0.575   2.660 -0.3315 -0.0406 -0.2722
 3686SOL    HW122694   2.571   0.633   2.601  0.2059 -1.0463 -1.6912
 3686SOL    HW222695   2.639   0.637   2.730  2.4769 -1.4958  0.2021
 3687SOL     OW22696   2.894   4.008  15.168 -0.0836  0.0557 -0.2789
 3687SOL    HW122697   2.849   3.924  15.177 -1.1029  0.5642 -0.5965
 3687SOL    HW222698   2.976   3.998  15.215  0.7570  1.3295 -1.4963
 3688SOL     OW22699   1.599   1.046  11.254  0.0333  0.2514  0.8730
 3688SOL    HW122700   1.562   0.974  11.304  0.1046  0.6431  1.4929
 3688SOL    HW222701   1.643   1.109  11.311  2.0435  0.6189 -1.0730
 3689SOL     OW22702   3.342   1.090  16.726 -0.6128  0.0916 -0.1055
 3689SOL    HW122703   3.369   1.077  16.635 -0.9797 -1.7586  0.0481
 3689SOL    HW222704   3.253   1.123  16.714 -0.5262  0.3962  0.0961
 3690SOL     OW22705   0.762   0.952  11.802 -0.3717  0.0244  0.7978
 3690SOL    HW122706   0.799   1.002  11.729 -2.3609 -0.5382 -0.5708
 3690SOL    HW222707   0.843   0.902  11.816  0.4312  0.9518 -0.4991
 3691SOL     OW22708   0.345   3.104   2.761 -0.3708  0.0966  0.0656
 3691SOL    HW122709   0.291   3.026   2.751  0.6443 -0.5145 -0.6911
 3691SOL    HW222710   0.395   3.106   2.679  0.4727 -3.0959  0.5068
 3692SOL     OW22711   0.194   0.363   2.575 -0.0516 -0.3105 -0.4592
 3692SOL    HW122712   0.113   0.392   2.533  0.1298  1.3772  0.3905
 3692SOL    HW222713   0.249   0.439   2.556 -1.9123  1.0747 -0.2522
 3693SOL     OW22714   0.279   0.494   5.408  0.2418 -0.1671  0.5279
 3693SOL    HW122715   0.331   0.421   5.372  0.3374  0.8549 -1.3506
 3693SOL    HW222716   0.207   0.446   5.449  0.1233 -1.0173 -0.6970
 3694SOL     OW22717   2.419   2.020   1.519 -0.9022  0.2490 -0.3164
 3694SOL    HW122718   2.502   1.986   1.553 -0.8904  0.7588  0.1695
 3694SOL    HW222719   2.459   2.099   1.481 -0.5426  0.8289  1.2612
 3695SOL     OW22720   1.346   0.730   1.244  0.2318 -0.4768  0.3233
 3695SOL    HW122721   1.256   0.742   1.275 -0.0207  0.5233 -0.8178
 3695SOL    HW222722   1.384   0.818   1.247 -1.3404  0.2732 -1.8959
 3696SOL     OW22723   0.500   0.373  12.262 -0.4764  0.0885  0.1372
 3696SOL    HW122724   0.593   0.373  12.239 -0.5114  0.3214 -0.0029
 3696SOL    HW222725   0.479   0.466  12.250 -0.0777  0.0520 -0.8717
 3697SOL     OW22726   1.101   1.127   7.595 -0.8453  0.1547  0.0245
 3697SOL    HW122727   1.062   1.123   7.508 -2.0454  0.6391  0.5327
 3697SOL    HW222728   1.156   1.049   7.587  0.3978  0.9540  0.7871
 3698SOL     OW22729   1.856   1.160   0.451 -0.7390 -0.1864 -0.3043
 3698SOL    HW122730   1.785   1.109   0.491  0.2138 -2.1985 -1.1733
 3698SOL    HW222731   1.939   1.116   0.470 -0.1680  0.5571 -1.1031
 3699SOL     OW22732   1.229   1.052   8.968 -0.1868 -0.0833 -0.8725
 3699SOL    HW122733   1.300   1.046   9.032  0.2274 -0.3537 -1.3670
 3699SOL    HW222734   1.180   0.973   8.993  0.4433 -0.5832 -1.2307
 3700SOL     OW22735   4.420   1.332   8.345 -0.2762 -0.1105  0.4217
 3700SOL    HW122736   4.346   1.392   8.331  0.0661  0.3580  0.5984
 3700SOL    HW222737   4.409   1.271   8.273 -0.3714  0.3528  0.0418
 3701SOL     OW22738   1.616   3.014   5.616 -0.0439 -0.2537 -0.0801
 3701SOL    HW122739   1.677   3.070   5.568 -1.1539  1.7452  0.8135
 3701SOL    HW222740   1.564   3.086   5.651 -0.7967 -1.4173  1.1606
 3702SOL     OW22741   2.721   3.292  16.050  0.0824  0.1602  0.7893
 3702SOL    HW122742   2.811   3.310  16.076 -0.0467  1.1978  0.5302
 3702SOL    HW222743   2.703   3.367  15.993 -0.2102  0.0626  0.7534
 3703SOL     OW22744   1.880   3.314   3.855  0.8134 -0.3853 -0.2843
 3703SOL    HW122745   1.944   3.382   3.875 -0.2789  1.0636 -1.7531
 3703SOL    HW222746   1.928   3.231   3.859  1.3384 -0.0285  0.8953
 3704SOL     OW22747   1.704   0.075   3.553 -0.0913 -0.5788 -0.5880
 3704SOL    HW122748   1.674   0.080   3.462 -4.4819  0.4351  0.9381
 3704SOL    HW222749   1.733   0.164   3.571 -1.7221 -0.5945  2.0908
 3705SOL     OW22750   3.539   3.314  17.037 -0.1251 -0.0273 -0.3702
 3705SOL    HW122751   3.541   3.309  17.133 -1.4405 -0.7936 -0.3900
 3705SOL    HW222752   3.533   3.220  17.019  1.2238 -0.1146 -0.3679
 3706SOL     OW22753   1.743   2.414   4.903  0.2427 -0.5142 -0.0910
 3706SOL    HW122754   1.742   2.320   4.882  0.0417 -0.3710 -0.7034
 3706SOL    HW222755   1.836   2.425   4.921  0.3854  1.1157 -1.8419
 3707SOL     OW22756   4.460   3.550   5.329  0.2399 -0.2880  0.3707
 3707SOL    HW122757   4.505   3.496   5.264  0.9700  0.0673  0.5701
 3707SOL    HW222758   4.509   3.526   5.409  0.7768  0.5744  0.2975
 3708SOL     OW22759   1.864   1.349   1.263 -0.2383  0.2000  0.0980
 3708SOL    HW122760   1.865   1.395   1.347 -1.0600 -0.8074  0.6585
 3708SOL    HW222761   1.897   1.263   1.289 -1.5822  0.1269  1.6149
 3709SOL     OW22762   3.693   1.605   7.511 -0.0186 -0.3486 -0.1074
 3709SOL    HW122763   3.766   1.635   7.457  1.1490 -2.7663  0.0849
 3709SOL    HW222764   3.637   1.680   7.530 -1.1424 -1.2550  0.1430
 3710SOL     OW22765   3.161   2.929   4.529  0.1255  0.7331  0.0231
 3710SOL    HW122766   3.247   2.937   4.569 -0.5106  0.9136  1.3696
 3710SOL    HW222767   3.119   2.899   4.609  0.7283  0.5498  0.2677
 3711SOL     OW22768   4.407   0.710   1.868  0.7369  0.2403 -0.0318
 3711SOL    HW122769   4.502   0.715   1.866  0.6500 -0.2477 -3.8594
 3711SOL    HW222770   4.389   0.800   1.895  3.3234  0.7352 -0.0067
 3712SOL     OW22771   4.329   0.088   1.211  0.2876  0.2571  0.3406
 3712SOL    HW122772   4.310   0.050   1.125 -0.2492 -0.5817  0.8263
 3712SOL    HW222773   4.270   0.162   1.222  1.5884  1.1831  1.1564
 3713SOL     OW22774   3.717   1.618   6.406  0.2734  0.6565 -1.1052
 3713SOL    HW122775   3.761   1.690   6.360  0.1335  2.4546  1.6326
 3713SOL    HW222776   3.764   1.620   6.489 -1.7564  0.4509  0.0161
 3714SOL     OW22777   1.771   3.054   3.994  0.1070 -0.3496  0.3176
 3714SOL    HW122778   1.808   3.110   4.063  1.2911  0.7540 -1.1870
 3714SOL    HW222779   1.822   3.088   3.920 -2.4572  2.1705 -0.2972
 3715SOL     OW22780   4.537   2.034   6.846 -0.4603 -0.3355  0.0450
 3715SOL    HW122781   4.509   2.062   6.933 -0.2166  0.0776 -0.0076
 3715SOL    HW222782   4.621   2.079   6.835 -0.9508 -0.0584 -2.4533
 3716SOL     OW22783   2.857   1.433   3.986  0.3717 -0.1313  0.6326
 3716SOL    HW122784   2.885   1.433   3.895  0.3606  1.3516  0.6326
 3716SOL    HW222785   2.937   1.432   4.039  0.4968  1.6670  0.4744
 3717SOL     OW22786   4.065   1.764   1.425  0.2806 -0.6178 -0.4285
 3717SOL    HW122787   4.049   1.776   1.332  1.4380 -1.9889 -0.8114
 3717SOL    HW222788   3.976   1.737   1.450  1.0507 -1.9100  0.9559
 3718SOL     OW22789   3.710   3.627   2.545 -0.2727  0.0950 -0.0031
 3718SOL    HW122790   3.767   3.653   2.473  0.3449  0.3675  0.5864
 3718SOL    HW222791   3.627   3.604   2.502 -0.8288 -0.5274  1.3813
 3719SOL     OW22792   2.661   2.693   5.224  0.3016  0.0464 -0.6260
 3719SOL    HW122793   2.637   2.661   5.137  1.1852 -0.8260 -0.5561
 3719SOL    HW222794   2.678   2.607   5.262  0.5612  0.2616 -0.2557
 3720SOL     OW22795   1.083   0.811  11.610  0.1118  0.5241 -0.8313
 3720SOL    HW122796   1.095   0.757  11.533  0.8465  0.4210 -0.6484
 3720SOL    HW222797   1.168   0.799  11.654 -0.9175  2.6305  1.7201
 3721SOL     OW22798   1.179   0.568  16.389 -0.3202  0.1866 -0.3203
 3721SOL    HW122799   1.138   0.483  16.377 -2.3045  0.8602  1.7016
 3721SOL    HW222800   1.201   0.564  16.482  1.5247 -0.5375 -0.7991
 3722SOL     OW22801   0.938   1.475   8.507  0.0255  0.0465  0.3556
 3722SOL    HW122802   0.891   1.512   8.581 -0.3831  3.0839 -1.3974
 3722SOL    HW222803   0.862   1.438   8.462  1.0219 -1.0538 -0.4486
 3723SOL     OW22804   1.516   1.320   6.190 -0.3173 -0.2472  0.1281
 3723SOL    HW122805   1.602   1.330   6.232 -0.5499 -2.6405  1.1564
 3723SOL    HW222806   1.475   1.237   6.212 -0.3716 -0.5245 -0.9909
 3724SOL     OW22807   1.230   1.222  11.733 -0.0295 -0.3364  0.9168
 3724SOL    HW122808   1.304   1.260  11.685 -0.9034  1.2671  0.8407
 3724SOL    HW222809   1.192   1.302  11.767  0.7766  0.8673 -1.0253
 3725SOL     OW22810   1.738   3.584   0.738  0.0319  0.3606 -0.0349
 3725SOL    HW122811   1.731   3.621   0.826  0.3691  1.4981 -0.4951
 3725SOL    HW222812   1.779   3.500   0.760  0.6622  0.0504 -2.4542
 3726SOL     OW22813   2.246   1.152   6.492  0.4019  0.0241  0.2388
 3726SOL    HW122814   2.181   1.213   6.455 -0.9290 -0.4789  1.7636
 3726SOL    HW222815   2.324   1.197   6.459  0.3570 -0.2090 -0.1959
 3727SOL     OW22816   1.450   0.924   9.454 -0.2381  0.2947 -0.3563
 3727SOL    HW122817   1.512   0.852   9.449 -0.6906 -0.2891  2.0272
 3727SOL    HW222818   1.380   0.895   9.395  1.3734  0.1442 -2.1768
 3728SOL     OW22819   1.638   4.372   6.585  0.0625 -0.2924  0.1126
 3728SOL    HW122820   1.678   4.287   6.568 -1.1592 -0.5324 -1.5715
 3728SOL    HW222821   1.711   4.433   6.581 -0.0805 -0.2673 -1.9221
 3729SOL     OW22822   1.849   0.896   8.671 -0.2158 -0.0759 -0.0645
 3729SOL    HW122823   1.761   0.864   8.651 -0.5776 -0.5684  2.3431
 3729SOL    HW222824   1.844   0.991   8.678  4.0434  0.3026 -2.2393
 3730SOL     OW22825   1.452   0.902  11.008 -0.7638  0.2623  0.1904
 3730SOL    HW122826   1.511   0.946  11.069 -0.2157 -2.4499  1.5923
 3730SOL    HW222827   1.488   0.932  10.924 -1.0205  1.2711  0.4362
 3731SOL     OW22828   1.301   0.221   9.809  0.0109  0.3973  0.4285
 3731SOL    HW122829   1.320   0.209   9.902 -0.5231  1.1485  0.6253
 3731SOL    HW222830   1.340   0.308   9.800  0.1156  0.2303 -0.7505
 3732SOL     OW22831   0.892   1.387  12.265 -0.2514 -0.5030 -0.5147
 3732SOL    HW122832   0.985   1.391  12.287 -0.4172 -1.9105  0.4595
 3732SOL    HW222833   0.899   1.371  12.171  2.1365  1.2796 -0.6421
 3733SOL     OW22834   0.905   1.978   4.853 -0.4208 -0.0216 -0.4103
 3733SOL    HW122835   0.879   1.926   4.777  0.9891  0.5053 -1.2345
 3733SOL    HW222836   0.838   2.046   4.857 -1.8949 -1.4827 -0.1251
 3734SOL     OW22837   4.216   3.212   8.799 -0.2959 -0.1112  0.5568
 3734SOL    HW122838   4.254   3.230   8.713 -2.4685  2.3403  0.1339
 3734SOL    HW222839   4.145   3.161   8.761 -1.2089  1.2955  0.3915
 3735SOL     OW22840   1.280   1.699   4.077  0.5560 -0.2981 -0.0670
 3735SOL    HW122841   1.328   1.781   4.090  0.5282 -0.1859 -0.6629
 3735SOL    HW222842   1.195   1.729   4.046 -0.1363 -0.7397  1.3999
 3736SOL     OW22843   3.838   1.734   8.405  0.2387  0.0573  0.2283
 3736SOL    HW122844   3.929   1.708   8.391 -0.6126 -1.8813 -1.6572
 3736SOL    HW222845   3.794   1.649   8.401  2.9923 -1.4059  1.1621
 3737SOL     OW22846   3.787   2.227   7.570 -0.4477  0.1689 -0.2588
 3737SOL    HW122847   3.706   2.278   7.564  0.4445  1.7243  0.8764
 3737SOL    HW222848   3.857   2.292   7.578 -1.2120  1.0070 -0.2614
 3738SOL     OW22849   4.047   3.625   3.004  0.5087  0.1330 -0.0038
 3738SOL    HW122850   3.972   3.632   2.945 -0.7613 -0.5117  1.5200
 3738SOL    HW222851   4.068   3.532   2.994 -3.8730 -1.1989  3.1682
 3739SOL     OW22852   0.269   0.098   2.086  0.4926 -0.0979 -0.4108
 3739SOL    HW122853   0.316   0.093   2.003  1.1243  0.1508 -0.0694
 3739SOL    HW222854   0.178   0.110   2.060 -0.1519 -1.8591  1.0091
 3740SOL     OW22855   2.177   1.346  10.640 -0.0055 -0.3938  0.7281
 3740SOL    HW122856   2.163   1.440  10.649 -1.1088 -0.6143  1.3845
 3740SOL    HW222857   2.192   1.331  10.733 -0.0485 -0.0394  0.7909
 3741SOL     OW22858   1.171   1.192   5.279  0.3947  0.0024 -0.2703
 3741SOL    HW122859   1.097   1.207   5.221  1.0573 -2.2054 -1.6693
 3741SOL    HW222860   1.126   1.193   5.364 -1.8217 -5.4299 -1.4313
 3742SOL     OW22861   3.718   4.677   5.881  0.7802 -0.2635 -0.1270
 3742SOL    HW122862   3.708   4.683   5.786  1.6531 -2.4086 -0.3526
 3742SOL    HW222863   3.728   4.582   5.891 -0.5495 -0.4477 -0.4757
 3743SOL     OW22864   0.022   4.304   8.474  0.3140  0.4199 -0.1175
 3743SOL    HW122865   4.699   4.231   8.462  0.3292  0.3901 -0.0110
 3743SOL    HW222866   0.074   4.266   8.545 -0.6285  0.3761  0.5573
 3744SOL     OW22867   3.507   0.179  16.884 -0.0256  0.6840 -0.5815
 3744SOL    HW122868   3.495   0.269  16.915 -0.3753  0.9059 -1.3587
 3744SOL    HW222869   3.452   0.133  16.946  1.5899  1.8004  1.7012
 3745SOL     OW22870   4.615   3.061   7.295  0.2706 -0.5072  0.3070
 3745SOL    HW122871   4.553   3.014   7.351 -0.3165 -1.1116 -0.8701
 3745SOL    HW222872   4.682   3.073   7.363  0.3792 -0.7697  0.2458
 3746SOL     OW22873   4.568   0.738   4.269  0.5970  0.7357  0.6230
 3746SOL    HW122874   4.619   0.773   4.196  0.7304 -0.3867  0.1679
 3746SOL    HW222875   4.516   0.680   4.213  0.9119 -0.5201  1.6368
 3747SOL     OW22876   4.375   0.379   6.649 -0.0558 -0.7120  0.1369
 3747SOL    HW122877   4.458   0.331   6.640 -0.7143 -2.4849  3.3620
 3747SOL    HW222878   4.343   0.379   6.559  2.2302  4.0543 -0.6736
 3748SOL     OW22879   0.814   2.217   4.412 -0.0621  0.7103 -0.3709
 3748SOL    HW122880   0.778   2.141   4.367 -1.1824  0.4796  0.8918
 3748SOL    HW222881   0.883   2.237   4.349  0.9041 -0.7564  0.1964
 3749SOL     OW22882   4.056   4.079   7.026 -0.3265 -0.1746 -0.3605
 3749SOL    HW122883   4.106   4.107   7.103  0.7303  0.0383 -1.1087
 3749SOL    HW222884   4.020   4.163   6.996 -0.0941 -0.4285 -1.3585
 3750SOL     OW22885   0.461   3.042   1.028  0.8100 -0.8059  0.2816
 3750SOL    HW122886   0.471   3.112   0.963  1.4185  0.3287  1.5798
 3750SOL    HW222887   0.381   3.002   0.995  0.8855 -1.0780  0.4253
 3751SOL     OW22888   3.930   3.710   4.715 -0.4732  0.0560  0.3029
 3751SOL    HW122889   4.002   3.647   4.715 -0.5005  0.0259 -0.8946
 3751SOL    HW222890   3.902   3.714   4.623 -0.1969  0.1981  0.2266
 3752SOL     OW22891   0.379   3.512   4.932  0.1429 -0.5384 -0.2017
 3752SOL    HW122892   0.296   3.514   4.979 -0.7263  0.8536 -1.8429
 3752SOL    HW222893   0.352   3.553   4.850 -0.6829 -1.5681 -0.4415
 3753SOL     OW22894   0.493   1.173   2.483  0.0042  0.2261  0.1453
 3753SOL    HW122895   0.443   1.202   2.559  0.9668  0.8862  0.5255
 3753SOL    HW222896   0.522   1.256   2.445  1.3190 -0.2929  0.0058
 3754SOL     OW22897   2.733   3.998   7.320 -0.5278  0.4389 -0.5637
 3754SOL    HW122898   2.789   4.051   7.376  2.1627 -3.5832  0.5591
 3754SOL    HW222899   2.785   3.971   7.244  0.6779  0.9493  0.0803
 3755SOL     OW22900   1.849   0.770   6.420 -0.2048  0.4061  0.4773
 3755SOL    HW122901   1.884   0.712   6.487 -0.0197 -0.7005 -0.5831
 3755SOL    HW222902   1.906   0.741   6.349  0.7280 -1.2652  1.9196
 3756SOL     OW22903   0.934   4.209   8.481 -0.0008  0.3271 -0.2204
 3756SOL    HW122904   0.981   4.127   8.495 -0.7274 -0.3589 -1.7751
 3756SOL    HW222905   1.010   4.260   8.450  0.6853  0.3017  1.4382
 3757SOL     OW22906   1.709   2.796   1.390  0.3650 -0.1868 -0.5106
 3757SOL    HW122907   1.635   2.755   1.346 -0.5283  0.3558  0.4794
 3757SOL    HW222908   1.770   2.722   1.383  0.8329  0.0066  1.3062
 3758SOL     OW22909   4.214   1.720   0.596  0.2279 -0.1862 -0.0336
 3758SOL    HW122910   4.239   1.792   0.653 -0.7970  0.6618 -0.6526
 3758SOL    HW222911   4.158   1.767   0.533 -0.8303  1.8296  2.4238
 3759SOL     OW22912   2.587   4.072   3.019 -0.0706 -0.5853 -0.7559
 3759SOL    HW122913   2.516   4.078   3.083 -0.2029  1.4851 -1.0961
 3759SOL    HW222914   2.621   4.161   3.021 -1.1601 -0.1709 -0.4453
 3760SOL     OW22915   2.125   2.337   4.755 -0.4392  0.2010 -0.3119
 3760SOL    HW122916   2.218   2.318   4.768 -0.8781 -1.5375  0.3310
 3760SOL    HW222917   2.110   2.322   4.661  0.5725  2.4092 -0.8210
 3761SOL     OW22918   1.188   1.040  14.576 -0.0691 -0.1352  0.2717
 3761SOL    HW122919   1.216   1.124  14.540  0.4997  0.0724  1.2116
 3761SOL    HW222920   1.166   1.060  14.666 -0.6047 -0.1638  0.1456
 3762SOL     OW22921   3.330   4.695  10.192  0.5329  0.9408  0.2265
 3762SOL    HW122922   3.311   0.050  10.212  0.2592  0.8078  0.5744
 3762SOL    HW222923   3.415   4.707  10.150 -0.1255 -0.1818 -1.4169
 3763SOL     OW22924   0.214   4.557   7.564  0.5850  0.1418  0.1603
 3763SOL    HW122925   0.149   4.621   7.591  0.2397 -0.0160 -0.2846
 3763SOL    HW222926   0.196   4.559   7.470  0.9863  0.3517  0.0884
 3764SOL     OW22927   1.346   3.631   9.403  0.7182 -0.1619  1.0578
 3764SOL    HW122928   1.406   3.618   9.330  0.7852 -2.3559  1.5001
 3764SOL    HW222929   1.362   3.724   9.420  1.7214 -0.1371 -0.0449
 3765SOL     OW22930   1.891   0.069  10.297  1.2675  0.4430  0.2384
 3765SOL    HW122931   1.817   0.008  10.300 -0.1172  2.1410  0.7342
 3765SOL    HW222932   1.963   0.006  10.306 -0.7238 -1.8794  0.1587
 3766SOL     OW22933   1.519   0.553   6.454 -0.6603 -0.2447  0.3712
 3766SOL    HW122934   1.514   0.493   6.529 -0.5280  1.0160  1.3865
 3766SOL    HW222935   1.440   0.528   6.407  0.6894 -1.8527 -1.0800
 3767SOL     OW22936   0.797   2.466   1.795 -0.6787 -0.0986 -0.5949
 3767SOL    HW122937   0.769   2.417   1.717 -3.5155  0.2310  0.2389
 3767SOL    HW222938   0.723   2.449   1.853 -0.8196  1.9494 -0.1887
 3768SOL     OW22939   3.263   3.889  13.546  0.7674  0.8205 -0.3902
 3768SOL    HW122940   3.308   3.845  13.618  0.9960 -2.1496 -2.3784
 3768SOL    HW222941   3.171   3.867  13.563  1.4250 -0.6741  1.2294
 3769SOL     OW22942   3.130   3.943   4.392 -0.6547 -0.5896  0.5448
 3769SOL    HW122943   3.085   3.937   4.308 -0.1318  1.3296  0.1451
 3769SOL    HW222944   3.061   3.963   4.456 -2.5445 -0.4809 -1.5163
 3770SOL     OW22945   3.479   4.339   8.166  0.7438 -0.4322 -0.0109
 3770SOL    HW122946   3.490   4.302   8.078  0.0278  2.0226 -1.1183
 3770SOL    HW222947   3.461   4.432   8.161 -0.1547 -0.6405 -0.5766
 3771SOL     OW22948   0.796   3.595   3.118  0.3814 -0.7010 -0.0127
 3771SOL    HW122949   0.739   3.541   3.173 -1.4534  2.8549  1.5556
 3771SOL    HW222950   0.733   3.615   3.049  1.1753 -0.7739 -0.7571
 3772SOL     OW22951   0.933   3.844   2.915 -0.7121  0.0940 -0.1040
 3772SOL    HW122952   0.963   3.861   2.826 -0.2755 -4.4655 -0.8124
 3772SOL    HW222953   0.867   3.912   2.923  0.7917  1.6641 -1.0776
 3773SOL     OW22954   0.156   0.428   4.188 -0.7336 -0.1590 -0.2604
 3773SOL    HW122955   0.250   0.445   4.180 -0.6874  0.3367  1.3181
 3773SOL    HW222956   0.126   0.473   4.110 -2.3116 -0.6638  0.0590
 3774SOL     OW22957   0.913   0.861   4.097 -0.4904  0.2908 -0.2757
 3774SOL    HW122958   0.960   0.807   4.033 -2.1643 -1.4426 -0.0324
 3774SOL    HW222959   0.883   0.933   4.040 -2.0286  0.3457  0.6019
 3775SOL     OW22960   1.763   4.142   5.814 -0.3657 -0.3176 -0.0750
 3775SOL    HW122961   1.749   4.094   5.895 -0.0838  2.0065  1.3302
 3775SOL    HW222962   1.824   4.207   5.845 -1.7637  1.7466 -1.6412
 3776SOL     OW22963   4.384   1.973  13.026 -0.1457  0.3202  0.3982
 3776SOL    HW122964   4.377   1.881  13.001 -0.4407  0.4385  0.0353
 3776SOL    HW222965   4.397   1.960  13.119  0.5633 -2.6838 -0.1277
 3777SOL     OW22966   4.311   0.234   6.950  0.4056  0.2903  0.0844
 3777SOL    HW122967   4.396   0.256   6.988 -0.9882  1.4857  2.5892
 3777SOL    HW222968   4.321   0.254   6.857 -1.7550  0.6458 -0.0705
 3778SOL     OW22969   0.685   3.027   4.506  0.3060  0.4945  0.4168
 3778SOL    HW122970   0.702   2.939   4.540 -1.0175 -0.0160 -0.2517
 3778SOL    HW222971   0.719   3.083   4.576  1.5763 -1.8496  1.6855
 3779SOL     OW22972   2.226   3.817   8.437 -0.3415  0.1182  0.5933
 3779SOL    HW122973   2.182   3.734   8.418 -0.4207 -0.0502  1.4936
 3779SOL    HW222974   2.170   3.852   8.507 -1.9101  0.6631 -0.9250
 3780SOL     OW22975   2.907   4.248   8.803  0.3878 -0.0400  0.0336
 3780SOL    HW122976   2.905   4.299   8.885  2.8554 -2.5301  1.6410
 3780SOL    HW222977   2.836   4.186   8.819  2.0298 -1.8300  0.4935
 3781SOL     OW22978   0.663   2.629   9.599  0.2757  0.2911 -0.1279
 3781SOL    HW122979   0.693   2.718   9.579 -0.3888  0.8946  1.5532
 3781SOL    HW222980   0.748   2.596   9.630  0.8293  0.9347 -0.9315
 3782SOL     OW22981   1.887   0.611   4.090  0.1392  0.4046 -0.4359
 3782SOL    HW122982   1.794   0.598   4.106  0.2546 -1.5236 -1.3480
 3782SOL    HW222983   1.922   0.605   4.179 -1.4529  2.6096  0.3566
 3783SOL     OW22984   2.876   3.011   3.373 -0.3255  0.0087  0.5606
 3783SOL    HW122985   2.898   2.919   3.363 -1.3283 -0.1537 -0.0872
 3783SOL    HW222986   2.963   3.050   3.387 -0.0694 -0.3713  0.0465
 3784SOL     OW22987   0.478   3.279   7.468  0.0236 -0.4775 -0.1787
 3784SOL    HW122988   0.421   3.265   7.392  0.8105  1.9010 -1.1995
 3784SOL    HW222989   0.558   3.309   7.425  0.3706 -2.3350 -0.8406
 3785SOL     OW22990   4.207   3.866   8.485  0.0952  0.0849  0.2516
 3785SOL    HW122991   4.293   3.893   8.514 -0.1502  1.0151  0.0974
 3785SOL    HW222992   4.171   3.948   8.451 -3.5790 -1.7827 -0.4585
 3786SOL     OW22993   3.322   2.604   8.614  0.1520  0.3403 -0.0670
 3786SOL    HW122994   3.352   2.593   8.524 -0.7414 -1.3504 -0.1659
 3786SOL    HW222995   3.392   2.565   8.667 -1.2160 -0.2800  1.2957
 3787SOL     OW22996   0.646   3.038   6.246 -0.1634  0.0344 -0.4415
 3787SOL    HW122997   0.551   3.039   6.234 -0.0023  1.0160 -1.7269
 3787SOL    HW222998   0.647   2.985   6.326 -2.0880 -0.8454 -1.0037
 3788SOL     OW22999   2.152   3.205   2.495  0.1919 -0.2203 -0.7972
 3788SOL    HW123000   2.197   3.218   2.411  1.2566 -1.0581 -0.3502
 3788SOL    HW223001   2.158   3.285   2.547 -0.5503  0.5686 -1.9199
 3789SOL     OW23002   3.330   3.250  15.805  0.0077 -0.2072 -0.1790
 3789SOL    HW123003   3.298   3.237  15.715  0.9577  0.0047 -0.5510
 3789SOL    HW223004   3.253   3.271  15.858  0.6727  1.0046  0.3085
 3790SOL     OW23005   1.472   0.420  11.123  0.0152  0.2882 -0.2726
 3790SOL    HW123006   1.557   0.464  11.127 -0.0488  0.3743  0.1259
 3790SOL    HW223007   1.482   0.360  11.050 -1.7971 -1.2002  0.7084
 3791SOL     OW23008   0.952   3.520   2.885 -0.4374  0.5026  0.4227
 3791SOL    HW123009   0.886   3.456   2.911  0.0352  0.0829  0.5846
 3791SOL    HW223010   0.914   3.598   2.927 -1.7152 -0.4116  0.9390
 3792SOL     OW23011   1.976   0.768   1.342 -0.1653 -0.3341 -0.2239
 3792SOL    HW123012   1.997   0.819   1.420 -2.4896  0.8805 -0.3974
 3792SOL    HW223013   1.951   0.840   1.284  0.3058 -0.1893 -0.2457
 3793SOL     OW23014   2.247   3.161   1.011  0.0802 -0.3316 -0.3164
 3793SOL    HW123015   2.311   3.105   0.966  2.1703  0.0229  2.2477
 3793SOL    HW223016   2.266   3.136   1.101 -0.5004  1.0015  0.1749
 3794SOL     OW23017   0.295   0.113   4.653 -0.7377 -0.1834 -0.7784
 3794SOL    HW123018   0.254   0.179   4.708 -0.4218 -0.3935 -0.2890
 3794SOL    HW223019   0.248   0.132   4.572  0.5549  0.5509 -1.3691
 3795SOL     OW23020   4.060   4.626   9.045  0.2456  0.0174 -0.2190
 3795SOL    HW123021   4.023   4.681   9.114  0.2464  0.8256 -0.8657
 3795SOL    HW223022   4.112   4.555   9.084 -0.0443  0.1727  0.4514
 3796SOL     OW23023   1.625   1.660   7.630 -0.3183  0.4280  0.1114
 3796SOL    HW123024   1.695   1.723   7.616  0.9271 -0.8861  0.4597
 3796SOL    HW223025   1.567   1.688   7.559 -0.2041  1.4385  0.4080
 3797SOL     OW23026   0.551   3.776   0.305  0.3763 -0.2358 -0.0703
 3797SOL    HW123027   0.533   3.691   0.346 -0.7208  0.5562  1.0942
 3797SOL    HW223028   0.501   3.780   0.224  1.3468 -0.6970 -0.6886
 3798SOL     OW23029   2.970   0.258   5.738  0.1294 -0.3743 -0.0065
 3798SOL    HW123030   2.926   0.300   5.813 -0.9404 -1.2436 -0.1535
 3798SOL    HW223031   2.895   0.250   5.679 -0.0163  1.0690 -0.0367
 3799SOL     OW23032   1.511   1.359  13.435 -0.3509  0.2652 -0.4544
 3799SOL    HW123033   1.539   1.449  13.418  2.1618 -0.4254 -0.0181
 3799SOL    HW223034   1.522   1.315  13.350 -2.8371 -1.1745 -0.0217
 3800SOL     OW23035   2.128   3.842   2.774 -0.0415  0.0995  0.1341
 3800SOL    HW123036   2.080   3.773   2.819 -1.6707  0.6064 -0.8301
 3800SOL    HW223037   2.142   3.910   2.840  0.9230 -0.9708  1.0267
 3801SOL     OW23038   1.876   2.548   4.526  0.1822 -0.1847  0.7103
 3801SOL    HW123039   1.801   2.584   4.573 -1.5422 -0.7419 -1.5981
 3801SOL    HW223040   1.843   2.458   4.526 -1.7262  0.5379  2.4852
 3802SOL     OW23041   2.758   0.366   8.821  0.5465 -0.0067  0.0211
 3802SOL    HW123042   2.796   0.377   8.908  0.8219  0.9307 -0.2112
 3802SOL    HW223043   2.679   0.420   8.828  0.5115 -0.2926  1.8886
 3803SOL     OW23044   3.931   1.661   7.368 -0.8191  0.1069  0.2029
 3803SOL    HW123045   3.887   1.731   7.319 -2.9722 -2.7166 -1.8510
 3803SOL    HW223046   4.019   1.658   7.330 -0.6242  0.3110  0.6245
 3804SOL     OW23047   1.650   2.234   3.391  0.3156  0.8345 -0.7543
 3804SOL    HW123048   1.667   2.321   3.426 -1.7073 -0.1140  2.5985
 3804SOL    HW223049   1.595   2.252   3.315 -0.2953  1.3209 -0.1935
 3805SOL     OW23050   0.040   2.033  14.729  0.1290  0.1751  0.0021
 3805SOL    HW123051   4.705   2.052  14.789  1.2109  1.9608  0.7079
 3805SOL    HW223052   0.090   2.113  14.740 -0.0814  0.4864 -1.3316
 3806SOL     OW23053   0.238   3.078   4.321  0.5044 -0.3248 -0.7934
 3806SOL    HW123054   0.333   3.076   4.309  0.8902  2.0122  1.7424
 3806SOL    HW223055   0.236   3.036   4.407 -1.0533 -0.8145 -1.0708
 3807SOL     OW23056   4.287   1.126  10.298 -0.0958 -0.3185  0.5198
 3807SOL    HW123057   4.361   1.065  10.299 -0.0045 -0.2286 -0.3255
 3807SOL    HW223058   4.238   1.083  10.367  0.8850  0.4922  1.7157
 3808SOL     OW23059   1.356   3.999   8.126  0.3499 -0.3189 -0.1817
 3808SOL    HW123060   1.292   3.947   8.076 -1.1538  0.0261  1.3806
 3808SOL    HW223061   1.365   4.079   8.075 -0.8951  0.4693  0.8366
 3809SOL     OW23062   3.909   1.049   2.667  0.1899  0.0867  0.2911
 3809SOL    HW123063   3.927   0.957   2.650 -0.6389 -0.0270  0.0762
 3809SOL    HW223064   3.901   1.092   2.582  1.4813  0.0292  0.1423
 3810SOL     OW23065   0.446   0.956   2.304 -0.3517 -0.2831 -0.0240
 3810SOL    HW123066   0.449   1.042   2.347  1.1823 -0.2768 -0.1450
 3810SOL    HW223067   0.531   0.915   2.314 -0.2635 -0.7510 -2.5921
 3811SOL     OW23068   3.269   2.248   3.041  0.3080  0.1074  0.1101
 3811SOL    HW123069   3.197   2.210   2.991 -0.6441 -0.4864  1.9265
 3811SOL    HW223070   3.336   2.254   2.973 -0.2002 -1.1477 -0.4775
 3812SOL     OW23071   4.444   0.167   3.100  0.4436  0.2994  0.3364
 3812SOL    HW123072   4.422   0.198   3.188  1.4244  1.5843  0.1373
 3812SOL    HW223073   4.445   0.074   3.121 -1.8848  0.3229  0.5450
 3813SOL     OW23074   3.629   1.465   7.282  0.2563  0.8620  0.2235
 3813SOL    HW123075   3.634   1.493   7.373  1.2682  0.5387  0.2628
 3813SOL    HW223076   3.680   1.535   7.241 -0.1271  0.3860 -1.0696
 3814SOL     OW23077   1.493   2.991   8.074  0.0820 -0.1327  0.2100
 3814SOL    HW123078   1.463   2.909   8.114  0.5238 -1.2851 -1.8077
 3814SOL    HW223079   1.434   3.050   8.120  0.7761  1.2451 -0.6780
 3815SOL     OW23080   0.753   2.257  17.532  0.2263 -0.0186  0.0211
 3815SOL    HW123081   0.786   2.167  17.522  0.8108  0.1830  0.1552
 3815SOL    HW223082   0.719   2.243  17.620 -0.2937  0.0862 -0.1642
 3816SOL     OW23083   3.641   3.048   3.129  0.2087  0.4955 -0.1141
 3816SOL    HW123084   3.641   2.953   3.116 -0.7414  0.5471 -0.5284
 3816SOL    HW223085   3.610   3.072   3.041  0.9926  0.4535 -0.4085
 3817SOL     OW23086   0.381   2.775   2.502 -0.0718 -0.0974 -0.2567
 3817SOL    HW123087   0.340   2.801   2.585  0.0136 -2.7515  0.6197
 3817SOL    HW223088   0.306   2.783   2.443 -0.2433  1.9630  0.2416
 3818SOL     OW23089   2.537   2.909  14.670 -0.1305 -0.8288  0.5132
 3818SOL    HW123090   2.520   2.835  14.611  1.1825 -1.4910  0.9716
 3818SOL    HW223091   2.576   2.861  14.743  1.9478 -0.9622 -0.6884
 3819SOL     OW23092   3.159   2.468  11.601  0.0881 -0.6140 -0.2446
 3819SOL    HW123093   3.129   2.406  11.536  0.5077 -1.9776  0.8596
 3819SOL    HW223094   3.208   2.533  11.549  0.7987  0.0767  1.2719
 3820SOL     OW23095   1.027   2.163   8.375  0.2337  0.3062 -0.3012
 3820SOL    HW123096   1.003   2.082   8.330  0.0043  0.9001 -1.2327
 3820SOL    HW223097   1.077   2.207   8.307  2.0573 -1.0862  0.1112
 3821SOL     OW23098   1.422   0.015   7.639  0.1659 -0.2253  0.1130
 3821SOL    HW123099   1.462   0.042   7.722  2.1018 -2.6291 -0.0312
 3821SOL    HW223100   1.332   0.047   7.641 -0.1859 -1.3017  1.5610
 3822SOL     OW23101   0.370   2.093   7.940  0.2151  0.0514  0.0190
 3822SOL    HW123102   0.392   2.174   7.894  1.2799  0.0989  0.6180
 3822SOL    HW223103   0.316   2.051   7.873 -2.1757  0.6549  1.5718
 3823SOL     OW23104   2.168   2.824  12.884  0.0213  0.5259  0.4309
 3823SOL    HW123105   2.195   2.750  12.938  0.2439 -0.0619 -0.4884
 3823SOL    HW223106   2.192   2.797  12.795 -0.1083  0.7736  0.3195
 3824SOL     OW23107   1.283   3.124   7.670  0.3742 -0.6710  0.1422
 3824SOL    HW123108   1.207   3.146   7.616 -0.1799 -4.0985 -0.4823
 3824SOL    HW223109   1.267   3.180   7.746  0.3006  0.9230 -1.0362
 3825SOL     OW23110   3.923   3.576   7.600  0.1129  0.2880 -0.0473
 3825SOL    HW123111   3.986   3.522   7.649 -0.8378 -1.4839 -0.7958
 3825SOL    HW223112   3.958   3.574   7.510 -3.5319  1.0943 -1.4731
 3826SOL     OW23113   4.200   4.298  12.241 -0.0673 -0.1608  0.6264
 3826SOL    HW123114   4.253   4.361  12.191 -1.8737  0.6246 -0.3146
 3826SOL    HW223115   4.225   4.316  12.331  0.7420  2.2735 -0.0605
 3827SOL     OW23116   4.576   3.657   3.770 -0.3817  0.3908 -0.0789
 3827SOL    HW123117   4.591   3.738   3.722 -1.4081 -0.1701 -1.3243
 3827SOL    HW223118   4.625   3.596   3.715  1.8239  2.2785 -0.1861
 3828SOL     OW23119   2.271   0.977   5.112 -0.4615  0.2184 -0.6567
 3828SOL    HW123120   2.312   0.901   5.069  1.8317 -0.5201  2.7956
 3828SOL    HW223121   2.246   0.929   5.190 -0.0056 -2.8218 -2.3406
 3829SOL     OW23122   1.740   1.651   4.798  0.3081 -0.2894  0.1084
 3829SOL    HW123123   1.690   1.571   4.816 -0.2396  0.0418  0.0641
 3829SOL    HW223124   1.815   1.615   4.751 -0.3845 -0.8470 -0.5826
 3830SOL     OW23125   0.103   4.187   8.700 -0.2852 -0.4158 -0.2290
 3830SOL    HW123126   0.115   4.212   8.792 -1.5937 -1.6785  0.2980
 3830SOL    HW223127   0.194   4.164   8.681  0.0646  1.4889 -0.8000
 3831SOL     OW23128   1.072   0.689   8.649 -0.7464 -0.1921  0.2013
 3831SOL    HW123129   1.033   0.717   8.566  1.5967  2.0038 -0.1378
 3831SOL    HW223130   1.139   0.638   8.603 -0.6178  1.1791 -1.1365
 3832SOL     OW23131   0.355   4.040  17.526  0.0266 -0.1336 -0.4320
 3832SOL    HW123132   0.264   4.063  17.543  0.2847  1.4780 -1.1450
 3832SOL    HW223133   0.345   3.945  17.532  0.4204 -0.3176 -2.6027
 3833SOL     OW23134   1.379   0.443   2.617  0.2863 -0.5766  0.3555
 3833SOL    HW123135   1.369   0.368   2.558 -0.6846 -0.2233  0.0749
 3833SOL    HW223136   1.473   0.458   2.618  0.3432 -0.9776  1.9398
 3834SOL     OW23137   4.386   1.757   6.765 -0.1465  0.4713  0.0646
 3834SOL    HW123138   4.313   1.695   6.763  0.6198 -0.3658 -1.2785
 3834SOL    HW223139   4.334   1.837   6.773  0.0912  0.6945 -0.6205
 3835SOL     OW23140   1.421   4.676   4.008 -0.1276 -0.4381  0.2699
 3835SOL    HW123141   1.464   4.596   3.978  1.4546  0.5730 -0.1670
 3835SOL    HW223142   1.348   4.672   3.945  0.0965  1.7969 -0.1439
 3836SOL     OW23143   2.984   3.728   7.451  0.0064  0.3139  0.1710
 3836SOL    HW123144   2.923   3.766   7.514 -0.8547  0.5883 -0.8243
 3836SOL    HW223145   3.056   3.790   7.461 -1.2381  1.9453 -1.0136
 3837SOL     OW23146   2.880   1.582   5.766 -0.1675  0.3945 -0.3824
 3837SOL    HW123147   2.946   1.522   5.800 -0.3788 -0.5071 -1.5465
 3837SOL    HW223148   2.899   1.661   5.815 -0.3036  0.3485 -0.2538
 3838SOL     OW23149   2.701   4.503   5.834  0.1704  0.3586  0.4499
 3838SOL    HW123150   2.723   4.541   5.919  1.7107  2.0337 -0.6977
 3838SOL    HW223151   2.769   4.440   5.812  0.3702  0.2350  1.4323
 3839SOL     OW23152   2.509   2.677   4.540 -0.3988  0.3020 -0.0801
 3839SOL    HW123153   2.446   2.619   4.497  0.1958 -0.8685  0.6262
 3839SOL    HW223154   2.463   2.702   4.620  3.3036 -2.2144  2.8191
 3840SOL     OW23155   2.718   2.243   3.272  0.9769  0.5866  0.2069
 3840SOL    HW123156   2.645   2.226   3.332  0.5698  0.4174 -0.3328
 3840SOL    HW223157   2.705   2.165   3.217  1.0035 -0.3065  1.4677
 3841SOL     OW23158   2.605   0.645   5.050 -0.0069  0.1509  0.1342
 3841SOL    HW123159   2.557   0.607   4.977  0.8812  1.0357 -0.9034
 3841SOL    HW223160   2.539   0.710   5.075 -1.2459 -1.6623  1.5581
 3842SOL     OW23161   2.099   3.827  15.270 -0.3146  0.1340 -0.6330
 3842SOL    HW123162   2.055   3.830  15.355  2.7631  0.4755  0.9351
 3842SOL    HW223163   2.183   3.871  15.284  0.2151 -0.3782 -2.2201
 3843SOL     OW23164   1.577   1.518   1.956  0.4417 -0.3306  0.6885
 3843SOL    HW123165   1.545   1.457   1.889 -1.3241 -1.0013  2.1554
 3843SOL    HW223166   1.579   1.468   2.038  0.4012 -0.8554  0.3718
 3844SOL     OW23167   3.419   3.769  13.710  0.1940 -0.3885  0.3357
 3844SOL    HW123168   3.481   3.787  13.781  1.4117 -0.8117 -0.6152
 3844SOL    HW223169   3.486   3.729  13.654 -0.1852  1.4595 -1.4787
 3845SOL     OW23170   3.311   0.167   5.176 -0.3142  0.3369 -0.4274
 3845SOL    HW123171   3.359   0.119   5.244 -1.7929 -1.1713 -0.4275
 3845SOL    HW223172   3.223   0.129   5.180 -0.1181 -0.4214 -3.0764
 3846SOL     OW23173   3.829   3.746  10.332 -0.5387 -0.1845 -0.2786
 3846SOL    HW123174   3.750   3.771  10.380 -1.0189 -0.2616 -1.0284
 3846SOL    HW223175   3.863   3.677  10.388 -1.1667 -1.1847 -1.1415
 3847SOL     OW23176   1.345   0.400  16.231 -0.1968  0.8405  0.6052
 3847SOL    HW123177   1.332   0.368  16.142  3.0937 -1.1918  0.8811
 3847SOL    HW223178   1.418   0.462  16.229  0.3971  0.1736  1.3639
 3848SOL     OW23179   4.544   2.481  17.497 -0.5241  0.1934  0.4524
 3848SOL    HW123180   4.504   2.400  17.466  0.7252 -0.5515  0.7859
 3848SOL    HW223181   4.469   2.540  17.496  0.6870  1.7790  1.0603
 3849SOL     OW23182   2.282   4.256   7.074  0.0636  0.0044  0.4343
 3849SOL    HW123183   2.309   4.166   7.091  0.3919  0.6453  3.3307
 3849SOL    HW223184   2.358   4.306   7.103  0.1154  0.7344 -0.9755
 3850SOL     OW23185   4.714   1.391   2.417 -0.2069  0.2420 -0.1653
 3850SOL    HW123186   4.675   1.352   2.494  1.0934 -1.5266 -0.3954
 3850SOL    HW223187   0.047   1.433   2.467 -0.1724  1.3326 -1.1302
 3851SOL     OW23188   1.881   2.806   5.044  0.2837 -0.0026 -0.4792
 3851SOL    HW123189   1.919   2.780   5.128  1.3593  2.8933 -0.0850
 3851SOL    HW223190   1.933   2.756   4.981  1.1295  1.0018 -0.5801
 3852SOL     OW23191   3.656   1.992   5.718  0.2401  0.0353 -0.1314
 3852SOL    HW123192   3.569   1.955   5.702 -0.1883 -0.4917  3.3505
 3852SOL    HW223193   3.671   2.029   5.631  0.6687 -1.6745 -0.7755
 3853SOL     OW23194   1.879   3.145  14.699  0.1425 -0.3218 -0.0075
 3853SOL    HW123195   1.816   3.213  14.677  0.5372 -0.1858 -0.7415
 3853SOL    HW223196   1.894   3.175  14.788 -0.8257 -3.3437  1.1701
 3854SOL     OW23197   3.032   0.265   1.912  0.1932  0.1491 -0.0234
 3854SOL    HW123198   3.057   0.173   1.926 -1.5034 -0.2866  0.1521
 3854SOL    HW223199   3.049   0.305   1.997 -2.5221  1.9664 -0.3586
 3855SOL     OW23200   1.647   4.541   5.093 -0.0939 -0.0156  0.3674
 3855SOL    HW123201   1.630   4.626   5.052  0.7979 -0.8615 -1.7746
 3855SOL    HW223202   1.557   4.508   5.094  1.0208 -3.0292 -0.8384
 3856SOL     OW23203   1.600   0.280   5.400 -0.5486  0.0974 -0.2260
 3856SOL    HW123204   1.610   0.250   5.490 -0.2503 -1.3766 -0.7504
 3856SOL    HW223205   1.583   0.203   5.346 -0.2574 -0.6628  0.7707
 3857SOL     OW23206   0.126   1.289   9.972 -0.8047 -0.1716 -0.0442
 3857SOL    HW123207   0.207   1.340   9.974 -0.1974 -1.1329 -0.2278
 3857SOL    HW223208   0.067   1.362   9.993 -0.8922  0.1763 -1.4434
 3858SOL     OW23209   2.626   3.909  11.009 -0.0040  0.1670  0.5377
 3858SOL    HW123210   2.609   3.819  11.034  0.3853  0.3057  1.3020
 3858SOL    HW223211   2.686   3.932  11.080 -0.3336  0.6956  0.6503
 3859SOL     OW23212   3.159   1.133   6.502 -0.5825  0.2618  0.0365
 3859SOL    HW123213   3.199   1.070   6.562  1.2663 -0.1118 -1.5631
 3859SOL    HW223214   3.188   1.207   6.555 -1.3322 -0.2058  1.0785
 3860SOL     OW23215   1.184   1.277   4.861  0.0399 -0.1869  0.3443
 3860SOL    HW123216   1.122   1.299   4.792 -0.5120  0.3124  0.9863
 3860SOL    HW223217   1.123   1.288   4.934 -0.2956  0.0804  0.0214
 3861SOL     OW23218   2.514   2.881  15.481 -0.4214 -0.5786 -0.5028
 3861SOL    HW123219   2.516   2.864  15.576 -0.3929  0.7861 -0.2602
 3861SOL    HW223220   2.600   2.848  15.458  0.9080  1.3419  1.6699
 3862SOL     OW23221   1.318   3.922   1.354  0.4681 -0.0482  0.0120
 3862SOL    HW123222   1.228   3.907   1.323  0.9247 -3.9217  0.6181
 3862SOL    HW223223   1.308   3.905   1.448  1.5433 -0.2982  0.0742
 3863SOL     OW23224   2.742   4.625  11.230  0.0581 -0.9068  0.0469
 3863SOL    HW123225   2.818   4.624  11.289  1.9916  1.2182 -2.3903
 3863SOL    HW223226   2.679   4.621  11.301  1.5504  1.9860  1.5056
 3864SOL     OW23227   4.492   3.658   6.047  0.2815 -0.3513  0.0251
 3864SOL    HW123228   4.507   3.753   6.051  3.5520 -0.8778 -0.0590
 3864SOL    HW223229   4.444   3.650   5.964  0.2199  0.4624 -0.0184
 3865SOL     OW23230   3.943   0.839   3.132 -0.5857  0.1660 -0.3787
 3865SOL    HW123231   3.918   0.817   3.221 -0.2486 -1.3766 -0.6726
 3865SOL    HW223232   3.920   0.932   3.131 -1.9736 -0.1719 -1.1193
 3866SOL     OW23233   1.854   3.202   7.463 -0.6657 -0.8820 -0.0572
 3866SOL    HW123234   1.830   3.219   7.554 -1.3114 -0.7605 -0.2562
 3866SOL    HW223235   1.917   3.275   7.462  0.3810 -1.7549  3.1625
 3867SOL     OW23236   1.013   3.357  17.487  0.2219 -0.1633 -0.9154
 3867SOL    HW123237   0.980   3.271  17.513  0.1505 -0.5344 -2.2367
 3867SOL    HW223238   0.938   3.393  17.440  0.9332  1.3069 -0.9217
 3868SOL     OW23239   2.242   2.611   1.050  0.2218  0.4332 -0.2500
 3868SOL    HW123240   2.224   2.578   0.962  0.3318 -0.2903 -0.0071
 3868SOL    HW223241   2.286   2.693   1.030  0.4148  0.0869 -1.2512
 3869SOL     OW23242   0.634   2.224   3.368 -0.1830 -0.1159 -0.2346
 3869SOL    HW123243   0.633   2.315   3.396 -1.2513 -0.5616  1.1582
 3869SOL    HW223244   0.582   2.240   3.289  1.6564 -0.8856 -1.5992
 3870SOL     OW23245   0.899   4.251   2.987 -0.1866  0.4620 -0.1625
 3870SOL    HW123246   0.877   4.229   3.077  0.5050  1.1102  0.1657
 3870SOL    HW223247   0.855   4.178   2.942  2.0162 -0.7939 -0.3203
 3871SOL     OW23248   1.645   3.426   3.755 -0.2015 -0.4317 -0.0128
 3871SOL    HW123249   1.739   3.412   3.768 -0.1581  3.7998  4.2346
 3871SOL    HW223250   1.609   3.393   3.837 -0.8503 -2.1193 -0.9728
 3872SOL     OW23251   2.282   0.807   9.649 -1.1563 -0.3904 -0.6884
 3872SOL    HW123252   2.329   0.823   9.567 -0.0346  1.9605  0.3988
 3872SOL    HW223253   2.365   0.796   9.695 -0.4584  0.0585 -1.8445
 3873SOL     OW23254   3.645   0.639   2.026 -0.1889 -0.1695  0.1921
 3873SOL    HW123255   3.682   0.622   1.939 -0.2004 -2.6107  0.6519
 3873SOL    HW223256   3.657   0.558   2.077  0.1410  1.1871  2.2699
 3874SOL     OW23257   2.200   1.421  16.647  0.1340  0.2666 -0.3723
 3874SOL    HW123258   2.153   1.366  16.709  1.1534 -1.4120 -1.0971
 3874SOL    HW223259   2.268   1.453  16.707  1.6730 -0.0823 -1.9512
 3875SOL     OW23260   2.393   1.663   2.133 -0.5809  0.3200 -0.0655
 3875SOL    HW123261   2.436   1.595   2.184  1.4288  2.3759  1.0174
 3875SOL    HW223262   2.361   1.620   2.054  1.9360 -0.6940 -0.5277
 3876SOL     OW23263   2.013   3.866  15.533 -0.8406  0.0006  0.0870
 3876SOL    HW123264   2.057   3.906  15.608  0.0678 -0.9944  0.0954
 3876SOL    HW223265   1.963   3.941  15.501 -0.5368  0.0210 -0.3405
 3877SOL     OW23266   2.918   3.629   9.511  0.1866  0.0764 -0.2305
 3877SOL    HW123267   2.826   3.604   9.511  0.4551 -0.8624 -1.3823
 3877SOL    HW223268   2.958   3.544   9.528  0.9335  0.4864  0.0706
 3878SOL     OW23269   0.011   2.565   4.725 -0.2028  0.1402 -0.1394
 3878SOL    HW123270   4.717   2.650   4.755 -1.5345 -1.4355  2.9421
 3878SOL    HW223271   0.006   2.559   4.629  1.5599  1.0258 -0.2952
 3879SOL     OW23272   3.498   0.353   5.775  0.1899  0.3573 -0.7865
 3879SOL    HW123273   3.408   0.345   5.744  0.3202  0.3255 -1.1658
 3879SOL    HW223274   3.497   0.446   5.799  2.2059 -0.2810  1.7327
 3880SOL     OW23275   0.752   0.328   6.297 -0.3169  0.2858 -0.1256
 3880SOL    HW123276   0.677   0.350   6.242 -0.7069 -2.5611 -0.7355
 3880SOL    HW223277   0.727   0.343   6.388  0.2892  0.3288  0.0367
 3881SOL     OW23278   2.149   0.886   6.184 -0.0277  0.1587 -0.2196
 3881SOL    HW123279   2.110   0.972   6.166  1.9688  1.2465  0.6418
 3881SOL    HW223280   2.144   0.886   6.279 -2.7482 -0.3713 -0.3667
 3882SOL     OW23281   1.691   1.102   2.279 -0.5274  0.1011 -0.7510
 3882SOL    HW123282   1.774   1.061   2.303 -0.3029  1.6959  1.2396
 3882SOL    HW223283   1.626   1.036   2.304  0.4729 -0.5604  0.0825
 3883SOL     OW23284   1.967   1.652  17.349  0.1013  0.0791 -0.4354
 3883SOL    HW123285   1.995   1.725  17.294  1.0228 -0.3726 -0.5657
 3883SOL    HW223286   1.875   1.649  17.321  0.0783  2.0891 -0.5769
 3884SOL     OW23287   0.623   1.339  11.962  0.4841 -0.1900  0.1197
 3884SOL    HW123288   0.656   1.288  11.888 -0.2107 -1.8352  0.9268
 3884SOL    HW223289   0.693   1.399  11.988 -1.4361  2.7682 -1.5043
 3885SOL     OW23290   4.211   0.716   8.607 -0.0292 -0.7799 -0.1780
 3885SOL    HW123291   4.278   0.746   8.668 -1.6218  0.7332  0.8205
 3885SOL    HW223292   4.142   0.750   8.663  0.3550  2.5742 -1.7761
 3886SOL     OW23293   3.047   4.073  11.423  0.3186 -0.5602 -0.1127
 3886SOL    HW123294   3.097   3.993  11.439  1.7899  0.3916  0.0331
 3886SOL    HW223295   2.962   4.040  11.451 -0.2995  2.0701  1.1282
 3887SOL     OW23296   3.361   0.606   3.555 -0.5564 -0.2382  0.2041
 3887SOL    HW123297   3.333   0.516   3.569 -1.6508  0.0481 -0.1533
 3887SOL    HW223298   3.301   0.637   3.487 -1.4190 -2.2114  0.0885
 3888SOL     OW23299   0.203   0.849  17.289 -0.3021 -0.2125 -0.1646
 3888SOL    HW123300   0.249   0.774  17.252 -1.6710 -1.2349  0.2063
 3888SOL    HW223301   0.269   0.902  17.333 -0.3816 -0.9292  0.8246
 3889SOL     OW23302   1.343   3.692   9.081  0.4793 -0.4342 -0.1768
 3889SOL    HW123303   1.417   3.649   9.040 -0.9515  0.1723 -3.3952
 3889SOL    HW223304   1.275   3.628   9.058  0.4684 -1.2825  2.2087
 3890SOL     OW23305   4.208   2.087  14.332  0.9049  0.6098  0.3425
 3890SOL    HW123306   4.133   2.080  14.273  0.8615 -1.9112  0.7105
 3890SOL    HW223307   4.230   1.994  14.338 -0.4526  0.2445 -0.4392
 3891SOL     OW23308   3.755   0.240   7.832 -0.2505 -0.4465  0.6461
 3891SOL    HW123309   3.824   0.212   7.891 -1.1562  2.0775  2.9293
 3891SOL    HW223310   3.688   0.273   7.892  1.1210  1.8489  0.9136
 3892SOL     OW23311   1.363   1.656   6.013  0.4673  0.5213 -0.1730
 3892SOL    HW123312   1.419   1.665   5.936 -0.1764 -0.0532 -0.7056
 3892SOL    HW223313   1.425   1.671   6.085  1.3710 -2.2180 -0.3738
 3893SOL     OW23314   4.545   2.430   6.941  0.0380  0.3598  0.1588
 3893SOL    HW123315   4.536   2.512   6.988 -1.9092 -0.5258  1.3192
 3893SOL    HW223316   4.636   2.406   6.958  0.2838  0.9251 -0.3311
 3894SOL     OW23317   2.982   2.633   8.510  0.0789 -0.4178 -0.0011
 3894SOL    HW123318   2.954   2.724   8.501  1.8856  0.3856  2.7496
 3894SOL    HW223319   3.027   2.632   8.594  0.0561 -1.0476  0.0026
 3895SOL     OW23320   4.138   0.341   2.545  0.3799 -0.0824 -0.2915
 3895SOL    HW123321   4.171   0.341   2.635  2.4526  0.7631 -1.0373
 3895SOL    HW223322   4.056   0.389   2.556 -0.0961 -0.3651 -2.6707
 3896SOL     OW23323   4.652   2.510  14.262 -0.2306 -0.9611  0.2796
 3896SOL    HW123324   4.613   2.592  14.231  1.3528  0.0855  1.0216
 3896SOL    HW223325   0.008   2.530  14.245 -0.4124 -0.1324  0.2455
 3897SOL     OW23326   4.137   0.072   9.487  0.4866  0.2934  0.6322
 3897SOL    HW123327   4.183   0.039   9.564  2.3128  0.0762 -0.5593
 3897SOL    HW223328   4.167   0.163   9.478  0.8922  0.0969  0.0333
 3898SOL     OW23329   2.092   4.031   0.067  0.4807  0.3617  0.3388
 3898SOL    HW123330   2.153   3.972   0.111 -1.5329 -1.2033  1.0176
 3898SOL    HW223331   2.119   4.110   0.115  0.0288  0.7267 -0.0179
 3899SOL     OW23332   2.452   2.023   7.184  0.1474 -0.4517  0.2273
 3899SOL    HW123333   2.536   1.984   7.206 -1.1679 -1.3369  3.5450
 3899SOL    HW223334   2.415   1.952   7.132  0.8729  0.3663 -1.4361
 3900SOL     OW23335   1.869   0.143   5.459  0.1910  0.5298 -0.3331
 3900SOL    HW123336   1.814   0.084   5.409  0.2195  1.2230 -1.1900
 3900SOL    HW223337   1.955   0.131   5.418 -0.2699 -2.0132 -0.5217
 3901SOL     OW23338   3.132   1.957   7.095  0.1091 -0.6164 -0.3628
 3901SOL    HW123339   3.088   1.872   7.097 -2.1518  0.5796  0.6673
 3901SOL    HW223340   3.077   2.014   7.043 -0.0512 -0.7036 -0.2891
 3902SOL     OW23341   1.334   2.556   2.274 -0.4065  0.1747  0.3876
 3902SOL    HW123342   1.378   2.472   2.285  1.1886  0.7833 -1.1645
 3902SOL    HW223343   1.299   2.540   2.186 -0.8776  0.6145  0.4972
 3903SOL     OW23344   2.295   0.150  10.524  0.0963  0.0741 -0.6968
 3903SOL    HW123345   2.333   0.173  10.609  0.1405  0.7966 -0.9154
 3903SOL    HW223346   2.311   0.056  10.524  2.7825  0.5366 -1.7897
 3904SOL     OW23347   4.129   3.656  16.411 -0.0514 -0.5157 -0.4213
 3904SOL    HW123348   4.219   3.646  16.381  1.0120 -0.4150  2.6852
 3904SOL    HW223349   4.126   3.577  16.465 -0.8921 -0.3013 -0.1564
 3905SOL     OW23350   4.629   4.156   0.475 -0.0594 -0.2845  0.0726
 3905SOL    HW123351   4.666   4.217   0.412  1.5157  0.2413  1.4877
 3905SOL    HW223352   4.604   4.213   0.548  0.5135 -1.9647  1.5772
 3906SOL     OW23353   0.868   3.366   9.166 -0.1004  0.4261  0.0207
 3906SOL    HW123354   0.779   3.394   9.188 -0.0882  0.9317 -0.5699
 3906SOL    HW223355   0.885   3.421   9.090 -0.3727 -1.6568 -1.5189
 3907SOL     OW23356   2.061   1.534   0.815  0.2439 -0.2382 -1.1067
 3907SOL    HW123357   2.139   1.571   0.773 -0.3707 -0.0109 -2.0521
 3907SOL    HW223358   1.999   1.598   0.778  0.0355  0.2125  0.0064
 3908SOL     OW23359   0.713   3.971   8.768  0.5344 -0.4889 -0.1175
 3908SOL    HW123360   0.696   3.877   8.776 -0.2023 -0.3504 -0.0850
 3908SOL    HW223361   0.672   4.020   8.839 -0.9971 -1.2917 -0.4535
 3909SOL     OW23362   4.592   0.051   4.814  0.2975  0.2016  0.1087
 3909SOL    HW123363   4.639   0.099   4.882  1.5405 -1.8049  0.6848
 3909SOL    HW223364   4.511   0.030   4.859  0.9636  0.7829  1.5913
 3910SOL     OW23365   1.811   0.443   7.157 -0.3952  0.3084  0.1827
 3910SOL    HW123366   1.814   0.350   7.180 -1.7603  0.4982  1.1561
 3910SOL    HW223367   1.829   0.477   7.244 -0.1249 -1.3656  0.7762
 3911SOL     OW23368   0.812   4.349  13.865 -0.5461  0.2665 -0.1585
 3911SOL    HW123369   0.769   4.430  13.838 -0.5853 -0.5800 -2.6294
 3911SOL    HW223370   0.754   4.311  13.930 -0.1893  0.4102  0.2458
 3912SOL     OW23371   3.134   2.038  10.558  0.2056 -1.0008  0.3857
 3912SOL    HW123372   3.066   2.078  10.611  0.1223  0.4227 -0.8165
 3912SOL    HW223373   3.081   1.976  10.508 -0.1556  1.2638 -2.0039
 3913SOL     OW23374   3.569   2.661  13.217 -0.1244 -0.1847  0.4525
 3913SOL    HW123375   3.568   2.688  13.126 -1.6066  0.3215  0.6254
 3913SOL    HW223376   3.653   2.616  13.225  0.6056  1.2630  0.8295
 3914SOL     OW23377   0.531   1.405  11.120 -0.5787 -0.1204 -0.2702
 3914SOL    HW123378   0.473   1.379  11.192 -0.8690  3.1066  0.6624
 3914SOL    HW223379   0.529   1.330  11.060  0.0185 -0.0348 -0.3948
 3915SOL     OW23380   4.320   4.658   4.033  0.1108  0.3664 -0.2905
 3915SOL    HW123381   4.355   4.580   3.991  0.2785 -0.4348  1.3311
 3915SOL    HW223382   4.346   4.721   3.966 -0.9894 -0.2865 -1.3425
 3916SOL     OW23383   2.950   1.237   2.501 -0.6881  0.0354  0.0481
 3916SOL    HW123384   2.975   1.147   2.522 -2.3156 -0.0428  1.6398
 3916SOL    HW223385   2.859   1.240   2.529 -0.4053  0.3759  0.9343
 3917SOL     OW23386   2.565   2.438   4.190  0.2623  0.2744  0.8217
 3917SOL    HW123387   2.517   2.483   4.120 -1.0722  0.2159  1.6921
 3917SOL    HW223388   2.507   2.435   4.266 -0.2667  1.3809  0.4652
 3918SOL     OW23389   4.712   1.327   5.410 -0.1010 -0.4116 -0.2283
 3918SOL    HW123390   4.701   1.401   5.350  2.0809 -0.0825 -0.2510
 3918SOL    HW223391   0.069   1.310   5.401 -0.4302 -1.3463 -2.0097
 3919SOL     OW23392   1.364   3.967   0.687 -0.5672 -0.6607  0.1159
 3919SOL    HW123393   1.329   3.884   0.656 -0.1543 -0.2181 -1.5327
 3919SOL    HW223394   1.311   3.988   0.764 -0.2942  0.4006  0.0141
 3920SOL     OW23395   0.319   1.945   4.567  0.0354 -0.5512  0.2110
 3920SOL    HW123396   0.246   1.882   4.564  0.4126 -0.9414 -0.7585
 3920SOL    HW223397   0.280   2.017   4.617  2.1994  0.4526  0.4266
 3921SOL     OW23398   2.786   4.215   5.745  0.5223  0.2187  0.0927
 3921SOL    HW123399   2.712   4.156   5.761  0.7429  0.4213  1.8421
 3921SOL    HW223400   2.835   4.204   5.827 -1.2993 -0.0579  1.1502
 3922SOL     OW23401   0.274   0.789   1.535  0.1164 -0.7149 -0.1192
 3922SOL    HW123402   0.339   0.830   1.478 -0.2470 -0.8049 -0.6067
 3922SOL    HW223403   0.190   0.820   1.499  0.8265  0.3587 -0.8506
 3923SOL     OW23404   0.720   0.454  10.494  0.6093  0.2737  0.2569
 3923SOL    HW123405   0.708   0.404  10.413 -0.9092  2.0115 -0.6018
 3923SOL    HW223406   0.797   0.503  10.466 -0.5227  0.7480 -2.0502
 3924SOL     OW23407   3.317   3.368   2.138  0.6840 -0.2847  0.4116
 3924SOL    HW123408   3.393   3.426   2.139  0.1281  0.4231  0.8736
 3924SOL    HW223409   3.361   3.285   2.119 -1.6908 -1.3471 -0.4114
 3925SOL     OW23410   0.781   3.779   9.306 -0.3905  0.2908 -0.3664
 3925SOL    HW123411   0.713   3.773   9.239 -1.4847 -0.3417  0.8072
 3925SOL    HW223412   0.760   3.856   9.358 -0.2644  0.1187 -0.0665
 3926SOL     OW23413   1.034   3.773   7.317  0.1024 -0.3478 -0.5299
 3926SOL    HW123414   1.026   3.868   7.310 -2.1475 -0.7405 -3.6054
 3926SOL    HW223415   1.084   3.750   7.239  1.1390 -1.6239  0.5232
 3927SOL     OW23416   1.982   0.482  10.020  0.2178  0.2740 -0.2259
 3927SOL    HW123417   2.073   0.501  10.043  1.0028 -2.3701 -1.2003
 3927SOL    HW223418   1.958   0.416  10.086  1.1236 -0.0020 -0.1716
 3928SOL     OW23419   3.565   2.879  12.171 -0.0920 -0.1053 -0.1455
 3928SOL    HW123420   3.581   2.833  12.254  0.5009 -0.0805 -0.2461
 3928SOL    HW223421   3.471   2.892  12.163  0.0622  1.8161  1.2517
 3929SOL     OW23422   0.830   3.376   6.611 -0.0422 -0.0762 -0.1407
 3929SOL    HW123423   0.924   3.371   6.593  0.0506  1.1316 -0.0290
 3929SOL    HW223424   0.801   3.374   6.519  2.1113  1.4575 -0.8661
 3930SOL     OW23425   1.365   0.669  10.997 -0.2792 -0.4747 -0.0337
 3930SOL    HW123426   1.291   0.705  10.947  0.8630 -0.1978 -1.5371
 3930SOL    HW223427   1.410   0.752  11.013  1.6579 -1.5263 -0.0187
 3931SOL     OW23428   0.562   0.026   4.082  0.1972 -0.4521  0.1766
 3931SOL    HW123429   0.541   0.071   4.164 -0.6215 -0.6581  0.0800
 3931SOL    HW223430   0.628   0.086   4.047 -1.0420 -0.6033 -2.4374
 3932SOL     OW23431   4.387   3.076   9.842  0.6970 -0.2268  0.0137
 3932SOL    HW123432   4.458   3.014   9.827  0.2756 -0.2786 -1.8097
 3932SOL    HW223433   4.394   3.084   9.937  2.3981 -0.3815 -0.1088
 3933SOL     OW23434   3.855   3.252   7.792 -0.2749  0.7218  0.7754
 3933SOL    HW123435   3.933   3.199   7.805 -0.8044 -0.4045 -0.6433
 3933SOL    HW223436   3.873   3.327   7.848 -1.6280  0.8038  1.1201
 3934SOL     OW23437   2.007   2.019   4.163  0.1252  0.8700 -0.1794
 3934SOL    HW123438   1.951   1.945   4.138  2.7701 -1.5219  0.9516
 3934SOL    HW223439   2.085   1.973   4.193 -1.4511 -2.9544 -1.9402
 3935SOL     OW23440   4.503   3.132   5.269 -0.2561 -0.1162  0.5347
 3935SOL    HW123441   4.586   3.110   5.312 -0.3275 -2.3624 -0.4541
 3935SOL    HW223442   4.448   3.098   5.340  0.1731  0.8669  1.3345
 3936SOL     OW23443   1.438   4.190   2.016  0.2343 -0.2088  0.1158
 3936SOL    HW123444   1.379   4.182   1.941  0.5900 -0.2644 -0.1622
 3936SOL    HW223445   1.431   4.105   2.059  4.8482 -0.4001  0.5467
 3937SOL     OW23446   4.715   2.415   7.938  0.3322 -0.0476 -0.6387
 3937SOL    HW123447   4.686   2.337   7.890 -1.3927  0.8284 -1.0384
 3937SOL    HW223448   4.665   2.476   7.882  0.4435  1.4632  0.9196
 3938SOL     OW23449   4.021   1.777   6.026  0.6322  0.0494 -0.1734
 3938SOL    HW123450   4.051   1.817   6.108 -2.5338  1.5646  0.2404
 3938SOL    HW223451   3.945   1.830   6.003 -0.0557  0.9042  3.9500
 3939SOL     OW23452   1.739   4.100  17.279 -0.3616 -0.3024 -0.5183
 3939SOL    HW123453   1.730   4.084  17.373  0.9211  2.0874  0.0051
 3939SOL    HW223454   1.658   4.145  17.252  1.1816  1.6016 -1.9478
 3940SOL     OW23455   3.225   3.677   4.048 -0.1893 -0.2807  0.1924
 3940SOL    HW123456   3.291   3.637   3.991 -0.3464  3.0227 -2.3451
 3940SOL    HW223457   3.168   3.607   4.080 -0.6785 -0.4678 -1.0944
 3941SOL     OW23458   3.540   3.706   8.957 -0.0684  0.0729 -0.0339
 3941SOL    HW123459   3.478   3.649   8.911  0.3735  1.6505 -2.5757
 3941SOL    HW223460   3.496   3.722   9.041  2.1082 -1.5854  1.4134
 3942SOL     OW23461   4.590   4.643   7.532 -0.4709  0.3003  0.3955
 3942SOL    HW123462   4.636   4.678   7.609 -2.3369  0.5423  1.4087
 3942SOL    HW223463   4.607   4.704   7.460 -1.2920 -0.9668 -0.8669
 3943SOL     OW23464   1.526   1.498   4.350  0.0889 -0.0775 -0.1154
 3943SOL    HW123465   1.433   1.522   4.358  0.3555  0.2544  2.0027
 3943SOL    HW223466   1.521   1.444   4.271  0.4933 -1.0948  0.5579
 3944SOL     OW23467   4.691   3.005   1.963 -0.4028  0.4579 -0.5202
 3944SOL    HW123468   4.700   3.009   1.868 -0.1704 -1.0356 -0.5580
 3944SOL    HW223469   4.704   2.911   1.980  4.1248  0.8050 -2.1637
 3945SOL     OW23470   0.452   2.725   3.953  0.5447  0.3077  0.2595
 3945SOL    HW123471   0.442   2.721   4.048 -1.8255 -0.2282 -0.0135
 3945SOL    HW223472   0.493   2.642   3.928  0.0470  0.3832 -0.8179
 3946SOL     OW23473   1.710   0.560   6.237  0.2223  0.0880 -0.1368
 3946SOL    HW123474   1.798   0.592   6.255  0.3579  0.0770 -0.7926
 3946SOL    HW223475   1.672   0.553   6.325  0.0820 -0.7728 -0.2646
 3947SOL     OW23476   2.331   1.042  14.687  0.1503  0.1063 -0.6613
 3947SOL    HW123477   2.391   1.016  14.617  1.3076 -0.5617  0.5609
 3947SOL    HW223478   2.366   0.985  14.756  0.0459  0.8930  0.0283
 3948SOL     OW23479   1.134   0.855  11.200  0.5527  0.2342  0.0272
 3948SOL    HW123480   1.109   0.763  11.195  1.3528  0.1189 -1.8149
 3948SOL    HW223481   1.227   0.854  11.178  0.4227  2.4390 -0.6270
 3949SOL     OW23482   3.720   4.662  17.710 -0.3892 -0.7497 -0.2581
 3949SOL    HW123483   3.666   4.641   0.041 -0.6732 -0.5157 -0.3975
 3949SOL    HW223484   3.701   0.017  17.695 -0.9922 -0.4149  2.4933
 3950SOL     OW23485   3.680   3.270   7.006 -0.6972 -0.0266  0.0013
 3950SOL    HW123486   3.775   3.268   7.003 -0.6949  0.2491 -0.1073
 3950SOL    HW223487   3.657   3.194   7.059 -0.4293  0.5458  0.9269
 3951SOL     OW23488   0.572   1.587   0.531  0.8808  0.2083  0.1410
 3951SOL    HW123489   0.574   1.568   0.437  3.0542 -1.4120  0.4951
 3951SOL    HW223490   0.562   1.500   0.569  1.6710 -0.8425 -2.0444
 3952SOL     OW23491   0.987   2.220   1.463  0.3123  0.2676  0.3106
 3952SOL    HW123492   0.906   2.188   1.423 -0.0432  2.3094 -0.5904
 3952SOL    HW223493   0.988   2.175   1.548 -2.0312 -0.8511 -0.2523
 3953SOL     OW23494   1.558   0.538   3.646  0.3153  0.3219 -0.2872
 3953SOL    HW123495   1.522   0.460   3.603 -2.7614  1.8549 -0.5278
 3953SOL    HW223496   1.512   0.598   3.587 -0.0727  1.2169  0.9308
 3954SOL     OW23497   3.146   4.604   6.235  0.3118 -1.2492  0.3052
 3954SOL    HW123498   3.127   4.561   6.152  1.2828 -3.4536  1.2359
 3954SOL    HW223499   3.160   4.693   6.204 -1.1125 -0.3806  2.0966
 3955SOL     OW23500   0.448   2.124   4.911 -0.2331 -1.0382 -0.2199
 3955SOL    HW123501   0.517   2.062   4.932 -0.1824 -0.1123  2.3606
 3955SOL    HW223502   0.379   2.060   4.896 -1.3580  0.1907 -0.3200
 3956SOL     OW23503   1.731   4.066   5.553  0.0727 -0.1511  0.0497
 3956SOL    HW123504   1.728   4.088   5.646 -1.7597  2.5702 -0.6790
 3956SOL    HW223505   1.821   4.033   5.559  0.5870  1.7544  2.6649
 3957SOL     OW23506   3.182   1.454   8.079  0.2049 -0.6131  0.3541
 3957SOL    HW123507   3.189   1.520   8.148 -0.8015 -0.1777  0.0341
 3957SOL    HW223508   3.091   1.465   8.054  0.5278  1.0703 -0.1084
 3958SOL     OW23509   4.150   4.184   5.793 -0.2500  0.0897  0.1002
 3958SOL    HW123510   4.105   4.266   5.816 -1.1222  0.2650 -2.2336
 3958SOL    HW223511   4.148   4.139   5.877 -3.9749 -0.1508 -0.1261
 3959SOL     OW23512   2.336   1.274   7.725  0.6182  0.2350  0.4012
 3959SOL    HW123513   2.333   1.319   7.640 -0.6259  0.0900  0.3650
 3959SOL    HW223514   2.281   1.334   7.776 -1.0065 -1.4690  0.6540
 3960SOL     OW23515   0.919   3.032   5.682  0.1260  0.1508  0.1391
 3960SOL    HW123516   0.878   2.957   5.639 -0.8976 -0.1502  1.6273
 3960SOL    HW223517   0.945   3.090   5.611  0.5239 -0.4707 -0.2215
 3961SOL     OW23518   0.906   3.649   0.886  0.5897 -0.2232  0.0430
 3961SOL    HW123519   0.992   3.668   0.924  0.5304  0.5043 -0.1987
 3961SOL    HW223520   0.919   3.557   0.863 -0.2908  0.0628 -1.6308
 3962SOL     OW23521   0.166   1.768   3.761 -0.0622 -0.5990 -0.0997
 3962SOL    HW123522   0.235   1.826   3.728 -0.4745 -1.8313 -3.0710
 3962SOL    HW223523   0.220   1.697   3.796 -2.4740 -2.7058 -0.7077
 3963SOL     OW23524   0.858   3.590   9.494  0.5855 -0.3488 -0.5667
 3963SOL    HW123525   0.839   3.635   9.577  0.5354 -2.1519  0.3972
 3963SOL    HW223526   0.807   3.643   9.433 -0.8797 -0.6184  0.4221
 3964SOL     OW23527   0.610   3.639   0.663  0.0333 -0.3950 -0.1363
 3964SOL    HW123528   0.694   3.681   0.648 -0.6041  0.2818 -1.8339
 3964SOL    HW223529   0.565   3.640   0.578  0.1288 -1.8840 -0.1998
 3965SOL     OW23530   0.522   1.990  17.743 -0.3671 -0.3781  0.3888
 3965SOL    HW123531   0.500   1.897  17.737 -0.5277 -0.2335 -1.2105
 3965SOL    HW223532   0.565   2.011  17.660  1.3135  1.2250  1.6509
 3966SOL     OW23533   1.451   2.117   8.949 -0.2965  0.0254 -0.0793
 3966SOL    HW123534   1.435   2.163   9.032  0.8934 -0.6943  0.5464
 3966SOL    HW223535   1.359   2.102   8.928  0.2182  1.0016 -2.9695
 3967SOL     OW23536   1.945   3.358   1.236 -0.2467 -0.4243  0.8239
 3967SOL    HW123537   1.946   3.363   1.331  0.1490 -1.7406  0.8936
 3967SOL    HW223538   1.936   3.449   1.208  1.7795 -0.9100 -1.4532
 3968SOL     OW23539   4.430   4.425   8.600 -0.3380 -0.1088 -0.2193
 3968SOL    HW123540   4.400   4.509   8.634  0.6320 -0.7966  2.3305
 3968SOL    HW223541   4.385   4.423   8.515 -1.8153 -2.4154  0.5895
 3969SOL     OW23542   1.595   4.702   0.416 -0.3300  0.1346  0.1071
 3969SOL    HW123543   1.606   4.714   0.511  2.6654  0.3253 -0.2538
 3969SOL    HW223544   1.668   4.643   0.394  1.5677  2.5993 -0.2136
 3970SOL     OW23545   3.417   3.583   3.622 -0.4043  0.3516 -1.0601
 3970SOL    HW123546   3.465   3.550   3.547 -0.8162  1.5409 -1.8453
 3970SOL    HW223547   3.453   3.667   3.651 -1.8117  0.7311 -0.3855
 3971SOL     OW23548   1.445   2.225   9.201  0.2775  0.4685 -0.3990
 3971SOL    HW123549   1.463   2.209   9.294 -0.3541  0.3126 -0.2978
 3971SOL    HW223550   1.503   2.298   9.181  2.8995 -1.5043 -0.0135
 3972SOL     OW23551   2.211   0.214   5.793 -0.0997  0.0329  0.2174
 3972SOL    HW123552   2.187   0.298   5.755  0.2053  1.5237  3.3711
 3972SOL    HW223553   2.198   0.160   5.715  1.6561  0.6327 -0.4976
 3973SOL     OW23554   4.185   0.791  16.661  0.0458  0.8116  0.4984
 3973SOL    HW123555   4.280   0.776  16.661 -0.0784  0.0151 -0.5797
 3973SOL    HW223556   4.172   0.816  16.569 -0.6172 -1.3842 -0.0183
 3974SOL     OW23557   3.459   0.505   5.183  0.5822  0.8153  0.6682
 3974SOL    HW123558   3.445   0.411   5.192  1.5446  0.8184  2.1706
 3974SOL    HW223559   3.390   0.530   5.121  1.4956 -1.6104 -1.3041
 3975SOL     OW23560   0.576   0.147   3.779  0.4396 -0.0966  0.1661
 3975SOL    HW123561   0.639   0.114   3.843  0.1131  0.0213  0.5482
 3975SOL    HW223562   0.512   0.075   3.772 -1.7322  1.6759  1.7475
 3976SOL     OW23563   1.693   1.866  10.928  0.3904  0.4688  0.0657
 3976SOL    HW123564   1.715   1.777  10.954  0.7835  0.1105 -1.5017
 3976SOL    HW223565   1.634   1.888  11.000  0.1914 -2.1428  0.6913
 3977SOL     OW23566   2.662   4.332   2.974 -0.4554 -0.0385  0.2721
 3977SOL    HW123567   2.743   4.364   3.014  0.3698 -3.6368  1.5479
 3977SOL    HW223568   2.611   4.409   2.950  2.6561  2.0768  0.3561
 3978SOL     OW23569   2.863   3.874   3.977 -0.2225  0.3474  0.4114
 3978SOL    HW123570   2.849   3.781   3.992  0.9229  0.4114  1.7543
 3978SOL    HW223571   2.772   3.902   3.990  0.0912  1.0802  0.9876
 3979SOL     OW23572   0.222   2.811   2.744 -0.7916 -0.2676  0.3714
 3979SOL    HW123573   0.230   2.834   2.837  2.9214 -1.2734  0.2833
 3979SOL    HW223574   0.131   2.808   2.713 -0.3025 -0.2715 -1.0284
 3980SOL     OW23575   0.510   1.570   5.958 -0.2966 -0.1458  0.2502
 3980SOL    HW123576   0.582   1.587   5.896  1.0409  4.3186  3.0328
 3980SOL    HW223577   0.550   1.618   6.030  2.1820 -1.1267 -0.4411
 3981SOL     OW23578   3.587   4.280   1.736  0.0819 -0.1260 -0.1187
 3981SOL    HW123579   3.674   4.304   1.704 -0.7698  3.4563  0.2121
 3981SOL    HW223580   3.585   4.335   1.814 -0.0679  0.6606 -0.6778
 3982SOL     OW23581   3.957   1.399   4.622  0.0282 -0.4322  0.2456
 3982SOL    HW123582   3.881   1.404   4.565  1.1803  2.2697 -1.0380
 3982SOL    HW223583   4.023   1.407   4.554  1.1818  0.5632  1.4916
 3983SOL     OW23584   1.270   4.560   0.468 -0.0912  0.3539 -0.4982
 3983SOL    HW123585   1.262   4.464   0.473  0.6878  0.4189  2.1844
 3983SOL    HW223586   1.341   4.584   0.410 -0.3504  1.0375 -0.5236
 3984SOL     OW23587   2.134   4.291   1.383  0.3829 -0.4799  0.2144
 3984SOL    HW123588   2.196   4.219   1.398  0.4876 -0.4614 -0.1199
 3984SOL    HW223589   2.061   4.257   1.434  0.8279  1.2763  1.9817
 3985SOL     OW23590   0.360   0.980   1.202 -0.0728 -0.4870 -1.1656
 3985SOL    HW123591   0.350   1.044   1.272  0.0906 -0.7019 -0.9439
 3985SOL    HW223592   0.453   0.993   1.181 -0.2934  0.9726 -1.2613
 3986SOL     OW23593   3.422   0.797   7.127 -0.1283  0.5413  0.0547
 3986SOL    HW123594   3.409   0.879   7.080 -0.6206  0.6276  0.3435
 3986SOL    HW223595   3.414   0.829   7.217 -1.8633 -0.5803  0.2819
 3987SOL     OW23596   2.794   3.095   7.057 -0.2963 -0.3773  0.0478
 3987SOL    HW123597   2.718   3.139   7.020 -1.8405 -1.5577  1.8154
 3987SOL    HW223598   2.794   3.021   6.996  2.8829  0.1463 -0.6071
 3988SOL     OW23599   3.846   2.379   9.335  0.2541  0.3114 -0.2213
 3988SOL    HW123600   3.889   2.462   9.354 -0.5050  0.6611 -0.0333
 3988SOL    HW223601   3.767   2.399   9.285  1.3450  2.8787 -0.9040
 3989SOL     OW23602   4.226   3.289   2.487  0.2003  0.2004 -0.9733
 3989SOL    HW123603   4.293   3.225   2.462 -0.6980 -1.7474  1.5459
 3989SOL    HW223604   4.217   3.279   2.582  0.9044  0.3230 -0.8939
 3990SOL     OW23605   4.462   2.175   8.381  0.3129  0.1052 -0.2849
 3990SOL    HW123606   4.519   2.221   8.320  0.9000  0.4395  0.5171
 3990SOL    HW223607   4.433   2.254   8.427  1.2488  0.6897 -0.7039
 3991SOL     OW23608   4.120   1.289  14.766  0.3250  0.4845  0.2697
 3991SOL    HW123609   4.094   1.209  14.813 -1.7974 -0.2982 -2.1952
 3991SOL    HW223610   4.203   1.269  14.724  0.8413  3.8453 -0.2948
 3992SOL     OW23611   1.837   0.391   3.072 -0.2034  0.0331 -0.0178
 3992SOL    HW123612   1.882   0.401   3.156  1.7645 -0.5912 -0.9955
 3992SOL    HW223613   1.753   0.348   3.092 -0.3738  0.3539 -0.0444
 3993SOL     OW23614   1.532   2.512   7.443 -0.1718  0.0450 -0.0531
 3993SOL    HW123615   1.517   2.505   7.538 -0.4126  0.9573 -0.0145
 3993SOL    HW223616   1.444   2.534   7.412 -0.5329 -0.6683  0.4467
 3994SOL     OW23617   2.985   2.987   6.337 -0.1918  0.0108  0.0951
 3994SOL    HW123618   3.010   2.930   6.410 -2.5315  2.8149  3.1423
 3994SOL    HW223619   2.910   3.039   6.367 -2.2443 -2.0763 -1.5045
 3995SOL     OW23620   3.756   3.680   8.416  0.4113  0.7313  0.5292
 3995SOL    HW123621   3.742   3.775   8.412 -3.2688  0.2080  0.6932
 3995SOL    HW223622   3.844   3.680   8.454 -0.1243  1.2309  1.7780
 3996SOL     OW23623   1.936   4.217   8.835 -0.3294 -0.0944  0.2375
 3996SOL    HW123624   1.973   4.133   8.860  0.1587  0.3145  0.9110
 3996SOL    HW223625   1.909   4.255   8.919  1.1190  2.1728 -0.2934
 3997SOL     OW23626   0.861   1.118  12.381 -0.3921  0.0029  0.2232
 3997SOL    HW123627   0.828   1.147  12.295 -0.0794 -0.3391 -0.0101
 3997SOL    HW223628   0.926   1.189  12.384  0.2175 -0.4962 -1.0763
 3998SOL     OW23629   3.526   4.220  15.346 -0.2217 -0.0166  0.5775
 3998SOL    HW123630   3.512   4.242  15.438 -0.8951  2.1145 -0.0407
 3998SOL    HW223631   3.459   4.151  15.343 -1.1206  0.7957  2.0114
 3999SOL     OW23632   4.676   2.195   5.755  0.0051  0.2225  0.7021
 3999SOL    HW123633   4.729   2.172   5.831  2.0797 -1.5046 -1.2655
 3999SOL    HW223634   4.672   2.290   5.742  2.0760  0.1786 -0.3016
 4000SOL     OW23635   4.207   2.298   1.098  0.0416 -0.0981  0.2789
 4000SOL    HW123636   4.295   2.324   1.124 -0.2426  0.9644  0.1822
 4000SOL    HW223637   4.153   2.367   1.137  0.5020  0.4910 -0.1354
 4001SOL     OW23638   0.456   1.373  13.073 -0.0874  0.3949 -0.0011
 4001SOL    HW123639   0.374   1.388  13.120  0.8442 -2.1382  2.4409
 4001SOL    HW223640   0.485   1.288  13.106  2.5086  1.0358 -0.6158
 4002SOL     OW23641   1.706   1.884  17.613  0.2579  0.0461  0.1878
 4002SOL    HW123642   1.784   1.921  17.654  1.0378  1.4660 -2.5219
 4002SOL    HW223643   1.699   1.936  17.533  0.5505  0.2037  0.2656
 4003SOL     OW23644   0.764   0.980   6.078  0.8712 -0.2297  0.0493
 4003SOL    HW123645   0.719   1.052   6.033  0.8413 -0.1754  0.1674
 4003SOL    HW223646   0.720   0.974   6.163 -2.1746 -0.6606 -1.5569
 4004SOL     OW23647   2.931   4.317  13.608  0.3081 -0.8879 -0.6820
 4004SOL    HW123648   2.964   4.317  13.698  1.4773  1.6210 -1.1038
 4004SOL    HW223649   2.838   4.304  13.624  0.5891 -4.2736 -1.7037
 4005SOL     OW23650   2.742   0.896   1.149 -0.0741 -0.2810 -0.0318
 4005SOL    HW123651   2.769   0.815   1.106  0.2210  0.3372 -0.9967
 4005SOL    HW223652   2.664   0.917   1.098 -0.8522 -2.1972  0.3651
 4006SOL     OW23653   4.277   1.084   4.290  0.1473  0.1117  0.7785
 4006SOL    HW123654   4.357   1.050   4.329  1.1285  1.0363 -0.4220
 4006SOL    HW223655   4.309   1.166   4.252  0.0440 -0.4618 -0.5298
 4007SOL     OW23656   1.241   3.311  12.292 -0.7015 -0.0524 -0.3965
 4007SOL    HW123657   1.216   3.399  12.320 -1.6461 -0.2530 -0.5920
 4007SOL    HW223658   1.291   3.326  12.212 -1.2799  2.5081 -0.2620
 4008SOL     OW23659   0.445   4.473   3.999 -0.5705  0.0902  0.2222
 4008SOL    HW123660   0.435   4.379   4.016  0.7323  0.0617  0.8759
 4008SOL    HW223661   0.364   4.499   4.043 -0.7751 -0.3370  0.0943
 4009SOL     OW23662   3.852   2.706   4.006  0.6406  0.3651 -0.2046
 4009SOL    HW123663   3.894   2.783   4.045  1.0824  0.0024  0.0440
 4009SOL    HW223664   3.898   2.711   3.922  1.8419 -0.7433  0.3863
 4010SOL     OW23665   4.113   4.001   1.991  0.1313 -0.0580  0.4347
 4010SOL    HW123666   4.087   3.936   2.057 -0.3353 -0.3157  0.0009
 4010SOL    HW223667   4.149   3.937   1.930 -0.5204 -0.0645  0.0535
 4011SOL     OW23668   0.359   2.510   4.364 -0.4360 -0.5527 -0.0193
 4011SOL    HW123669   0.382   2.532   4.273  0.8820 -0.5842  0.3045
 4011SOL    HW223670   0.385   2.418   4.361 -1.2935 -0.7825 -0.4951
 4012SOL     OW23671   1.825   0.375  12.561 -0.1968  0.2158 -0.2937
 4012SOL    HW123672   1.783   0.318  12.497 -0.7380 -1.0922  1.1978
 4012SOL    HW223673   1.872   0.440  12.510  1.6133  0.7174  2.0154
 4013SOL     OW23674   4.685   0.305  13.598  0.4266 -1.1207 -0.2934
 4013SOL    HW123675   4.696   0.363  13.523  1.5615 -1.0569 -0.0679
 4013SOL    HW223676   4.720   0.362  13.666 -0.9629  1.6376 -1.8675
 4014SOL     OW23677   3.448   2.755  11.668  0.2822  0.0688  0.0376
 4014SOL    HW123678   3.533   2.718  11.691  0.1296 -0.2889  0.0380
 4014SOL    HW223679   3.418   2.693  11.601  1.8126 -1.4015  0.7178
 4015SOL     OW23680   0.161   3.583   6.914 -0.4402 -0.1672  0.2194
 4015SOL    HW123681   0.191   3.669   6.943  0.3458  0.2423 -1.7932
 4015SOL    HW223682   0.070   3.595   6.939 -1.0468  0.2805 -2.2117
 4016SOL     OW23683   0.036   2.146   5.488 -0.0916 -0.1458 -0.2900
 4016SOL    HW123684   0.102   2.213   5.471 -0.5250  0.6008  0.9632
 4016SOL    HW223685   0.018   2.160   5.581  2.6014  1.0591  0.0472
 4017SOL     OW23686   0.883   2.727   9.827 -0.1244 -0.0712 -0.4008
 4017SOL    HW123687   0.906   2.801   9.883 -0.5910 -0.9794  0.9970
 4017SOL    HW223688   0.951   2.660   9.834 -0.3019 -0.3392 -1.2763
 4018SOL     OW23689   2.635   2.656   5.588 -0.0739 -0.0559 -0.0151
 4018SOL    HW123690   2.609   2.608   5.666 -0.7069  1.3949  0.6559
 4018SOL    HW223691   2.581   2.610   5.523 -1.2570  1.3248 -0.0140
 4019SOL     OW23692   0.506   1.884   2.321  0.1931  0.0688 -0.0414
 4019SOL    HW123693   0.587   1.902   2.369 -1.0170  1.9849  1.2433
 4019SOL    HW223694   0.493   1.970   2.280 -3.6545 -0.6262 -0.2812
 4020SOL     OW23695   4.598   2.876  16.508 -0.2425 -0.0863 -0.2060
 4020SOL    HW123696   4.658   2.871  16.582 -1.4175 -1.4887  0.6659
 4020SOL    HW223697   4.651   2.889  16.430 -0.6106 -2.5143 -0.8722
 4021SOL     OW23698   0.983   4.005   7.799  0.4958 -0.4822  0.1804
 4021SOL    HW123699   1.010   4.087   7.759 -1.3358  1.4319  2.8757
 4021SOL    HW223700   0.966   3.953   7.721 -2.5214 -0.3936  0.7971
 4022SOL     OW23701   4.072   3.583   5.694  0.1700  0.3883 -0.9874
 4022SOL    HW123702   4.061   3.660   5.640 -1.5394 -0.1310 -1.3994
 4022SOL    HW223703   4.165   3.578   5.715 -0.3398  0.0382  1.2747
 4023SOL     OW23704   1.031   3.698   8.503  0.0504  0.2039  0.1892
 4023SOL    HW123705   1.060   3.616   8.464  1.6249  0.4623  0.8417
 4023SOL    HW223706   0.938   3.679   8.488  0.5629 -2.2929  0.1249
 4024SOL     OW23707   1.662   1.391   3.385 -0.1169 -0.2530  0.4271
 4024SOL    HW123708   1.649   1.398   3.291 -2.8149 -1.4947  0.7048
 4024SOL    HW223709   1.625   1.471   3.420  0.1610  0.4434 -0.8775
 4025SOL     OW23710   1.056   0.283   7.505  0.2146 -0.3611  0.3901
 4025SOL    HW123711   1.137   0.274   7.454  0.0325  1.1988 -0.1567
 4025SOL    HW223712   1.075   0.216   7.570 -2.1407  0.7176  2.1628
 4026SOL     OW23713   1.938   1.559   4.252  0.5665 -0.0561 -0.2912
 4026SOL    HW123714   1.873   1.517   4.195  0.2938 -2.2672  1.6920
 4026SOL    HW223715   1.988   1.486   4.287  0.2171 -0.1927 -0.0754
 4027SOL     OW23716   2.516   4.498   3.308  0.0219 -0.2415 -0.6228
 4027SOL    HW123717   2.584   4.541   3.256 -1.0539 -0.7497 -2.4754
 4027SOL    HW223718   2.459   4.575   3.304  0.4351  0.1832  1.8200
 4028SOL     OW23719   4.097   4.146   4.713 -0.3719 -0.0243  0.6813
 4028SOL    HW123720   4.119   4.086   4.641  1.3335  1.7345 -0.2435
 4028SOL    HW223721   4.002   4.134   4.716 -0.5432  1.7637  2.5574
 4029SOL     OW23722   2.788   1.544   2.396 -0.0517 -0.0239 -0.3357
 4029SOL    HW123723   2.714   1.549   2.458  2.1777  2.0280  2.1323
 4029SOL    HW223724   2.855   1.571   2.459 -0.5861  1.7079 -0.5098
 4030SOL     OW23725   3.823   1.747  17.182 -0.0108 -0.2141 -0.6744
 4030SOL    HW123726   3.753   1.786  17.129  0.8940 -1.5342 -2.8523
 4030SOL    HW223727   3.790   1.657  17.183 -0.2432 -0.1306 -0.7616
 4031SOL     OW23728   3.362   2.556   1.713  0.7294  0.6893 -0.5961
 4031SOL    HW123729   3.365   2.593   1.625 -0.4839 -0.0813 -0.9608
 4031SOL    HW223730   3.429   2.487   1.717  0.6006  0.5845 -0.2639
 4032SOL     OW23731   2.025   0.932   0.474  0.6516 -0.4870 -0.6883
 4032SOL    HW123732   2.084   0.925   0.398 -0.9496 -2.7405 -1.7022
 4032SOL    HW223733   2.075   0.906   0.551  0.6639  0.1823 -0.4715
 4033SOL     OW23734   2.745   1.105   5.910  0.2061 -0.2828  0.5589
 4033SOL    HW123735   2.725   1.199   5.905 -0.4232 -0.4625 -0.4364
 4033SOL    HW223736   2.800   1.104   5.988  0.6524 -1.6690  0.2233
 4034SOL     OW23737   3.900   4.176   3.728  0.2579 -0.1671 -0.2750
 4034SOL    HW123738   3.839   4.138   3.664  3.9955 -1.3667 -3.1706
 4034SOL    HW223739   3.906   4.107   3.793  1.6511  1.7220  1.5903
 4035SOL     OW23740   0.494   4.515  11.883  1.0165 -0.0217 -0.1421
 4035SOL    HW123741   0.491   4.422  11.903 -0.7810 -0.1585 -1.0192
 4035SOL    HW223742   0.453   4.563  11.956  0.4802 -0.1479 -0.3581
 4036SOL     OW23743   4.229   0.867   6.102 -0.1623 -0.3492 -0.3184
 4036SOL    HW123744   4.242   0.956   6.068 -0.5202 -1.1332 -2.4720
 4036SOL    HW223745   4.175   0.819   6.040 -1.0668  2.0523 -1.4158
 4037SOL     OW23746   2.706   3.124  13.768 -0.6339  0.1326  0.7288
 4037SOL    HW123747   2.645   3.063  13.728 -1.1796  1.7706 -0.9630
 4037SOL    HW223748   2.790   3.080  13.782 -0.8210 -0.2306  0.6876
 4038SOL     OW23749   2.128   4.637   6.593 -0.4737 -0.0214  0.2725
 4038SOL    HW123750   2.223   4.623   6.595 -0.3033  1.2607  1.2507
 4038SOL    HW223751   2.116   4.662   6.685 -0.0471 -4.8277  1.5954
 4039SOL     OW23752   1.559   3.914   1.742  0.3462 -0.2952 -0.2598
 4039SOL    HW123753   1.612   3.992   1.725 -0.4968 -0.0513 -1.7746
 4039SOL    HW223754   1.572   3.894   1.835 -0.9899 -0.0556 -0.0228
 4040SOL     OW23755   2.768   1.659   1.088 -0.4643  0.0105  0.6828
 4040SOL    HW123756   2.812   1.653   1.004  1.1481 -2.0065  1.6799
 4040SOL    HW223757   2.749   1.752   1.099 -2.3601 -0.1329 -1.3794
 4041SOL     OW23758   3.204   2.529   6.035  0.2116  0.0924  0.2058
 4041SOL    HW123759   3.270   2.460   6.027 -1.9060 -2.4724  4.6898
 4041SOL    HW223760   3.250   2.603   5.996  0.3325  0.7946  1.6696
 4042SOL     OW23761   1.569   4.098   2.332  0.0925 -0.2927 -0.2408
 4042SOL    HW123762   1.524   4.171   2.374 -2.5439 -2.7442  1.2448
 4042SOL    HW223763   1.494   4.047   2.301  1.0914 -0.7700 -1.8745
 4043SOL     OW23764   2.467   2.954   3.181  0.8874  0.1433 -0.2515
 4043SOL    HW123765   2.524   3.020   3.220  0.9898 -0.4936  0.7004
 4043SOL    HW223766   2.423   2.921   3.260 -1.2101  1.4443 -0.8970
 4044SOL     OW23767   1.163   1.275   8.792 -0.0752  0.3040  0.2838
 4044SOL    HW123768   1.139   1.333   8.864 -1.4856  0.5648 -0.3750
 4044SOL    HW223769   1.185   1.195   8.840 -1.0150 -0.7640 -1.0460
 4045SOL     OW23770   3.578   4.683   1.199  0.1005  0.3721 -0.0897
 4045SOL    HW123771   3.559   4.647   1.286  0.1868 -0.6857 -0.5208
 4045SOL    HW223772   3.670   4.659   1.188  0.1583  1.4053 -1.8239
 4046SOL     OW23773   3.394   3.893   4.032  0.0070  0.3826  0.1852
 4046SOL    HW123774   3.477   3.853   4.009 -0.8129 -0.6529 -0.9762
 4046SOL    HW223775   3.352   3.814   4.067 -1.0390  0.6776 -0.4073
 4047SOL     OW23776   0.370   4.412   6.550  0.5232  0.4065  0.0001
 4047SOL    HW123777   0.398   4.324   6.528  3.5231  1.3251  0.1907
 4047SOL    HW223778   0.275   4.415   6.541  0.3932 -0.1542  1.1844
 4048SOL     OW23779   0.322   0.162   5.039  0.1571 -0.1445 -0.0481
 4048SOL    HW123780   0.391   0.146   5.104  0.4403  0.0697 -0.2942
 4048SOL    HW223781   0.348   0.084   4.990  1.5431 -0.9718  1.9689
 4049SOL     OW23782   3.385   1.851   5.405 -0.0752 -0.5380 -0.4762
 4049SOL    HW123783   3.354   1.939   5.387 -0.7409 -0.5353  0.6884
 4049SOL    HW223784   3.392   1.810   5.319  2.1182 -0.9819 -0.0996
 4050SOL     OW23785   0.227   4.477   1.912  0.1146  0.0371 -0.3634
 4050SOL    HW123786   0.273   4.487   1.995  0.6562  1.9128 -0.8992
 4050SOL    HW223787   0.144   4.524   1.908  0.7468  1.1909  0.3241
 4051SOL     OW23788   3.150   0.762  13.377  0.3267 -0.2174 -0.0101
 4051SOL    HW123789   3.063   0.796  13.399  0.9719  1.5422 -0.2008
 4051SOL    HW223790   3.201   0.810  13.442 -0.4252 -0.4257  0.7511
 4052SOL     OW23791   3.655   1.899   6.164  0.5792  0.0379 -0.0022
 4052SOL    HW123792   3.595   1.919   6.237  1.4603 -0.2272  0.8008
 4052SOL    HW223793   3.728   1.865   6.215  0.7741  0.4368 -0.0152
 4053SOL     OW23794   0.758   0.841   5.813  0.3142 -0.3942 -0.1716
 4053SOL    HW123795   0.785   0.876   5.898 -2.3514 -0.2113  0.5870
 4053SOL    HW223796   0.732   0.753   5.842  0.2307 -0.6865 -1.1417
 4054SOL     OW23797   1.041   0.761   8.377  0.2510  0.2927 -0.2295
 4054SOL    HW123798   1.053   0.855   8.381 -0.2216  0.3008  1.1627
 4054SOL    HW223799   1.079   0.731   8.294 -0.3067  1.4168 -0.8863
 4055SOL     OW23800   3.920   4.309   5.531  0.0155  0.1668  0.4228
 4055SOL    HW123801   3.929   4.225   5.486  1.1736 -0.9649  2.8001
 4055SOL    HW223802   3.873   4.280   5.609 -1.1791  2.0731  0.4450
 4056SOL     OW23803   2.744   0.499  10.925  0.6862  0.1368 -0.0790
 4056SOL    HW123804   2.786   0.548  10.996 -1.8593 -0.1130  1.5935
 4056SOL    HW223805   2.698   0.448  10.992  0.8236  1.9131  1.3781
 4057SOL     OW23806   4.117   2.451   9.182 -0.8706  0.0350  0.9052
 4057SOL    HW123807   4.117   2.539   9.219  1.9554  1.2048 -1.9028
 4057SOL    HW223808   4.088   2.476   9.095 -0.8438 -1.0200  0.5871
 4058SOL     OW23809   4.679   3.691   5.741 -0.0398  0.3424  0.6990
 4058SOL    HW123810   4.700   3.610   5.787  0.0143 -0.2410 -0.3354
 4058SOL    HW223811   0.022   3.744   5.736 -0.4207  0.7082 -1.3821
 4059SOL     OW23812   3.293   0.248   4.224  0.5999  0.2146 -0.6683
 4059SOL    HW123813   3.332   0.332   4.249  0.0572 -0.1519  1.4406
 4059SOL    HW223814   3.242   0.283   4.151 -1.3456 -1.2074  0.0019
 4060SOL     OW23815   0.610   0.907  14.238 -0.3395  0.5501  0.4210
 4060SOL    HW123816   0.675   0.929  14.171  0.3005 -1.0523  0.5240
 4060SOL    HW223817   0.651   0.828  14.275  0.2327  0.5429 -0.2316
 4061SOL     OW23818   1.239   2.214   1.387  0.1541  0.1649 -0.3887
 4061SOL    HW123819   1.279   2.299   1.405  1.9177 -0.9215  0.7808
 4061SOL    HW223820   1.149   2.234   1.413  0.9395 -0.4764  2.8178
 4062SOL     OW23821   0.704   3.613  10.311  0.2882  0.2216 -0.1646
 4062SOL    HW123822   0.682   3.577  10.397  0.8970 -1.6946 -0.8170
 4062SOL    HW223823   0.729   3.538  10.258 -1.9873  0.6904 -1.9132
 4063SOL     OW23824   3.231   1.292   9.886 -0.1844  0.1465 -0.8281
 4063SOL    HW123825   3.273   1.210   9.858  1.4332 -0.5924  3.8875
 4063SOL    HW223826   3.306   1.321   9.938 -1.7075  0.1094  1.3579
 4064SOL     OW23827   4.087   4.375   3.645 -0.1183 -0.1472 -0.6483
 4064SOL    HW123828   4.063   4.374   3.553  2.0356  1.1161 -1.2254
 4064SOL    HW223829   4.044   4.295   3.676 -1.7308  0.8149 -0.3992
 4065SOL     OW23830   3.677   0.280  10.024  0.0006  0.3342 -0.3328
 4065SOL    HW123831   3.643   0.311   9.940 -1.0824 -0.3789 -0.1574
 4065SOL    HW223832   3.765   0.318  10.027 -0.2529  0.9336 -0.5936
 4066SOL     OW23833   0.391   1.173   2.134  0.0771 -0.3165  0.1483
 4066SOL    HW123834   0.319   1.233   2.117 -0.2020  0.4173  3.9630
 4066SOL    HW223835   0.352   1.100   2.183  1.0047 -0.3826  0.8125
 4067SOL     OW23836   1.838   4.019   7.404 -0.1834  0.6806 -0.4991
 4067SOL    HW123837   1.846   3.938   7.353  0.4386  0.3343  0.1466
 4067SOL    HW223838   1.915   4.070   7.379  0.6846  0.3658  1.4796
 4068SOL     OW23839   0.882   1.247   4.602  0.1637 -0.1838  0.3692
 4068SOL    HW123840   0.808   1.307   4.612  1.0993  1.2098 -1.1177
 4068SOL    HW223841   0.849   1.158   4.619  0.5267 -0.8623 -2.4620
 4069SOL     OW23842   1.239   1.633   3.612 -0.4865 -0.0413  0.3942
 4069SOL    HW123843   1.159   1.584   3.632 -0.7017  0.0607 -0.1906
 4069SOL    HW223844   1.281   1.642   3.697  0.6678  1.1381 -0.3003
 4070SOL     OW23845   0.439   0.296  15.024  0.4683 -0.7246  0.3821
 4070SOL    HW123846   0.531   0.267  15.023  1.3829  2.1189  2.1117
 4070SOL    HW223847   0.406   0.227  15.081 -0.9974 -0.5573 -0.2725
 4071SOL     OW23848   3.139   2.604   6.730 -0.2464 -0.0854  0.4765
 4071SOL    HW123849   3.044   2.593   6.724 -0.0624 -0.2819 -2.3677
 4071SOL    HW223850   3.164   2.534   6.669 -2.8356 -0.6092  0.0122
 4072SOL     OW23851   1.931   0.715  10.638 -0.2070 -0.3868 -0.5629
 4072SOL    HW123852   1.856   0.754  10.593  0.8171  3.5827  1.1956
 4072SOL    HW223853   1.948   0.642  10.578  3.4613 -0.7148  0.9486
 4073SOL     OW23854   2.896   4.306   4.140  0.4262 -0.0857  0.2687
 4073SOL    HW123855   2.852   4.376   4.189  2.1771 -0.0991  1.8404
 4073SOL    HW223856   2.835   4.305   4.066  1.3922 -0.1178 -0.5278
 4074SOL     OW23857   4.680   0.412   9.567  0.1499 -0.0584 -0.1891
 4074SOL    HW123858   4.731   0.480   9.522  0.4672  0.5298  1.0336
 4074SOL    HW223859   4.607   0.463   9.603 -0.4456 -1.5274  0.6477
 4075SOL     OW23860   0.991   2.497   2.162  0.1825 -0.1333 -0.0795
 4075SOL    HW123861   0.994   2.402   2.156  0.2484 -0.3433  3.3248
 4075SOL    HW223862   1.076   2.520   2.124  0.3971  3.8484  2.7579
 4076SOL     OW23863   3.569   4.537   4.073 -0.0001 -0.4423 -0.0552
 4076SOL    HW123864   3.498   4.496   4.123 -1.1165  1.2756 -0.2195
 4076SOL    HW223865   3.575   4.610   4.136 -2.3457  0.4966 -0.9228
 4077SOL     OW23866   1.343   3.511   1.567  0.0501 -0.1757 -0.4505
 4077SOL    HW123867   1.325   3.530   1.659  1.3804 -3.4522  0.4720
 4077SOL    HW223868   1.321   3.596   1.529  0.7160 -0.2636 -1.0228
 4078SOL     OW23869   2.990   1.829   9.085  0.2484 -0.0400  0.4843
 4078SOL    HW123870   2.939   1.748   9.086 -0.4778  0.3934 -0.8316
 4078SOL    HW223871   3.054   1.802   9.150 -1.0828 -1.1806  1.3345
 4079SOL     OW23872   0.049   1.335  13.590  0.2346 -0.0035 -0.2605
 4079SOL    HW123873   0.139   1.303  13.595  1.1031  2.7698  1.7430
 4079SOL    HW223874   0.020   1.294  13.671  3.3567 -3.0409 -0.7240
 4080SOL     OW23875   4.273   2.664   3.734 -0.2597  0.4637  0.5695
 4080SOL    HW123876   4.348   2.724   3.735 -0.7495  1.0887  0.0840
 4080SOL    HW223877   4.288   2.606   3.808  0.5097 -1.4637 -1.1097
 4081SOL     OW23878   1.580   0.058  10.013 -0.2218 -0.8127  0.0188
 4081SOL    HW123879   1.614   0.147  10.001 -1.3242 -0.2551  0.9670
 4081SOL    HW223880   1.514   0.078  10.080 -0.8295 -2.3427 -0.1299
 4082SOL     OW23881   4.462   1.009  12.630 -0.1541  0.0339  0.4688
 4082SOL    HW123882   4.394   1.075  12.621  0.1340  0.1280 -0.9497
 4082SOL    HW223883   4.433   0.967  12.711 -0.9909 -0.3610 -0.0465
 4083SOL     OW23884   4.050   0.765   1.707  0.1133  0.3953  0.4198
 4083SOL    HW123885   4.017   0.694   1.762 -2.3613  1.1198 -0.0936
 4083SOL    HW223886   4.025   0.841   1.758 -2.6842 -0.0288 -0.3028
 4084SOL     OW23887   1.793   4.605   9.093 -0.4013 -0.0104 -0.4638
 4084SOL    HW123888   1.809   4.654   9.013 -0.7106 -0.0116 -0.5280
 4084SOL    HW223889   1.698   4.603   9.082 -0.2928 -1.7915 -1.0694
 4085SOL     OW23890   2.894   2.912   9.622 -0.1135 -0.2866 -0.0936
 4085SOL    HW123891   2.955   2.880   9.556  0.1418  2.8593 -1.3571
 4085SOL    HW223892   2.958   2.887   9.690 -1.6572 -1.4118  0.9584
 4086SOL     OW23893   1.491   3.652   5.028  0.6569 -0.6570  0.3220
 4086SOL    HW123894   1.457   3.597   5.099 -1.5613  0.7055  0.3079
 4086SOL    HW223895   1.528   3.729   5.072  2.7929 -1.6063  0.1643
 4087SOL     OW23896   0.543   0.328   1.595  0.2937  0.4156  0.6801
 4087SOL    HW123897   0.539   0.405   1.652 -1.1715  1.8563 -1.3776
 4087SOL    HW223898   0.634   0.327   1.567 -0.6816 -0.3301 -2.4240
 4088SOL     OW23899   4.216   1.941   3.628 -0.1916  0.5919  0.1650
 4088SOL    HW123900   4.255   1.949   3.715  2.2713  0.1858 -0.9102
 4088SOL    HW223901   4.133   1.987   3.638 -0.9548 -0.5701 -0.8619
 4089SOL     OW23902   1.326   3.759  17.282  0.6631 -0.9323  0.3714
 4089SOL    HW123903   1.394   3.706  17.324  1.4002 -0.2291  0.0422
 4089SOL    HW223904   1.249   3.730  17.332  0.5315 -1.0157  0.1205
 4090SOL     OW23905   0.451   2.655   5.982  0.1935 -0.1337  0.1092
 4090SOL    HW123906   0.453   2.576   5.929 -0.9830 -0.5300  0.6429
 4090SOL    HW223907   0.513   2.639   6.054  0.1134  0.0954  0.2299
 4091SOL     OW23908   2.118   4.049  15.728  0.1322 -0.1715 -0.2496
 4091SOL    HW123909   2.127   4.046  15.823 -1.8118 -1.5855 -0.1149
 4091SOL    HW223910   2.061   4.126  15.721 -1.1864 -0.9881  1.6438
 4092SOL     OW23911   2.756   3.633   6.034  0.7282  0.4375 -0.3359
 4092SOL    HW123912   2.818   3.702   6.012  0.1136  1.4316  1.0054
 4092SOL    HW223913   2.735   3.664   6.122  0.6250 -4.1396  1.2626
 4093SOL     OW23914   0.214   0.079  16.950 -0.1122 -0.9781  0.1430
 4093SOL    HW123915   0.130   0.077  16.998 -0.2093 -0.3597 -0.0042
 4093SOL    HW223916   0.228   4.721  16.954 -0.5574 -1.0750 -0.7134
 4094SOL     OW23917   0.475   4.274   9.383 -0.1322 -0.4669 -0.0111
 4094SOL    HW123918   0.448   4.340   9.447  2.5346  0.7315 -0.1388
 4094SOL    HW223919   0.492   4.199   9.440 -0.3864 -0.6530 -0.1796
 4095SOL     OW23920   1.060   4.150   1.963 -0.4885  0.2528 -0.0443
 4095SOL    HW123921   1.078   4.239   1.993 -0.9990  0.7414 -1.1818
 4095SOL    HW223922   0.966   4.152   1.945 -0.5013 -0.0780 -0.0117
 4096SOL     OW23923   0.988   0.028   6.809 -0.7373  0.2398  0.5667
 4096SOL    HW123924   0.997   0.014   6.715  2.1544 -1.5387  1.0968
 4096SOL    HW223925   0.945   4.683   6.832 -2.3513  0.9499  0.0684
 4097SOL     OW23926   1.123   2.976   1.444 -0.2797  0.0735  0.0771
 4097SOL    HW123927   1.104   2.896   1.493 -1.8538  1.0549  1.0711
 4097SOL    HW223928   1.144   3.034   1.518  0.3958  0.5414 -0.4783
 4098SOL     OW23929   1.238   1.176   6.193 -0.4744 -0.3145  0.9263
 4098SOL    HW123930   1.153   1.153   6.156  1.4892 -1.7894 -2.6409
 4098SOL    HW223931   1.269   1.243   6.131  0.3608 -1.5877 -0.0369
 4099SOL     OW23932   3.442   4.685   4.450  0.0506 -0.0775  0.0754
 4099SOL    HW123933   3.528   4.707   4.486 -0.9701  0.6623  2.0648
 4099SOL    HW223934   3.388   0.010   4.500 -2.8705 -1.0009 -1.8992
 4100SOL     OW23935   4.514   2.693   6.486  0.0777 -0.7707  0.4848
 4100SOL    HW123936   4.446   2.761   6.491  0.7561 -0.2173  2.0105
 4100SOL    HW223937   4.463   2.612   6.490 -0.3785 -0.5343 -0.3590
 4101SOL     OW23938   2.394   1.693  14.190  0.3037  0.1132  0.3134
 4101SOL    HW123939   2.362   1.614  14.146 -0.6516  0.8414 -0.2848
 4101SOL    HW223940   2.369   1.666  14.279 -0.3247  0.0444  0.1148
 4102SOL     OW23941   0.735   3.422  13.971  0.7118  0.2207 -0.4664
 4102SOL    HW123942   0.647   3.425  13.932 -0.4315 -2.9160  1.9125
 4102SOL    HW223943   0.757   3.336  13.935 -0.8752 -0.4876  0.2525
 4103SOL     OW23944   3.501   4.520  11.312 -0.2316  0.3182 -0.4138
 4103SOL    HW123945   3.414   4.545  11.283  0.8932  1.2792 -2.9806
 4103SOL    HW223946   3.489   4.465  11.390  0.5564  1.0349  0.2149
 4104SOL     OW23947   3.659   1.067   1.296  0.4747  0.0251  0.1424
 4104SOL    HW123948   3.680   1.139   1.236 -0.1303 -0.5099 -0.7082
 4104SOL    HW223949   3.564   1.073   1.305  0.4866 -0.4129  0.5438
 4105SOL     OW23950   3.031   0.085   7.668  0.8306  0.1271  0.6886
 4105SOL    HW123951   2.980   0.015   7.628 -0.1507  0.9981  0.4226
 4105SOL    HW223952   3.111   0.072   7.616  1.7669  0.7961  1.9435
 4106SOL     OW23953   3.667   4.423   4.345 -0.2934 -0.8695  0.6600
 4106SOL    HW123954   3.700   4.363   4.412  0.8725 -0.1717  0.7073
 4106SOL    HW223955   3.589   4.377   4.314 -0.1242  0.0118 -1.0766
 4107SOL     OW23956   3.812   1.642   8.995 -0.5415  0.1619 -0.3846
 4107SOL    HW123957   3.849   1.615   9.079  2.1566 -0.0868 -1.6488
 4107SOL    HW223958   3.719   1.653   9.014 -0.2378 -0.2848  1.3453
 4108SOL     OW23959   1.227   4.505  17.112  0.1417 -0.5841 -0.3120
 4108SOL    HW123960   1.257   4.514  17.203 -1.2928  0.2511  0.0849
 4108SOL    HW223961   1.308   4.539  17.074 -1.0286  0.6305 -1.7100
 4109SOL     OW23962   2.019   2.527   2.944 -0.3106 -0.1461 -0.0547
 4109SOL    HW123963   1.939   2.527   2.997  0.6919  0.6771  1.4719
 4109SOL    HW223964   2.086   2.528   3.012 -0.7556  1.5091  0.3546
 4110SOL     OW23965   0.882   3.329  10.342  0.2309 -0.5543  0.1941
 4110SOL    HW123966   0.846   3.319  10.253 -1.0998 -0.3652  0.7117
 4110SOL    HW223967   0.913   3.240  10.362  2.3965 -0.1700 -1.3962
 4111SOL     OW23968   1.958   0.945   3.949  0.0602 -0.3697 -0.3691
 4111SOL    HW123969   1.867   0.920   3.968  0.5689 -1.6204  0.3925
 4111SOL    HW223970   1.985   0.914   4.035 -0.2137  1.5294  0.4142
 4112SOL     OW23971   0.419   2.902   8.965  0.8697 -0.2729  0.3346
 4112SOL    HW123972   0.399   2.935   8.877 -1.6020 -3.4451 -0.3104
 4112SOL    HW223973   0.502   2.856   8.950  1.6799  0.9941  0.9975
 4113SOL     OW23974   3.156   2.558   5.573 -0.5112  0.3125 -0.1863
 4113SOL    HW123975   3.118   2.537   5.488  0.3440  0.8782 -0.7084
 4113SOL    HW223976   3.082   2.583   5.628  0.2727  1.1567  0.4884
 4114SOL     OW23977   1.300   1.985   7.949  0.0636  0.1690 -0.0079
 4114SOL    HW123978   1.329   1.954   8.035  1.8983  0.7586 -0.4302
 4114SOL    HW223979   1.261   2.064   7.986 -0.0466 -0.1477  0.5564
 4115SOL     OW23980   2.628   0.388   3.893  0.1796  0.1772  0.1910
 4115SOL    HW123981   2.663   0.462   3.943  1.2019 -1.2702  1.6192
 4115SOL    HW223982   2.571   0.427   3.826 -1.0294 -0.4529  0.8580
 4116SOL     OW23983   0.136   0.044  14.971  0.4624 -0.2599  0.1324
 4116SOL    HW123984   0.059   0.053  15.027 -0.1430 -0.6073 -0.6452
 4116SOL    HW223985   0.201   0.103  15.007  0.4104 -1.2299  1.7978
 4117SOL     OW23986   2.537   4.497   4.849  0.3554  0.1994 -0.0765
 4117SOL    HW123987   2.580   4.482   4.934 -1.0936  1.1611  0.8325
 4117SOL    HW223988   2.515   4.590   4.856  1.3720  0.4630 -0.3946
 4118SOL     OW23989   0.127   1.473   5.007  0.2761 -0.3742  0.0852
 4118SOL    HW123990   0.188   1.453   5.078  0.7789 -1.9829 -0.8012
 4118SOL    HW223991   0.065   1.400   5.015  0.0825 -0.1361  0.7888
 4119SOL     OW23992   4.639   3.323   9.905 -0.7894  0.0189 -0.1145
 4119SOL    HW123993   4.678   3.236   9.909  0.8494  0.7782  0.3062
 4119SOL    HW223994   4.625   3.333   9.811  0.0527  3.1492  0.1080
 4120SOL     OW23995   2.206   1.536   5.899 -0.5812  0.6781 -0.2362
 4120SOL    HW123996   2.293   1.507   5.870 -0.9145 -0.3724 -0.1893
 4120SOL    HW223997   2.214   1.528   5.994  1.1323  0.6123 -0.3795
 4121SOL     OW23998   4.093   1.168   4.087 -0.1745 -0.6518  0.1595
 4121SOL    HW123999   4.144   1.132   4.160  0.5413  0.8212  0.3971
 4121SOL    HW224000   4.062   1.247   4.130 -0.6435 -0.9625  0.3840
 4122SOL     OW24001   3.648   4.313   9.415 -0.1788 -0.0890 -0.1857
 4122SOL    HW124002   3.672   4.220   9.407  0.4189  0.0945 -0.5378
 4122SOL    HW224003   3.632   4.341   9.325  0.5425 -2.0039 -0.9166
 4123SOL     OW24004   3.337   4.250   4.987 -0.1883  0.3086 -0.2021
 4123SOL    HW124005   3.262   4.301   4.958 -0.7805  0.3175  1.3226
 4123SOL    HW224006   3.413   4.309   4.989  1.8090 -2.2261 -1.6827
 4124SOL     OW24007   0.759   1.110  17.151 -0.7804 -0.2209 -0.7648
 4124SOL    HW124008   0.841   1.138  17.193 -0.9316 -0.1825 -0.4911
 4124SOL    HW224009   0.727   1.189  17.108 -3.9233 -0.8558  0.4274
 4125SOL     OW24010   0.291   2.958   4.854 -0.1352  0.3550  0.4245
 4125SOL    HW124011   0.368   2.918   4.893 -0.4136  1.1834  1.8132
 4125SOL    HW224012   0.287   3.033   4.914  0.0189 -0.4344  1.4107
 4126SOL     OW24013   1.658   3.195  13.428 -0.0642 -0.0526  0.8037
 4126SOL    HW124014   1.727   3.261  13.441 -0.2081  0.6351 -1.8263
 4126SOL    HW224015   1.639   3.172  13.519  0.1200  0.0990  0.8820
 4127SOL     OW24016   3.717   4.607   8.254 -0.4013  0.7536  0.9048
 4127SOL    HW124017   3.706   4.613   8.159  0.1112  1.2609  0.8766
 4127SOL    HW224018   3.626   4.622   8.277  0.1847  2.0628  2.3585
 4128SOL     OW24019   1.807   3.141   5.494 -0.2073  0.0501  0.2053
 4128SOL    HW124020   1.867   3.211   5.518  0.2525  0.9598 -3.5415
 4128SOL    HW224021   1.848   3.133   5.408  0.2080 -1.6753  0.5705
 4129SOL     OW24022   2.879   4.565   3.010  0.1669 -0.1888 -0.4403
 4129SOL    HW124023   2.967   4.564   2.971 -0.3454 -2.7522 -1.4928
 4129SOL    HW224024   2.902   4.514   3.088 -1.0002 -0.0752 -0.0219
 4130SOL     OW24025   2.537   1.940  12.325  0.4286 -0.4556 -0.1001
 4130SOL    HW124026   2.623   1.912  12.354  0.0592 -2.1906 -0.6994
 4130SOL    HW224027   2.497   1.970  12.406 -0.1649 -2.9189  0.5092
 4131SOL     OW24028   3.124   2.607   3.974 -0.1304 -0.0735  0.1811
 4131SOL    HW124029   3.167   2.540   3.920  1.9613  2.4935 -1.3430
 4131SOL    HW224030   3.188   2.606   4.045  1.0064 -2.3823 -0.8495
 4132SOL     OW24031   4.259   0.029   6.739  0.1982 -0.1123  0.2980
 4132SOL    HW124032   4.231   4.724   6.657  0.8808 -0.0452  0.0333
 4132SOL    HW224033   4.352   0.009   6.745  0.3235 -0.0028 -1.4287
 4133SOL     OW24034   0.449   2.352   3.672 -0.4605 -0.0999 -0.4818
 4133SOL    HW124035   0.358   2.374   3.653 -0.3699  2.0450  1.5180
 4133SOL    HW224036   0.500   2.416   3.623 -1.6151  1.8564  0.8320
 4134SOL     OW24037   0.581   2.699   8.896  0.1798 -0.9158 -0.1129
 4134SOL    HW124038   0.624   2.672   8.815  0.8941  0.3988 -0.1796
 4134SOL    HW224039   0.520   2.625   8.899 -0.8233 -0.0324  1.6472
 4135SOL     OW24040   1.695   4.416   7.524  0.2873  0.7366 -0.0955
 4135SOL    HW124041   1.604   4.386   7.524  1.5662 -3.1122 -3.3388
 4135SOL    HW224042   1.712   4.435   7.431  1.6226  1.3740  0.2773
 4136SOL     OW24043   3.003   3.744   0.191  0.5579 -0.0839 -0.3862
 4136SOL    HW124044   3.053   3.775   0.267 -1.3484 -0.6599  1.0772
 4136SOL    HW224045   3.052   3.663   0.173  0.0718 -0.4894  0.1401
 4137SOL     OW24046   2.998   0.472   1.130 -0.2192  0.3614  0.3770
 4137SOL    HW124047   2.971   0.380   1.124  0.4644  0.1698  0.2506
 4137SOL    HW224048   3.018   0.487   1.222  0.4421 -1.1252  0.4833
 4138SOL     OW24049   4.169   2.417   9.802 -0.2630  0.2606  0.1990
 4138SOL    HW124050   4.239   2.353   9.792 -0.8065 -0.2987 -0.0006
 4138SOL    HW224051   4.216   2.489   9.845 -0.5704  0.4514  0.2175
 4139SOL     OW24052   0.635   0.057   6.108 -0.8268 -0.1613 -0.2250
 4139SOL    HW124053   0.587   0.128   6.066  0.4717  1.4999  1.1361
 4139SOL    HW224054   0.721   0.099   6.111  0.0028 -1.8427 -0.3541
 4140SOL     OW24055   3.416   1.169  14.526 -0.1454 -0.6162 -0.1983
 4140SOL    HW124056   3.480   1.186  14.596 -0.6082  1.0259 -0.1850
 4140SOL    HW224057   3.340   1.166  14.583  0.5354  2.5435  0.8819
 4141SOL     OW24058   0.234   2.702   1.799 -0.3961 -0.7296 -0.0958
 4141SOL    HW124059   0.263   2.723   1.888  1.8087  3.3889 -1.8429
 4141SOL    HW224060   0.316   2.676   1.758  0.2652  1.1079  0.0538
 4142SOL     OW24061   3.761   4.550   6.729 -0.1037  0.1016  1.1420
 4142SOL    HW124062   3.840   4.501   6.708  0.5782  1.8728 -0.4559
 4142SOL    HW224063   3.701   4.479   6.751  1.4671 -1.4055  0.5226
 4143SOL     OW24064   3.787   2.871  11.702  0.0620  0.1526  0.3718
 4143SOL    HW124065   3.804   2.965  11.692  2.3839 -0.2527  0.4029
 4143SOL    HW224066   3.745   2.873  11.788 -2.4074 -1.1050 -0.8110
 4144SOL     OW24067   2.484   4.538   0.157  0.6012  0.3149  0.0551
 4144SOL    HW124068   2.483   4.479   0.081  2.8157  1.0638 -0.5338
 4144SOL    HW224069   2.390   4.543   0.171  0.3073 -0.8127 -1.4154
 4145SOL     OW24070   3.375   3.473   8.244  1.1934  0.5724 -0.4417
 4145SOL    HW124071   3.444   3.407   8.248  1.1468  0.5598  0.1742
 4145SOL    HW224072   3.310   3.438   8.182 -2.0928  1.1431  2.6668
 4146SOL     OW24073   2.375   3.937   5.690  0.0614 -0.0492  0.0550
 4146SOL    HW124074   2.387   3.909   5.599  2.4048  3.8082 -0.8342
 4146SOL    HW224075   2.358   3.850   5.727  0.7859  0.1002  0.7334
 4147SOL     OW24076   4.505   2.795   9.454  0.8383  0.1086  0.7119
 4147SOL    HW124077   4.430   2.807   9.397  0.2427 -0.4964  1.3734
 4147SOL    HW224078   4.576   2.783   9.391 -0.7310 -1.4955 -0.7179
 4148SOL     OW24079   4.676   2.882  16.758 -0.1934  0.2334 -0.7028
 4148SOL    HW124080   4.720   2.797  16.767  0.0813  0.0883 -3.5772
 4148SOL    HW224081   0.004   2.941  16.795 -0.1975 -1.9480  2.8746
 4149SOL     OW24082   0.722   1.033   5.413 -0.0081 -0.2530  0.4194
 4149SOL    HW124083   0.682   1.052   5.498  1.3184  0.3797  0.9107
 4149SOL    HW224084   0.750   0.943   5.426 -1.2398 -0.3530  2.3200
 4150SOL     OW24085   4.146   3.039   6.626  0.5190  0.2984 -0.5924
 4150SOL    HW124086   4.096   2.983   6.686  0.7529  2.4908  1.6776
 4150SOL    HW224087   4.079   3.092   6.584  0.8184  0.6812 -0.5856
 4151SOL     OW24088   3.808   3.320   4.212  0.1036 -0.8577  0.2224
 4151SOL    HW124089   3.870   3.360   4.273 -2.3097  1.1530  1.3531
 4151SOL    HW224090   3.826   3.378   4.138 -2.2917 -0.0916  0.2571
 4152SOL     OW24091   2.524   0.186   4.825  0.0036 -0.1494  0.1742
 4152SOL    HW124092   2.620   0.184   4.825  0.0364  1.5619  2.6167
 4152SOL    HW224093   2.507   0.164   4.916 -1.5361 -3.6711 -0.9694
 4153SOL     OW24094   1.844   3.029   1.445 -0.4075  0.8912 -0.5323
 4153SOL    HW124095   1.781   3.101   1.455 -1.5448  0.0631 -1.8702
 4153SOL    HW224096   1.785   2.959   1.418 -1.1887  0.7755  1.4693
 4154SOL     OW24097   2.012   1.387  16.427  0.3934  0.1539  0.3798
 4154SOL    HW124098   2.073   1.363  16.497 -1.7676 -0.9671  1.9114
 4154SOL    HW224099   1.928   1.368  16.470  1.3815 -2.9927  0.9117
 4155SOL     OW24100   0.859   3.610   5.840 -0.2921  0.1000  0.4054
 4155SOL    HW124101   0.930   3.671   5.857  0.0763 -1.1342  3.3706
 4155SOL    HW224102   0.876   3.550   5.912 -1.3141 -0.2051  0.3925
 4156SOL     OW24103   3.574   4.712  14.801 -0.2325  0.6287 -0.2536
 4156SOL    HW124104   3.611   4.624  14.812 -0.6039  0.5729  0.5524
 4156SOL    HW224105   3.484   4.687  14.780 -0.5839  1.3512  0.4128
 4157SOL     OW24106   2.088   4.192   7.538 -0.5172  0.1819 -0.0065
 4157SOL    HW124107   2.178   4.216   7.563 -1.6549  1.8077  2.4968
 4157SOL    HW224108   2.104   4.104   7.506 -0.8814  0.6460 -1.4663
 4158SOL     OW24109   1.031   1.309   7.372  0.0624 -0.3264  0.6230
 4158SOL    HW124110   1.121   1.314   7.404  0.3604 -0.3089 -0.2131
 4158SOL    HW224111   0.994   1.376   7.431  1.4455  1.1988 -0.2362
 4159SOL     OW24112   0.422   2.860   6.972 -0.1340 -0.6964  0.4684
 4159SOL    HW124113   0.357   2.907   7.025  0.1721  0.5169 -0.2178
 4159SOL    HW224114   0.458   2.926   6.913 -1.3705 -0.0362  0.4464
 4160SOL     OW24115   0.017   1.819   8.360 -0.0761 -0.2652 -0.0432
 4160SOL    HW124116   0.090   1.769   8.324 -1.4171 -2.2867  0.0643
 4160SOL    HW224117   4.707   1.751   8.407 -0.5849  0.1277  0.0250
 4161SOL     OW24118   3.425   0.880   7.399  0.6992 -0.0459  0.3718
 4161SOL    HW124119   3.402   0.957   7.452 -1.3503  0.1869 -0.8612
 4161SOL    HW224120   3.472   0.818   7.456  0.7331 -0.9909 -0.6990
 4162SOL     OW24121   4.118   3.566  10.871  0.2133 -0.0874 -0.2917
 4162SOL    HW124122   4.190   3.619  10.836 -1.7768  3.1830  0.4905
 4162SOL    HW224123   4.163   3.483  10.885  0.7850  0.4542  1.1173
 4163SOL     OW24124   1.808   3.684   9.620  0.3919  0.2950 -0.1099
 4163SOL    HW124125   1.809   3.644   9.534 -0.2993 -1.1554  0.5698
 4163SOL    HW224126   1.732   3.740   9.602  1.0166  0.6156 -1.6988
 4164SOL     OW24127   3.335   0.693   1.950 -0.4842  0.3003  0.0050
 4164SOL    HW124128   3.428   0.671   1.956 -0.5341 -0.5954 -2.6010
 4164SOL    HW224129   3.323   0.728   2.038 -1.8144  0.5700 -0.2823
 4165SOL     OW24130   3.515   4.715   8.609  0.3698 -0.0134  0.1091
 4165SOL    HW124131   3.576   4.648   8.639 -2.0350 -2.4893 -0.5201
 4165SOL    HW224132   3.435   4.665   8.593  0.4474  0.5632 -2.1284
 4166SOL     OW24133   3.021   3.615   4.418 -0.1659 -0.0703  0.4780
 4166SOL    HW124134   3.056   3.669   4.348 -3.8652  0.1834 -1.1580
 4166SOL    HW224135   3.022   3.529   4.375 -0.9079 -0.2902  0.8952
 4167SOL     OW24136   0.240   3.127  17.076 -0.3214 -0.4059  0.5757
 4167SOL    HW124137   0.308   3.097  17.136 -1.1253 -2.6092  0.3870
 4167SOL    HW224138   0.196   3.045  17.055  2.1775 -2.2488  2.6454
 4168SOL     OW24139   2.047   2.745   5.272 -0.7141  0.1472 -0.1533
 4168SOL    HW124140   2.116   2.688   5.306  0.0733  0.6416 -0.9380
 4168SOL    HW224141   2.004   2.762   5.357 -0.4548  0.8817 -0.1680
 4169SOL     OW24142   4.317   0.486   2.820  0.2996  0.0200  0.1188
 4169SOL    HW124143   4.265   0.564   2.842 -0.0789 -0.4124  0.7514
 4169SOL    HW224144   4.255   0.413   2.826 -0.0123  0.2052 -0.7636
 4170SOL     OW24145   2.730   3.191   4.744 -0.3358 -0.4355  0.4902
 4170SOL    HW124146   2.799   3.219   4.804 -0.3301  1.3091 -0.3479
 4170SOL    HW224147   2.754   3.227   4.659 -0.4111  1.9432  1.4798
 4171SOL     OW24148   1.994   4.566  12.118 -0.3737 -0.5524  0.0439
 4171SOL    HW124149   2.076   4.578  12.165 -0.8140  1.5036  0.3048
 4171SOL    HW224150   1.942   4.520  12.184 -3.7165  1.4956 -1.1308
 4172SOL     OW24151   3.237   2.876   7.031  0.1065 -0.0100 -0.1762
 4172SOL    HW124152   3.319   2.833   7.006 -0.7408 -0.2243 -2.5824
 4172SOL    HW224153   3.254   2.961   6.991  0.4685 -0.1648 -0.3479
 4173SOL     OW24154   0.548   1.762   2.756 -0.2197 -0.7153 -0.4782
 4173SOL    HW124155   0.552   1.667   2.743 -0.9743 -0.9871  1.1793
 4173SOL    HW224156   0.607   1.774   2.831  0.3891 -0.2778 -1.0352
 4174SOL     OW24157   1.387   1.261  13.657  0.4912  0.2768  0.5488
 4174SOL    HW124158   1.386   1.170  13.628  0.5577 -0.0087  1.4382
 4174SOL    HW224159   1.433   1.295  13.580  0.0464  2.0612  1.0886
 4175SOL     OW24160   1.189   2.165  17.673  0.1875 -0.0515 -0.6134
 4175SOL    HW124161   1.231   2.148  17.589  1.0490  2.0884 -0.6235
 4175SOL    HW224162   1.249   2.137  17.742  0.4518 -2.0310 -1.6658
 4176SOL     OW24163   0.991   3.910   4.332 -0.0158 -0.2140  0.2047
 4176SOL    HW124164   0.967   4.003   4.338  2.1610  0.3409  0.1481
 4176SOL    HW224165   1.074   3.897   4.377 -0.6747 -0.3742  1.3752
 4177SOL     OW24166   4.593   2.117   2.776  0.0038  0.0985 -0.1778
 4177SOL    HW124167   4.559   2.156   2.696  0.2337  1.1291  0.2313
 4177SOL    HW224168   4.535   2.043   2.791  0.3284  0.0586  0.9020
 4178SOL     OW24169   3.416   2.340   4.410 -0.6946 -0.0102 -0.4245
 4178SOL    HW124170   3.503   2.304   4.427  0.1112  1.0792 -2.1582
 4178SOL    HW224171   3.382   2.343   4.500 -1.6328 -0.3202 -0.7659
 4179SOL     OW24172   1.974   2.649   2.372  0.6939 -0.2429  0.4318
 4179SOL    HW124173   2.067   2.672   2.365  0.8098 -0.7202  0.3532
 4179SOL    HW224174   1.974   2.555   2.352 -0.4249 -0.0600 -0.3963
 4180SOL     OW24175   3.228   0.637  16.737 -0.5985 -0.8357 -0.2127
 4180SOL    HW124176   3.203   0.545  16.733 -0.8930 -0.7736  0.2168
 4180SOL    HW224177   3.216   0.653  16.643 -1.8592  1.3310  0.3143
 4181SOL     OW24178   1.697   2.528   6.627 -0.2742  0.2554  0.0591
 4181SOL    HW124179   1.703   2.444   6.581 -0.0152  0.6001 -0.5433
 4181SOL    HW224180   1.785   2.562   6.613 -0.5928 -0.3413 -3.4840
 4182SOL     OW24181   1.882   0.714   5.237  0.1032 -0.7864  0.5537
 4182SOL    HW124182   1.817   0.643   5.236  0.3659 -1.0158 -0.2986
 4182SOL    HW224183   1.905   0.712   5.144 -0.1108  1.1312  0.4582
 4183SOL     OW24184   1.930   2.260   3.746 -0.1562  0.1164  0.5054
 4183SOL    HW124185   1.864   2.304   3.799 -0.2619 -1.2095  1.4592
 4183SOL    HW224186   1.892   2.178   3.715  1.7429  0.0850 -1.7299
 4184SOL     OW24187   2.406   0.155   6.218  0.5941 -0.0583 -0.2041
 4184SOL    HW124188   2.386   0.218   6.287 -3.2923 -1.9776  0.4250
 4184SOL    HW224189   2.488   0.114   6.247  0.0911  0.1373  1.5166
 4185SOL     OW24190   1.991   1.141   9.990  0.1409  0.2728  0.1104
 4185SOL    HW124191   2.046   1.183  10.055 -1.6267 -0.9278  2.4107
 4185SOL    HW224192   1.909   1.137  10.040 -0.1275 -1.1570 -0.4265
 4186SOL     OW24193   3.388   0.976   4.882  0.2793 -0.0601 -0.0683
 4186SOL    HW124194   3.399   0.952   4.791  1.9006 -0.9298  0.3610
 4186SOL    HW224195   3.468   0.938   4.919  0.1074 -0.8857 -0.5500
 4187SOL     OW24196   3.088   1.562   8.341  0.1814  0.2056  0.2628
 4187SOL    HW124197   3.157   1.560   8.406  0.9140  0.3737 -0.5042
 4187SOL    HW224198   3.047   1.477   8.353  1.8808 -0.8259 -1.4187
 4188SOL     OW24199   0.202   3.784   8.524 -1.0157  0.2748 -0.3333
 4188SOL    HW124200   0.121   3.772   8.474 -1.0155 -0.6468 -0.1047
 4188SOL    HW224201   0.184   3.740   8.607  2.2607 -0.2913  0.0664
 4189SOL     OW24202   1.325   2.265   7.273 -0.1823 -0.6315 -0.0446
 4189SOL    HW124203   1.328   2.212   7.353 -1.2226  1.9249  1.7016
 4189SOL    HW224204   1.386   2.338   7.280  0.6023 -1.2342 -0.6060
 4190SOL     OW24205   3.259   0.624  11.833 -0.2157  0.2987  0.4416
 4190SOL    HW124206   3.321   0.663  11.771 -0.7115  1.0210  0.4023
 4190SOL    HW224207   3.283   0.536  11.803 -2.0832  1.0382 -3.1924
 4191SOL     OW24208   1.447   1.453   8.116 -0.5373  0.3647 -0.0074
 4191SOL    HW124209   1.378   1.388   8.106  0.8891 -1.0232 -0.8288
 4191SOL    HW224210   1.487   1.435   8.201 -2.4633  2.0201  1.2524
 4192SOL     OW24211   2.498   2.238   5.955  0.0293  0.0032 -0.8246
 4192SOL    HW124212   2.529   2.327   5.938  0.8486  0.0006  0.7098
 4192SOL    HW224213   2.464   2.235   6.044  1.6394  1.7913 -0.1490
 4193SOL     OW24214   1.378   0.056  14.604  0.6306  0.1016 -0.1789
 4193SOL    HW124215   1.367   0.151  14.610  3.4187  0.4274 -0.1262
 4193SOL    HW224216   1.372   0.030  14.696  1.0048  0.7831  0.0367
 4194SOL     OW24217   2.743   3.718  13.906 -0.4108  0.5592 -0.2564
 4194SOL    HW124218   2.736   3.753  13.818  1.1333  2.7877  0.4976
 4194SOL    HW224219   2.766   3.626  13.896 -1.4383  0.1925  0.6971
 4195SOL     OW24220   1.167   2.144   6.314  0.1651  0.0061 -0.3793
 4195SOL    HW124221   1.161   2.095   6.396  0.6724  0.1052 -0.2844
 4195SOL    HW224222   1.189   2.071   6.257  1.3431  0.8799 -1.0340
 4196SOL     OW24223   1.113   3.876   6.285 -0.3245 -0.2660  0.5865
 4196SOL    HW124224   1.090   3.808   6.348  1.0028 -0.0491  1.3017
 4196SOL    HW224225   1.049   3.946   6.298  0.8547  0.6864  1.1907
 4197SOL     OW24226   2.791   1.863   6.574 -0.3145  0.0469  0.0686
 4197SOL    HW124227   2.810   1.818   6.656 -0.6602  1.0140  0.6792
 4197SOL    HW224228   2.872   1.912   6.558  0.9127 -1.5853  1.2372
 4198SOL     OW24229   1.726   0.819  15.978 -0.0211 -0.2109 -0.2315
 4198SOL    HW124230   1.654   0.777  16.026 -0.1259  0.3402  0.0967
 4198SOL    HW224231   1.733   0.907  16.016  0.6453  0.0650 -1.0000
 4199SOL     OW24232   3.663   2.070   0.223  0.4974 -0.3722  0.8697
 4199SOL    HW124233   3.572   2.042   0.223  0.0366  1.0922  0.6288
 4199SOL    HW224234   3.652   2.141   0.286 -0.1114  0.6059 -0.3493
 4200SOL     OW24235   3.631   2.938  15.411 -0.1237  0.0027 -0.2717
 4200SOL    HW124236   3.605   3.021  15.452  1.5340 -0.4133  1.6620
 4200SOL    HW224237   3.685   2.907  15.484 -1.3134 -3.1635 -0.7630
 4201SOL     OW24238   2.111   2.866   0.819 -0.2211  0.2870 -0.1446
 4201SOL    HW124239   2.198   2.882   0.856 -1.0108 -1.0988  2.3127
 4201SOL    HW224240   2.074   2.954   0.830  1.7489  1.0349  0.5138
 4202SOL     OW24241   2.702   3.340   8.610  0.8843 -0.1612 -0.4161
 4202SOL    HW124242   2.715   3.434   8.619 -0.0372 -0.1100  0.4061
 4202SOL    HW224243   2.700   3.312   8.702 -0.7603 -0.6342 -0.5891
 4203SOL     OW24244   3.292   0.067   6.552  0.0134 -0.1076 -0.2884
 4203SOL    HW124245   3.218   0.015   6.521  0.5330 -1.2077  0.3143
 4203SOL    HW224246   3.290   0.039   6.643  2.0462  0.3531 -0.1009
 4204SOL     OW24247   1.314   4.530   0.176 -0.3162  0.1081  0.0789
 4204SOL    HW124248   1.229   4.486   0.178  0.0648 -0.6152  0.4670
 4204SOL    HW224249   1.376   4.464   0.209 -1.5967 -1.2963 -0.2903
 4205SOL     OW24250   0.889   1.913  13.304  0.1116  0.2261 -0.4140
 4205SOL    HW124251   0.954   1.844  13.294  0.0300 -0.2706  2.4866
 4205SOL    HW224252   0.948   1.984  13.329 -0.0675  0.3708 -0.4057
 4206SOL     OW24253   1.422   4.587  13.134  0.2037 -0.5856 -0.1423
 4206SOL    HW124254   1.335   4.614  13.163  0.5776 -0.1395  0.5633
 4206SOL    HW224255   1.468   4.661  13.174 -0.8841  0.8988 -1.6197
 4207SOL     OW24256   1.162   0.117  10.030  0.0781 -0.0439  0.3873
 4207SOL    HW124257   1.248   0.109  10.071 -0.6059  2.9987  2.4615
 4207SOL    HW224258   1.142   0.204  10.065  1.8447 -0.5357  2.6545
 4208SOL     OW24259   2.357   3.655   3.226  0.4375 -0.8742 -0.2269
 4208SOL    HW124260   2.424   3.629   3.163  1.2007 -0.1966  0.2987
 4208SOL    HW224261   2.326   3.568   3.251  1.2481 -1.1299 -0.1203
 4209SOL     OW24262   0.084   1.291   1.326  0.5536 -0.1609 -0.0517
 4209SOL    HW124263   0.014   1.262   1.384  0.2589  1.5886  0.4634
 4209SOL    HW224264   0.074   1.220   1.261  0.8928 -1.5358  1.4003
 4210SOL     OW24265   1.008   1.070   8.171  0.1069 -0.2229  0.2792
 4210SOL    HW124266   0.981   1.152   8.130 -0.4731 -0.5543  0.0047
 4210SOL    HW224267   1.006   1.013   8.095 -1.9923  0.1535  0.0609
 4211SOL     OW24268   1.449   2.262   4.958 -0.0470  0.0128 -0.6377
 4211SOL    HW124269   1.449   2.357   4.970  0.7862 -0.1012  0.2801
 4211SOL    HW224270   1.517   2.226   5.015 -1.4738 -1.1341  0.3174
 4212SOL     OW24271   4.708   1.139   8.640 -0.2599  0.0103 -0.0315
 4212SOL    HW124272   4.631   1.091   8.610 -0.0379 -0.0701 -0.4722
 4212SOL    HW224273   4.680   1.226   8.666 -4.4794 -1.7902  1.5016
 4213SOL     OW24274   4.045   4.036  15.886  0.4263  0.2143  0.2526
 4213SOL    HW124275   4.093   4.028  15.803  0.5670 -2.1349  0.5707
 4213SOL    HW224276   3.957   4.052  15.852  1.0200  0.1034 -1.3545
 4214SOL     OW24277   3.768   3.503   6.440 -0.2841 -0.7701 -0.1104
 4214SOL    HW124278   3.807   3.563   6.375 -1.0951 -0.4272 -0.2751
 4214SOL    HW224279   3.732   3.444   6.374 -1.1385  1.4691 -1.6530
 4215SOL     OW24280   1.601   0.013   4.938  0.7568  0.4790 -0.0773
 4215SOL    HW124281   1.530   0.078   4.933 -1.6939 -2.2159 -0.2554
 4215SOL    HW224282   1.611   4.714   4.850 -3.4487  0.9870 -0.7548
 4216SOL     OW24283   3.800   3.445  16.549  0.3575  0.3012  0.1477
 4216SOL    HW124284   3.806   3.426  16.455  2.8005 -0.0138  0.3771
 4216SOL    HW224285   3.842   3.530  16.556 -0.8028  1.0738 -2.2224
 4217SOL     OW24286   1.581   2.674   4.437 -0.9235  0.2768  0.2285
 4217SOL    HW124287   1.578   2.579   4.424 -1.1286  0.0591  1.8846
 4217SOL    HW224288   1.628   2.685   4.519 -1.4259  1.6253  0.3337
 4218SOL     OW24289   3.110   0.472   4.291 -0.0290  0.0103  0.1657
 4218SOL    HW124290   3.109   0.539   4.359  1.3642  1.5349 -1.2841
 4218SOL    HW224291   3.030   0.425   4.312 -0.0427 -0.1883 -0.3290
 4219SOL     OW24292   2.963   2.818   9.360  0.0255 -0.8465  0.1948
 4219SOL    HW124293   2.967   2.868   9.279 -1.0039  1.2453  1.4515
 4219SOL    HW224294   2.876   2.779   9.354 -0.9493  1.5884 -1.2097
 4220SOL     OW24295   3.220   4.628   9.195 -0.4618  0.4362  0.0086
 4220SOL    HW124296   3.297   4.616   9.251 -0.9310 -0.7838  0.3988
 4220SOL    HW224297   3.251   4.589   9.113 -0.2706 -0.2653  0.4140
 4221SOL     OW24298   1.488   2.558  15.840 -0.5808  0.0315  0.0744
 4221SOL    HW124299   1.446   2.584  15.758  0.5951  0.4995 -0.3733
 4221SOL    HW224300   1.430   2.488  15.871 -1.5660  1.9782  2.7065
 4222SOL     OW24301   4.223   3.426   3.310  0.3530 -0.1123 -0.0466
 4222SOL    HW124302   4.192   3.348   3.355 -0.0222  1.2995  2.1634
 4222SOL    HW224303   4.295   3.446   3.370 -0.1433  0.7342  0.2549
 4223SOL     OW24304   2.103   3.018  13.937  0.2646  0.5091  0.3974
 4223SOL    HW124305   2.102   3.114  13.940 -1.0726  0.5330 -0.9381
 4223SOL    HW224306   2.143   3.010  13.851  2.3865 -2.2083  1.6531
 4224SOL     OW24307   0.793   4.654   2.588 -0.1160  0.3760  0.4471
 4224SOL    HW124308   0.766   4.639   2.678  4.7551 -1.2221  1.6346
 4224SOL    HW224309   0.743   4.579   2.556  0.7570 -0.0668  0.1217
 4225SOL     OW24310   3.230   2.091   3.973 -0.4625 -0.0193  0.7776
 4225SOL    HW124311   3.138   2.110   3.989 -0.2323  0.5402  1.4207
 4225SOL    HW224312   3.281   2.120   4.049 -0.8028 -0.8373  1.3194
 4226SOL     OW24313   0.288   0.021   2.328 -0.2541  0.1179 -0.2160
 4226SOL    HW124314   0.253   4.670   2.311  1.0952 -0.3852 -0.3453
 4226SOL    HW224315   0.305   0.054   2.240  1.5860  0.9594  0.4597
 4227SOL     OW24316   3.490   1.565  15.966  0.2694  0.1691 -0.1630
 4227SOL    HW124317   3.441   1.501  15.914  0.5767 -0.0323 -0.2035
 4227SOL    HW224318   3.499   1.517  16.048 -0.8224  0.3828  0.0911
 4228SOL     OW24319   3.549   3.555   5.807  0.0304 -0.8512  0.3582
 4228SOL    HW124320   3.527   3.532   5.717 -0.5154  0.4263  0.1588
 4228SOL    HW224321   3.582   3.469   5.833  0.5059 -1.1567 -1.2647
 4229SOL     OW24322   2.206   1.012  11.340  0.3677 -0.0300 -0.3458
 4229SOL    HW124323   2.258   1.053  11.409 -0.4466 -0.5058  0.5430
 4229SOL    HW224324   2.171   0.930  11.374  0.0753  0.2012 -0.0838
 4230SOL     OW24325   1.740   1.976   1.677 -0.3620 -0.0895 -0.7313
 4230SOL    HW124326   1.742   1.900   1.619 -0.2389  0.5798 -1.5938
 4230SOL    HW224327   1.748   1.946   1.768 -0.4320 -2.7414 -1.5938
 4231SOL     OW24328   0.930   0.737  11.814 -0.1095 -0.2868  0.3699
 4231SOL    HW124329   0.992   0.765  11.747 -0.1643 -1.7086 -0.2728
 4231SOL    HW224330   0.974   0.655  11.839 -1.1870 -0.1538  2.7382
 4232SOL     OW24331   2.030   0.966   1.533 -0.4045  0.3187 -0.3376
 4232SOL    HW124332   2.114   1.004   1.559 -0.0547 -0.6597 -0.0663
 4232SOL    HW224333   1.974   1.005   1.599 -1.1973  1.0524 -1.4333
 4233SOL     OW24334   2.546   0.787   4.413 -0.7187 -0.2966 -0.0147
 4233SOL    HW124335   2.550   0.826   4.501 -0.0768 -1.2611  0.3882
 4233SOL    HW224336   2.496   0.856   4.370  1.1387  0.3894 -1.0691
 4234SOL     OW24337   1.755   2.738  14.061 -0.4497 -0.3834  0.1521
 4234SOL    HW124338   1.790   2.797  14.127  3.1383 -1.8741 -0.4289
 4234SOL    HW224339   1.699   2.690  14.122 -1.6019  0.0904 -0.5322
 4235SOL     OW24340   1.497   0.519   5.442 -0.1714  0.2930  0.1045
 4235SOL    HW124341   1.528   0.497   5.530 -2.2035 -1.4465  0.3764
 4235SOL    HW224342   1.535   0.447   5.393 -1.1835  1.2110 -2.0157
 4236SOL     OW24343   2.891   2.523   1.026 -0.0530 -0.1011 -0.1829
 4236SOL    HW124344   2.906   2.542   0.933  0.2376 -0.0380 -0.1233
 4236SOL    HW224345   2.943   2.443   1.033  0.4716  0.2523 -0.0838
 4237SOL     OW24346   2.215   4.221   4.999  0.1382 -0.2090  0.1327
 4237SOL    HW124347   2.291   4.279   5.003  0.6571 -1.0882  2.9809
 4237SOL    HW224348   2.156   4.264   5.061 -0.7256  3.2430 -3.0947
 4238SOL     OW24349   2.969   0.153  12.556  0.2456 -0.1104 -0.7722
 4238SOL    HW124350   2.897   0.214  12.571 -0.0170 -1.0295  1.7677
 4238SOL    HW224351   2.930   0.137  12.470  1.6613  0.6408 -1.5506
 4239SOL     OW24352   1.153   0.104   7.179 -0.2822 -0.1058 -0.6614
 4239SOL    HW124353   1.197   0.030   7.222  0.6794  1.4578  1.0198
 4239SOL    HW224354   1.189   0.186   7.212  0.0806  0.1151 -1.6113
 4240SOL     OW24355   3.350   0.952   2.445  0.0929 -0.2442  0.3287
 4240SOL    HW124356   3.324   0.937   2.535  1.7514  1.2780  1.0653
 4240SOL    HW224357   3.321   1.043   2.430  0.1059  0.1537  2.8436
 4241SOL     OW24358   3.242   2.094   5.492 -0.1374 -0.5787 -0.0796
 4241SOL    HW124359   3.215   2.118   5.403 -0.1384 -1.4115 -0.3046
 4241SOL    HW224360   3.295   2.166   5.527 -0.6719 -0.3067  0.1658
 4242SOL     OW24361   2.552   3.489   4.609  0.2529  0.1631  0.3504
 4242SOL    HW124362   2.635   3.519   4.646 -0.4366  3.6340 -0.9403
 4242SOL    HW224363   2.501   3.568   4.628  1.9595  1.2955  0.2064
 4243SOL     OW24364   1.296   1.491   5.748  0.6119  1.1531 -0.0234
 4243SOL    HW124365   1.297   1.585   5.765  0.0619  1.1971 -0.2478
 4243SOL    HW224366   1.377   1.485   5.696 -0.0638  0.9779 -1.0666
 4244SOL     OW24367   3.079   1.704   3.949 -0.2612  0.3705  0.2990
 4244SOL    HW124368   3.002   1.651   3.929  0.5156  0.0708 -1.8334
 4244SOL    HW224369   3.052   1.769   4.014  3.1737 -0.1061  2.2308
 4245SOL     OW24370   1.444   2.909   8.971 -0.1913  0.1895  0.3904
 4245SOL    HW124371   1.367   2.899   9.026  0.5791 -0.7108  1.3086
 4245SOL    HW224372   1.460   2.821   8.939 -1.2765 -0.3629  1.3564
 4246SOL     OW24373   2.964   0.861   3.169 -0.1748  0.6050 -0.3426
 4246SOL    HW124374   2.929   0.842   3.256 -0.9070 -0.5593 -0.8846
 4246SOL    HW224375   2.928   0.950   3.171 -0.6874  0.4210 -1.4282
 4247SOL     OW24376   2.923   0.474   7.401  0.2488  0.0335 -0.1905
 4247SOL    HW124377   2.976   0.549   7.427  0.2523 -0.0230 -0.0368
 4247SOL    HW224378   2.912   0.425   7.482  1.1814  0.3583  0.1370
 4248SOL     OW24379   0.287   2.700   4.541  0.1340 -0.1241 -0.3697
 4248SOL    HW124380   0.368   2.692   4.592 -1.0058 -1.5645  1.1720
 4248SOL    HW224381   0.308   2.649   4.462 -1.3475  0.8631 -1.3966
 4249SOL     OW24382   3.781   4.376   2.403  0.2619  0.2133  0.8776
 4249SOL    HW124383   3.757   4.306   2.464  4.1462 -0.1797  1.9710
 4249SOL    HW224384   3.832   4.314   2.350 -0.0687  0.9361 -0.2644
 4250SOL     OW24385   3.683   0.021  13.691 -0.3440 -0.2523  0.2769
 4250SOL    HW124386   3.752   0.046  13.752  0.4376 -0.6230 -0.4402
 4250SOL    HW224387   3.716   0.071  13.616  2.1347 -1.2096  0.7185
 4251SOL     OW24388   1.143   4.317  12.492 -0.0463 -0.1811  0.6850
 4251SOL    HW124389   1.178   4.380  12.555  0.3455 -1.0491  1.3409
 4251SOL    HW224390   1.210   4.248  12.495 -0.7701 -0.9691 -0.9173
 4252SOL     OW24391   3.713   2.378  16.161  0.3200 -0.3994  0.3333
 4252SOL    HW124392   3.776   2.448  16.145  0.2217 -0.2919  0.4138
 4252SOL    HW224393   3.634   2.425  16.188  0.0256 -0.0544 -1.1168
 4253SOL     OW24394   2.298   4.652  16.274  0.0353 -0.0249  0.0110
 4253SOL    HW124395   2.314   4.566  16.235  2.0912  0.1748  0.4352
 4253SOL    HW224396   2.291   4.705  16.195 -0.6191  0.6210  0.4993
 4254SOL     OW24397   3.806   3.276  13.376 -0.5504 -0.0340 -0.1280
 4254SOL    HW124398   3.711   3.262  13.368 -0.5370  0.6549 -1.4130
 4254SOL    HW224399   3.810   3.369  13.394 -1.0358 -0.1882  0.7969
 4255SOL     OW24400   2.570   4.699   4.446  0.5188  0.4349 -0.2776
 4255SOL    HW124401   2.569   0.037   4.505 -1.2676 -0.1478  0.4262
 4255SOL    HW224402   2.588   0.019   4.371 -1.7809  0.1924 -1.0023
 4256SOL     OW24403   1.326   2.572   5.363  0.3604 -0.1369 -0.2456
 4256SOL    HW124404   1.393   2.634   5.336  1.7913 -1.4430  0.3374
 4256SOL    HW224405   1.309   2.613   5.448  2.3543 -1.0179  0.5705
 4257SOL     OW24406   4.292   2.530  12.249 -0.5601  0.3771  0.4351
 4257SOL    HW124407   4.291   2.522  12.344  1.5405 -0.3071  0.3991
 4257SOL    HW224408   4.267   2.619  12.225  0.0494  0.4839  0.1979
 4258SOL     OW24409   2.440   2.700   6.498  0.0279 -0.0625 -0.2726
 4258SOL    HW124410   2.494   2.717   6.421 -0.2833 -0.1138 -0.5009
 4258SOL    HW224411   2.439   2.789   6.533  0.2993  0.5418 -1.7905
 4259SOL     OW24412   4.636   3.166   4.265  0.0922  0.7931 -0.0731
 4259SOL    HW124413   4.575   3.234   4.236 -1.1683  1.2307  3.6020
 4259SOL    HW224414   4.708   3.190   4.208 -1.2969  1.4402 -1.5550
 4260SOL     OW24415   1.784   1.119  13.525 -0.5650 -0.2051  0.7151
 4260SOL    HW124416   1.762   1.088  13.613  1.0934 -0.8290  0.9037
 4260SOL    HW224417   1.706   1.168  13.500 -0.5154 -0.3309  0.3158
 4261SOL     OW24418   0.031   0.122   8.775  0.2734  0.1458  0.0984
 4261SOL    HW124419   0.071   0.047   8.730  0.7720  0.0660  0.6707
 4261SOL    HW224420   0.076   0.196   8.733 -1.6697  1.2522 -0.0097
 4262SOL     OW24421   1.483   2.021   3.035  0.0597 -0.1985 -0.2454
 4262SOL    HW124422   1.434   2.087   2.987 -0.9377 -0.5758  0.2562
 4262SOL    HW224423   1.438   2.023   3.120 -0.3436  2.0313 -0.5297
 4263SOL     OW24424   0.068   2.643  16.762  0.3490  0.0526  0.5230
 4263SOL    HW124425   0.150   2.603  16.732  0.5725 -0.1245  1.3793
 4263SOL    HW224426   4.736   2.591  16.720  1.7460  0.4414 -2.2409
 4264SOL     OW24427   2.180   1.818   1.090  0.5859  0.5577 -0.3363
 4264SOL    HW124428   2.149   1.872   1.163 -0.9052  1.1125 -1.3617
 4264SOL    HW224429   2.102   1.823   1.034  0.0097 -1.6936  0.2908
 4265SOL     OW24430   1.128   3.523   7.969  0.2016 -0.2026  0.6702
 4265SOL    HW124431   1.090   3.574   7.898 -1.2612 -0.1813  1.4576
 4265SOL    HW224432   1.080   3.542   8.050 -1.0750 -2.0572  0.3432
 4266SOL     OW24433   1.912   4.457   1.623 -0.3969  0.3199  0.3938
 4266SOL    HW124434   1.923   4.366   1.648 -1.3524 -0.0578 -0.5678
 4266SOL    HW224435   1.852   4.504   1.682 -0.4734 -0.0189  0.5841
 4267SOL     OW24436   2.450   4.428   6.894 -0.0864  0.3657  0.2984
 4267SOL    HW124437   2.428   4.494   6.960 -3.0007 -1.3500  1.0199
 4267SOL    HW224438   2.361   4.396   6.878  0.7144 -1.5813 -0.1812
 4268SOL     OW24439   1.519   0.375   6.653  0.0467 -0.5906 -0.0610
 4268SOL    HW124440   1.583   0.305   6.642  2.5185  1.4820  1.2779
 4268SOL    HW224441   1.482   0.354   6.739 -0.1763  2.2318  0.5090
 4269SOL     OW24442   2.889   3.937  17.331 -0.5279  0.2964 -0.7583
 4269SOL    HW124443   2.835   4.012  17.308 -0.6104  1.0122  1.7616
 4269SOL    HW224444   2.973   3.979  17.350 -0.8353  0.4895  0.1720
 4270SOL     OW24445   4.220   0.677   7.922  0.5716  0.8461 -0.5555
 4270SOL    HW124446   4.195   0.689   7.830 -0.7049 -1.4044 -0.4918
 4270SOL    HW224447   4.245   0.585   7.916  1.9243  1.0826  1.6072
 4271SOL     OW24448   2.813   3.450  13.902 -0.1934 -0.0642  0.7105
 4271SOL    HW124449   2.906   3.443  13.884 -0.1629 -1.4773  1.3814
 4271SOL    HW224450   2.815   3.443  13.998 -0.2380 -0.6542  0.6655
 4272SOL     OW24451   2.821   4.009   2.430 -0.2891  0.3675  0.5445
 4272SOL    HW124452   2.886   4.052   2.487  0.0197  1.8235 -0.8804
 4272SOL    HW224453   2.879   3.969   2.365 -0.2579  1.0292  0.1647
 4273SOL     OW24454   3.177   3.939   7.466 -0.3758  0.2234 -0.1064
 4273SOL    HW124455   3.228   3.915   7.544  0.5919  1.1266 -0.4661
 4273SOL    HW224456   3.177   4.034   7.478  2.4028  0.1538  0.2782
 4274SOL     OW24457   0.930   0.854   0.651 -0.0576 -0.1676 -0.0321
 4274SOL    HW124458   0.980   0.801   0.714 -0.9494 -0.6426  0.2775
 4274SOL    HW224459   0.896   0.923   0.707  2.5822 -0.1059  1.5121
 4275SOL     OW24460   3.797   2.401   5.708  0.1469  0.2463  0.2989
 4275SOL    HW124461   3.758   2.447   5.633 -0.4716 -2.1251 -0.8437
 4275SOL    HW224462   3.716   2.351   5.722  0.8128 -0.5723  1.1897
 4276SOL     OW24463   4.446   3.983   8.573  0.4420 -0.5578  0.1929
 4276SOL    HW124464   4.509   4.037   8.525  0.0125 -0.1762  0.0563
 4276SOL    HW224465   4.473   3.984   8.664  1.0253  0.9317  0.0064
 4277SOL     OW24466   4.711   0.577   8.499 -0.0858 -0.0311  0.2443
 4277SOL    HW124467   4.675   0.563   8.412  0.4530  0.1644 -0.0155
 4277SOL    HW224468   0.063   0.543   8.490 -1.0487 -2.3405 -0.4026
 4278SOL     OW24469   4.075   0.260  17.050  0.1938 -0.1944 -0.2904
 4278SOL    HW124470   4.067   0.354  17.037 -0.8085 -0.7226 -3.4615
 4278SOL    HW224471   4.156   0.240  17.003  1.8299  3.4163  0.9867
 4279SOL     OW24472   3.994   2.695   6.978 -0.0075  0.4016 -0.0173
 4279SOL    HW124473   3.908   2.661   6.954  0.7493 -0.6433 -1.2142
 4279SOL    HW224474   4.045   2.614   6.971  2.5538  1.9211  0.9240
 4280SOL     OW24475   3.200   2.825  14.597 -0.0869 -0.0226  0.2811
 4280SOL    HW124476   3.287   2.865  14.596  0.5121 -1.2808  0.6161
 4280SOL    HW224477   3.209   2.730  14.606  0.9452  0.2551  2.3695
 4281SOL     OW24478   4.550   3.065   5.646 -0.1887  0.4012  0.5687
 4281SOL    HW124479   4.556   3.147   5.696  2.3760  0.7485 -0.2715
 4281SOL    HW224480   4.558   2.998   5.714  2.0368  0.3702  0.2814
 4282SOL     OW24481   3.987   4.326   6.897  0.4797  0.0919  0.0492
 4282SOL    HW124482   4.022   4.378   6.970 -0.3336  1.2558 -0.3906
 4282SOL    HW224483   3.996   4.384   6.821 -0.7712 -0.6008 -0.6205
 4283SOL     OW24484   3.850   1.302  14.845  0.9288 -0.1822 -0.7084
 4283SOL    HW124485   3.931   1.303  14.794  0.3336  0.2254 -1.6448
 4283SOL    HW224486   3.846   1.384  14.894 -1.2530 -0.9111  0.3675
 4284SOL     OW24487   4.024   3.963   3.928  0.1228  0.3849  0.0978
 4284SOL    HW124488   4.059   3.878   3.957 -1.9589 -0.1258  1.0669
 4284SOL    HW224489   3.943   3.968   3.978  1.0398 -1.9452  1.8422
 4285SOL     OW24490   2.719   1.109  16.103 -0.1037  0.5410  0.8070
 4285SOL    HW124491   2.795   1.076  16.054 -0.4845  1.2706 -0.2744
 4285SOL    HW224492   2.698   1.037  16.162 -2.2032 -0.2192 -0.8460
 4286SOL     OW24493   0.631   2.457   4.499 -0.6810  0.1614  0.6232
 4286SOL    HW124494   0.695   2.387   4.479  2.3780  3.0774  0.2061
 4286SOL    HW224495   0.547   2.412   4.506 -0.4480 -0.9417 -3.4621
 4287SOL     OW24496   4.333   2.336  17.422 -0.2356 -0.5905  0.0049
 4287SOL    HW124497   4.332   2.431  17.415  1.5523 -0.3535  3.1319
 4287SOL    HW224498   4.244   2.312  17.396 -0.7594  0.4154  0.8874
 4288SOL     OW24499   1.265   3.454   2.167  0.1131 -0.2200  0.2004
 4288SOL    HW124500   1.245   3.541   2.201  0.8412 -0.2156  0.6158
 4288SOL    HW224501   1.283   3.485   2.078  1.4896  0.8837  0.8718
 4289SOL     OW24502   4.085   4.378   1.719  0.2570  0.0963 -0.1881
 4289SOL    HW124503   4.117   4.359   1.807  1.0753  3.8895  0.3583
 4289SOL    HW224504   4.171   4.389   1.678  1.0436 -1.3944  1.0690
 4290SOL     OW24505   2.880   4.118   5.372 -0.0124 -0.4324 -0.1841
 4290SOL    HW124506   2.829   4.079   5.443 -0.8167  2.2888  0.7598
 4290SOL    HW224507   2.948   4.161   5.424  0.2974 -1.4528  0.2497
 4291SOL     OW24508   4.286   1.623   4.018 -0.0285 -0.0212  0.0884
 4291SOL    HW124509   4.223   1.571   4.068 -1.1944  3.0790  1.8174
 4291SOL    HW224510   4.256   1.598   3.931  2.8346 -0.0186 -0.9022
 4292SOL     OW24511   4.424   2.629   5.817  0.6756 -0.2697  0.7648
 4292SOL    HW124512   4.428   2.535   5.796  0.0614  0.2281 -1.5159
 4292SOL    HW224513   4.511   2.642   5.856 -0.4404 -0.8338  3.4789
 4293SOL     OW24514   1.180   3.125   2.088 -0.1804  0.2853  0.1624
 4293SOL    HW124515   1.195   3.216   2.115  1.8535 -0.8283  2.6758
 4293SOL    HW224516   1.139   3.124   2.001  0.5503 -1.5993 -0.1411
 4294SOL     OW24517   2.615   0.289  16.360 -0.5735 -0.0457  0.1415
 4294SOL    HW124518   2.570   0.218  16.313 -1.3712  1.0349 -0.7129
 4294SOL    HW224519   2.695   0.252  16.397 -0.3018  1.4574  1.0596
 4295SOL     OW24520   3.563   3.173   1.669  0.5321 -0.7733 -0.1130
 4295SOL    HW124521   3.625   3.211   1.731 -1.2774 -1.8589  2.3638
 4295SOL    HW224522   3.496   3.145   1.732 -0.3198 -0.1274 -0.7473
 4296SOL     OW24523   1.857   0.289  17.468 -0.3580 -0.0416 -0.6231
 4296SOL    HW124524   1.907   0.345  17.527  0.0252  1.7614 -2.6907
 4296SOL    HW224525   1.785   0.280  17.531  0.3517 -0.3801  0.1421
 4297SOL     OW24526   1.976   2.977   8.362  0.4516  0.3463 -0.1627
 4297SOL    HW124527   1.978   3.006   8.271  0.8407 -1.8627 -0.8558
 4297SOL    HW224528   1.913   2.905   8.350  0.0401  0.7499 -0.4252
 4298SOL     OW24529   2.408   1.640   1.101 -0.0347  0.2000 -0.0912
 4298SOL    HW124530   2.468   1.681   1.163 -0.2584 -0.4028  0.5241
 4298SOL    HW224531   2.357   1.715   1.069 -1.1562  0.1629  1.6055
 4299SOL     OW24532   1.318   1.522  11.313 -0.1832  0.0351  0.2956
 4299SOL    HW124533   1.278   1.608  11.323 -1.2066 -0.3517 -0.4134
 4299SOL    HW224534   1.379   1.529  11.240 -0.7211 -1.2815 -0.2801
 4300SOL     OW24535   2.971   0.076   2.402 -0.6657  0.3973  0.5138
 4300SOL    HW124536   3.024   0.152   2.377 -0.7817 -0.2581 -1.7070
 4300SOL    HW224537   2.996   0.066   2.494  0.0306  1.3402  0.4289
 4301SOL     OW24538   1.161   3.776   8.720  0.3363  0.1639  0.0769
 4301SOL    HW124539   1.120   3.739   8.642 -1.7657 -1.6568  2.0627
 4301SOL    HW224540   1.253   3.756   8.705  0.0607 -2.0306  1.2508
 4302SOL     OW24541   2.641   2.031   5.256 -0.1452 -0.0036  0.3034
 4302SOL    HW124542   2.695   2.013   5.333  0.9272  0.9048 -0.2429
 4302SOL    HW224543   2.569   1.971   5.277 -1.7795  1.1635 -2.0817
 4303SOL     OW24544   3.420   3.846   2.824 -0.2804 -0.2170 -0.1024
 4303SOL    HW124545   3.493   3.820   2.768 -0.4655  2.3153 -1.4851
 4303SOL    HW224546   3.375   3.764   2.848 -1.6760  0.1460 -1.4894
 4304SOL     OW24547   3.767   2.058   1.581 -0.8698 -0.0195  0.1988
 4304SOL    HW124548   3.696   2.093   1.526  0.1526  0.5836 -0.7402
 4304SOL    HW224549   3.834   2.075   1.514  0.3819  2.2916  2.0212
 4305SOL     OW24550   3.315   2.128   8.655  0.0495 -0.2965  0.1210
 4305SOL    HW124551   3.241   2.076   8.688 -0.5591  0.3967 -0.1287
 4305SOL    HW224552   3.317   2.099   8.564 -2.3871 -4.9710  1.5609
 4306SOL     OW24553   3.949   1.377   1.399  0.3635  0.1173  0.5305
 4306SOL    HW124554   3.874   1.434   1.417 -1.6100 -2.2843  0.0435
 4306SOL    HW224555   3.919   1.290   1.427 -0.8734 -0.0611 -1.3396
 4307SOL     OW24556   4.018   2.006  10.580  0.1479  0.1904  0.4272
 4307SOL    HW124557   3.963   2.081  10.603 -2.0433 -1.6504  1.2178
 4307SOL    HW224558   3.955   1.935  10.588 -1.4859  1.8715  2.5920
 4308SOL     OW24559   1.193   4.192   6.692  0.5060  0.2668 -0.2051
 4308SOL    HW124560   1.105   4.230   6.693 -0.0113 -0.9037 -1.6673
 4308SOL    HW224561   1.224   4.238   6.769  0.8344 -0.1317 -0.1039
 4309SOL     OW24562   1.910   1.918  10.803 -0.5191  0.1173 -0.7512
 4309SOL    HW124563   1.973   1.865  10.851 -1.2334  1.5247  1.7544
 4309SOL    HW224564   1.829   1.894  10.849  1.3733 -1.3843  1.7611
 4310SOL     OW24565   4.210   0.068   8.905  0.0224 -0.2152 -0.1990
 4310SOL    HW124566   4.120   0.039   8.918  0.2774 -1.6379 -1.7493
 4310SOL    HW224567   4.268   0.021   8.964  0.1415 -0.9954 -0.9430
 4311SOL     OW24568   4.324   3.641   3.838 -0.2202 -0.3376 -0.1183
 4311SOL    HW124569   4.329   3.546   3.849 -1.8137 -0.3799  0.2101
 4311SOL    HW224570   4.412   3.652   3.803 -0.1514 -0.5849 -0.0190
 4312SOL     OW24571   3.540   3.182  15.182  0.7643 -0.2884 -0.2173
 4312SOL    HW124572   3.520   3.248  15.248 -0.3320 -1.7044  0.8790
 4312SOL    HW224573   3.636   3.176  15.187  0.7183 -2.3440 -1.6295
 4313SOL     OW24574   1.269   4.346   0.970 -0.9547 -0.0692 -0.0023
 4313SOL    HW124575   1.364   4.356   0.964 -0.8273 -1.0902  0.2749
 4313SOL    HW224576   1.263   4.260   1.013  4.0929 -2.2748 -3.6196
 4314SOL     OW24577   1.015   2.278   5.364  0.1704 -0.0192 -0.2804
 4314SOL    HW124578   1.002   2.183   5.358  0.8754 -0.0584 -1.1228
 4314SOL    HW224579   1.110   2.284   5.367  0.2596 -2.0918  1.2174
 4315SOL     OW24580   1.133   0.939  14.314 -0.1601 -0.4127 -0.2226
 4315SOL    HW124581   1.171   1.012  14.265 -0.4191 -0.7938 -0.9849
 4315SOL    HW224582   1.138   0.964  14.407 -1.4766 -1.8468  0.2317
 4316SOL     OW24583   0.979   3.520   7.245 -0.0414 -0.0127 -0.4805
 4316SOL    HW124584   0.964   3.612   7.266 -0.1233  0.2768 -1.8428
 4316SOL    HW224585   1.058   3.509   7.298 -0.1418 -0.8634 -0.5065
 4317SOL     OW24586   4.051   1.815   2.601 -0.9729 -0.5256  0.5083
 4317SOL    HW124587   3.971   1.867   2.588 -0.9419 -0.4624  0.5672
 4317SOL    HW224588   4.034   1.780   2.689  1.2417 -0.2457  1.0565
 4318SOL     OW24589   3.002   0.151  15.329  0.0864 -0.1227 -0.5661
 4318SOL    HW124590   2.935   0.135  15.262 -1.5764  0.2355  1.0382
 4318SOL    HW224591   2.976   0.089  15.397  0.6017  1.2053  0.8440
 4319SOL     OW24592   0.546   1.774  14.501  0.2178  0.0427  0.5666
 4319SOL    HW124593   0.559   1.779  14.407  1.4747  1.9555  0.8460
 4319SOL    HW224594   0.521   1.682  14.514 -0.4644  0.0871 -0.4383
 4320SOL     OW24595   2.866   1.271  13.182  0.7340  0.3058  0.3228
 4320SOL    HW124596   2.922   1.202  13.218 -1.5261 -0.6568  2.0368
 4320SOL    HW224597   2.828   1.305  13.263 -1.0413 -0.9482  0.0358
 4321SOL     OW24598   2.709   3.312   8.884  0.1690 -0.0703  0.3884
 4321SOL    HW124599   2.623   3.352   8.875  0.6998  1.3076  1.4855
 4321SOL    HW224600   2.719   3.351   8.971 -1.0230 -0.6212  0.7624
 4322SOL     OW24601   2.673   0.598   8.064 -0.2192  0.2093 -0.9087
 4322SOL    HW124602   2.730   0.568   8.135 -0.6188 -0.7811 -0.9981
 4322SOL    HW224603   2.733   0.591   7.989  1.6986 -0.9945  0.7297
 4323SOL     OW24604   3.246   3.926  13.149 -0.1467  0.3436 -0.1429
 4323SOL    HW124605   3.156   3.950  13.128 -1.1241 -2.7625  0.5649
 4323SOL    HW224606   3.263   3.852  13.091  3.7478  1.9222 -1.0589
 4324SOL     OW24607   1.622   3.924   9.172 -0.1670 -0.5461  0.1855
 4324SOL    HW124608   1.564   3.978   9.120 -0.9550 -0.8871  0.7162
 4324SOL    HW224609   1.564   3.911   9.247  1.1673  0.6537  1.4394
 4325SOL     OW24610   0.987   4.283   4.788 -0.7903 -0.5697  0.1796
 4325SOL    HW124611   0.988   4.210   4.850  0.6778  0.1101  0.9633
 4325SOL    HW224612   0.899   4.288   4.750 -0.5787  2.8306  0.1583
 4326SOL     OW24613   2.326   0.974  17.654 -0.0080 -0.0926 -0.4632
 4326SOL    HW124614   2.295   1.063  17.673 -0.7249 -0.1195 -1.4837
 4326SOL    HW224615   2.413   0.988  17.617  0.1368  0.6860  0.1612
 4327SOL     OW24616   2.300   1.183  11.171 -0.1884 -0.6505  0.4677
 4327SOL    HW124617   2.382   1.205  11.214 -0.1089  0.3416 -0.1972
 4327SOL    HW224618   2.269   1.111  11.226 -1.7767 -1.7666 -1.8403
 4328SOL     OW24619   4.666   4.516   8.301  0.4973 -0.5319 -0.1637
 4328SOL    HW124620   4.696   4.446   8.360 -0.3291 -1.3204 -0.6687
 4328SOL    HW224621   4.630   4.580   8.362  1.3319  0.6427 -0.9239
 4329SOL     OW24622   4.108   1.353   1.664  0.8553  0.3718  0.1517
 4329SOL    HW124623   4.176   1.407   1.623 -0.4455  0.3938 -1.9824
 4329SOL    HW224624   4.041   1.366   1.597  0.4190 -1.4177  0.2396
 4330SOL     OW24625   0.806   1.730   7.996 -0.2570  0.2709  0.4174
 4330SOL    HW124626   0.865   1.806   8.000  0.1367 -0.1518  2.9002
 4330SOL    HW224627   0.821   1.697   8.085  0.8040 -1.6161 -0.4639
 4331SOL     OW24628   3.619   0.710   1.118  0.0750  0.2598 -0.5430
 4331SOL    HW124629   3.561   0.752   1.182  0.6212  4.1025 -2.6065
 4331SOL    HW224630   3.563   0.707   1.040  2.7130  0.3765 -2.4203
 4332SOL     OW24631   1.112   2.382   8.512  0.1206 -0.2127 -0.2396
 4332SOL    HW124632   1.101   2.298   8.467  1.9526  0.1410 -1.3599
 4332SOL    HW224633   1.023   2.414   8.499  0.1813  0.0342 -0.0401
 4333SOL     OW24634   2.168   2.324  11.272 -0.3153  0.6553  0.0175
 4333SOL    HW124635   2.102   2.386  11.302  1.1049  2.6539 -1.0634
 4333SOL    HW224636   2.199   2.292  11.357 -0.7564  0.4781  0.1113
 4334SOL     OW24637   1.296   2.422   5.789  0.0966  0.1499  0.1224
 4334SOL    HW124638   1.246   2.503   5.781  0.8960  0.5967 -0.3863
 4334SOL    HW224639   1.232   2.354   5.808 -0.4801  1.0954  1.5791
 4335SOL     OW24640   3.118   2.422   2.489  1.1297 -0.1821  0.1792
 4335SOL    HW124641   3.041   2.478   2.482  3.0192  2.2856 -1.2409
 4335SOL    HW224642   3.179   2.478   2.440  1.2248  0.9016  1.5463
 4336SOL     OW24643   0.058   0.471  13.393 -0.3787 -0.1613 -0.1183
 4336SOL    HW124644   0.111   0.523  13.454 -0.1328  0.8702 -1.2141
 4336SOL    HW224645   4.724   0.530  13.368  0.5349  0.7168 -0.6741
 4337SOL     OW24646   4.340   3.566   7.112  0.1751  0.0972  0.4374
 4337SOL    HW124647   4.306   3.639   7.164 -2.8994 -0.1625 -1.2195
 4337SOL    HW224648   4.430   3.594   7.094 -0.1610  0.3563 -0.8197
 4338SOL     OW24649   4.405   2.606   3.415 -0.4816 -0.4218  0.1248
 4338SOL    HW124650   4.454   2.679   3.453 -1.9377  0.2395  0.7730
 4338SOL    HW224651   4.456   2.535   3.454 -0.0999 -0.9685 -1.3810
 4339SOL     OW24652   4.441   1.945   5.046 -0.3540 -0.3551  0.4074
 4339SOL    HW124653   4.377   1.940   5.118 -0.0444 -0.8673  0.6467
 4339SOL    HW224654   4.474   1.855   5.040 -0.8461 -0.7074  2.8220
 4340SOL     OW24655   2.186   0.259  10.981  0.2163 -0.3890 -0.0396
 4340SOL    HW124656   2.154   0.319  11.049  0.0356  0.6507 -1.0453
 4340SOL    HW224657   2.211   0.180  11.030 -1.7794 -2.3874 -2.2599
 4341SOL     OW24658   3.128   2.316  15.405  0.0712  0.0990  0.0851
 4341SOL    HW124659   3.065   2.247  15.425  0.9004 -0.6589  0.0701
 4341SOL    HW224660   3.105   2.343  15.316  0.0887 -1.3951 -0.3712
 4342SOL     OW24661   1.007   1.616   6.403 -0.4054 -0.0701 -0.3000
 4342SOL    HW124662   1.044   1.528   6.402  1.0545  0.5280  0.7287
 4342SOL    HW224663   1.080   1.675   6.386  1.1345 -2.1950 -1.0205
 4343SOL     OW24664   1.605   2.256   5.411  0.0979 -0.2501  0.3019
 4343SOL    HW124665   1.654   2.336   5.392  0.4286 -0.8537 -1.3714
 4343SOL    HW224666   1.660   2.210   5.474  0.0819  0.3113  0.7291
 4344SOL     OW24667   0.240   1.945  16.428 -0.1024  0.8612 -0.0127
 4344SOL    HW124668   0.282   1.877  16.376 -1.9144  0.8928 -1.5278
 4344SOL    HW224669   0.235   2.010  16.357 -0.3168  0.6218 -0.2137
 4345SOL     OW24670   3.411   4.092  17.423 -0.3806 -0.3064 -0.4390
 4345SOL    HW124671   3.458   4.053  17.497  0.0868 -0.3908 -0.7777
 4345SOL    HW224672   3.465   4.172  17.417 -1.0406  0.1319 -0.4810
 4346SOL     OW24673   2.015   3.343   3.568  0.0143 -0.3803  0.0661
 4346SOL    HW124674   2.031   3.268   3.511 -2.5631 -1.2528  0.4875
 4346SOL    HW224675   2.068   3.330   3.647  2.3646 -1.4009 -1.6803
 4347SOL     OW24676   2.253   1.456  12.679  0.3539 -0.0187  0.0537
 4347SOL    HW124677   2.166   1.432  12.712 -0.5865  2.1587 -0.8464
 4347SOL    HW224678   2.309   1.442  12.755 -0.5686  1.2929  0.9810
 4348SOL     OW24679   0.378   1.894   3.649 -0.0734  0.3618 -0.5683
 4348SOL    HW124680   0.439   1.961   3.680 -0.2665  0.0135  0.5415
 4348SOL    HW224681   0.354   1.921   3.560  1.3277  0.3460 -0.9421
 4349SOL     OW24682   1.292   1.806   5.061  0.4849 -0.0345 -0.2211
 4349SOL    HW124683   1.292   1.741   5.132  0.4887 -1.2767 -1.3466
 4349SOL    HW224684   1.221   1.787   5.000  1.1619 -0.9649 -0.7254
 4350SOL     OW24685   2.215   2.591   3.785 -0.2126 -0.4535 -0.4852
 4350SOL    HW124686   2.249   2.668   3.741  0.1537 -0.1478  0.3315
 4350SOL    HW224687   2.178   2.556   3.704  0.1930 -3.1547  0.4928
 4351SOL     OW24688   3.673   0.066   0.791 -0.4184 -0.7954 -0.3479
 4351SOL    HW124689   3.616   0.055   0.867  0.5318 -0.7726  0.3661
 4351SOL    HW224690   3.661   4.720   0.745  2.8136 -0.9225 -0.9492
 4352SOL     OW24691   2.523   0.924   9.026 -0.0616 -0.6038 -0.1359
 4352SOL    HW124692   2.452   0.864   9.047  0.4744 -1.1046  0.2671
 4352SOL    HW224693   2.524   0.927   8.930  0.6248  0.0810 -0.1120
 4353SOL     OW24694   1.071   1.046  17.110  0.0163 -0.1073 -0.1681
 4353SOL    HW124695   1.160   1.071  17.138  0.2036 -3.3497  2.0717
 4353SOL    HW224696   1.033   0.999  17.184 -0.4664 -2.8492 -2.1531
 4354SOL     OW24697   2.874   0.077   8.929 -0.1098  0.1921  0.5158
 4354SOL    HW124698   2.881   0.153   8.987 -1.2920 -0.3127  1.3182
 4354SOL    HW224699   2.787   0.094   8.892  0.1252 -0.6653 -0.4358
 4355SOL     OW24700   2.200   2.712   8.197 -0.2928  0.1456 -0.5455
 4355SOL    HW124701   2.207   2.721   8.102 -2.2907 -0.5216 -0.7549
 4355SOL    HW224702   2.106   2.694   8.199  0.1824 -1.6497  5.7504
 4356SOL     OW24703   3.091   3.310   9.097  0.6010  0.0242 -0.0727
 4356SOL    HW124704   3.101   3.243   9.165  2.6001 -0.1021 -0.5073
 4356SOL    HW224705   3.113   3.260   9.019 -1.3293 -0.8060 -0.0869
 4357SOL     OW24706   4.583   0.697   5.630  0.3729  0.0514  0.5211
 4357SOL    HW124707   4.580   0.759   5.703  0.0265  1.2779 -0.5395
 4357SOL    HW224708   4.612   0.761   5.564  0.5081  0.6854  1.1979
 4358SOL     OW24709   1.925   4.408   9.911  0.4490  0.0945 -0.3791
 4358SOL    HW124710   1.854   4.345   9.921  0.3193 -0.0180 -2.0374
 4358SOL    HW224711   1.892   4.490   9.946 -3.5881 -0.5385 -2.6842
 4359SOL     OW24712   1.601   0.556   4.148 -0.4620  0.2414  0.2475
 4359SOL    HW124713   1.539   0.626   4.169 -1.0694 -0.1500 -0.2409
 4359SOL    HW224714   1.595   0.555   4.052 -2.0917 -1.0827  0.3583
 4360SOL     OW24715   1.766   2.358  15.073  0.0423  0.5588  0.2693
 4360SOL    HW124716   1.824   2.297  15.027 -2.5899 -0.8185 -1.2727
 4360SOL    HW224717   1.805   2.433  15.028  0.6791  0.3829  0.5275
 4361SOL     OW24718   4.410   0.699   4.901 -0.2407  0.3179  0.1374
 4361SOL    HW124719   4.422   0.689   4.807 -1.6502 -2.3381  0.2291
 4361SOL    HW224720   4.318   0.725   4.896 -0.2237  0.6108  1.2572
 4362SOL     OW24721   1.189   2.999   9.299 -0.0315 -0.2884  0.0899
 4362SOL    HW124722   1.218   2.928   9.242  1.2761  0.9400 -0.8084
 4362SOL    HW224723   1.128   3.039   9.238  1.5581  1.7932 -0.1420
 4363SOL     OW24724   3.479   1.568  17.005  0.0398 -0.2992  0.2947
 4363SOL    HW124725   3.492   1.488  16.954 -0.7541 -0.5355  0.4675
 4363SOL    HW224726   3.492   1.644  16.948 -0.9130 -1.6359 -1.7076
 4364SOL     OW24727   3.400   0.734  17.271  0.1857  0.0962 -0.4129
 4364SOL    HW124728   3.338   0.737  17.198 -1.2912  0.9256  0.8504
 4364SOL    HW224729   3.460   0.801  17.239  1.5006 -0.6042  0.5659
 4365SOL     OW24730   4.002   2.947  10.707 -0.1301 -0.6098  0.0276
 4365SOL    HW124731   3.963   2.924  10.792  0.0631 -1.6063 -0.1435
 4365SOL    HW224732   3.952   3.026  10.688  1.8862  0.9190  1.0664
 4366SOL     OW24733   3.502   0.507  14.329  0.3684  0.3587  0.2310
 4366SOL    HW124734   3.442   0.580  14.345 -1.9457 -1.4086 -0.3771
 4366SOL    HW224735   3.468   0.469  14.249 -0.2369 -0.7968  1.0461
 4367SOL     OW24736   3.165   0.578   5.476 -0.7807  0.1503  0.6566
 4367SOL    HW124737   3.258   0.581   5.498 -0.6212 -1.6337  0.1714
 4367SOL    HW224738   3.138   0.670   5.479 -1.5457  0.0050 -2.5014
 4368SOL     OW24739   0.440   4.650   6.901  0.3083 -0.5169  0.1283
 4368SOL    HW124740   0.382   4.700   6.959  2.3214  1.7397  0.1874
 4368SOL    HW224741   0.522   4.695   6.918  0.1494 -0.6263  1.2210
 4369SOL     OW24742   0.180   1.328   3.764 -0.1726 -0.1294 -0.1655
 4369SOL    HW124743   0.139   1.309   3.848  0.3469  0.0539  0.1294
 4369SOL    HW224744   0.106   1.338   3.705  1.2910 -1.5507 -2.2233
 4370SOL     OW24745   0.511   2.741   4.969  0.2897 -0.4450  0.3898
 4370SOL    HW124746   0.424   2.707   4.994 -0.5147  1.4260  0.1284
 4370SOL    HW224747   0.550   2.753   5.056 -2.4685  3.9124  1.0212
 4371SOL     OW24748   0.745   1.430   5.424 -0.1324  0.3440  0.4430
 4371SOL    HW124749   0.692   1.416   5.503 -0.9815 -2.7266 -0.6846
 4371SOL    HW224750   0.692   1.376   5.366  0.1891  1.0178 -0.4828
 4372SOL     OW24751   1.059   4.454   8.099 -0.0898  0.2124 -0.2890
 4372SOL    HW124752   1.144   4.447   8.144  0.7164 -0.7923 -1.9430
 4372SOL    HW224753   1.003   4.382   8.130 -1.2747  1.7676  1.1638
 4373SOL     OW24754   2.134   4.633   3.747 -0.0389  0.4569 -0.3023
 4373SOL    HW124755   2.156   4.594   3.832  1.8320 -1.1231 -1.5061
 4373SOL    HW224756   2.217   4.669   3.715  0.4479  0.1132  0.5707
 4374SOL     OW24757   0.367   0.909  10.820  0.4812  0.5164  0.2023
 4374SOL    HW124758   0.403   0.892  10.907  3.1678 -0.1283 -1.0348
 4374SOL    HW224759   0.286   0.862  10.838  0.9629 -0.4701 -0.1899
 4375SOL     OW24760   0.872   3.769  16.265  0.4032  0.1492  0.3167
 4375SOL    HW124761   0.918   3.852  16.251 -0.5898  0.6879  0.2741
 4375SOL    HW224762   0.933   3.717  16.318  2.0523  1.9260  0.1685
 4376SOL     OW24763   2.492   0.780   6.587  0.0690 -0.4625  0.4360
 4376SOL    HW124764   2.501   0.794   6.682  0.0757 -1.6040  0.5986
 4376SOL    HW224765   2.462   0.690   6.580  0.5012 -0.5375 -0.4529
 4377SOL     OW24766   3.460   1.385   1.579 -0.0255 -0.4174  0.3052
 4377SOL    HW124767   3.504   1.319   1.633 -2.1420 -2.7713 -0.7931
 4377SOL    HW224768   3.532   1.413   1.524  1.1829 -3.4152  0.3374
 4378SOL     OW24769   1.227   2.067   5.300 -0.2998 -0.0564  0.0757
 4378SOL    HW124770   1.277   2.147   5.313 -0.9393  0.3525  0.0141
 4378SOL    HW224771   1.213   2.066   5.206  1.6148  2.3377 -0.2111
 4379SOL     OW24772   0.170   3.294   0.921  0.1737 -0.0805  0.1257
 4379SOL    HW124773   0.262   3.288   0.947 -0.7258  0.6487  3.5193
 4379SOL    HW224774   0.130   3.291   1.008  0.3118 -0.9220  0.1640
 4380SOL     OW24775   2.617   2.670   1.011  0.1190 -0.3829  0.0358
 4380SOL    HW124776   2.629   2.703   1.100 -2.4821 -0.0058  0.2520
 4380SOL    HW224777   2.593   2.578   1.024  1.6628 -0.6390  1.1457
 4381SOL     OW24778   3.763   3.006   6.118 -0.0511  0.2861 -0.1545
 4381SOL    HW124779   3.804   3.083   6.080 -0.1963  0.3950 -0.0892
 4381SOL    HW224780   3.685   3.003   6.063  0.8891 -1.0059 -1.4143
 4382SOL     OW24781   3.233   2.777   7.667  0.0467  0.4446 -0.5166
 4382SOL    HW124782   3.159   2.722   7.693  0.1236  1.3095  1.5763
 4382SOL    HW224783   3.225   2.793   7.573  0.8233 -1.1623 -0.8520
 4383SOL     OW24784   3.784   1.137  16.604  0.3718 -0.7983  0.6925
 4383SOL    HW124785   3.874   1.140  16.635  0.3526 -0.8497  0.7546
 4383SOL    HW224786   3.801   1.217  16.554  1.6206 -0.8410  1.0544
 4384SOL     OW24787   3.195   4.030   3.857 -0.5374  0.3037 -0.2658
 4384SOL    HW124788   3.270   4.021   3.916  0.7215  1.2415 -1.7298
 4384SOL    HW224789   3.193   3.946   3.812 -1.5291  0.3681 -0.3558
 4385SOL     OW24790   2.409   1.636   8.150 -1.0182 -0.0292 -0.0759
 4385SOL    HW124791   2.387   1.543   8.147  0.5577 -0.3628 -1.2040
 4385SOL    HW224792   2.424   1.628   8.056  1.0785  0.2723  0.2355
 4386SOL     OW24793   1.136   0.905   4.940 -0.3417 -0.2141  0.4963
 4386SOL    HW124794   1.103   0.883   5.027  2.4165  1.9968  2.1008
 4386SOL    HW224795   1.217   0.932   4.983  1.1423 -1.3483 -1.6411
 4387SOL     OW24796   4.723   2.185   6.041  0.1693  0.0930 -0.2618
 4387SOL    HW124797   4.638   2.229   6.030 -0.9428 -2.2588 -1.1255
 4387SOL    HW224798   0.014   2.206   6.130 -0.8836 -0.4691  0.2038
 4388SOL     OW24799   0.942   3.014   6.921  0.7956  0.1378  0.0840
 4388SOL    HW124800   0.943   3.060   7.004 -0.4863  2.0220 -0.9343
 4388SOL    HW224801   1.025   3.042   6.882 -0.9078 -1.2665 -4.5929
 4389SOL     OW24802   1.674   3.700  17.292 -0.0481  0.0019 -0.0208
 4389SOL    HW124803   1.666   3.764  17.363  2.4422  1.4760 -1.0900
 4389SOL    HW224804   1.625   3.633  17.340 -0.9311  0.8341  0.2401
 4390SOL     OW24805   0.966   4.647   8.259  0.1398  0.2234 -0.1286
 4390SOL    HW124806   0.900   4.691   8.206 -0.6839 -1.0839 -0.2000
 4390SOL    HW224807   1.000   4.576   8.205 -1.2474 -0.4280 -0.1456
 4391SOL     OW24808   0.531   3.907  12.963  0.6060  0.2529  0.2309
 4391SOL    HW124809   0.518   3.947  12.877 -0.5780  1.0448  0.7708
 4391SOL    HW224810   0.570   3.985  13.001  0.0818 -0.5026  2.3637
 4392SOL     OW24811   2.893   2.864   4.146 -0.0660  0.0007 -0.6125
 4392SOL    HW124812   2.968   2.863   4.206  0.3500  0.6742 -1.1094
 4392SOL    HW224813   2.840   2.792   4.178 -1.3795  1.3145  0.1970
 4393SOL     OW24814   0.490   2.813  14.112 -0.0522  0.4474  0.6024
 4393SOL    HW124815   0.455   2.847  14.194 -2.8445 -1.7645  0.3079
 4393SOL    HW224816   0.413   2.829  14.058  2.3097  2.6078 -2.1132
 4394SOL     OW24817   4.651   1.271   5.858  0.0043 -0.2989 -0.3225
 4394SOL    HW124818   4.619   1.315   5.780  0.4162  0.9223  0.2009
 4394SOL    HW224819   0.008   1.292   5.863  0.5316 -3.0409  1.8885
 4395SOL     OW24820   3.625   4.173   2.825  0.0253 -0.2193  0.0711
 4395SOL    HW124821   3.702   4.116   2.820  0.8512  0.9356 -0.4522
 4395SOL    HW224822   3.562   4.132   2.885 -0.1262 -1.3073 -0.8377
 4396SOL     OW24823   1.549   3.201   7.875 -0.4635  0.4105 -0.6948
 4396SOL    HW124824   1.574   3.150   7.952  0.1030  2.6030  0.5588
 4396SOL    HW224825   1.496   3.268   7.917 -1.9216  0.1644 -2.1290
 4397SOL     OW24826   1.784   3.585   2.351  0.2002  0.1490  0.4297
 4397SOL    HW124827   1.817   3.512   2.404  1.4690  0.7102  0.4182
 4397SOL    HW224828   1.803   3.660   2.408  1.0757  0.6887 -0.5473
 4398SOL     OW24829   1.019   2.621  11.676  1.0387  0.1075  0.5595
 4398SOL    HW124830   1.094   2.665  11.714  1.2329  0.5137 -0.2994
 4398SOL    HW224831   0.990   2.688  11.614  1.2259 -0.3118  0.0112
 4399SOL     OW24832   2.664   3.594   3.415 -0.1687 -0.4956  0.0819
 4399SOL    HW124833   2.677   3.559   3.327 -0.4333 -0.8042  0.1658
 4399SOL    HW224834   2.664   3.516   3.469  0.9330 -0.3941  0.2274
 4400SOL     OW24835   0.717   2.290   9.875 -0.1217  0.1226  0.0525
 4400SOL    HW124836   0.801   2.294   9.921 -0.0116 -2.0877  0.0731
 4400SOL    HW224837   0.671   2.215   9.914  0.5103 -0.9734 -1.3276
 4401SOL     OW24838   1.318   3.779   4.852  0.5705  0.4764  0.1338
 4401SOL    HW124839   1.344   3.763   4.761 -0.1138 -0.8355  0.1782
 4401SOL    HW224840   1.372   3.710   4.890  1.0884 -0.1809 -1.7849
 4402SOL     OW24841   4.296   1.082   8.840  0.4125 -0.1695  0.1901
 4402SOL    HW124842   4.306   1.162   8.892  1.3058 -0.5582  0.5989
 4402SOL    HW224843   4.339   1.098   8.756  0.9814  1.6795  0.8216
 4403SOL     OW24844   2.680   2.083   7.551  0.2857  0.1675 -0.3380
 4403SOL    HW124845   2.718   2.072   7.638  1.4208  0.1641 -0.8356
 4403SOL    HW224846   2.657   2.173   7.575  0.6560 -0.0811  0.9538
 4404SOL     OW24847   0.929   1.866   5.633  0.3301  0.1009 -0.2698
 4404SOL    HW124848   0.948   1.776   5.661  1.0620  0.5251  0.5997
 4404SOL    HW224849   0.994   1.874   5.564 -2.4302  2.1800 -2.6119
 4405SOL     OW24850   1.766   4.303   5.124 -0.2250  0.0865 -0.1101
 4405SOL    HW124851   1.682   4.269   5.155  0.4130 -0.8428  0.5955
 4405SOL    HW224852   1.745   4.394   5.103  0.7582  0.5710  0.9437
 4406SOL     OW24853   0.869   1.654   4.183 -0.6195  0.4457  0.0034
 4406SOL    HW124854   0.866   1.565   4.218 -0.5782  0.4359 -0.0186
 4406SOL    HW224855   0.793   1.691   4.228 -1.3714 -0.8004 -0.2158
 4407SOL     OW24856   2.584   2.934   4.424 -0.6727 -0.2317  0.4538
 4407SOL    HW124857   2.542   2.850   4.443  1.3300 -0.6517  3.0113
 4407SOL    HW224858   2.672   2.916   4.456 -0.7656 -1.4636  0.0277
 4408SOL     OW24859   1.990   1.286   3.950 -0.2342 -0.1709 -0.0600
 4408SOL    HW124860   1.940   1.249   3.877 -1.2286  3.0853 -1.0349
 4408SOL    HW224861   1.928   1.356   3.971 -0.7208  0.2186 -2.7580
 4409SOL     OW24862   0.396   4.340   4.578  0.1319 -0.6107  0.1433
 4409SOL    HW124863   0.477   4.300   4.546  1.5899  0.8518  2.0461
 4409SOL    HW224864   0.361   4.369   4.493 -1.7771  2.0296  1.8507
 4410SOL     OW24865   0.673   2.041   1.911  0.3551 -0.6040 -0.6300
 4410SOL    HW124866   0.739   2.018   1.976  1.7604 -1.5075 -2.4058
 4410SOL    HW224867   0.601   2.031   1.973  1.1200 -2.8108 -0.0987
 4411SOL     OW24868   3.130   3.730  13.773  0.0734  0.4468  0.1372
 4411SOL    HW124869   3.109   3.639  13.753 -1.2497  1.2658 -2.0875
 4411SOL    HW224870   3.224   3.734  13.757  0.1921  1.9052  1.1556
 4412SOL     OW24871   0.623   3.158   7.223 -0.0251  0.1263  0.2334
 4412SOL    HW124872   0.622   3.173   7.128 -0.1021 -2.1841 -0.1344
 4412SOL    HW224873   0.646   3.246   7.253 -0.7101  0.4401 -0.1804
 4413SOL     OW24874   2.546   0.543   7.369  0.6671  0.1378 -0.5488
 4413SOL    HW124875   2.563   0.629   7.407 -0.0236  0.5496 -1.1876
 4413SOL    HW224876   2.582   0.487   7.439 -1.0148  1.1348  1.0965
 4414SOL     OW24877   4.188   1.134   3.821  0.1459 -0.2734  0.0488
 4414SOL    HW124878   4.279   1.162   3.831 -0.8458  3.1550 -0.3589
 4414SOL    HW224879   4.160   1.148   3.911 -1.2138 -2.4245 -0.0390
 4415SOL     OW24880   1.755   4.561   2.818 -0.3026  0.4902  0.2795
 4415SOL    HW124881   1.830   4.521   2.861  1.0272 -0.7939 -3.2768
 4415SOL    HW224882   1.790   4.564   2.729 -2.1774  1.9155 -0.4214
 4416SOL     OW24883   1.713   0.050   8.217 -0.1387  0.0347 -0.1827
 4416SOL    HW124884   1.660   4.729   8.271 -1.2857  1.0158 -0.2606
 4416SOL    HW224885   1.795   0.043   8.266 -0.9304 -1.1078  0.9731
 4417SOL     OW24886   1.417   3.980   2.773  0.4324 -0.4353 -0.4005
 4417SOL    HW124887   1.448   3.889   2.770  1.5720 -0.1159  1.6291
 4417SOL    HW224888   1.380   3.966   2.860 -3.0236 -3.1988 -2.3417
 4418SOL     OW24889   4.049   1.301   2.428 -0.3692  0.5876 -0.0861
 4418SOL    HW124890   4.028   1.382   2.382 -2.7830 -1.3401 -2.3381
 4418SOL    HW224891   4.059   1.339   2.515 -0.3336  0.4141 -0.0130
 4419SOL     OW24892   0.518   0.788   6.214 -0.1464 -0.3384 -0.0684
 4419SOL    HW124893   0.520   0.836   6.131 -1.1020 -0.1119  0.0340
 4419SOL    HW224894   0.602   0.743   6.204 -0.1979 -0.3394 -0.5110
 4420SOL     OW24895   0.569   2.104   3.627 -0.1083 -0.6262  0.1326
 4420SOL    HW124896   0.597   2.129   3.539 -1.6567 -0.4015 -0.2811
 4420SOL    HW224897   0.555   2.194   3.658 -0.0059 -0.4833 -0.2346
 4421SOL     OW24898   2.304   0.494   9.144  0.2885  0.0608  0.1898
 4421SOL    HW124899   2.231   0.465   9.198  0.0688  1.2926  0.5527
 4421SOL    HW224900   2.322   0.412   9.099  0.0939  1.0391 -1.6733
 4422SOL     OW24901   0.984   0.248   4.583 -0.0714 -0.3715 -0.1089
 4422SOL    HW124902   1.080   0.239   4.583  0.0252  0.6413  1.5903
 4422SOL    HW224903   0.954   0.173   4.633  2.2999 -1.0602  0.2863
 4423SOL     OW24904   3.347   1.030   9.869  0.0512 -0.5913  0.1047
 4423SOL    HW124905   3.358   1.018   9.964  1.1179 -1.3076 -0.1177
 4423SOL    HW224906   3.425   1.079   9.845  1.5024 -2.6102  0.7201
 4424SOL     OW24907   4.563   2.738  10.356  0.4160 -0.0143 -0.3124
 4424SOL    HW124908   4.642   2.740  10.410 -0.2255  2.1566  0.5433
 4424SOL    HW224909   4.536   2.653  10.392 -1.4771  0.3443 -0.8741
 4425SOL     OW24910   2.687   1.394   1.976 -0.4522 -0.6297  0.0719
 4425SOL    HW124911   2.658   1.382   2.066 -0.6185  0.3835  0.1512
 4425SOL    HW224912   2.617   1.440   1.931 -0.2034 -1.0577 -0.7746
 4426SOL     OW24913   4.554   3.677   7.642  0.0894 -0.5608 -0.0497
 4426SOL    HW124914   4.502   3.615   7.591 -1.8289  0.1401  1.0643
 4426SOL    HW224915   4.564   3.753   7.585 -2.3013 -0.0616  0.2177
 4427SOL     OW24916   2.565   1.214   0.920  0.9061  0.2286  0.9919
 4427SOL    HW124917   2.518   1.285   0.875  2.0793  0.7051  0.5386
 4427SOL    HW224918   2.614   1.266   0.984  4.6578 -1.1508 -0.7995
 4428SOL     OW24919   0.462   3.284   0.872 -0.2517  0.1288  0.2727
 4428SOL    HW124920   0.505   3.358   0.914  0.9687 -0.4039 -0.0321
 4428SOL    HW224921   0.542   3.248   0.832 -0.7817  0.3005 -0.9151
 4429SOL     OW24922   2.307   0.857  16.444  0.2590  0.1911 -0.3604
 4429SOL    HW124923   2.234   0.889  16.391 -1.0698 -0.3637  1.1427
 4429SOL    HW224924   2.261   0.822  16.521 -0.7255  3.6464  0.6064
 4430SOL     OW24925   1.522   0.512   7.198  0.2931  0.5127  0.3855
 4430SOL    HW124926   1.587   0.562   7.247  0.6226  0.9029 -0.4536
 4430SOL    HW224927   1.575   0.461   7.137  0.4458 -0.1760  1.0882
 4431SOL     OW24928   4.057   2.575  17.659  0.3928  0.6151  0.0155
 4431SOL    HW124929   4.136   2.568  17.712  0.4064 -1.9762 -0.3760
 4431SOL    HW224930   4.058   2.487  17.622 -0.6861 -0.3125  2.2019
 4432SOL     OW24931   2.814   1.059   6.503 -0.2224  0.1009 -0.4089
 4432SOL    HW124932   2.793   0.988   6.441  1.2618  0.2772 -1.1163
 4432SOL    HW224933   2.910   1.054   6.494 -0.1868  0.6977 -0.3304
 4433SOL     OW24934   4.658   0.630   2.865  0.4167  0.0827 -0.0582
 4433SOL    HW124935   4.662   0.714   2.910 -1.4102  1.0132 -1.6365
 4433SOL    HW224936   4.603   0.578   2.923  3.5130 -2.1673  0.8947
 4434SOL     OW24937   3.786   4.211   9.819  0.1759  0.2969 -0.3441
 4434SOL    HW124938   3.787   4.298   9.780  0.0996  0.6832  0.5244
 4434SOL    HW224939   3.796   4.235   9.911  2.5718  0.4867 -0.6456
 4435SOL     OW24940   1.022   0.887   5.210  0.0438 -0.2573 -0.0850
 4435SOL    HW124941   0.933   0.917   5.189 -0.5213 -0.4670  1.9656
 4435SOL    HW224942   1.035   0.925   5.297 -2.1212 -2.2357  1.0947
 4436SOL     OW24943   1.519   2.689   3.514 -0.6115 -0.2212  0.2917
 4436SOL    HW124944   1.589   2.722   3.457 -1.5756 -0.0981 -0.8370
 4436SOL    HW224945   1.473   2.771   3.532 -0.9312 -0.7525  1.8304
 4437SOL     OW24946   4.623   1.093   2.313  0.6562 -0.3494 -0.0916
 4437SOL    HW124947   4.570   1.053   2.382  1.7860 -0.6908  0.5587
 4437SOL    HW224948   4.709   1.063   2.341 -0.5569 -1.9642  1.8687
 4438SOL     OW24949   0.232   1.674   0.075 -0.6902  0.1718 -0.1583
 4438SOL    HW124950   0.194   1.761   0.064 -0.0993  0.4068 -0.3499
 4438SOL    HW224951   0.314   1.696   0.120 -0.3112  0.0096 -0.7543
 4439SOL     OW24952   2.830   3.675   4.638  0.4778 -0.5486 -0.0832
 4439SOL    HW124953   2.879   3.730   4.699 -1.3351 -1.3019  2.0159
 4439SOL    HW224954   2.907   3.630   4.602  0.8537  0.0271  0.0058
 4440SOL     OW24955   2.234   2.669   5.013 -0.0214 -0.5224  0.0413
 4440SOL    HW124956   2.256   2.584   5.051  0.3189 -0.1515  0.6769
 4440SOL    HW224957   2.231   2.722   5.093  0.3820  0.0933 -0.3491
 4441SOL     OW24958   1.022   2.118   3.431  0.8812 -0.4006 -0.4460
 4441SOL    HW124959   0.964   2.055   3.387 -0.8324 -0.4948  1.9536
 4441SOL    HW224960   0.975   2.202   3.431  4.3550  1.5409 -1.3407
 4442SOL     OW24961   0.217   0.706  17.649  0.0417 -0.2605  0.5282
 4442SOL    HW124962   0.278   0.745  17.711 -0.5229 -0.9827  1.5253
 4442SOL    HW224963   0.161   0.776  17.614 -0.7765 -2.1740 -2.0313
 4443SOL     OW24964   2.827   2.398   5.563  0.7014  0.5728  0.5895
 4443SOL    HW124965   2.781   2.364   5.639  2.4343 -2.3331  0.3659
 4443SOL    HW224966   2.911   2.415   5.606  0.7632 -0.7330  0.9818
 4444SOL     OW24967   4.584   2.257   8.161  0.2452  0.0824 -0.6566
 4444SOL    HW124968   4.640   2.183   8.187  2.1239  1.3841 -1.0029
 4444SOL    HW224969   4.640   2.292   8.092 -1.6218  0.3827 -2.0184
 4445SOL     OW24970   3.482   2.371  13.656  0.2326  0.5208 -0.1941
 4445SOL    HW124971   3.391   2.387  13.682 -0.1324  2.0521 -2.4647
 4445SOL    HW224972   3.493   2.433  13.584 -2.1319 -1.3501 -2.1397
 4446SOL     OW24973   1.178   2.585  16.467 -0.1629  0.1030  0.5211
 4446SOL    HW124974   1.200   2.622  16.553  0.8013 -1.4037  0.9073
 4446SOL    HW224975   1.249   2.522  16.458 -0.1147 -0.3270  3.9491
 4447SOL     OW24976   1.861   1.072  16.270 -0.1136 -0.1351 -0.1697
 4447SOL    HW124977   1.954   1.079  16.291 -0.2529 -1.0663  0.7793
 4447SOL    HW224978   1.853   1.156  16.226 -0.2342  0.3852  0.8702
 4448SOL     OW24979   4.670   0.890   9.330 -0.1012 -0.2078  0.5604
 4448SOL    HW124980   0.028   0.880   9.338  0.2139  1.8926 -0.4308
 4448SOL    HW224981   4.662   0.941   9.249  0.4530 -0.2910  0.4540
 4449SOL     OW24982   2.205   3.285   7.197 -0.2671 -0.5666  0.2774
 4449SOL    HW124983   2.218   3.247   7.111 -0.2226  0.2174 -0.0619
 4449SOL    HW224984   2.118   3.248   7.214 -1.0546  1.7953  1.4563
 4450SOL     OW24985   4.452   3.126   7.847  0.1835  0.3984 -0.0878
 4450SOL    HW124986   4.481   3.155   7.933  0.8885  1.1792 -0.5753
 4450SOL    HW224987   4.537   3.094   7.817  0.1394  0.6138 -0.4469
 4451SOL     OW24988   3.069   0.439   9.446  0.4275 -0.1247 -0.5279
 4451SOL    HW124989   3.160   0.422   9.421  0.9897  2.1513 -0.0232
 4451SOL    HW224990   3.028   0.354   9.433 -1.3968  0.8028 -0.9258
 4452SOL     OW24991   2.761   0.824   6.310  0.0964  0.0918 -0.1585
 4452SOL    HW124992   2.835   0.860   6.261  0.3944 -0.8156 -0.3813
 4452SOL    HW224993   2.804   0.750   6.353  0.3235 -0.5550 -1.4817
 4453SOL     OW24994   0.927   2.773   6.796  0.1414 -0.5637 -0.3115
 4453SOL    HW124995   0.909   2.849   6.850 -2.0297 -0.4808 -1.1640
 4453SOL    HW224996   1.018   2.785   6.767  1.0748  1.0305  3.2739
 4454SOL     OW24997   1.720   3.417  17.332 -0.4450  0.0267  0.4065
 4454SOL    HW124998   1.727   3.410  17.237  1.3067 -2.5995  0.7395
 4454SOL    HW224999   1.812   3.416  17.356 -0.3434  1.5580  0.0731
 4455SOL     OW25000   0.801   1.987   3.324  0.4230 -0.5312 -0.0344
 4455SOL    HW125001   0.734   1.928   3.360 -0.0436 -0.5378 -0.9216
 4455SOL    HW225002   0.753   2.069   3.309  0.5992 -0.7005 -1.4945
 4456SOL     OW25003   2.592   3.360   6.719 -0.2623 -0.4184 -0.2822
 4456SOL    HW125004   2.512   3.402   6.750 -0.9197 -0.5085 -1.8674
 4456SOL    HW225005   2.605   3.299   6.791 -0.9149 -1.0699 -0.7236
 4457SOL     OW25006   4.535   4.021   3.834 -0.2143  0.1840  0.1277
 4457SOL    HW125007   4.589   4.001   3.911  1.5919 -1.8864 -1.6439
 4457SOL    HW225008   4.449   4.018   3.874  0.6615 -1.1480  1.9307
 4458SOL     OW25009   1.304   3.052   4.226  0.4836  0.0045  0.3692
 4458SOL    HW125010   1.385   3.005   4.206  0.8087  0.2632  1.0406
 4458SOL    HW225011   1.237   3.021   4.166 -0.1491  2.7628 -0.3675
 4459SOL     OW25012   0.545   2.886   7.263 -0.1117  0.5227  0.0321
 4459SOL    HW125013   0.511   2.884   7.174 -0.3488 -0.3399  0.1437
 4459SOL    HW225014   0.587   2.972   7.254 -0.3730  0.7459  0.9347
 4460SOL     OW25015   2.174   3.338   5.284 -0.1380 -0.3460 -0.5299
 4460SOL    HW125016   2.202   3.425   5.314  0.4511 -0.0942 -1.7819
 4460SOL    HW225017   2.236   3.322   5.212 -1.8823 -2.8364 -1.4854
 4461SOL     OW25018   2.065   0.284   9.278 -0.1372  0.0943  0.0809
 4461SOL    HW125019   2.031   0.309   9.364  0.6497  1.6391 -0.0583
 4461SOL    HW225020   2.035   0.194   9.268 -1.9871  1.0273 -2.8683
 4462SOL     OW25021   2.361   0.787   8.591  0.2956 -0.2245 -0.6219
 4462SOL    HW125022   2.346   0.700   8.630 -2.2935  0.8593  0.8044
 4462SOL    HW225023   2.274   0.815   8.563 -0.4794 -2.8218 -0.9014
 4463SOL     OW25024   3.634   4.001   9.312 -0.3195  0.1784 -0.2022
 4463SOL    HW125025   3.542   3.979   9.298 -0.9546  2.1252  0.9254
 4463SOL    HW225026   3.654   3.935   9.378 -0.0967 -2.0091 -2.4910
 4464SOL     OW25027   0.556   1.255   3.139 -0.4336  0.1279 -0.4855
 4464SOL    HW125028   0.560   1.227   3.048 -2.8779 -1.9774  0.0477
 4464SOL    HW225029   0.496   1.329   3.133 -1.6306 -0.7657  0.2295
 4465SOL     OW25030   3.742   4.433   5.310 -0.1499 -0.2303  0.6064
 4465SOL    HW125031   3.809   4.365   5.319  1.9245  1.7505  0.1398
 4465SOL    HW225032   3.671   4.391   5.359 -1.2758  1.8626  0.7607
 4466SOL     OW25033   1.080   1.297   9.133  0.0432  0.4308  0.1648
 4466SOL    HW125034   1.073   1.204   9.157 -0.7951 -0.1037 -2.1814
 4466SOL    HW225035   1.168   1.320   9.164 -0.4282 -0.2736  2.0279
 4467SOL     OW25036   4.084   0.131  15.861  0.3588  0.5131 -0.4774
 4467SOL    HW125037   4.019   0.145  15.931  0.1911  1.3900 -0.8069
 4467SOL    HW225038   4.160   0.090  15.901  0.1841  1.6874  1.0965
 4468SOL     OW25039   2.545   0.831   3.205  0.0240  0.4803 -0.5770
 4468SOL    HW125040   2.483   0.873   3.264  1.0035  1.1521 -0.0269
 4468SOL    HW225041   2.541   0.895   3.134  3.0122  0.2146 -0.9938
 4469SOL     OW25042   3.067   4.058   1.402  0.6434 -0.4098  0.3249
 4469SOL    HW125043   3.067   4.136   1.456 -1.2659  0.6180 -1.1658
 4469SOL    HW225044   3.142   4.087   1.350 -0.3016  1.7418  0.1898
 4470SOL     OW25045   1.109   1.744  14.886 -0.2598  0.3285 -0.0037
 4470SOL    HW125046   1.029   1.789  14.858  0.4680  0.5641 -1.7036
 4470SOL    HW225047   1.068   1.680  14.944 -1.4798 -0.8639 -2.1755
 4471SOL     OW25048   1.170   2.129   2.678 -0.4862  0.2378  0.2406
 4471SOL    HW125049   1.077   2.140   2.657 -0.1101  1.2806 -0.8768
 4471SOL    HW225050   1.187   2.035   2.674  0.6221  0.4727 -0.8941
 4472SOL     OW25051   4.411   4.663   0.506 -0.4670  0.0107 -0.5458
 4472SOL    HW125052   4.502   4.680   0.529 -0.5501 -1.1595  0.6764
 4472SOL    HW225053   4.381   4.603   0.575  2.2435  0.5106  1.0380
 4473SOL     OW25054   4.075   4.562   4.365  0.5849 -0.3128 -0.4263
 4473SOL    HW125055   3.995   4.604   4.398 -0.1390 -1.9208 -0.1546
 4473SOL    HW225056   4.035   4.502   4.303 -0.4435 -0.5627  0.4708
 4474SOL     OW25057   1.290   0.564  10.676 -0.4741  0.0967  0.2734
 4474SOL    HW125058   1.357   0.535  10.738  0.4605  0.4313 -0.5742
 4474SOL    HW225059   1.270   0.478  10.639 -0.2559  0.7693 -1.3975
 4475SOL     OW25060   1.068   1.799   4.283  0.6845  0.1980 -0.2702
 4475SOL    HW125061   1.074   1.843   4.198 -1.5686  0.4556 -0.2934
 4475SOL    HW225062   1.005   1.733   4.254 -1.1778  2.1517 -0.7069
 4476SOL     OW25063   0.668   1.391   8.120  0.2017 -0.1199 -0.4515
 4476SOL    HW125064   0.628   1.334   8.055  1.5538  0.5257 -1.8550
 4476SOL    HW225065   0.639   1.477   8.090  1.2394  0.4142  0.0372
 4477SOL     OW25066   2.845   0.294   9.085  0.1680 -0.4870  0.4077
 4477SOL    HW125067   2.884   0.345   9.157  2.1986  0.5082 -1.4025
 4477SOL    HW225068   2.755   0.291   9.116  0.1085 -1.3194  0.1402
 4478SOL     OW25069   0.921   2.408   8.123  0.2890  0.2861  0.1205
 4478SOL    HW125070   0.889   2.444   8.040 -0.7985  0.6104  0.6720
 4478SOL    HW225071   0.877   2.466   8.186 -0.5987  0.4141 -0.6083
 4479SOL     OW25072   4.075   1.129   7.134 -0.0751 -0.2935  0.1312
 4479SOL    HW125073   4.079   1.116   7.039 -0.0447 -1.1834  0.2535
 4479SOL    HW225074   4.090   1.041   7.167 -0.5309 -0.9474 -1.4052
 4480SOL     OW25075   2.817   0.655   1.019  0.2763 -0.2240 -0.3657
 4480SOL    HW125076   2.875   0.585   1.047 -1.4345 -2.3221 -2.0822
 4480SOL    HW225077   2.732   0.611   1.011  0.0647 -0.5034  3.2545
 4481SOL     OW25078   2.445   1.959  14.508  0.6754  0.3559  0.1570
 4481SOL    HW125079   2.372   2.003  14.465  1.1562 -0.3506 -1.3684
 4481SOL    HW225080   2.408   1.871  14.509  2.2573 -0.3525 -3.6548
 4482SOL     OW25081   0.980   2.012   2.937 -0.1663  0.1642  0.1323
 4482SOL    HW125082   0.936   1.961   3.005  1.6000 -0.2225  0.9839
 4482SOL    HW225083   1.050   1.953   2.909 -0.9102 -0.1098 -1.1483
 4483SOL     OW25084   2.831   3.943  11.219  0.4125 -0.8489  0.2094
 4483SOL    HW125085   2.831   4.012  11.285  3.5360 -1.0196  0.4012
 4483SOL    HW225086   2.784   3.875  11.268  0.7880 -0.3592  1.2524
 4484SOL     OW25087   3.866   3.446  16.298  0.2326 -0.5370 -0.5068
 4484SOL    HW125088   3.821   3.420  16.218 -0.0091 -0.9127 -0.2489
 4484SOL    HW225089   3.846   3.539  16.286 -0.3000 -0.7959 -1.6467
 4485SOL     OW25090   3.900   3.145   6.535  0.3554  0.0175 -0.0092
 4485SOL    HW125091   3.813   3.146   6.497 -0.1720 -1.2376  1.1663
 4485SOL    HW225092   3.951   3.192   6.468  0.8036  2.2202  1.8453
 4486SOL     OW25093   1.170   0.497   6.586 -0.6252 -0.1549  0.3875
 4486SOL    HW125094   1.203   0.407   6.591  2.5039  0.9125 -0.4758
 4486SOL    HW225095   1.191   0.520   6.495 -1.0728 -0.3439  0.2361
 4487SOL     OW25096   3.176   3.907   1.676  0.6857 -0.1464 -0.2496
 4487SOL    HW125097   3.178   4.000   1.656  3.4034 -0.0791  0.3970
 4487SOL    HW225098   3.120   3.905   1.754 -0.6083  3.2451 -1.0955
 4488SOL     OW25099   4.716   1.142  11.055 -0.3757 -0.2515 -0.4025
 4488SOL    HW125100   0.060   1.123  11.007  2.3205  0.8805  3.7692
 4488SOL    HW225101   4.662   1.065  11.034 -0.5779 -0.7331  1.9287
 4489SOL     OW25102   4.333   2.199   3.873 -0.1265  0.0608 -0.3369
 4489SOL    HW125103   4.419   2.207   3.832 -0.5770 -0.2640 -1.3472
 4489SOL    HW225104   4.344   2.124   3.932 -0.5116 -0.8078 -1.3703
 4490SOL     OW25105   1.691   4.337   9.502 -0.3266  1.0883  0.1712
 4490SOL    HW125106   1.653   4.399   9.439 -1.0193  0.8461  0.3468
 4490SOL    HW225107   1.697   4.390   9.582  1.8201 -0.5310  1.0732
 4491SOL     OW25108   3.234   0.355   5.665 -0.1607  0.0383 -0.0985
 4491SOL    HW125109   3.152   0.307   5.679 -0.1381 -0.5567 -2.0589
 4491SOL    HW225110   3.204   0.423   5.604 -0.6755  1.1917  1.4294
 4492SOL     OW25111   4.413   2.834   9.182 -0.0670 -0.0689 -0.2207
 4492SOL    HW125112   4.409   2.842   9.087  0.0214  0.7311 -0.1538
 4492SOL    HW225113   4.501   2.796   9.185  0.3975  0.8570 -2.4536
 4493SOL     OW25114   1.485   1.013   4.238 -0.0068 -0.1395  0.5236
 4493SOL    HW125115   1.391   1.015   4.220  0.0474 -1.3137  0.0931
 4493SOL    HW225116   1.474   1.016   4.333 -3.4536 -0.8339  0.1398
 4494SOL     OW25117   2.494   1.995  15.144 -0.5961  0.7657  0.0965
 4494SOL    HW125118   2.552   1.924  15.114  0.0250  2.0365 -1.7497
 4494SOL    HW225119   2.478   2.043  15.063  0.7977  2.1142  0.6023
 4495SOL     OW25120   3.162   2.682   0.820 -0.3717 -0.0726 -0.1679
 4495SOL    HW125121   3.095   2.691   0.752 -2.0107 -0.5170  1.4155
 4495SOL    HW225122   3.135   2.745   0.886  1.0533  0.5205 -0.1453
 4496SOL     OW25123   2.106   3.676  14.933  0.5419  0.0660 -0.0617
 4496SOL    HW125124   2.150   3.646  15.012  1.2629 -0.8684 -0.8210
 4496SOL    HW225125   2.181   3.672  14.874 -1.6229  1.5143 -2.9087
 4497SOL     OW25126   1.315   4.047  16.449 -0.0600  0.3453 -0.5480
 4497SOL    HW125127   1.359   4.091  16.522  0.6242  0.0010 -0.7478
 4497SOL    HW225128   1.309   3.959  16.485  1.2109  0.7696  0.7402
 4498SOL     OW25129   4.708   1.423   3.577  0.2531 -0.5489 -0.1592
 4498SOL    HW125130   4.707   1.505   3.527  1.0204 -1.0889 -1.0813
 4498SOL    HW225131   4.631   1.374   3.549  0.6015 -0.8166 -0.6672
 4499SOL     OW25132   1.738   2.177   6.566 -0.1304  0.3677 -0.0265
 4499SOL    HW125133   1.828   2.209   6.576 -0.0050  0.3414 -1.1056
 4499SOL    HW225134   1.755   2.088   6.596  0.7276 -0.1834 -2.2030
 4500SOL     OW25135   2.806   1.377  13.441 -0.7049  0.1962 -0.2279
 4500SOL    HW125136   2.800   1.472  13.453  1.0885  0.0300  2.0115
 4500SOL    HW225137   2.821   1.351  13.532  0.6667  2.2579  0.1406
 4501SOL     OW25138   2.884   1.209  11.901  0.5764  0.1388 -0.2238
 4501SOL    HW125139   2.822   1.273  11.935  0.9916  0.1589  0.5110
 4501SOL    HW225140   2.829   1.134  11.925  1.1205  0.6294  2.5461
 4502SOL     OW25141   0.713   1.274  10.325 -0.0737  0.0962 -0.5120
 4502SOL    HW125142   0.700   1.197  10.380  1.1725  0.0067 -0.3506
 4502SOL    HW225143   0.665   1.254  10.244 -0.1962  2.1077 -0.9394
 4503SOL     OW25144   4.046   0.904   8.767  0.0397 -0.0890  0.4389
 4503SOL    HW125145   4.113   0.954   8.813  0.5062 -1.5500  1.3416
 4503SOL    HW225146   3.999   0.977   8.726  0.0610 -1.6888 -2.4331
 4504SOL     OW25147   1.109   3.251   7.960 -0.1613 -0.5183 -0.1858
 4504SOL    HW125148   1.156   3.331   7.937  2.0476 -1.4996  0.8977
 4504SOL    HW225149   1.029   3.272   7.913  0.8880 -0.2677 -1.8630
 4505SOL     OW25150   0.170   0.966  12.793  0.0277 -0.0679  0.6925
 4505SOL    HW125151   0.261   0.943  12.772  0.4361  0.6435  1.7083
 4505SOL    HW225152   0.127   0.918  12.722 -0.6552  0.4019  0.7953
 4506SOL     OW25153   1.594   1.374  13.815  0.0962  0.1000  0.4655
 4506SOL    HW125154   1.513   1.343  13.775 -1.6557  2.3571  2.2753
 4506SOL    HW225155   1.619   1.298  13.867 -0.8366 -0.9999 -0.7035
 4507SOL     OW25156   0.699   1.724   5.210  0.3121 -0.2109 -0.3627
 4507SOL    HW125157   0.713   1.649   5.267 -0.1119  0.6371  0.8622
 4507SOL    HW225158   0.789   1.755   5.205  0.4440 -0.2517  1.9494
 4508SOL     OW25159   0.648   2.610   2.968 -0.3702  0.3629 -0.2820
 4508SOL    HW125160   0.656   2.537   2.906  0.8486 -0.1728  0.5029
 4508SOL    HW225161   0.599   2.677   2.923 -1.8302 -1.2655 -1.1096
 4509SOL     OW25162   0.976   2.850   3.599  0.1927  0.0500 -0.0771
 4509SOL    HW125163   0.970   2.774   3.540 -0.6852 -0.5180  0.7447
 4509SOL    HW225164   1.013   2.803   3.674 -0.4719  0.1958  0.3412
 4510SOL     OW25165   0.586   0.768   9.222 -0.1484 -0.3985  0.0356
 4510SOL    HW125166   0.673   0.750   9.258  0.1148  0.0836 -0.3661
 4510SOL    HW225167   0.606   0.840   9.162 -1.7395 -0.0879 -0.1278
 4511SOL     OW25168   2.553   0.049   6.889  0.0267  0.5315 -0.2452
 4511SOL    HW125169   2.517   4.706   6.928 -0.5986  1.5600  1.2555
 4511SOL    HW225170   2.494   0.119   6.914 -0.3931  1.0433 -2.6497
 4512SOL     OW25171   3.543   4.005   1.756 -0.2318 -0.6438  0.2254
 4512SOL    HW125172   3.550   4.099   1.743  0.8077 -0.6162  0.9480
 4512SOL    HW225173   3.630   3.983   1.791 -0.4003 -0.6694  0.6287
 4513SOL     OW25174   1.985   0.073   3.164 -0.1608 -0.5012  0.6957
 4513SOL    HW125175   2.044   0.005   3.132 -0.7395 -2.1760  3.2217
 4513SOL    HW225176   2.030   0.145   3.120 -1.4568 -0.0261  0.1423
 4514SOL     OW25177   3.987   4.440   3.368  0.2853  0.3109 -0.5283
 4514SOL    HW125178   4.078   4.420   3.346 -0.0826 -0.5190 -1.3003
 4514SOL    HW225179   3.991   4.536   3.361 -1.0175  0.4949  1.2330
 4515SOL     OW25180   3.533   0.100   9.173 -0.5443  0.7099 -0.0175
 4515SOL    HW125181   3.507   0.106   9.265  1.1518  1.2532  0.4387
 4515SOL    HW225182   3.578   0.016   9.169 -0.4943  0.6845  1.0810
 4516SOL     OW25183   0.888   0.512   6.012 -0.3508  0.0537  0.2108
 4516SOL    HW125184   0.822   0.493   5.946 -0.5136  1.2614  0.0219
 4516SOL    HW225185   0.949   0.441   5.995 -0.8547 -0.1631 -0.7099
 4517SOL     OW25186   1.321   0.071   2.639 -0.4197  0.2610  0.4257
 4517SOL    HW125187   1.234   0.038   2.614  0.2243 -1.4969  0.5648
 4517SOL    HW225188   1.324   0.137   2.569 -1.2006 -0.9176 -0.7203
 4518SOL     OW25189   4.004   0.012  15.644  0.3122 -0.1363  0.0722
 4518SOL    HW125190   3.955   0.088  15.614 -1.2458 -0.4922  1.7326
 4518SOL    HW225191   4.030   0.042  15.731 -0.6112  1.4104 -0.1976
 4519SOL     OW25192   3.855   2.741  17.709  0.2547  0.2129  0.1622
 4519SOL    HW125193   3.926   2.683  17.682 -0.8072 -1.3015  0.6401
 4519SOL    HW225194   3.814   2.678   0.023  0.0589  0.8285  0.6834
 4520SOL     OW25195   0.264   1.906   8.169  0.1261  0.3601 -0.4161
 4520SOL    HW125196   0.277   1.818   8.135 -1.3890  1.0114 -2.7111
 4520SOL    HW225197   0.302   1.953   8.094 -2.2692  3.1624  0.0930
 4521SOL     OW25198   1.211   2.735   6.645  0.2657  0.1201  0.2698
 4521SOL    HW125199   1.254   2.661   6.688 -1.5849 -1.1884 -0.1350
 4521SOL    HW225200   1.145   2.688   6.593 -0.0270  0.8500 -0.0191
 4522SOL     OW25201   2.973   0.876  11.883 -0.0357  0.7327 -0.2242
 4522SOL    HW125202   2.979   0.784  11.858 -3.7858  0.7165 -1.0149
 4522SOL    HW225203   2.972   0.921  11.799  1.4991 -1.9955 -1.7056
 4523SOL     OW25204   3.470   1.260   7.765 -0.5107  0.4475  0.4343
 4523SOL    HW125205   3.383   1.287   7.796 -0.3352  1.3629  0.1569
 4523SOL    HW225206   3.533   1.274   7.835  0.5029  0.2675 -0.4468
 4524SOL     OW25207   3.788   1.664   4.719 -0.5387  0.6831  0.2259
 4524SOL    HW125208   3.736   1.614   4.782  0.4602 -2.1173 -1.1954
 4524SOL    HW225209   3.731   1.683   4.645 -1.5172  2.7260  1.4805
 4525SOL     OW25210   0.170   0.671  14.301  0.3275 -0.2829  0.1955
 4525SOL    HW125211   0.237   0.602  14.306  0.4283 -0.1149  1.2268
 4525SOL    HW225212   0.220   0.746  14.334 -1.3811  0.6358  0.6798
 4526SOL     OW25213   3.635   2.474   9.202  0.6218 -0.6741 -0.1164
 4526SOL    HW125214   3.582   2.542   9.161 -0.5419 -0.6768  1.4288
 4526SOL    HW225215   3.579   2.397   9.198 -1.0670  0.5475  0.1978
 4527SOL     OW25216   3.816   3.599   9.231 -0.3635  0.4925  0.6329
 4527SOL    HW125217   3.768   3.552   9.163  2.0687  0.3334 -0.9529
 4527SOL    HW225218   3.756   3.608   9.305 -0.7566 -0.9223  0.4813
 4528SOL     OW25219   2.214   1.513   9.253 -0.7710  0.4940  0.2323
 4528SOL    HW125220   2.176   1.537   9.337  0.2595  1.7666  0.3254
 4528SOL    HW225221   2.159   1.442   9.219 -0.1132  0.1962 -0.2195
 4529SOL     OW25222   4.516   1.157   5.255 -0.0564  0.4044 -0.0121
 4529SOL    HW125223   4.531   1.175   5.348 -1.1047 -0.0831  0.2546
 4529SOL    HW225224   4.441   1.214   5.237 -0.3763 -0.4173 -1.2860
 4530SOL     OW25225   0.397   1.517   5.131 -0.3273  0.3576  0.1000
 4530SOL    HW125226   0.395   1.493   5.038 -1.3389 -1.7995  0.6897
 4530SOL    HW225227   0.466   1.463   5.170  0.0293  1.0809  0.4646
 4531SOL     OW25228   2.134   0.578   0.985  0.2371 -0.4545  0.0799
 4531SOL    HW125229   2.201   0.642   0.962  1.2569 -2.9581 -3.9002
 4531SOL    HW225230   2.152   0.563   1.077 -2.4923 -1.2609  0.5037
 4532SOL     OW25231   1.746   3.896   3.249  0.6648  0.6258 -0.4255
 4532SOL    HW125232   1.703   3.938   3.174  2.1421  0.6544 -1.2464
 4532SOL    HW225233   1.834   3.932   3.236  0.5577  0.4542 -1.6846
 4533SOL     OW25234   2.581   2.845   3.663  0.3262  0.0710 -0.3199
 4533SOL    HW125235   2.614   2.931   3.638 -0.4107  0.0872 -1.2529
 4533SOL    HW225236   2.539   2.863   3.746  0.5760 -3.3398  0.5646
 4534SOL     OW25237   4.080   3.751   0.898  0.4892  0.5789  0.0408
 4534SOL    HW125238   4.021   3.787   0.832  2.2450  0.9238 -1.3245
 4534SOL    HW225239   4.030   3.770   0.978  1.8097 -0.0077  1.0031
 4535SOL     OW25240   3.429   1.880   1.985 -0.3825  0.1369 -0.7811
 4535SOL    HW125241   3.341   1.884   2.022 -0.0307  0.7749 -0.0249
 4535SOL    HW225242   3.458   1.957   2.034 -0.5561 -0.8179  0.8209
 4536SOL     OW25243   4.357   1.896  10.981  0.4624 -0.4207 -0.2280
 4536SOL    HW125244   4.377   1.978  11.026 -1.8829 -0.4447  0.8592
 4536SOL    HW225245   4.329   1.843  11.056 -0.0673  1.6358  1.0384
 4537SOL     OW25246   2.484   2.997   6.778  0.1687 -0.1276  0.0916
 4537SOL    HW125247   2.510   3.014   6.688 -0.0129  1.4708  0.3460
 4537SOL    HW225248   2.390   2.979   6.778 -0.0762  1.1507  1.4371
 4538SOL     OW25249   3.818   4.070   9.119  0.0400 -0.4042 -0.1962
 4538SOL    HW125250   3.737   4.048   9.164 -1.1556 -0.8065 -2.5747
 4538SOL    HW225251   3.790   4.061   9.028  0.1519  2.7794 -0.5465
 4539SOL     OW25252   1.789   0.580   5.660 -0.1836 -0.2336  0.0358
 4539SOL    HW125253   1.806   0.515   5.728 -1.2923 -0.0452  0.4947
 4539SOL    HW225254   1.849   0.540   5.597 -0.5530 -0.0807 -0.4101
 4540SOL     OW25255   3.137   1.700   3.572  0.1265 -0.0395 -0.9769
 4540SOL    HW125256   3.199   1.731   3.638 -1.6689  3.4081 -0.9403
 4540SOL    HW225257   3.197   1.674   3.502  2.7079  1.0064  0.8051
 4541SOL     OW25258   1.353   0.353  10.053  0.2333  0.6948 -0.0504
 4541SOL    HW125259   1.393   0.391  10.131 -1.0540  1.3786  0.2731
 4541SOL    HW225260   1.387   0.397   9.975  0.0972  1.3466  0.2520
 4542SOL     OW25261   1.888   4.000   7.894 -0.1906 -0.5895 -0.5841
 4542SOL    HW125262   1.920   4.054   7.821 -1.9595 -0.5710 -1.3408
 4542SOL    HW225263   1.816   3.948   7.859 -0.3973 -0.5893 -0.1649
 4543SOL     OW25264   2.421   1.669   0.705 -0.3772  0.2744 -0.4001
 4543SOL    HW125265   2.489   1.695   0.644 -1.7291  0.5637 -1.7683
 4543SOL    HW225266   2.368   1.748   0.716  0.3153  0.6317  0.3871
 4544SOL     OW25267   0.740   1.421   4.032 -0.0623 -0.3647 -0.3279
 4544SOL    HW125268   0.820   1.372   4.051  0.6893 -0.1969 -3.0054
 4544SOL    HW225269   0.680   1.348   4.020 -0.2202 -0.1575 -0.8022
 4545SOL     OW25270   0.083   0.288   7.669  0.5584  0.4991 -0.1524
 4545SOL    HW125271   0.029   0.361   7.700  0.2185  0.4597 -0.6486
 4545SOL    HW225272   0.149   0.329   7.613  1.9475 -0.9337  0.4511
 4546SOL     OW25273   4.701   3.008   3.855 -0.0100 -0.2484 -0.1396
 4546SOL    HW125274   4.619   2.960   3.867  0.1630 -0.1861  1.2490
 4546SOL    HW225275   0.001   3.005   3.943  1.8153  0.0520 -0.8927
 4547SOL     OW25276   0.989   0.526   6.795  0.2515 -0.6713 -0.6681
 4547SOL    HW125277   1.065   0.520   6.737 -0.1612  2.3102 -1.5073
 4547SOL    HW225278   0.981   0.620   6.808  1.6424 -0.6283 -0.0879
 4548SOL     OW25279   0.257   4.557  16.964  0.8384 -0.9680  0.3215
 4548SOL    HW125280   0.223   4.470  16.942  0.5162 -0.9152  0.6056
 4548SOL    HW225281   0.351   4.538  16.962  0.7242 -1.5130  0.2512
 4549SOL     OW25282   3.268   4.698   7.173  0.0253 -0.1960  1.1086
 4549SOL    HW125283   3.272   0.039   7.228 -0.9180 -1.9752  3.6586
 4549SOL    HW225284   3.186   4.710   7.125  2.2886  3.7348 -1.7799
 4550SOL     OW25285   0.638   1.269   4.894  0.7497  0.3863 -0.3020
 4550SOL    HW125286   0.716   1.316   4.921  2.1444 -0.0789 -3.5569
 4550SOL    HW225287   0.572   1.332   4.923  0.2017 -2.0954  3.9834
 4551SOL     OW25288   3.389   1.823   7.057  0.2416  0.4813 -0.0692
 4551SOL    HW125289   3.368   1.751   6.997 -0.2125 -0.5689  1.3491
 4551SOL    HW225290   3.308   1.873   7.048 -1.8521 -2.9610 -0.5846
 4552SOL     OW25291   2.614   0.216  17.608 -0.6474 -0.1474 -0.6307
 4552SOL    HW125292   2.608   0.274  17.533  0.0453  2.4411  1.3057
 4552SOL    HW225293   2.532   0.166  17.603 -0.3889 -0.9572  3.2299
 4553SOL     OW25294   0.692   2.598   6.141 -0.2184  0.0000 -0.0865
 4553SOL    HW125295   0.786   2.601   6.157 -0.5134  0.0366  1.6135
 4553SOL    HW225296   0.679   2.504   6.128 -1.0050 -0.0784  1.1901
 4554SOL     OW25297   1.291   1.287   6.628 -0.5693  0.2091 -0.1552
 4554SOL    HW125298   1.244   1.235   6.693 -0.5015  1.6580  1.0726
 4554SOL    HW225299   1.378   1.248   6.622 -0.4637  0.5169 -0.6007
 4555SOL     OW25300   0.785   0.780   5.535  0.1605  0.2399 -0.0679
 4555SOL    HW125301   0.869   0.745   5.567 -0.5183  0.1487  1.6035
 4555SOL    HW225302   0.749   0.805   5.620 -1.6184  0.2533 -0.8443
 4556SOL     OW25303   2.439   0.356   4.126  0.3229 -0.3837  0.1184
 4556SOL    HW125304   2.485   0.377   4.045 -0.9470  2.6656  0.1792
 4556SOL    HW225305   2.396   0.439   4.149  1.3046  0.2691 -0.4264
 4557SOL     OW25306   4.282   3.105   9.232  0.5866 -0.3341  0.2601
 4557SOL    HW125307   4.351   3.142   9.176  0.8273  1.1276  1.5318
 4557SOL    HW225308   4.243   3.033   9.183  1.0779  1.7936 -3.2713
 4558SOL     OW25309   2.245   4.016   2.954  0.1340  0.2295  0.2123
 4558SOL    HW125310   2.284   4.019   3.041 -1.9407 -1.5464  1.2259
 4558SOL    HW225311   2.187   4.092   2.958  0.3795  0.3107  2.3577
 4559SOL     OW25312   0.085   4.489   8.859  0.5795 -0.9825 -0.3635
 4559SOL    HW125313   0.106   4.551   8.929  1.0344 -1.2375 -0.2722
 4559SOL    HW225314   0.128   4.416   8.902 -1.4073 -1.5980  0.5671
 4560SOL     OW25315   3.585   0.446   8.625  1.0830 -0.0669  0.4814
 4560SOL    HW125316   3.588   0.513   8.692  0.2261  0.4338  0.0172
 4560SOL    HW225317   3.538   0.379   8.675  1.5616 -1.6208 -1.1105
 4561SOL     OW25318   4.734   1.772   7.599  0.0667 -0.0347 -0.2619
 4561SOL    HW125319   4.647   1.753   7.564 -0.4824 -0.3043  1.2180
 4561SOL    HW225320   4.702   1.824   7.673  2.2523  1.5939 -0.4690
 4562SOL     OW25321   1.999   2.628   3.933 -0.0096 -0.5599 -0.0823
 4562SOL    HW125322   1.980   2.555   3.992  1.3939 -1.8868 -1.2885
 4562SOL    HW225323   2.084   2.609   3.893  0.6622 -0.6735  1.3901
 4563SOL     OW25324   3.997   3.960   6.768 -0.4873 -0.5677 -0.6106
 4563SOL    HW125325   4.005   4.011   6.849  1.3139  0.2896 -1.3338
 4563SOL    HW225326   3.982   3.873   6.806 -1.5479 -0.1188  0.0028
 4564SOL     OW25327   0.998   2.008   1.698 -0.1008  0.5184 -0.4918
 4564SOL    HW125328   0.914   2.030   1.740  0.3278 -0.8527  1.0568
 4564SOL    HW225329   1.059   2.049   1.760 -1.8471  0.9398  0.9627
 4565SOL     OW25330   2.108   3.707   3.159  0.2009  0.2011  0.0845
 4565SOL    HW125331   2.082   3.673   3.244 -0.7433 -0.4413 -0.4547
 4565SOL    HW225332   2.203   3.699   3.165  0.3850 -0.4664 -3.5296
 4566SOL     OW25333   3.875   0.960   8.352 -0.0235 -0.1529 -0.2153
 4566SOL    HW125334   3.825   0.879   8.359 -0.9072  0.3985 -0.0773
 4566SOL    HW225335   3.931   0.945   8.428 -1.1936  0.2332  0.7316
 4567SOL     OW25336   2.616   2.806   8.262 -0.7358 -0.1092 -0.3664
 4567SOL    HW125337   2.551   2.805   8.332  3.4734  0.5306  3.5343
 4567SOL    HW225338   2.586   2.731   8.211 -1.7102 -0.7152  1.1065
 4568SOL     OW25339   0.364   1.120   5.763 -0.1375  0.7810  0.3860
 4568SOL    HW125340   0.387   1.179   5.834 -0.9651  0.1534  1.1710
 4568SOL    HW225341   0.283   1.077   5.790  0.5608 -0.8700 -0.1262
 4569SOL     OW25342   0.905   1.302   6.814  0.3346 -0.3015  0.2856
 4569SOL    HW125343   0.974   1.359   6.848  0.6528 -2.2267  2.8305
 4569SOL    HW225344   0.910   1.356   6.734 -1.2245  0.3432  0.6316
 4570SOL     OW25345   2.427   1.296   1.499 -0.6537  0.0171 -0.3441
 4570SOL    HW125346   2.515   1.297   1.463 -0.5371 -3.1088 -0.1132
 4570SOL    HW225347   2.408   1.384   1.531  0.1043  0.2326 -0.4945
 4571SOL     OW25348   0.764   3.598  11.348 -0.5562 -0.2594 -0.5414
 4571SOL    HW125349   0.683   3.600  11.399 -0.5445 -3.5748 -0.3828
 4571SOL    HW225350   0.748   3.657  11.274  1.4795 -1.5865 -2.0269
 4572SOL     OW25351   2.810   0.829   3.870 -0.1546 -0.0151  0.1261
 4572SOL    HW125352   2.796   0.898   3.806  0.1900  0.0841  0.1611
 4572SOL    HW225353   2.817   0.752   3.813 -1.1662 -0.5991  0.7694
 4573SOL     OW25354   4.708   1.589  13.024 -0.1057  1.0353  0.2797
 4573SOL    HW125355   0.005   1.567  13.111 -2.0150 -1.5289  0.3695
 4573SOL    HW225356   0.033   1.654  12.991 -1.1957  0.9885 -1.8163
 4574SOL     OW25357   1.875   0.976   1.057 -0.1343  0.0149 -0.2365
 4574SOL    HW125358   1.793   0.946   1.096 -0.6675  3.0239  0.9731
 4574SOL    HW225359   1.916   1.016   1.134  1.0997  1.5264 -1.6612
 4575SOL     OW25360   0.569   4.169   5.214  0.3733 -0.4430  0.2671
 4575SOL    HW125361   0.593   4.095   5.270 -1.4327 -1.7015 -0.6295
 4575SOL    HW225362   0.475   4.162   5.199  0.8621  0.6835 -3.3757
 4576SOL     OW25363   0.293   1.685   6.758  0.0447  0.3234  0.2868
 4576SOL    HW125364   0.320   1.600   6.791 -2.2395 -0.4235  0.2020
 4576SOL    HW225365   0.222   1.699   6.820  1.6300  0.6837  2.0350
 4577SOL     OW25366   4.451   4.729  12.982  0.3526 -0.5918 -0.5307
 4577SOL    HW125367   4.471   4.656  12.923  1.7269 -1.7615  1.3637
 4577SOL    HW225368   4.378   0.033  12.938 -0.4473  2.0299  3.2646
 4578SOL     OW25369   2.598   0.051   3.439 -0.5933 -0.0994 -0.4134
 4578SOL    HW125370   2.605   0.065   3.533  0.6508 -0.9453 -0.3866
 4578SOL    HW225371   2.663   4.722   3.416  0.1790  0.4508  0.2066
 4579SOL     OW25372   4.647   1.126   4.117 -0.1953  0.1660 -0.8683
 4579SOL    HW125373   0.002   1.132   4.142 -0.2002 -0.1927 -0.7611
 4579SOL    HW225374   4.651   1.058   4.049 -0.1869 -0.9144  0.2043
 4580SOL     OW25375   3.913   1.915   7.186  0.1458 -0.1296 -0.2397
 4580SOL    HW125376   3.984   1.950   7.241  1.2998 -0.6901 -1.3689
 4580SOL    HW225377   3.948   1.935   7.099 -2.3004  2.3424 -0.6581
 4581SOL     OW25378   0.030   1.747   2.809 -0.1073  0.5824 -0.7700
 4581SOL    HW125379   0.059   1.767   2.720 -0.4961  0.7678 -0.8526
 4581SOL    HW225380   0.097   1.684   2.835  1.3573  1.4118 -2.5305
 4582SOL     OW25381   3.496   2.484   8.778  0.1123  0.3295  0.1222
 4582SOL    HW125382   3.483   2.399   8.819 -0.2504  0.4594  0.2755
 4582SOL    HW225383   3.578   2.499   8.825 -0.1004  0.5470  0.4261
 4583SOL     OW25384   0.282   4.115   5.987 -0.0170 -0.9190  0.6272
 4583SOL    HW125385   0.310   4.193   5.940 -1.7813 -0.6720 -0.0226
 4583SOL    HW225386   0.248   4.156   6.066 -0.8897  0.9852 -0.7293
 4584SOL     OW25387   0.260   2.424   8.361 -0.2209 -0.2458 -0.0951
 4584SOL    HW125388   0.295   2.366   8.293  1.2161  1.2586 -0.6113
 4584SOL    HW225389   0.300   2.510   8.355  1.7224 -1.2817 -1.9146
 4585SOL     OW25390   4.535   3.790  11.987  0.0644  0.3363  0.1243
 4585SOL    HW125391   4.528   3.763  12.078 -0.7627  1.7792  0.4852
 4585SOL    HW225392   4.554   3.884  11.989  0.1891  0.3268 -0.6668
 4586SOL     OW25393   1.857   3.342  15.218  0.3811 -0.2357 -0.0528
 4586SOL    HW125394   1.902   3.325  15.301 -2.4712 -1.4575  1.2420
 4586SOL    HW225395   1.836   3.436  15.218  1.1606 -0.0568  0.1705
 4587SOL     OW25396   0.923   0.122   9.913  0.7890  0.2320 -0.1893
 4587SOL    HW125397   1.011   0.141   9.945  0.5814  1.0794 -0.1223
 4587SOL    HW225398   0.953   0.124   9.822  1.4265 -1.9723 -0.0240
 4588SOL     OW25399   0.379   0.162   5.755 -0.4254  0.0488  0.0216
 4588SOL    HW125400   0.371   0.067   5.746  1.7208  0.1723 -3.0579
 4588SOL    HW225401   0.323   0.201   5.688 -1.2394  2.1396  1.8853
 4589SOL     OW25402   0.339   0.042  16.545 -0.1048  0.2185  0.0623
 4589SOL    HW125403   0.261   4.736  16.580 -0.1394 -1.0352 -1.5326
 4589SOL    HW225404   0.330   0.129  16.583 -3.1239  0.6640 -1.7057
 4590SOL     OW25405   2.806   4.255   8.559 -0.1459 -0.0576  0.7056
 4590SOL    HW125406   2.851   4.171   8.554  0.5589  0.4303 -0.8681
 4590SOL    HW225407   2.853   4.279   8.639 -0.2703  0.4947  0.6160
 4591SOL     OW25408   1.454   3.862  13.617 -0.3735  0.4434 -0.2923
 4591SOL    HW125409   1.396   3.921  13.569  0.3660  1.2196 -0.2270
 4591SOL    HW225410   1.529   3.911  13.649  0.1768 -0.2321 -0.5321
 4592SOL     OW25411   1.010   0.983   9.889 -0.3036  0.2037 -0.0188
 4592SOL    HW125412   0.967   1.059   9.850 -0.7843 -1.7733 -3.3823
 4592SOL    HW225413   1.085   1.038   9.914 -0.9966  1.3450 -0.4248
 4593SOL     OW25414   1.905   0.285  11.786  0.1207  0.0359 -0.1222
 4593SOL    HW125415   1.990   0.262  11.823 -0.3766 -0.8157  0.5002
 4593SOL    HW225416   1.890   0.238  11.704  0.3101  1.3974 -0.9251
 4594SOL     OW25417   1.800   4.257   7.106 -0.6556 -0.4149  0.0603
 4594SOL    HW125418   1.759   4.319   7.166  1.0959  0.5840  0.2338
 4594SOL    HW225419   1.893   4.268   7.127 -0.0832 -0.9236 -2.2406
 4595SOL     OW25420   4.326   3.999   4.322 -0.2370  0.0472 -0.0347
 4595SOL    HW125421   4.419   4.016   4.338  0.7324 -3.6045 -1.7848
 4595SOL    HW225422   4.303   4.090   4.303  0.2462 -0.0674 -1.1433
 4596SOL     OW25423   0.610   0.307   0.433 -0.6457 -0.7735 -0.2859
 4596SOL    HW125424   0.604   0.225   0.385  0.3723 -1.3809  0.6163
 4596SOL    HW225425   0.533   0.314   0.488  1.2585  0.0996  2.2828
 4597SOL     OW25426   2.988   2.332   1.586  0.2952  0.1456 -0.1508
 4597SOL    HW125427   3.032   2.286   1.658  1.2969 -0.5571 -1.2292
 4597SOL    HW225428   3.048   2.406   1.582  2.5211 -1.7593 -2.0870
 4598SOL     OW25429   0.762   1.568  17.719 -0.0088 -0.0737 -0.2430
 4598SOL    HW125430   0.845   1.555  17.673 -0.2376 -2.7202  0.1302
 4598SOL    HW225431   0.805   1.623   0.039 -0.2461 -0.8081  0.5223
 4599SOL     OW25432   2.434   3.229   8.564 -0.2542  0.0373 -0.6250
 4599SOL    HW125433   2.483   3.185   8.496 -0.4327 -0.2002 -0.5997
 4599SOL    HW225434   2.495   3.298   8.590  0.5838 -0.4008 -1.4697
 4600SOL     OW25435   2.606   4.086   7.743 -0.4619  0.1810 -0.5769
 4600SOL    HW125436   2.585   4.005   7.788 -0.5036  0.3204 -0.3477
 4600SOL    HW225437   2.622   4.154   7.808 -1.1439 -0.4564  0.2376
 4601SOL     OW25438   0.598   3.488  10.738 -0.3811  0.0744 -0.3121
 4601SOL    HW125439   0.660   3.560  10.723 -1.4504  1.8234  3.4928
 4601SOL    HW225440   0.598   3.438  10.657  0.7065 -2.3829  1.2006
 4602SOL     OW25441   2.870   0.182   0.212  0.1381 -0.5846 -0.2573
 4602SOL    HW125442   2.925   0.242   0.163  1.2111 -1.3357  0.0241
 4602SOL    HW225443   2.917   0.177   0.296  1.8006  1.0552 -1.0923
 4603SOL     OW25444   2.068   4.642   8.310 -0.2810 -0.5518 -0.1426
 4603SOL    HW125445   1.994   4.583   8.296  0.0359 -1.5257  2.3399
 4603SOL    HW225446   2.036   4.732   8.319 -0.6389 -0.4328 -2.5813
 4604SOL     OW25447   0.816   1.999   4.244 -0.0466  0.2981 -0.1428
 4604SOL    HW125448   0.802   1.909   4.275 -0.1346 -0.3985 -2.1778
 4604SOL    HW225449   0.911   1.991   4.247 -0.1654 -1.1365  0.1116
 4605SOL     OW25450   3.536   4.332  17.372  0.0628 -0.5982  0.5691
 4605SOL    HW125451   3.454   4.380  17.357  0.4506  0.1309  0.8150
 4605SOL    HW225452   3.547   4.292  17.286  0.9677 -0.5696  0.6735
 4606SOL     OW25453   4.481   2.673   1.320  0.2465  0.3832 -0.2947
 4606SOL    HW125454   4.497   2.706   1.408  0.0626  0.8485 -0.4382
 4606SOL    HW225455   4.565   2.690   1.277  0.4042  1.1683  0.3319
 4607SOL     OW25456   1.749   0.600   2.261  0.2260 -0.2331  0.3203
 4607SOL    HW125457   1.727   0.687   2.229 -1.1612 -0.3417  0.9677
 4607SOL    HW225458   1.770   0.624   2.351 -1.0470  2.3025 -0.0876
 4608SOL     OW25459   4.276   2.016   2.025 -0.3167  0.1596  0.5699
 4608SOL    HW125460   4.259   2.028   1.931 -2.6421  0.0771  0.9770
 4608SOL    HW225461   4.372   2.023   2.024 -0.2727 -0.6198 -1.5403
 4609SOL     OW25462   1.307   4.179  15.972 -0.4478 -0.2955 -0.1121
 4609SOL    HW125463   1.297   4.100  15.919  0.3012  0.3978 -1.2717
 4609SOL    HW225464   1.348   4.154  16.055 -4.8977 -1.5356  1.7271
 4610SOL     OW25465   2.832   1.122   3.956 -0.4258 -0.1875  0.3963
 4610SOL    HW125466   2.782   1.187   3.907 -0.8082 -1.2588 -0.6589
 4610SOL    HW225467   2.782   1.040   3.950  1.7729 -1.5607  0.8478
 4611SOL     OW25468   1.949   2.332  15.705  0.1928 -0.3552 -0.0412
 4611SOL    HW125469   1.983   2.363  15.621 -0.1703  0.6131  0.1780
 4611SOL    HW225470   2.016   2.369  15.762  0.3776  1.4913 -1.4603
 4612SOL     OW25471   2.152   1.434  17.018 -0.0136 -0.3502  0.2420
 4612SOL    HW125472   2.236   1.475  17.038 -0.0988  0.1078 -0.3553
 4612SOL    HW225473   2.094   1.500  17.056  1.4752  0.8686  0.4158
 4613SOL     OW25474   2.409   4.649  10.495  0.1432 -0.4111 -0.1608
 4613SOL    HW125475   2.376   4.559  10.495 -0.8892 -0.0264  0.8787
 4613SOL    HW225476   2.436   4.648  10.403  0.1674  0.5270 -0.1650
 4614SOL     OW25477   0.649   1.857   3.528  0.4649 -0.0959 -0.3176
 4614SOL    HW125478   0.627   1.938   3.574  0.9043  0.1935 -0.6134
 4614SOL    HW225479   0.612   1.792   3.588 -0.6079 -1.8763 -2.8531
 4615SOL     OW25480   1.458   1.733   5.415 -0.0514  0.2205 -0.1278
 4615SOL    HW125481   1.465   1.776   5.500  0.9605 -1.4585  0.6494
 4615SOL    HW225482   1.526   1.782   5.370 -0.8841  2.8681  1.5244
 4616SOL     OW25483   1.246   1.242   6.897 -0.6138 -0.3429 -0.1358
 4616SOL    HW125484   1.206   1.329   6.899  0.8809  0.4171 -3.2438
 4616SOL    HW225485   1.306   1.229   6.970  1.3339  0.9148 -1.5179
 4617SOL     OW25486   0.445   1.121   9.092 -0.3539 -0.3854 -0.3823
 4617SOL    HW125487   0.461   1.215   9.099  2.5627 -0.8359 -0.8394
 4617SOL    HW225488   0.352   1.113   9.072 -0.1125 -0.3150 -1.5551
 4618SOL     OW25489   3.019   0.011   1.318 -0.4952 -0.2959 -0.1434
 4618SOL    HW125490   2.936   0.014   1.271 -0.6931  0.0354  0.2340
 4618SOL    HW225491   3.080   4.700   1.261 -1.2027 -2.4937  0.9736
 4619SOL     OW25492   2.078   3.208   3.146  0.6084 -0.4529 -0.3853
 4619SOL    HW125493   2.068   3.151   3.070  2.3552  0.3192 -1.1924
 4619SOL    HW225494   1.994   3.193   3.189  1.2522 -0.0153  1.0278
 4620SOL     OW25495   0.768   3.945   2.419  0.7292  0.0710  0.2860
 4620SOL    HW125496   0.783   4.037   2.440  0.3324  0.1246  0.3278
 4620SOL    HW225497   0.674   3.942   2.403  1.1542 -2.0918 -1.6681
 4621SOL     OW25498   4.202   2.649   9.592  0.0044  0.0356 -0.3860
 4621SOL    HW125499   4.207   2.640   9.687 -0.6587  0.9861 -0.2626
 4621SOL    HW225500   4.230   2.740   9.578  1.7508  0.0432  2.9714
 4622SOL     OW25501   1.228   0.975   9.627  0.2630 -0.2068 -0.2949
 4622SOL    HW125502   1.268   1.006   9.546  0.2283  1.4589  0.3346
 4622SOL    HW225503   1.223   1.048   9.688 -0.0330 -0.3293 -0.1724
 4623SOL     OW25504   1.605   1.351   9.079  0.2656  0.0855 -0.2295
 4623SOL    HW125505   1.621   1.441   9.107 -0.7076 -0.7191  2.9178
 4623SOL    HW225506   1.647   1.300   9.148  0.4877  0.4941 -0.0605
 4624SOL     OW25507   1.095   4.719  17.223 -0.1902  0.7171  0.8098
 4624SOL    HW125508   1.155   4.661  17.176 -0.8518 -0.2709  1.1769
 4624SOL    HW225509   1.009   4.701  17.185  0.4555  0.9114 -0.7647
 4625SOL     OW25510   0.254   1.948   7.756  0.6874 -0.2732 -0.2620
 4625SOL    HW125511   0.306   1.913   7.683 -0.4856  0.0485 -1.2573
 4625SOL    HW225512   0.203   1.870   7.778  2.9503 -1.8058 -0.5114
 4626SOL     OW25513   1.933   2.657  11.956  0.5277  0.1098  0.4289
 4626SOL    HW125514   1.925   2.627  11.866 -0.0661 -1.2203  0.9376
 4626SOL    HW225515   1.844   2.691  11.959  0.1064 -0.8904 -1.3585
 4627SOL     OW25516   3.767   2.144   2.886 -0.4436  0.7800 -0.2206
 4627SOL    HW125517   3.769   2.064   2.833  0.1839 -0.4617  1.6884
 4627SOL    HW225518   3.763   2.212   2.819  1.0425  1.4618  0.3767
 4628SOL     OW25519   3.886   0.700  10.483 -0.2881 -0.1377  0.2436
 4628SOL    HW125520   3.893   0.677  10.575  3.2525  1.4396  0.3701
 4628SOL    HW225521   3.863   0.617  10.440  0.5551 -0.4693  0.4261
 4629SOL     OW25522   2.008   0.749  10.202 -0.4845 -0.0354  0.1976
 4629SOL    HW125523   2.089   0.798  10.184 -0.1868 -0.0844  1.4193
 4629SOL    HW225524   2.056   0.687  10.258  0.3388  0.0980 -0.3617
 4630SOL     OW25525   0.255   3.452   6.102  0.5394  0.1308  0.2847
 4630SOL    HW125526   0.226   3.370   6.062 -0.4129  0.8658 -0.5429
 4630SOL    HW225527   0.185   3.517   6.094 -1.3289 -1.9542 -0.4166
 4631SOL     OW25528   3.366   3.783   4.392  0.3993 -0.2821  0.2768
 4631SOL    HW125529   3.361   3.784   4.488  2.5139  1.1551  0.3806
 4631SOL    HW225530   3.319   3.861   4.363 -1.0515 -0.5965  1.8405
 4632SOL     OW25531   1.673   3.467  10.651  0.2764  0.3473  0.2204
 4632SOL    HW125532   1.592   3.437  10.692 -0.4415  0.2852 -1.2494
 4632SOL    HW225533   1.706   3.383  10.621  0.3731 -0.3405  2.2808
 4633SOL     OW25534   0.631   1.019   6.344  1.2335 -0.2556 -0.1028
 4633SOL    HW125535   0.588   1.082   6.286  0.9218 -1.1348 -0.8263
 4633SOL    HW225536   0.552   0.978   6.379  0.9227  0.0453 -0.4480
 4634SOL     OW25537   1.070   1.015   1.995 -0.0281 -0.2858 -0.4902
 4634SOL    HW125538   0.994   1.075   1.994  1.2022  1.3006  0.9587
 4634SOL    HW225539   1.095   1.014   2.087 -1.8765  0.3579  0.0244
 4635SOL     OW25540   2.782   3.413  10.406  0.1538 -0.4252 -0.0162
 4635SOL    HW125541   2.776   3.447  10.495 -0.8101 -4.8862  1.6278
 4635SOL    HW225542   2.767   3.495  10.358 -0.5595  0.7018  2.1504
 4636SOL     OW25543   0.928   4.417   0.614 -0.7432  0.1800  0.0368
 4636SOL    HW125544   0.876   4.371   0.548  0.5175 -1.7598  0.4006
 4636SOL    HW225545   0.856   4.445   0.670  0.3886  0.2898  1.4283
 4637SOL     OW25546   0.102   2.833  12.143  0.1600 -0.0017  0.0822
 4637SOL    HW125547   0.018   2.796  12.172 -0.0904 -0.6509 -1.4967
 4637SOL    HW225548   0.164   2.769  12.176 -1.6283 -0.4629  2.5821
 4638SOL     OW25549   3.519   2.266   5.292 -0.3936  0.2608 -0.5093
 4638SOL    HW125550   3.503   2.353   5.256  0.7164  1.2144  1.3430
 4638SOL    HW225551   3.455   2.215   5.242 -1.4279  0.8396  0.2329
 4639SOL     OW25552   2.223   1.882   2.883 -0.1523  0.7629 -0.4718
 4639SOL    HW125553   2.296   1.821   2.894 -0.8028 -0.3191 -2.0622
 4639SOL    HW225554   2.160   1.849   2.947 -0.3136 -2.1411 -2.1400
 4640SOL     OW25555   2.010   1.494   8.286  0.7976 -0.0826  0.0551
 4640SOL    HW125556   2.087   1.492   8.229  0.6383 -1.5610 -0.0968
 4640SOL    HW225557   2.026   1.567   8.346  0.0608  1.9632 -2.2214
 4641SOL     OW25558   1.173   2.882   4.039 -0.2106 -0.0379 -0.6781
 4641SOL    HW125559   1.167   2.908   3.947 -1.6540 -0.9963 -0.8512
 4641SOL    HW225560   1.094   2.830   4.055 -0.8448  1.1097 -0.1019
 4642SOL     OW25561   1.928   3.795   6.217 -0.1926 -0.1043  0.4229
 4642SOL    HW125562   1.950   3.702   6.208  0.9657  0.1405  0.7153
 4642SOL    HW225563   1.978   3.840   6.149  1.0231 -2.8251 -0.4889
 4643SOL     OW25564   2.356   0.894   7.471 -0.8082  0.4619  0.2229
 4643SOL    HW125565   2.316   0.977   7.445 -1.2823  0.1236 -0.1327
 4643SOL    HW225566   2.368   0.853   7.385 -3.2076  1.1962 -0.4652
 4644SOL     OW25567   4.118   4.194   3.031 -0.4331  0.4140  0.5806
 4644SOL    HW125568   4.134   4.285   3.008  1.5328 -0.2230 -0.5856
 4644SOL    HW225569   4.185   4.166   3.093  0.0500  0.0230 -0.1135
 4645SOL     OW25570   4.218   3.310   2.143 -0.1388  0.0218 -0.4028
 4645SOL    HW125571   4.249   3.220   2.145  0.1149  0.1251  0.3219
 4645SOL    HW225572   4.228   3.342   2.053  0.7081 -0.9170 -0.6356
 4646SOL     OW25573   3.580   1.174   1.697  0.2001 -0.0061  0.1217
 4646SOL    HW125574   3.566   1.089   1.655  1.1875 -0.0844 -0.0501
 4646SOL    HW225575   3.671   1.178   1.729 -0.0691 -0.0741  0.8992
 4647SOL     OW25576   0.722   0.808   1.445 -0.0125 -0.1332  0.1687
 4647SOL    HW125577   0.665   0.809   1.368 -0.2006 -0.8305  0.3005
 4647SOL    HW225578   0.671   0.862   1.505 -2.5711  0.9371 -2.9575
 4648SOL     OW25579   3.225   3.389   3.100  0.1577  0.1674  0.0686
 4648SOL    HW125580   3.282   3.427   3.033  2.7477  1.2519  2.8662
 4648SOL    HW225581   3.154   3.453   3.102 -0.5154 -0.5284 -2.1555
 4649SOL     OW25582   3.454   0.193   5.997  0.3808  0.4490 -0.1581
 4649SOL    HW125583   3.481   0.244   5.920 -1.8946 -0.4565 -1.5675
 4649SOL    HW225584   3.536   0.180   6.045 -0.0164  1.4443  0.7728
 4650SOL     OW25585   3.396   1.790   1.688  0.0133  0.6276 -0.6327
 4650SOL    HW125586   3.346   1.719   1.648  0.0598  0.7090 -0.8307
 4650SOL    HW225587   3.339   1.805   1.764 -1.1673  3.9077 -2.1741
 4651SOL     OW25588   2.779   0.124   7.899 -0.4244  0.1314  0.1283
 4651SOL    HW125589   2.724   0.190   7.942  0.0889  0.0741  0.8619
 4651SOL    HW225590   2.761   0.129   7.805  0.3292 -0.2203 -0.0315
 4652SOL     OW25591   3.938   3.146   1.870 -0.4402  0.3136 -0.6181
 4652SOL    HW125592   3.970   3.118   1.956  0.5812 -2.8636 -2.0004
 4652SOL    HW225593   3.917   3.065   1.822  0.5045 -0.4483  0.2571
 4653SOL     OW25594   2.381   3.419   2.413  0.1838  0.1279 -0.1970
 4653SOL    HW125595   2.308   3.480   2.399  0.2508 -0.1580 -1.7243
 4653SOL    HW225596   2.364   3.358   2.342 -1.0711 -1.0382  1.1052
 4654SOL     OW25597   0.721   2.570   7.967  0.4265 -0.1840  0.4872
 4654SOL    HW125598   0.758   2.625   7.898 -0.3832  0.4769  0.5809
 4654SOL    HW225599   0.652   2.631   7.993 -0.1083 -0.2035 -0.8961
 4655SOL     OW25600   0.735   2.930   5.106 -0.0682  0.1266 -0.7455
 4655SOL    HW125601   0.782   2.959   5.028  0.3940 -1.9836 -1.2437
 4655SOL    HW225602   0.768   2.840   5.116 -1.2905 -0.2237  0.0729
 4656SOL     OW25603   3.547   4.108  14.426  0.1005 -0.0512  0.2042
 4656SOL    HW125604   3.477   4.162  14.461  0.1129  0.3243 -0.3545
 4656SOL    HW225605   3.506   4.031  14.387  1.4992 -1.6638  1.8626
 4657SOL     OW25606   0.959   4.184  13.704  0.7233 -0.1685 -0.4072
 4657SOL    HW125607   1.032   4.245  13.712 -0.5312  1.0902  1.4724
 4657SOL    HW225608   0.905   4.224  13.772  2.3500  2.9020 -0.8890
 4658SOL     OW25609   3.631   4.697   2.884 -0.1945  0.3478 -0.4600
 4658SOL    HW125610   3.692   4.660   2.821  0.2024  1.0170 -0.4630
 4658SOL    HW225611   3.641   4.633   2.954  2.3068 -0.8557 -1.9172
 4659SOL     OW25612   0.213   4.198   3.228 -0.3274  0.3082  0.6572
 4659SOL    HW125613   0.245   4.111   3.204 -2.1966  0.1836 -1.4019
 4659SOL    HW225614   0.185   4.223   3.140  2.4017  1.1792  0.0663
 4660SOL     OW25615   3.206   0.174   9.269 -0.2397 -0.0705  0.1059
 4660SOL    HW125616   3.226   0.089   9.229  2.6905  0.4650  0.4168
 4660SOL    HW225617   3.145   0.158   9.340  0.0882 -2.7814 -0.2073
 4661SOL     OW25618   4.530   1.119   5.527 -0.1538  0.0493  0.0102
 4661SOL    HW125619   4.469   1.151   5.594  2.1473  1.9026  1.2131
 4661SOL    HW225620   4.601   1.183   5.515  1.2904 -0.9957  2.9859
 4662SOL     OW25621   3.106   3.416   5.462  0.2556 -0.2195 -0.0653
 4662SOL    HW125622   3.121   3.341   5.405  1.1718  1.0842 -1.5495
 4662SOL    HW225623   3.186   3.468   5.451  0.1138 -0.0254 -0.1928
 4663SOL     OW25624   3.243   2.036  15.175 -0.1108  0.2284 -0.3198
 4663SOL    HW125625   3.161   2.005  15.136 -1.7641  0.5473  2.9229
 4663SOL    HW225626   3.243   2.124  15.136 -0.8576  1.0860  1.5984
 4664SOL     OW25627   1.039   1.064   2.716  0.1794  0.2341  0.2128
 4664SOL    HW125628   0.967   1.002   2.711  1.5848 -1.5569  2.4023
 4664SOL    HW225629   0.994   1.148   2.727  0.3068  0.3853 -0.4097
 4665SOL     OW25630   2.792   3.346   0.180 -0.1576 -0.3823 -0.0018
 4665SOL    HW125631   2.786   3.382   0.268 -0.8552  2.8117 -1.3334
 4665SOL    HW225632   2.743   3.265   0.189 -0.9073 -0.1606 -1.9317
 4666SOL     OW25633   1.164   0.681   8.141  0.0465 -0.2864 -0.2170
 4666SOL    HW125634   1.201   0.764   8.111 -0.6563 -0.3800 -1.3195
 4666SOL    HW225635   1.201   0.612   8.087 -0.3240  0.5597 -1.5432
 4667SOL     OW25636   1.888   0.168   1.762  0.0225  0.2458 -0.2909
 4667SOL    HW125637   1.810   0.217   1.737 -1.8102 -2.2988  0.4902
 4667SOL    HW225638   1.898   0.198   1.852 -0.6852 -0.7290  0.1067
 4668SOL     OW25639   0.603   2.791   8.294  0.3325 -0.2365  0.8501
 4668SOL    HW125640   0.589   2.794   8.389 -0.6285 -0.9132  0.7286
 4668SOL    HW225641   0.636   2.881   8.289  1.2902 -0.5940  0.7383
 4669SOL     OW25642   0.737   3.325   9.796  0.2868  0.0622  0.2763
 4669SOL    HW125643   0.724   3.387   9.868 -1.4702  1.1452 -0.9773
 4669SOL    HW225644   0.825   3.342   9.761  0.6996 -0.0654  1.2617
 4670SOL     OW25645   1.955   1.891   0.947  0.3130 -0.1578  0.2393
 4670SOL    HW125646   1.902   1.813   0.963 -1.2934  0.6399 -1.2297
 4670SOL    HW225647   1.906   1.930   0.875  0.5828 -1.2237 -0.5152
 4671SOL     OW25648   2.774   0.341  13.393  0.2902  0.0512 -0.0283
 4671SOL    HW125649   2.745   0.344  13.484  1.1377 -1.2610  0.2893
 4671SOL    HW225650   2.795   0.248  13.382  1.1796  0.0485  1.6588
 4672SOL     OW25651   0.470   1.439  13.880  0.5771 -0.2077 -0.0667
 4672SOL    HW125652   0.538   1.506  13.884 -0.0527  0.3301  1.4861
 4672SOL    HW225653   0.426   1.457  13.797 -0.0712  1.0462  0.5509
 4673SOL     OW25654   4.347   4.343   0.557 -0.2368 -0.0821 -0.0034
 4673SOL    HW125655   4.435   4.334   0.594 -0.3767  2.2630  0.8554
 4673SOL    HW225656   4.296   4.276   0.604  1.0798 -1.2995 -0.2885
 4674SOL     OW25657   1.752   3.940   5.304 -0.1500 -0.4656 -0.2673
 4674SOL    HW125658   1.833   3.973   5.266  0.6778 -0.2560  1.6477
 4674SOL    HW225659   1.753   3.987   5.388 -0.3252 -0.2605 -0.3812
 4675SOL     OW25660   1.287   1.858   1.724 -0.5442  0.0601 -0.2405
 4675SOL    HW125661   1.273   1.763   1.728 -0.8398  0.1514  0.7621
 4675SOL    HW225662   1.287   1.868   1.629  1.1253 -1.5150 -0.4249
 4676SOL     OW25663   1.921   3.201   4.167  0.7651  0.5231  0.1592
 4676SOL    HW125664   1.916   3.278   4.224  3.2372  0.2797  0.7013
 4676SOL    HW225665   2.016   3.187   4.171  0.4940 -1.0921  0.9303
 4677SOL     OW25666   3.109   4.125   6.962 -0.1007  0.4192 -0.1623
 4677SOL    HW125667   3.121   4.041   6.917  0.4708  0.9159 -0.9376
 4677SOL    HW225668   3.188   4.168   6.929  0.7421 -1.2567 -0.3303
 4678SOL     OW25669   4.298   0.992   4.895  0.1792 -0.0691 -0.3066
 4678SOL    HW125670   4.350   0.991   4.814 -1.4319 -1.5648 -1.3071
 4678SOL    HW225671   4.242   0.919   4.870 -3.7117  2.0350  2.1609
 4679SOL     OW25672   2.355   3.484   9.274 -0.1534  0.0831 -0.4737
 4679SOL    HW125673   2.417   3.476   9.347 -0.0367 -1.3303 -0.7146
 4679SOL    HW225674   2.378   3.401   9.231  0.8271  0.0206  0.1725
 4680SOL     OW25675   0.944   0.765   6.443  0.3263 -0.2224  0.2459
 4680SOL    HW125676   1.012   0.732   6.502  0.3271 -1.5487 -0.5060
 4680SOL    HW225677   1.000   0.798   6.373  0.0151  0.6062  0.3902
 4681SOL     OW25678   1.016   2.558   5.459 -1.1314 -0.1385  0.3944
 4681SOL    HW125679   1.010   2.637   5.405  0.9122  1.1464  2.0257
 4681SOL    HW225680   0.996   2.485   5.401 -2.3635 -1.7317  2.8216
 4682SOL     OW25681   2.860   3.327   7.218  0.2276 -0.2013 -0.2011
 4682SOL    HW125682   2.839   3.266   7.148  1.0243  0.4297 -0.9933
 4682SOL    HW225683   2.860   3.270   7.295 -0.2924 -0.7666 -0.6270
 4683SOL     OW25684   1.574   2.581   2.687 -0.0343 -0.5493  0.1021
 4683SOL    HW125685   1.551   2.626   2.769 -0.5257 -2.4042  0.9788
 4683SOL    HW225686   1.640   2.637   2.645 -0.8541  1.4949  1.5029
 4684SOL     OW25687   3.328   3.609   5.135  0.1372 -0.5129  0.3092
 4684SOL    HW125688   3.320   3.613   5.039 -0.8432 -2.8059  0.2955
 4684SOL    HW225689   3.413   3.653   5.131  0.3983 -0.8871  1.9455
 4685SOL     OW25690   2.619   4.199   4.525  0.1710  0.1673 -0.5487
 4685SOL    HW125691   2.547   4.262   4.515 -0.5156 -0.2875  1.5898
 4685SOL    HW225692   2.630   4.177   4.432  3.3301 -2.8088  0.5257
 4686SOL     OW25693   2.833   4.071  14.319 -0.0659  0.3071 -0.2576
 4686SOL    HW125694   2.789   4.086  14.403  2.3409 -0.7815  1.2005
 4686SOL    HW225695   2.838   3.977  14.340 -2.8196  1.0892  3.7824
 4687SOL     OW25696   0.503   4.000   8.132  0.0823  0.0423 -0.3654
 4687SOL    HW125697   0.571   3.942   8.166  1.6151  2.2088  0.2747
 4687SOL    HW225698   0.516   4.003   8.037 -2.3676 -1.0223 -0.7528
 4688SOL     OW25699   4.020   0.717  15.422 -0.7635 -0.0487  0.0391
 4688SOL    HW125700   4.034   0.661  15.345 -0.1675  1.4102 -0.9243
 4688SOL    HW225701   4.046   0.658  15.492 -0.0456  0.2538  0.0336
 4689SOL     OW25702   1.941   3.956   3.022 -0.2015 -0.0251  0.2642
 4689SOL    HW125703   1.991   3.903   3.084  0.2657  3.1321  2.5892
 4689SOL    HW225704   1.953   4.042   3.063 -1.9776  0.6607 -0.6187
 4690SOL     OW25705   0.346   1.402  10.203 -0.0216  0.4007 -0.8207
 4690SOL    HW125706   0.268   1.440  10.244  1.6438  0.5455  2.2674
 4690SOL    HW225707   0.413   1.468  10.221 -1.1138  1.0755  0.8371
 4691SOL     OW25708   3.443   0.526  10.914  1.1569  0.7123 -0.0775
 4691SOL    HW125709   3.508   0.456  10.914  2.3413  1.8056  1.8681
 4691SOL    HW225710   3.458   0.573  10.831 -3.6885  3.8213  0.8098
 4692SOL     OW25711   0.937   0.311   3.063 -0.5729  0.2015  0.3913
 4692SOL    HW125712   0.935   0.406   3.049  2.9150  0.2673  0.3296
 4692SOL    HW225713   1.023   0.303   3.104 -0.3466 -0.5439 -0.2313
 4693SOL     OW25714   2.651   0.931  16.356 -0.0260  0.1128 -0.0719
 4693SOL    HW125715   2.599   0.962  16.430 -0.6023  1.4396 -1.0334
 4693SOL    HW225716   2.739   0.930  16.392 -0.1735 -1.8321  0.2371
 4694SOL     OW25717   0.182   3.344   7.623  0.2311  0.4695 -0.0626
 4694SOL    HW125718   0.208   3.382   7.707 -2.1863  0.9958  0.4399
 4694SOL    HW225719   0.261   3.351   7.568  0.0475 -0.1261 -0.4055
 4695SOL     OW25720   4.724   3.266   2.565 -0.4613 -0.6548  0.5648
 4695SOL    HW125721   0.081   3.266   2.548 -0.7355  1.6866 -0.8132
 4695SOL    HW225722   4.698   3.180   2.598  0.1121 -1.6238 -1.5267
 4696SOL     OW25723   1.600   3.439  16.135 -0.6542  0.2746  0.2036
 4696SOL    HW125724   1.598   3.379  16.210  0.2286 -0.4567 -0.3538
 4696SOL    HW225725   1.693   3.447  16.113 -1.1942  3.1019 -0.9587
 4697SOL     OW25726   1.250   4.255   6.067  0.0178 -0.2662  0.2416
 4697SOL    HW125727   1.344   4.242   6.080 -0.0246 -0.2485  0.5859
 4697SOL    HW225728   1.258   4.348   6.048 -4.0467 -0.0168 -0.2711
 4698SOL     OW25729   4.012   0.754   6.659 -0.3653 -0.8627  0.2251
 4698SOL    HW125730   4.058   0.677   6.692 -1.1802 -1.3365  0.2495
 4698SOL    HW225731   3.936   0.711   6.621 -0.1359 -0.7278 -0.3907
 4699SOL     OW25732   4.210   3.822   7.562 -0.4398 -0.3455 -0.3231
 4699SOL    HW125733   4.120   3.840   7.589  0.0148  1.4976 -0.0381
 4699SOL    HW225734   4.265   3.873   7.622 -0.5557 -0.4986 -0.0852
 4700SOL     OW25735   3.170   1.262   4.331 -0.5992 -0.5203 -0.4352
 4700SOL    HW125736   3.138   1.246   4.242 -1.3799  0.3804 -0.3174
 4700SOL    HW225737   3.173   1.170   4.356  0.7321 -0.3237  0.1315
 4701SOL     OW25738   0.456   3.434   3.829 -0.2382 -0.2742 -0.4095
 4701SOL    HW125739   0.464   3.458   3.921 -1.9954 -1.8247  0.1233
 4701SOL    HW225740   0.549   3.418   3.810 -0.5893 -1.2702 -1.2902
 4702SOL     OW25741   1.772   0.134   8.939  0.5770  0.3651  0.5120
 4702SOL    HW125742   1.854   0.178   8.957  0.2472  0.8441  0.8490
 4702SOL    HW225743   1.718   0.212   8.930  0.2234 -0.0954 -1.4893
 4703SOL     OW25744   3.676   0.143   3.476  0.7798  1.0275  0.3367
 4703SOL    HW125745   3.640   0.227   3.446 -0.4739  0.2618 -0.3022
 4703SOL    HW225746   3.666   0.090   3.398 -0.0200 -0.8720  1.7342
 4704SOL     OW25747   0.605   4.069   7.852  0.5794 -0.0742  0.8936
 4704SOL    HW125748   0.693   4.077   7.887  1.2038  0.9503 -0.8692
 4704SOL    HW225749   0.573   4.160   7.845  0.1863 -0.2310  0.6491
 4705SOL     OW25750   4.400   1.215   7.174 -0.1160 -0.1076  0.1457
 4705SOL    HW125751   4.479   1.225   7.228  0.4130  1.8243 -0.9759
 4705SOL    HW225752   4.355   1.145   7.220 -0.1549 -0.2189 -0.0614
 4706SOL     OW25753   1.228   4.011   8.850 -0.3446 -0.3167 -0.1522
 4706SOL    HW125754   1.146   4.050   8.881  0.0803  0.6671 -0.2527
 4706SOL    HW225755   1.209   3.927   8.808  2.1443 -1.8013  1.6927
 4707SOL     OW25756   0.419   4.711   0.038 -0.3948  0.1289  0.1490
 4707SOL    HW125757   0.467   4.632   0.064 -0.9887 -0.8341 -1.7292
 4707SOL    HW225758   0.426   4.707  17.689  0.3481 -1.3186  0.2662
 4708SOL     OW25759   0.373   3.673   4.636 -0.3202  0.2933 -0.5706
 4708SOL    HW125760   0.465   3.672   4.607 -0.1208  1.2993  0.0228
 4708SOL    HW225761   0.331   3.626   4.565  1.1468  0.1760 -1.3737
 4709SOL     OW25762   1.785   4.524   0.408 -0.3426  0.1741  0.3500
 4709SOL    HW125763   1.809   4.490   0.494  0.1273  2.6781  1.2064
 4709SOL    HW225764   1.840   4.475   0.346  1.5777  0.7146  1.6201
 4710SOL     OW25765   2.903   0.278   6.682  0.0885  0.0778  0.3201
 4710SOL    HW125766   2.894   0.326   6.764 -0.1682  0.6128 -0.0188
 4710SOL    HW225767   2.979   0.222   6.695 -0.4744 -1.5078 -3.1138
 4711SOL     OW25768   2.588   3.378  13.732 -0.1335 -0.0571  0.0349
 4711SOL    HW125769   2.598   3.284  13.750 -0.0503 -0.3838 -1.7463
 4711SOL    HW225770   2.646   3.410  13.800 -0.2569 -2.0939  1.1032
 4712SOL     OW25771   1.923   1.101   2.705  0.3787  0.1419  0.0623
 4712SOL    HW125772   1.970   1.023   2.674  0.3484 -0.1225  0.6791
 4712SOL    HW225773   1.881   1.132   2.624  2.2579 -2.5428 -1.9616
 4713SOL     OW25774   2.530   2.705   2.040 -0.2618  0.5045  0.1228
 4713SOL    HW125775   2.458   2.768   2.039  0.2241  1.0355 -1.2112
 4713SOL    HW225776   2.546   2.710   2.134  2.3624 -1.9973 -0.1940
 4714SOL     OW25777   4.484   0.493  11.978 -0.2213 -0.1850 -0.0742
 4714SOL    HW125778   4.571   0.508  12.014  0.4904 -1.0337 -1.4558
 4714SOL    HW225779   4.449   0.542  12.053 -2.0243 -0.5874 -0.6437
 4715SOL     OW25780   0.130   3.650   7.745  0.5089 -0.1550  0.0081
 4715SOL    HW125781   0.166   3.616   7.663 -0.4327 -3.6514  1.0100
 4715SOL    HW225782   0.176   3.731   7.765 -0.3257  0.6630 -1.4757
 4716SOL     OW25783   4.678   3.796   7.970 -0.4062  0.5679  0.0055
 4716SOL    HW125784   0.030   3.783   8.001 -0.6341 -0.5855  0.1803
 4716SOL    HW225785   4.633   3.848   8.036  0.4625  1.2861  0.0273
 4717SOL     OW25786   0.276   1.477   3.492  0.2990  0.0852  0.2085
 4717SOL    HW125787   0.188   1.505   3.517  0.2280 -0.6503  0.7773
 4717SOL    HW225788   0.332   1.536   3.542  2.0646 -1.7177  0.3286
 4718SOL     OW25789   3.317   0.116   4.605  0.2986 -0.1527  0.7981
 4718SOL    HW125790   3.360   0.200   4.588  1.9910 -1.2388 -0.3472
 4718SOL    HW225791   3.337   0.106   4.698  1.2431  1.6271  0.7852
 4719SOL     OW25792   4.533   3.541  15.128  0.1282  0.0984 -0.0608
 4719SOL    HW125793   4.502   3.456  15.098  1.8330  0.2711 -2.2882
 4719SOL    HW225794   4.621   3.513  15.151 -0.4827 -1.2563  0.6386
 4720SOL     OW25795   2.814   4.678  17.166  0.2326 -0.0027  0.2142
 4720SOL    HW125796   2.800   4.672  17.072  1.2185 -2.0615  0.1797
 4720SOL    HW225797   2.835   4.586  17.183 -0.1158 -0.2821 -0.9132
 4721SOL     OW25798   0.470   0.246   6.004 -0.2479  0.0739 -0.3501
 4721SOL    HW125799   0.428   0.229   5.920  1.7260 -0.6161 -1.1964
 4721SOL    HW225800   0.404   0.200   6.056 -1.1065  0.4133 -1.1526
 4722SOL     OW25801   0.032   3.567   8.988  0.4715 -0.0272 -0.3794
 4722SOL    HW125802   0.091   3.545   9.060  0.5864  0.1055 -0.4331
 4722SOL    HW225803   0.004   3.648   9.030  1.4680  1.2284 -2.1699
 4723SOL     OW25804   4.431   3.210   6.128 -0.3185 -0.1900  0.1982
 4723SOL    HW125805   4.425   3.115   6.141  0.8832 -0.2162  0.6105
 4723SOL    HW225806   4.392   3.207   6.041 -0.6867  1.7918  0.3084
 4724SOL     OW25807   1.895   1.876  11.417 -0.3464 -0.4408  0.1892
 4724SOL    HW125808   1.928   1.811  11.479  1.9228 -0.4749 -1.0722
 4724SOL    HW225809   1.933   1.955  11.457  1.2328 -0.0881 -2.0487
 4725SOL     OW25810   2.666   0.450   6.105 -0.0221  0.0183 -0.6431
 4725SOL    HW125811   2.595   0.386   6.101 -0.2613  0.3404 -1.5119
 4725SOL    HW225812   2.628   0.532   6.138  1.8039  0.8238 -0.5030
 4726SOL     OW25813   2.303   2.237   8.314  0.7020 -0.1299 -0.0020
 4726SOL    HW125814   2.243   2.169   8.285  0.2360  0.2435  0.0843
 4726SOL    HW225815   2.260   2.295   8.377  1.9754  0.1793  0.5796
 4727SOL     OW25816   3.550   0.461  12.328  0.3631 -0.1086  0.2022
 4727SOL    HW125817   3.612   0.523  12.289 -2.6404  1.8104 -1.5308
 4727SOL    HW225818   3.492   0.523  12.373 -2.7517 -1.4285 -2.0397
 4728SOL     OW25819   0.722   1.346   2.685 -0.1303  0.2159 -0.4419
 4728SOL    HW125820   0.728   1.270   2.627  1.1984 -0.1993  0.2362
 4728SOL    HW225821   0.704   1.422   2.629 -0.3517  1.6901  1.6279
 4729SOL     OW25822   0.462   1.941   9.812 -0.2477  0.1072  0.8871
 4729SOL    HW125823   0.411   2.022   9.823  1.0522  0.7932  1.8588
 4729SOL    HW225824   0.535   1.982   9.766 -0.7976 -1.6367 -1.5235
 4730SOL     OW25825   1.110   3.454   0.905 -0.0274  0.2981 -0.4229
 4730SOL    HW125826   1.192   3.456   0.857  0.0196  1.5408 -0.2955
 4730SOL    HW225827   1.135   3.523   0.967 -0.1247 -1.1124  1.1596
 4731SOL     OW25828   4.004   2.319   3.278 -0.9667  0.1726 -0.0625
 4731SOL    HW125829   4.037   2.385   3.217 -0.5267  2.2892  2.4584
 4731SOL    HW225830   3.961   2.264   3.213  0.5645  1.7395 -2.3759
 4732SOL     OW25831   2.357   1.471   7.529  0.2516  0.1201 -0.3143
 4732SOL    HW125832   2.381   1.564   7.523  0.4165  0.0078 -1.3947
 4732SOL    HW225833   2.263   1.477   7.516  0.6315 -2.9733 -4.2973
 4733SOL     OW25834   4.411   2.237   7.375 -0.0275 -0.2761  0.0365
 4733SOL    HW125835   4.362   2.314   7.347  1.3049  1.6303  2.9642
 4733SOL    HW225836   4.502   2.265   7.371 -0.8739  2.4180 -0.0342
 4734SOL     OW25837   0.608   4.629   5.877 -0.0337 -0.4285 -0.0951
 4734SOL    HW125838   0.604   4.664   5.966 -1.0300  1.5502 -0.9069
 4734SOL    HW225839   0.516   4.612   5.858  0.4436 -1.8703 -1.0849
 4735SOL     OW25840   3.189   0.022   0.692  0.1873 -0.6463 -0.2969
 4735SOL    HW125841   3.257   4.698   0.665  0.3654 -0.4593 -0.2723
 4735SOL    HW225842   3.213   0.110   0.663  1.7590 -0.4853  1.5045
 4736SOL     OW25843   1.799   0.735   9.218 -0.0017 -0.2674  0.3810
 4736SOL    HW125844   1.866   0.724   9.285 -0.2403 -0.9605  0.5052
 4736SOL    HW225845   1.841   0.688   9.145  1.4343 -0.4593  1.3350
 4737SOL     OW25846   1.493   4.356   0.268 -0.0984  0.1279 -0.0999
 4737SOL    HW125847   1.480   4.315   0.353 -1.0030  0.4231 -0.0950
 4737SOL    HW225848   1.573   4.324   0.227  0.1245 -2.1749  2.1486
 4738SOL     OW25849   2.866   0.476  12.673  0.2377  0.1372  0.3657
 4738SOL    HW125850   2.909   0.457  12.589 -0.7305  0.3005 -0.1605
 4738SOL    HW225851   2.797   0.411  12.663  1.3914 -1.1547  0.8179
 4739SOL     OW25852   2.328   3.878   3.987 -0.3585 -0.1268 -0.0352
 4739SOL    HW125853   2.332   3.920   3.901  1.4806 -1.5311 -0.6226
 4739SOL    HW225854   2.282   3.940   4.043 -0.6297 -0.6570  0.3242
 4740SOL     OW25855   1.705   3.876   2.569  0.4205  0.5263 -0.2216
 4740SOL    HW125856   1.717   3.835   2.655 -0.1726 -0.5677 -0.6613
 4740SOL    HW225857   1.783   3.931   2.573 -0.1652  1.4859 -2.2341
 4741SOL     OW25858   1.802   1.530  11.178 -0.2368  0.0882  0.7392
 4741SOL    HW125859   1.859   1.605  11.193 -0.6468  0.9357 -1.9746
 4741SOL    HW225860   1.842   1.474  11.244 -0.7065 -1.9448 -0.6683
 4742SOL     OW25861   2.508   0.759   2.489  0.2822 -0.1098  0.0694
 4742SOL    HW125862   2.434   0.813   2.461  0.1363  0.1228  0.9275
 4742SOL    HW225863   2.507   0.699   2.414  0.1487 -0.4718  0.3580
 4743SOL     OW25864   3.357   1.774  16.436  0.1587 -0.0409 -0.5981
 4743SOL    HW125865   3.395   1.793  16.350  0.2879  1.9197 -0.1164
 4743SOL    HW225866   3.428   1.804  16.493  2.6209 -1.4307 -2.9463
 4744SOL     OW25867   4.659   2.681   9.660  0.3382 -0.4472  0.1584
 4744SOL    HW125868   4.588   2.712   9.604  0.1214  1.0971  1.2988
 4744SOL    HW225869   4.718   2.756   9.666  2.6641 -2.3442  0.8386
 4745SOL     OW25870   0.193   0.215   5.564 -1.0338  0.1867 -0.6014
 4745SOL    HW125871   0.191   0.126   5.530 -0.0443 -0.0686  0.0234
 4745SOL    HW225872   0.099   0.235   5.568 -1.2180 -1.0686  1.4627
 4746SOL     OW25873   4.508   2.230  16.614  0.2715 -0.5795 -0.2241
 4746SOL    HW125874   4.522   2.153  16.670  0.5047 -2.3683 -2.7607
 4746SOL    HW225875   4.516   2.182  16.532 -0.7568 -0.2952 -0.4847
 4747SOL     OW25876   3.791   1.354  12.660  0.1612 -0.3918  0.3823
 4747SOL    HW125877   3.720   1.418  12.657  0.3339 -0.2305 -0.3328
 4747SOL    HW225878   3.807   1.352  12.566 -2.0337  2.8372 -0.0442
 4748SOL     OW25879   4.614   4.222   3.160 -0.0970  0.8659  0.4834
 4748SOL    HW125880   4.702   4.257   3.147 -0.1982  0.6210 -0.8462
 4748SOL    HW225881   4.601   4.166   3.083 -1.2881  0.5668  0.8930
 4749SOL     OW25882   2.380   2.021   4.909  0.1772 -0.1852  0.6480
 4749SOL    HW125883   2.393   1.975   4.827 -1.8228 -0.2586  0.3715
 4749SOL    HW225884   2.293   1.986   4.929  0.3963  0.2824  2.4746
 4750SOL     OW25885   0.152   0.024   0.170 -0.0226  0.0188 -0.3527
 4750SOL    HW125886   0.238   0.022   0.129 -0.7537 -2.1883 -1.7740
 4750SOL    HW225887   0.171   0.081   0.244  0.2929 -0.5072 -0.0314
 4751SOL     OW25888   1.144   1.851   4.541 -0.0481 -0.5643 -0.2554
 4751SOL    HW125889   1.113   1.839   4.452 -1.7455  1.0451  0.1306
 4751SOL    HW225890   1.074   1.862   4.606  0.7075 -1.3678  0.6955
 4752SOL     OW25891   2.687   4.262   7.973 -0.4258  0.3894  0.5455
 4752SOL    HW125892   2.634   4.302   8.043 -0.5098 -0.3204  0.8846
 4752SOL    HW225893   2.762   4.226   8.019 -2.9650 -1.1607  3.5074
 4753SOL     OW25894   0.364   4.185   8.623  0.0167  0.0725 -0.1514
 4753SOL    HW125895   0.443   4.232   8.649 -0.5793  0.0493  1.7388
 4753SOL    HW225896   0.400   4.146   8.543 -0.0279  1.8000 -1.0172
 4754SOL     OW25897   2.696   1.963   2.321  0.4181  0.0943  0.1812
 4754SOL    HW125898   2.773   2.018   2.337 -0.1335  0.9551 -0.1210
 4754SOL    HW225899   2.637   2.032   2.290  0.0428 -0.2000  0.2429
 4755SOL     OW25900   4.268   2.418   4.390 -0.0650 -0.7874 -0.2218
 4755SOL    HW125901   4.333   2.429   4.459  0.5841  0.4096 -1.0225
 4755SOL    HW225902   4.279   2.500   4.342 -1.5898 -0.9313 -0.8111
 4756SOL     OW25903   3.548   3.864   7.010 -0.0969  0.0663 -0.2198
 4756SOL    HW125904   3.493   3.879   7.086 -0.1963 -0.6514 -0.1487
 4756SOL    HW225905   3.569   3.771   7.019  0.5893  0.4690  2.5149
 4757SOL     OW25906   1.173   2.556   8.705  0.1215 -0.3757  0.0279
 4757SOL    HW125907   1.125   2.497   8.647  0.1069 -1.4685  1.1406
 4757SOL    HW225908   1.141   2.506   8.780 -1.9119  3.1956  1.5699
 4758SOL     OW25909   0.629   2.931   6.533  0.3510 -0.1534  0.1719
 4758SOL    HW125910   0.696   2.973   6.588 -0.1193 -0.5038  1.0183
 4758SOL    HW225911   0.562   2.945   6.599 -1.0697  3.0541 -1.9695
 4759SOL     OW25912   3.246   2.817   2.400 -0.3562 -0.5133  0.0344
 4759SOL    HW125913   3.292   2.901   2.402 -1.4037  0.0342  0.7724
 4759SOL    HW225914   3.216   2.811   2.491  1.9647  1.7599  0.9385
 4760SOL     OW25915   2.120   3.954   0.965  0.6443 -0.2539  0.5392
 4760SOL    HW125916   2.114   3.903   1.045  0.9577  2.0917  2.0647
 4760SOL    HW225917   2.194   4.014   0.972  0.1916  0.5953 -1.7551
 4761SOL     OW25918   0.451   2.760   1.190 -0.1931  0.1657  0.7826
 4761SOL    HW125919   0.450   2.830   1.125 -0.5346 -1.4985 -1.0063
 4761SOL    HW225920   0.412   2.689   1.140 -1.6751  0.6805  1.2041
 4762SOL     OW25921   1.069   1.367   2.384  0.4847 -0.6974  0.1590
 4762SOL    HW125922   1.164   1.373   2.375  0.1832  2.0322 -1.2170
 4762SOL    HW225923   1.045   1.437   2.444  0.0673  1.2809 -2.3337
 4763SOL     OW25924   3.910   0.334  14.844 -0.2240  0.5489  0.3755
 4763SOL    HW125925   3.881   0.247  14.870  0.0587  0.7270  1.3002
 4763SOL    HW225926   3.978   0.319  14.779 -0.7076 -1.8918  0.4653
 4764SOL     OW25927   0.203   3.955   1.671 -0.0346 -0.1514 -0.0963
 4764SOL    HW125928   0.286   3.966   1.717 -0.4555  0.3482  0.5524
 4764SOL    HW225929   0.145   3.959   1.747 -2.4251  1.4262 -2.0027
 4765SOL     OW25930   1.964   0.609   9.000  0.3746  0.2415  0.4551
 4765SOL    HW125931   1.997   0.699   9.003 -0.1303  0.3635  2.3385
 4765SOL    HW225932   1.934   0.605   8.910  2.1547 -1.4565 -0.0539
 4766SOL     OW25933   4.001   3.258   0.487  0.6577 -0.4041  0.7110
 4766SOL    HW125934   4.087   3.223   0.508 -0.2631 -0.9079  3.5587
 4766SOL    HW225935   4.009   3.283   0.394  0.6594 -1.1220  0.5178
 4767SOL     OW25936   4.618   0.965   2.074 -0.0143  0.3246 -0.4527
 4767SOL    HW125937   4.627   1.015   2.156  1.0547 -0.9956  0.2386
 4767SOL    HW225938   4.624   0.877   2.110  0.9955  1.3703  1.9459
 4768SOL     OW25939   2.628   2.081   6.574  0.0572 -0.0529 -0.0155
 4768SOL    HW125940   2.642   2.097   6.667 -0.2165 -1.4436  0.2681
 4768SOL    HW225941   2.669   1.994   6.565  1.0703  0.4299 -0.0840
 4769SOL     OW25942   4.719   4.689   5.743  0.0650 -0.2286  0.3441
 4769SOL    HW125943   4.651   4.624   5.727 -1.0118  0.6209  1.4957
 4769SOL    HW225944   4.709   0.005   5.663 -2.2312  2.1086  2.1621
 4770SOL     OW25945   1.781   1.489   3.829 -0.7030 -0.0018 -0.3291
 4770SOL    HW125946   1.849   1.548   3.798  0.1036  0.2455  1.9137
 4770SOL    HW225947   1.774   1.420   3.763  1.1221  0.2029 -0.7290
 4771SOL     OW25948   4.725   2.458   1.956  0.3581 -0.6388 -0.5405
 4771SOL    HW125949   0.049   2.456   2.030 -2.2128  0.5084  1.6528
 4771SOL    HW225950   0.050   2.431   1.889  0.2325 -0.8304 -0.5778
 4772SOL     OW25951   2.669   1.198   2.601 -0.0004 -0.3989  0.2401
 4772SOL    HW125952   2.666   1.102   2.607 -2.1949 -0.4461 -1.6960
 4772SOL    HW225953   2.574   1.205   2.596  0.0107 -0.3805  0.0712
 4773SOL     OW25954   1.397   4.519   1.796 -0.5196 -0.5042  0.2637
 4773SOL    HW125955   1.307   4.489   1.807 -0.8426  1.2650  2.4841
 4773SOL    HW225956   1.400   4.558   1.709  0.1626  1.1383  1.0225
 4774SOL     OW25957   3.540   1.780   0.492 -0.7062 -0.1178  1.0239
 4774SOL    HW125958   3.575   1.752   0.576  0.7586  1.7819  1.0465
 4774SOL    HW225959   3.587   1.723   0.431 -0.9079 -0.2280  0.9692
 4775SOL     OW25960   0.334   4.388   1.679  0.1918 -1.4382 -0.2809
 4775SOL    HW125961   0.427   4.409   1.688 -0.9903  2.3227  2.8282
 4775SOL    HW225962   0.305   4.439   1.754  1.0377  0.5669 -1.3176
 4776SOL     OW25963   1.508   3.333   2.201 -0.6345  0.1074  0.1553
 4776SOL    HW125964   1.569   3.362   2.134 -0.1703 -2.8272 -0.6607
 4776SOL    HW225965   1.430   3.386   2.185  0.0110  0.6302 -1.2292
 4777SOL     OW25966   3.564   2.215  16.596 -0.0212 -1.0213  0.0767
 4777SOL    HW125967   3.529   2.302  16.579  2.2926  0.1013  0.9546
 4777SOL    HW225968   3.627   2.212  16.524 -2.0907  3.5640 -1.9376
 4778SOL     OW25969   3.712   2.885   6.421  0.1679 -0.2836  0.3323
 4778SOL    HW125970   3.677   2.969   6.452 -0.5452 -0.6657  0.5464
 4778SOL    HW225971   3.726   2.901   6.327 -0.5406 -1.9112 -0.0377
 4779SOL     OW25972   2.547   4.440   6.222 -0.1737 -0.3577  0.6625
 4779SOL    HW125973   2.457   4.473   6.228 -0.2678 -0.1923 -1.7974
 4779SOL    HW225974   2.571   4.448   6.315 -2.8182 -0.1966  1.3490
 4780SOL     OW25975   1.581   2.785   1.753 -0.0698  0.2963  0.8815
 4780SOL    HW125976   1.671   2.755   1.742 -0.2160  0.2535 -0.1872
 4780SOL    HW225977   1.590   2.878   1.772  1.7768  0.3379 -0.2256
 4781SOL     OW25978   0.840   1.997  15.579  0.2291  0.1704 -0.4228
 4781SOL    HW125979   0.879   2.035  15.501  2.0874  1.2779  1.0506
 4781SOL    HW225980   0.921   1.978  15.626 -0.4771 -0.6393  0.4586
 4782SOL     OW25981   3.408   1.308  16.916 -0.4674 -0.4087 -0.8554
 4782SOL    HW125982   3.372   1.287  16.829  1.3460  0.8976 -1.9207
 4782SOL    HW225983   3.347   1.257  16.970 -1.4775  2.6756  0.8518
 4783SOL     OW25984   1.112   2.276   4.292  0.4213 -0.3795 -0.0228
 4783SOL    HW125985   1.190   2.326   4.270 -0.2167  0.8609  0.5531
 4783SOL    HW225986   1.113   2.297   4.385  1.6157 -0.2894 -0.0565
 4784SOL     OW25987   1.881   2.887   6.361  0.7016 -0.7792  0.1781
 4784SOL    HW125988   1.834   2.838   6.428  0.2511  0.3563  0.6907
 4784SOL    HW225989   1.820   2.890   6.287  0.7223  1.4226  0.2600
 4785SOL     OW25990   0.300   4.018   0.488 -0.0098  0.2931  0.0105
 4785SOL    HW125991   0.316   4.084   0.556 -0.4200  1.0727 -0.6378
 4785SOL    HW225992   0.212   3.991   0.515 -0.0383  1.5491  1.2397
 4786SOL     OW25993   1.425   0.858   0.655 -0.4135 -0.3898 -0.0935
 4786SOL    HW125994   1.393   0.767   0.654  0.5093 -0.7081 -0.7479
 4786SOL    HW225995   1.432   0.866   0.560 -1.1566 -1.7800 -0.2751
 4787SOL     OW25996   4.584   4.349   5.259 -0.1605  0.0560 -0.5257
 4787SOL    HW125997   4.563   4.284   5.192  0.5794  0.8283 -1.5201
 4787SOL    HW225998   4.643   4.299   5.315 -0.9051 -0.3043 -0.0668
 4788SOL     OW25999   2.192   3.731  16.541 -0.0531 -0.3436  0.5373
 4788SOL    HW126000   2.190   3.641  16.574 -1.7500 -0.8131 -0.8450
 4788SOL    HW226001   2.103   3.766  16.549  0.4845  0.7018  1.9419
 4789SOL     OW26002   2.334   0.446   6.819  0.3570 -0.4876  0.0006
 4789SOL    HW126003   2.342   0.357   6.853 -0.2861 -0.6837 -0.3518
 4789SOL    HW226004   2.429   0.457   6.818  0.4202 -0.7533  2.5703
 4790SOL     OW26005   0.104   1.327   9.183  0.1591 -0.5104  0.4781
 4790SOL    HW126006   0.053   1.399   9.146  0.7372  0.0073  0.6907
 4790SOL    HW226007   0.157   1.362   9.255 -0.8286  2.2188 -0.1494
 4791SOL     OW26008   4.360   2.311   7.992  0.2029  0.3265  0.0413
 4791SOL    HW126009   4.417   2.302   8.068 -0.2108  0.7153  0.3999
 4791SOL    HW226010   4.387   2.385   7.938 -0.0242  0.3481 -0.0424
 4792SOL     OW26011   1.739   4.020  16.745 -0.6467 -0.4655 -0.4969
 4792SOL    HW126012   1.778   4.102  16.713 -0.2461  0.2012  1.6688
 4792SOL    HW226013   1.764   4.029  16.838 -0.7838 -1.6008 -0.3577
 4793SOL     OW26014   2.032   2.555  11.350 -0.2056  0.3959  0.1231
 4793SOL    HW126015   2.079   2.596  11.423  1.5250  0.3818 -0.9672
 4793SOL    HW226016   1.972   2.626  11.327 -0.1763  0.0677 -0.9615
 4794SOL     OW26017   0.741   4.617  13.805 -0.6745 -0.4042 -0.9370
 4794SOL    HW126018   0.664   4.660  13.769 -0.0239  1.4564 -0.1525
 4794SOL    HW226019   0.779   4.695  13.846 -2.3102  0.1450 -0.4519
 4795SOL     OW26020   4.642   3.008   6.665 -0.2810  0.3701 -0.2149
 4795SOL    HW126021   4.555   3.000   6.704  1.2767  1.8805  3.6353
 4795SOL    HW226022   4.669   2.916   6.664 -0.3346  0.3455  0.6160
 4796SOL     OW26023   3.760   4.516   0.624  0.8124  0.2267  0.4738
 4796SOL    HW126024   3.809   4.523   0.706  1.0893 -0.4304  0.3562
 4796SOL    HW226025   3.827   4.496   0.560  0.6924  1.2303  0.0279
 4797SOL     OW26026   0.232   2.533   3.595 -0.1372  0.3996 -0.4390
 4797SOL    HW126027   0.276   2.612   3.563  0.9717 -0.4914 -1.1303
 4797SOL    HW226028   0.168   2.520   3.525 -0.5646  0.6222 -0.0870
 4798SOL     OW26029   0.449   1.070  13.079 -0.2811  0.4124 -0.5851
 4798SOL    HW126030   0.492   1.004  13.025 -1.5395 -1.4736  0.7129
 4798SOL    HW226031   0.368   1.083  13.029 -2.3479 -0.4818  2.5380
 4799SOL     OW26032   0.512   2.499  13.183  0.1770 -0.3469 -0.1385
 4799SOL    HW126033   0.580   2.433  13.175  1.4131  1.1041 -1.5968
 4799SOL    HW226034   0.566   2.577  13.197 -0.3096  0.2320 -1.5226
 4800SOL     OW26035   0.106   1.609   7.378 -0.0559 -0.1233 -0.5022
 4800SOL    HW126036   0.081   1.697   7.409  0.8441  0.3544 -1.1205
 4800SOL    HW226037   0.038   1.555   7.418  0.4131 -1.1235 -1.0767
 4801SOL     OW26038   4.540   3.848   8.896  0.0894 -0.7993 -0.0009
 4801SOL    HW126039   4.470   3.786   8.917 -0.5741  0.0008  0.1774
 4801SOL    HW226040   4.607   3.836   8.962  1.0154  3.2340 -0.1661
 4802SOL     OW26041   4.317   4.462   7.338 -0.2503  0.3584  0.1114
 4802SOL    HW126042   4.340   4.548   7.302  0.9778 -0.0111  0.0263
 4802SOL    HW226043   4.249   4.491   7.399  0.1126  4.1123 -1.2188
 4803SOL     OW26044   0.577   1.891   4.987  0.1316 -0.3710 -0.3479
 4803SOL    HW126045   0.547   1.814   4.939 -2.6660 -0.1012  0.9764
 4803SOL    HW226046   0.632   1.853   5.057 -0.4485 -1.9657 -0.7515
 4804SOL     OW26047   1.055   2.043   9.448 -0.2775  0.1269 -0.1998
 4804SOL    HW126048   1.068   2.107   9.379 -0.2509  0.1908 -0.1361
 4804SOL    HW226049   1.013   1.970   9.402  0.7990 -1.9054  1.9719
 4805SOL     OW26050   0.628   3.601  13.301  0.0788 -0.0289  0.0625
 4805SOL    HW126051   0.718   3.631  13.295  0.9367 -2.6199 -0.2510
 4805SOL    HW226052   0.619   3.612  13.206  1.3811 -2.4805 -0.3462
 4806SOL     OW26053   0.521   0.263   7.717 -0.0906  0.5990 -0.5851
 4806SOL    HW126054   0.492   0.251   7.627  0.7241  2.6633 -1.1151
 4806SOL    HW226055   0.458   0.203   7.756 -1.1780  2.8059  1.0654
 4807SOL     OW26056   0.101   0.133   5.258  0.2143  0.2540 -0.6730
 4807SOL    HW126057   0.124   0.040   5.256 -2.1865 -0.3110 -2.2234
 4807SOL    HW226058   0.148   0.155   5.178  2.1687 -1.8471 -0.1121
 4808SOL     OW26059   4.008   2.347   8.508 -0.5251  0.4201  0.0363
 4808SOL    HW126060   4.037   2.259   8.483  1.0656  0.3840  1.9737
 4808SOL    HW226061   3.970   2.339   8.596  1.2206 -0.4680  0.7159
 4809SOL     OW26062   1.952   3.045   3.787 -0.2250 -0.1325 -0.3426
 4809SOL    HW126063   1.898   3.026   3.711  0.7080  1.2238 -1.3440
 4809SOL    HW226064   2.043   3.023   3.766  0.3887  0.9052  1.2618
 4810SOL     OW26065   3.663   2.994   2.845  0.6183 -0.1585 -0.2570
 4810SOL    HW126066   3.671   2.899   2.840 -0.8484 -0.3056  0.0359
 4810SOL    HW226067   3.678   3.017   2.754 -1.5691 -0.1541 -0.6224
 4811SOL     OW26068   1.627   3.948   0.724 -0.3236  0.0681  0.1231
 4811SOL    HW126069   1.536   3.954   0.696 -0.5973  2.4571  1.5522
 4811SOL    HW226070   1.652   4.038   0.746 -2.0833  0.6379 -0.2794
 4812SOL     OW26071   1.809   4.462   3.299  0.0352 -0.5439 -0.3366
 4812SOL    HW126072   1.714   4.462   3.288 -0.0270 -0.1828  0.1663
 4812SOL    HW226073   1.824   4.397   3.367  1.9204  2.0128  1.7120
 4813SOL     OW26074   3.111   2.817   5.163 -0.0455 -1.1091  0.1446
 4813SOL    HW126075   3.073   2.817   5.251 -1.5230 -0.4795 -0.5073
 4813SOL    HW226076   3.078   2.733   5.131  0.3281 -0.7734 -1.1007
 4814SOL     OW26077   1.858   4.041   2.744  0.3962  0.9330 -0.4864
 4814SOL    HW126078   1.853   4.126   2.787  0.8962 -0.6415  2.6250
 4814SOL    HW226079   1.880   3.984   2.818 -1.5484 -0.5157 -1.0103
 4815SOL     OW26080   4.272   0.728   2.511 -0.3074 -1.1453 -0.0412
 4815SOL    HW126081   4.179   0.714   2.492 -0.7937  1.4883  0.4107
 4815SOL    HW226082   4.271   0.762   2.600  1.5847 -1.0580 -0.0486
 4816SOL     OW26083   3.890   3.016   6.795  0.9009 -0.0082 -0.3170
 4816SOL    HW126084   3.802   2.990   6.825  1.7440 -1.5125  0.8641
 4816SOL    HW226085   3.861   3.062   6.716 -1.0562  0.0756  0.4528
 4817SOL     OW26086   1.976   2.091   3.461  0.4169  0.3538  0.1398
 4817SOL    HW126087   1.979   2.186   3.452 -0.8676  0.4583  0.9383
 4817SOL    HW226088   1.889   2.073   3.426  0.3279 -1.8060  1.4545
 4818SOL     OW26089   2.044   1.138   2.038 -0.0324 -0.4624 -0.1513
 4818SOL    HW126090   2.054   1.047   2.009 -1.6563 -0.5223 -0.4980
 4818SOL    HW226091   1.949   1.141   2.032 -0.0091  0.3196 -0.0547
 4819SOL     OW26092   4.296   2.036   6.719  0.3636 -0.2745  0.1804
 4819SOL    HW126093   4.286   2.124   6.756 -1.8293  0.1531 -1.4089
 4819SOL    HW226094   4.389   2.026   6.738  1.1997  1.2812 -3.0400
 4820SOL     OW26095   4.128   2.637   8.151  0.1319 -0.1822  0.3409
 4820SOL    HW126096   4.148   2.629   8.244  0.4076 -0.4988  0.2544
 4820SOL    HW226097   4.077   2.556   8.144 -1.5864  0.7925  1.5073
 4821SOL     OW26098   2.046   1.317   5.867  0.0245 -0.0296  0.3048
 4821SOL    HW126099   2.103   1.394   5.867  1.5850 -1.1936 -1.2413
 4821SOL    HW226100   1.974   1.352   5.919  0.0507  1.4756 -0.6646
 4822SOL     OW26101   0.705   2.539   3.762 -0.0907  0.0399  0.4916
 4822SOL    HW126102   0.628   2.509   3.810  0.8131  0.0955  1.9825
 4822SOL    HW226103   0.767   2.492   3.818  0.0993 -0.1643  0.1116
 4823SOL     OW26104   4.270   0.503   1.809  0.3016  0.4951  0.2149
 4823SOL    HW126105   4.271   0.511   1.714  2.7098  0.6510  0.2524
 4823SOL    HW226106   4.314   0.586   1.831 -1.8710  1.9091 -0.7457
 4824SOL     OW26107   1.477   4.182   9.391 -0.4095 -0.0346  0.8513
 4824SOL    HW126108   1.430   4.239   9.330  2.1591  2.4223  1.1482
 4824SOL    HW226109   1.532   4.243   9.441 -1.4150  0.6552  1.1240
 4825SOL     OW26110   1.196   4.429   3.643  0.0283 -0.0678 -0.0602
 4825SOL    HW126111   1.204   4.353   3.701 -0.0567 -0.8153 -1.0338
 4825SOL    HW226112   1.185   4.506   3.699 -0.4256  0.3195 -0.6834
 4826SOL     OW26113   2.011   4.182   0.679  0.4518  0.6257  0.3553
 4826SOL    HW126114   2.089   4.224   0.643  0.8789 -0.6265 -0.1805
 4826SOL    HW226115   1.991   4.107   0.622  2.0028 -0.2997  1.0260
 4827SOL     OW26116   0.068   3.409  11.371 -0.6445 -0.3305  0.2213
 4827SOL    HW126117   0.139   3.348  11.393 -0.2445 -0.7943 -2.3938
 4827SOL    HW226118   0.111   3.489  11.399  1.1925 -0.8857 -0.9929
 4828SOL     OW26119   3.385   0.733   3.809  0.6681  0.0790  0.4154
 4828SOL    HW126120   3.450   0.803   3.808  1.0417 -0.3139 -1.8519
 4828SOL    HW226121   3.364   0.728   3.716  0.1708 -0.5585  0.5646
 4829SOL     OW26122   3.951   3.508   4.368 -0.1338 -0.1440  0.3142
 4829SOL    HW126123   4.044   3.509   4.347 -0.3553  1.1842 -0.6072
 4829SOL    HW226124   3.918   3.595   4.341  0.4495 -0.1927 -0.5472
 4830SOL     OW26125   2.204   4.548   2.248  0.1577  0.4657  0.1589
 4830SOL    HW126126   2.181   4.494   2.324  0.0736 -0.0543 -0.2392
 4830SOL    HW226127   2.299   4.537   2.241  0.0415 -0.3990 -0.1061
 4831SOL     OW26128   3.785   2.008   5.961  0.5594  0.5357 -0.1079
 4831SOL    HW126129   3.724   1.959   6.017 -1.6052  3.3040 -0.0224
 4831SOL    HW226130   3.734   2.024   5.881  1.1945 -0.4943 -0.7162
 4832SOL     OW26131   0.989   2.869   5.923 -0.6978 -0.5912 -0.6919
 4832SOL    HW126132   0.943   2.785   5.924 -2.8356  0.5765  1.4111
 4832SOL    HW226133   0.952   2.908   5.843 -0.9631  0.0621 -0.2593
 4833SOL     OW26134   0.419   3.881   5.873  0.6275 -0.0376  0.2688
 4833SOL    HW126135   0.400   3.962   5.920 -1.5566  0.5953 -1.6562
 4833SOL    HW226136   0.346   3.883   5.810  1.3038  0.6729 -0.4822
 4834SOL     OW26137   1.546   0.754   3.230  0.4180  0.5091  0.0719
 4834SOL    HW126138   1.558   0.804   3.149 -0.7355 -0.7528 -0.8666
 4834SOL    HW226139   1.634   0.754   3.268  1.9493 -0.9351 -3.3990
 4835SOL     OW26140   2.264   0.940   2.182 -1.2182 -0.0100 -0.5342
 4835SOL    HW126141   2.196   0.997   2.145  0.9262  2.9939  0.1778
 4835SOL    HW226142   2.272   0.874   2.113  3.5337  1.7881 -1.6832
 4836SOL     OW26143   2.437   2.538   5.457  0.2463  0.1118 -0.7175
 4836SOL    HW126144   2.424   2.450   5.422 -0.8340 -0.7109  1.7586
 4836SOL    HW226145   2.356   2.553   5.506 -1.0783 -0.1831 -2.7855
 4837SOL     OW26146   4.494   2.736  10.718 -0.2790 -0.2617 -0.3944
 4837SOL    HW126147   4.512   2.669  10.653 -1.4158 -3.1675  2.2754
 4837SOL    HW226148   4.398   2.730  10.726 -0.2234 -2.3412 -1.4158
 4838SOL     OW26149   4.226   4.235  15.896 -0.0026  0.5534  0.0830
 4838SOL    HW126150   4.154   4.173  15.899  0.5155  0.0202  1.8602
 4838SOL    HW226151   4.282   4.177  15.948  0.0155  0.4549 -0.0457
 4839SOL     OW26152   4.508   0.704  16.017  0.1973 -0.3532 -0.3012
 4839SOL    HW126153   4.592   0.707  16.064 -0.1268 -0.5196  0.2824
 4839SOL    HW226154   4.464   0.785  16.043 -1.6253 -2.4859  3.2696
 4840SOL     OW26155   3.527   3.054   8.349  0.3889  0.4197 -0.3439
 4840SOL    HW126156   3.516   3.017   8.261 -2.0569  0.7149 -0.1697
 4840SOL    HW226157   3.568   2.982   8.397  1.8704  0.4163 -1.5912
 4841SOL     OW26158   1.196   2.330   6.578 -0.1007  0.3141  0.3569
 4841SOL    HW126159   1.127   2.346   6.514 -0.7837  0.3745  1.1078
 4841SOL    HW226160   1.274   2.321   6.524  1.5994  1.0359  2.6784
 4842SOL     OW26161   3.750   3.816  15.355 -0.1452  0.0899 -0.0906
 4842SOL    HW126162   3.795   3.764  15.421 -3.8526 -1.2214  1.4118
 4842SOL    HW226163   3.657   3.792  15.355 -0.1799  0.2418  0.8862
 4843SOL     OW26164   3.578   2.778   1.420  0.0261  0.2259 -0.0533
 4843SOL    HW126165   3.666   2.774   1.382  1.1222  0.2948  2.4399
 4843SOL    HW226166   3.560   2.872   1.410  1.1332  0.2160 -2.1961
 4844SOL     OW26167   0.818   2.319  17.257 -0.2899  0.1390 -0.2319
 4844SOL    HW126168   0.781   2.297  17.343 -0.6658  1.8556  0.0409
 4844SOL    HW226169   0.783   2.247  17.206  2.5941 -1.7938  0.4933
 4845SOL     OW26170   0.060   3.024   6.153  0.0549  0.0709 -0.3500
 4845SOL    HW126171   0.120   2.963   6.112 -0.8484 -0.0321 -1.5380
 4845SOL    HW226172   0.018   2.961   6.211  1.7803  0.5726  1.4384
 4846SOL     OW26173   2.736   4.129   5.163  0.2030 -0.2920 -0.4530
 4846SOL    HW126174   2.817   4.129   5.214 -0.7273 -2.3597  1.0379
 4846SOL    HW226175   2.669   4.139   5.231  0.6327  0.9684 -0.2251
 4847SOL     OW26176   4.313   3.482   4.891 -0.6690  0.1511  0.4184
 4847SOL    HW126177   4.356   3.523   4.966  0.0546  1.3775 -0.6724
 4847SOL    HW226178   4.256   3.415   4.928 -1.0446  1.2513  1.8464
 4848SOL     OW26179   1.892   1.768   4.084  0.1328  0.3105  0.3943
 4848SOL    HW126180   1.968   1.758   4.027 -1.8621 -0.6600 -2.0904
 4848SOL    HW226181   1.911   1.711   4.158  0.8127  0.6494  0.4810
 4849SOL     OW26182   1.595   0.762   6.087 -0.1474 -0.7775 -0.2349
 4849SOL    HW126183   1.525   0.697   6.089 -0.3468 -0.6180 -1.8223
 4849SOL    HW226184   1.666   0.711   6.125 -0.1830  0.9584  2.1514
 4850SOL     OW26185   3.715   4.017   5.878  0.3152 -0.1442 -0.6138
 4850SOL    HW126186   3.735   3.926   5.858  0.3345 -0.3529  0.3673
 4850SOL    HW226187   3.662   3.999   5.955 -2.8218  0.2113 -2.6659
 4851SOL     OW26188   2.435   2.262   3.845  0.3011  0.8286  0.2916
 4851SOL    HW126189   2.428   2.306   3.760 -1.2697  0.4468  0.2161
 4851SOL    HW226190   2.392   2.314   3.912 -2.1603 -0.4501 -0.3000
 4852SOL     OW26191   0.595   4.298   0.246  0.5790 -0.2382  0.0029
 4852SOL    HW126192   0.557   4.332   0.165  1.9740 -1.6668 -1.2550
 4852SOL    HW226193   0.535   4.226   0.266 -1.1763  1.0137 -0.7225
 4853SOL     OW26194   3.030   3.203   2.072  0.4175 -0.9064 -0.2656
 4853SOL    HW126195   3.121   3.179   2.051  0.7950  2.3488 -2.2731
 4853SOL    HW226196   3.042   3.294   2.099  1.1064 -1.6926  2.1533
 4854SOL     OW26197   0.117   1.119   2.675  0.1066  0.0245 -0.1481
 4854SOL    HW126198   0.109   1.039   2.727 -0.3762  0.3050  0.2088
 4854SOL    HW226199   0.042   1.172   2.700 -0.7362 -2.0410  1.7093
 4855SOL     OW26200   0.390   2.830  14.739 -0.4119  0.4368  0.5567
 4855SOL    HW126201   0.309   2.874  14.766 -1.4793 -1.2296  0.1144
 4855SOL    HW226202   0.462   2.874  14.784 -0.2628 -0.9516  1.6648
 4856SOL     OW26203   2.201   4.733   6.168 -0.4989 -0.2751  0.2469
 4856SOL    HW126204   2.247   4.652   6.188  1.9560  1.1510  0.3902
 4856SOL    HW226205   2.272   0.058   6.186 -2.1139  2.4255 -2.7805
 4857SOL     OW26206   3.298   1.007  17.000 -0.0248 -0.0949 -0.5983
 4857SOL    HW126207   3.304   0.912  17.001  2.5280  0.0534 -3.1022
 4857SOL    HW226208   3.305   1.026  16.906 -1.5770  2.5245 -0.2015
 4858SOL     OW26209   2.806   2.567   8.138 -0.4463  0.5091  0.6100
 4858SOL    HW126210   2.783   2.545   8.228 -0.7599  0.5078  0.5284
 4858SOL    HW226211   2.899   2.585   8.149 -0.2691  0.1743 -0.3040
 4859SOL     OW26212   4.641   1.139   1.493  0.2719 -0.1167  0.0683
 4859SOL    HW126213   4.571   1.087   1.533 -3.0533  1.9701 -3.0092
 4859SOL    HW226214   4.624   1.218   1.545  1.7251 -0.4462  1.0317
 4860SOL     OW26215   0.456   0.833  15.585  0.2683 -0.1932  0.5953
 4860SOL    HW126216   0.485   0.792  15.504 -0.7489 -0.1170  0.1989
 4860SOL    HW226217   0.364   0.842  15.562  0.6706  1.5177 -0.3601
 4861SOL     OW26218   3.640   3.000  14.803  0.4403  0.3771 -0.7947
 4861SOL    HW126219   3.609   3.075  14.853 -1.5906 -0.4731 -0.7811
 4861SOL    HW226220   3.570   2.935  14.816  0.1547  0.8221 -0.1143
 4862SOL     OW26221   3.153   0.469  10.615  0.5235 -0.0400  0.0437
 4862SOL    HW126222   3.150   0.516  10.699  1.4098  0.5993 -0.2796
 4862SOL    HW226223   3.120   0.383  10.639 -1.0696 -0.4002 -3.5029
 4863SOL     OW26224   2.765   2.037   2.680 -0.3579  0.0013  0.1296
 4863SOL    HW126225   2.751   2.100   2.610  0.8909  1.6695  1.3730
 4863SOL    HW226226   2.682   1.990   2.685 -0.9939  1.2800  1.7424
 4864SOL     OW26227   2.453   4.540   7.719  0.3140 -0.3130 -0.2338
 4864SOL    HW126228   2.539   4.516   7.752  0.0213  2.3648  2.4734
 4864SOL    HW226229   2.401   4.473   7.764  1.1603 -0.9409 -0.2038
 4865SOL     OW26230   2.955   1.157   8.600 -0.1926 -1.0724  0.1312
 4865SOL    HW126231   2.871   1.124   8.633  0.3899 -1.1292  1.5410
 4865SOL    HW226232   2.915   1.196   8.522 -0.5937 -1.7446 -0.0019
 4866SOL     OW26233   2.514   0.240   2.497  0.0394 -0.5550  0.0379
 4866SOL    HW126234   2.464   0.158   2.501  0.5583 -0.8914 -0.2926
 4866SOL    HW226235   2.442   0.301   2.479 -0.6426 -0.7591  2.0492
 4867SOL     OW26236   0.565   3.179  13.701  0.2979  0.6024  0.3094
 4867SOL    HW126237   0.581   3.106  13.641  2.2634 -0.5514  2.2223
 4867SOL    HW226238   0.643   3.163  13.756 -1.2370 -1.2214  1.9669
 4868SOL     OW26239   2.906   1.441   8.059  0.1146 -0.0548  0.1056
 4868SOL    HW126240   2.863   1.483   7.985  0.4011 -0.3355 -0.2160
 4868SOL    HW226241   2.834   1.430   8.121 -0.2851 -0.4445 -0.4325
 4869SOL     OW26242   0.025   3.692   5.081  0.0737  0.3881 -0.1950
 4869SOL    HW126243   0.084   3.760   5.052  1.6806 -0.2907  1.4428
 4869SOL    HW226244   0.085   3.620   5.101 -3.4538 -2.5891 -0.2168
 4870SOL     OW26245   2.758   1.071   7.990  0.1433 -0.2379  0.1296
 4870SOL    HW126246   2.729   1.029   7.909  1.9891 -0.9728 -0.1390
 4870SOL    HW226247   2.696   1.144   7.990  1.8864  1.2315  0.1227
 4871SOL     OW26248   2.249   4.321   1.710  0.4595  0.3800 -0.1823
 4871SOL    HW126249   2.199   4.355   1.784  1.0250  1.1991 -0.1702
 4871SOL    HW226250   2.250   4.226   1.721  0.7356  0.4421  0.3055
 4872SOL     OW26251   4.628   0.471   8.254  0.6386  0.3231 -0.6569
 4872SOL    HW126252   4.638   0.401   8.190  0.1713 -1.0857  0.8077
 4872SOL    HW226253   4.676   0.538   8.205  1.3267  0.3842  0.1024
 4873SOL     OW26254   2.154   2.399   3.229 -0.2524  0.4376 -0.1157
 4873SOL    HW126255   2.083   2.395   3.293 -2.4383 -0.1479 -2.5988
 4873SOL    HW226256   2.221   2.367   3.290 -0.8308  0.5368  0.5711
 4874SOL     OW26257   0.247   4.079   3.532  0.7826  0.2276  0.0829
 4874SOL    HW126258   0.184   4.054   3.464  0.1087  2.3472 -0.0913
 4874SOL    HW226259   0.183   4.084   3.603 -0.6799  2.1691 -1.3382
 4875SOL     OW26260   1.844   0.341   5.153  0.2190  0.5902 -0.2443
 4875SOL    HW126261   1.931   0.377   5.138 -0.1275  0.9954 -1.3188
 4875SOL    HW226262   1.821   0.372   5.240 -0.9577 -1.4825  0.1886
 4876SOL     OW26263   1.174   3.990   3.267  0.2571  0.9501 -0.7970
 4876SOL    HW126264   1.170   4.008   3.361 -0.6824 -0.5162 -0.5462
 4876SOL    HW226265   1.111   3.918   3.259  0.1913  0.8618  0.5043
 4877SOL     OW26266   3.447   4.600   8.131  0.5099 -0.2342 -0.4230
 4877SOL    HW126267   3.502   4.672   8.101  1.2490 -0.3613  0.6459
 4877SOL    HW226268   3.385   4.654   8.180 -0.0788 -0.8420 -0.4952
 4878SOL     OW26269   0.091   4.582   7.918  0.1702  0.0124  0.0078
 4878SOL    HW126270   0.152   4.551   7.985 -0.1997  0.5644  0.6072
 4878SOL    HW226271   0.063   4.498   7.882  0.6630 -1.1925  2.4848
 4879SOL     OW26272   2.056   0.722   7.789  0.1307 -0.5982  0.3985
 4879SOL    HW126273   2.009   0.805   7.784 -0.3413 -0.9440 -0.8905
 4879SOL    HW226274   2.142   0.741   7.826 -2.1168  1.4367  4.5825
 4880SOL     OW26275   3.514   4.306   5.810  0.0017  0.4672 -0.6735
 4880SOL    HW126276   3.477   4.309   5.721  2.0131  1.0860 -1.4907
 4880SOL    HW226277   3.443   4.332   5.869 -0.3709 -0.5814 -0.6586
 4881SOL     OW26278   0.364   0.955   6.412  0.4445  0.0462 -0.4963
 4881SOL    HW126279   0.326   0.892   6.351 -1.9750  2.3376 -1.3449
 4881SOL    HW226280   0.344   0.913   6.495  0.1465  0.7150 -0.2297
 4882SOL     OW26281   1.170   0.808   6.611 -0.0054  0.4773 -0.0610
 4882SOL    HW126282   1.230   0.881   6.597  0.8062 -0.1564  0.1579
 4882SOL    HW226283   1.217   0.725   6.600  3.6313  2.0930  3.4488
 4883SOL     OW26284   0.221   1.175   8.526  0.0439 -0.3101 -0.5830
 4883SOL    HW126285   0.144   1.176   8.583 -0.8731  2.3096 -1.8346
 4883SOL    HW226286   0.174   1.154   8.445 -0.7674 -0.2643 -0.1270
 4884SOL     OW26287   3.211   2.148  15.729  0.7932 -0.2713  0.5287
 4884SOL    HW126288   3.134   2.111  15.771 -0.7262  1.7831 -0.4530
 4884SOL    HW226289   3.280   2.082  15.740 -1.0818 -1.7961  3.0351
 4885SOL     OW26290   2.266   1.252   6.921 -0.2104  0.8989 -0.8066
 4885SOL    HW126291   2.207   1.305   6.974  0.0490 -0.2208  0.5785
 4885SOL    HW226292   2.212   1.177   6.897  0.1829  0.4049 -0.1281
 4886SOL     OW26293   2.419   2.242   6.208 -0.2615  0.5399  0.1561
 4886SOL    HW126294   2.429   2.280   6.296  1.0987  0.2758  0.1211
 4886SOL    HW226295   2.327   2.216   6.210 -0.7941  2.4884  0.6432
 4887SOL     OW26296   3.992   3.752   9.629  0.1420 -0.0865 -0.0237
 4887SOL    HW126297   4.012   3.666   9.590 -1.2198  0.4495 -1.9227
 4887SOL    HW226298   3.999   3.732   9.722 -1.3688 -1.0436 -0.1217
 4888SOL     OW26299   0.979   1.151   0.985  0.0237 -0.1731 -0.5583
 4888SOL    HW126300   1.016   1.105   1.060 -1.7359  1.1295  1.1205
 4888SOL    HW226301   1.042   1.126   0.918  0.4125 -0.9532  0.0926
 4889SOL     OW26302   3.057   3.824   2.990 -0.5765  0.0858 -0.2040
 4889SOL    HW126303   3.070   3.879   2.913 -1.7410  0.1344 -0.3652
 4889SOL    HW226304   2.987   3.870   3.037 -0.1977  0.1400  0.3086
 4890SOL     OW26305   2.927   4.101   3.813 -0.1459  0.0470 -0.5080
 4890SOL    HW126306   3.020   4.110   3.833 -0.3186  0.8397 -0.0609
 4890SOL    HW226307   2.891   4.049   3.885 -0.2844  3.0694  1.6232
 4891SOL     OW26308   3.175   1.549   5.588  0.4419 -0.2059  0.4998
 4891SOL    HW126309   3.220   1.564   5.671 -0.7796 -1.0005  1.3079
 4891SOL    HW226310   3.147   1.458   5.599  1.1266 -0.7731 -2.6236
 4892SOL     OW26311   2.271   4.532  12.203  1.0807 -0.0819 -0.3368
 4892SOL    HW126312   2.343   4.519  12.141 -0.1174  0.6219 -1.8991
 4892SOL    HW226313   2.307   4.515  12.290 -1.4292 -0.2817  0.6533
 4893SOL     OW26314   1.129   4.198   3.860 -0.0347 -0.0775 -0.0695
 4893SOL    HW126315   1.093   4.244   3.935  0.7563 -0.2630  0.4328
 4893SOL    HW226316   1.053   4.145   3.836  1.0106 -1.3306 -0.6343
 4894SOL     OW26317   2.901   3.579   5.477  0.1272 -0.0737  0.6362
 4894SOL    HW126318   2.850   3.534   5.544  1.0730  0.1532  1.5134
 4894SOL    HW226319   2.983   3.530   5.475  0.2193  0.1026 -0.0212
 4895SOL     OW26320   2.955   4.619   6.485  0.5447 -0.6306  0.6295
 4895SOL    HW126321   2.924   4.709   6.477 -0.9918 -0.9067  3.5117
 4895SOL    HW226322   3.002   4.615   6.402 -0.7556 -0.3391 -0.1297
 4896SOL     OW26323   1.543   0.196  11.882  0.0491  0.3180 -0.0438
 4896SOL    HW126324   1.570   0.115  11.839  0.5483 -0.2280  1.3200
 4896SOL    HW226325   1.519   0.255  11.810 -1.1288 -0.3322 -0.1763
 4897SOL     OW26326   2.200   1.883   6.567  0.0815 -0.3110  0.5861
 4897SOL    HW126327   2.165   1.922   6.487  0.8504 -1.7645 -0.4563
 4897SOL    HW226328   2.193   1.790   6.546  1.1962 -0.5606  1.3733
 4898SOL     OW26329   4.073   1.727   9.453 -0.1123  0.7996 -0.1106
 4898SOL    HW126330   4.158   1.724   9.497  0.3557  2.0791 -0.9269
 4898SOL    HW226331   4.064   1.821   9.433  0.0539  0.5665 -1.2647
 4899SOL     OW26332   4.428   0.059   2.417 -0.1269  0.0275  0.3770
 4899SOL    HW126333   4.417   0.141   2.367  0.8238  0.9500  1.6965
 4899SOL    HW226334   4.453   4.734   2.349  0.4849  1.0503 -0.3359
 4900SOL     OW26335   2.352   1.872  10.506 -0.1761 -0.6813  0.2444
 4900SOL    HW126336   2.273   1.871  10.560 -0.7845 -0.1833 -0.6457
 4900SOL    HW226337   2.332   1.938  10.440 -1.0927 -0.0656  1.1453
 4901SOL     OW26338   1.053   3.238   8.292  0.6359  0.1838 -0.0059
 4901SOL    HW126339   0.974   3.278   8.256  0.2027  0.1016  0.8389
 4901SOL    HW226340   1.022   3.185   8.366 -0.0857 -0.2747 -0.6332
 4902SOL     OW26341   0.648   3.928   1.135 -0.3414 -0.2083 -0.2137
 4902SOL    HW126342   0.632   3.975   1.217 -0.2652  0.7473 -0.7377
 4902SOL    HW226343   0.580   3.967   1.081 -0.5822  0.9323  0.9132
 4903SOL     OW26344   1.947   4.070   2.484 -0.0412  0.1753 -0.2646
 4903SOL    HW126345   1.923   4.062   2.576 -0.4631 -1.5248 -0.5287
 4903SOL    HW226346   1.913   4.158   2.470 -2.2282 -0.8230 -1.2122
 4904SOL     OW26347   0.578   3.272   4.849  0.1927 -0.0598  0.2918
 4904SOL    HW126348   0.541   3.185   4.866 -2.8918  0.8644 -1.7015
 4904SOL    HW226349   0.535   3.278   4.763  1.0752 -0.6793 -0.1932
 4905SOL     OW26350   3.007   0.066  14.978  0.3745  0.6384 -0.3150
 4905SOL    HW126351   2.925   0.027  14.948 -0.1945 -0.3205  2.5365
 4905SOL    HW226352   3.065   4.726  14.975  0.7048  0.7720  2.9608
 4906SOL     OW26353   2.927   0.861  14.262  0.3003 -0.4205  0.3579
 4906SOL    HW126354   3.021   0.868  14.245  0.0215 -1.5189 -1.6418
 4906SOL    HW226355   2.903   0.814  14.182 -0.9706  1.3557 -0.3028
 4907SOL     OW26356   3.165   4.133   5.173 -0.3182 -0.2187  0.3080
 4907SOL    HW126357   3.240   4.165   5.122 -2.2025  1.4811 -1.3699
 4907SOL    HW226358   3.103   4.205   5.164  1.6630  1.8308  2.8590
 4908SOL     OW26359   3.622   0.836   7.628  0.3216 -0.4385  0.1591
 4908SOL    HW126360   3.704   0.873   7.661  0.1230  0.4806 -0.3571
 4908SOL    HW226361   3.565   0.870   7.697  2.1097  0.8836  1.0012
 4909SOL     OW26362   1.356   0.043   3.086 -0.3000 -0.8480 -0.4929
 4909SOL    HW126363   1.347   0.068   3.178 -0.4617 -3.2080  0.1301
 4909SOL    HW226364   1.270   0.066   3.051 -1.2421 -0.4524  2.1351
 4910SOL     OW26365   1.823   1.469   1.506 -0.3886 -0.3569  0.5350
 4910SOL    HW126366   1.764   1.544   1.499  1.5564  1.0142 -1.4781
 4910SOL    HW226367   1.881   1.510   1.571  0.2562  0.7928 -0.7431
 4911SOL     OW26368   1.770   1.242   3.731  0.4502 -0.0128 -0.2049
 4911SOL    HW126369   1.771   1.148   3.713  1.3689 -0.1958  0.8345
 4911SOL    HW226370   1.682   1.268   3.701  0.9610  0.9615 -0.8644
 4912SOL     OW26371   2.532   2.742  14.449  0.1950  0.0668  0.1283
 4912SOL    HW126372   2.617   2.713  14.417  0.2395 -0.4419  0.7152
 4912SOL    HW226373   2.482   2.742  14.367  0.0208  0.4961  0.2340
 4913SOL     OW26374   2.847   0.784  15.998  0.3736 -0.4328  0.5666
 4913SOL    HW126375   2.771   0.771  16.055  0.7078  1.4323  1.4299
 4913SOL    HW226376   2.808   0.837  15.928  0.4649 -2.0955 -0.7445
 4914SOL     OW26377   0.124   0.620   6.899 -0.0078 -0.1308  0.2183
 4914SOL    HW126378   0.077   0.605   6.817 -0.3475  0.5038  0.2937
 4914SOL    HW226379   0.082   0.699   6.934  1.3165  1.0077 -0.7697
 4915SOL     OW26380   4.364   3.081   2.203  0.3606 -0.0536 -0.5910
 4915SOL    HW126381   4.378   2.988   2.220 -1.1355 -0.2272 -0.3064
 4915SOL    HW226382   4.444   3.096   2.151 -0.1261 -0.4658 -1.4651
 4916SOL     OW26383   2.032   0.659   3.851  0.3337 -0.2770 -0.1028
 4916SOL    HW126384   2.051   0.746   3.886  0.3987 -0.0288 -0.7433
 4916SOL    HW226385   1.987   0.616   3.924  1.8437 -1.8501 -0.0858
 4917SOL     OW26386   4.664   1.471   7.835 -0.3223  0.8168  0.0400
 4917SOL    HW126387   0.013   1.432   7.818 -0.6933 -0.0432  0.1673
 4917SOL    HW226388   4.597   1.418   7.794  0.1161  0.9752 -0.8802
 4918SOL     OW26389   2.399   0.107   5.413 -0.0143 -0.6730  0.7265
 4918SOL    HW126390   2.464   0.175   5.429 -0.1062  0.0456 -2.0549
 4918SOL    HW226391   2.331   0.145   5.357 -1.5244 -0.6364  2.5751
 4919SOL     OW26392   0.779   0.681  13.209  0.4093 -0.1184  0.4119
 4919SOL    HW126393   0.685   0.695  13.208  0.8805  3.3166  1.1989
 4919SOL    HW226394   0.783   0.586  13.197  2.1759  0.1690 -1.2537
 4920SOL     OW26395   3.650   2.554   3.467 -0.2331 -0.3052  0.5966
 4920SOL    HW126396   3.608   2.623   3.416  0.7224  0.6852  1.1405
 4920SOL    HW226397   3.579   2.489   3.471 -1.3245  0.8781  0.5822
 4921SOL     OW26398   4.048   3.625   3.305 -0.0175 -0.2228  0.4658
 4921SOL    HW126399   4.126   3.572   3.322  1.2511  1.2801 -0.5798
 4921SOL    HW226400   4.033   3.617   3.210 -1.9940 -0.5987  0.8114
 4922SOL     OW26401   4.222   2.840  15.994  0.0647 -0.0578 -0.0453
 4922SOL    HW126402   4.199   2.919  15.945 -1.7373 -0.7055 -0.2676
 4922SOL    HW226403   4.317   2.845  15.993  0.0191  0.5744 -1.2697
 4923SOL     OW26404   3.370   1.522   3.020 -0.6888  0.1018 -0.4750
 4923SOL    HW126405   3.279   1.548   3.035 -0.9464 -0.9646 -0.2096
 4923SOL    HW226406   3.377   1.444   3.074 -0.2952 -0.6860 -1.6501
 4924SOL     OW26407   2.936   0.609   4.485 -0.0939  0.0524  0.0524
 4924SOL    HW126408   2.885   0.585   4.562 -1.8361  0.3618 -1.0200
 4924SOL    HW226409   2.869   0.589   4.419 -0.4106  0.3752  0.2762
 4925SOL     OW26410   0.025   0.468  11.942 -0.6739 -0.0052 -0.1674
 4925SOL    HW126411   0.009   0.548  11.892 -0.5838  0.9194  1.2832
 4925SOL    HW226412   0.114   0.487  11.974 -0.6882  2.5383 -1.6080
 4926SOL     OW26413   2.383   3.726   2.869  0.2718 -0.2452  0.0357
 4926SOL    HW126414   2.385   3.750   2.776 -1.0139 -2.2441 -0.5086
 4926SOL    HW226415   2.315   3.785   2.901  0.0569 -0.8139  0.6066
 4927SOL     OW26416   4.288   1.953   3.998  0.5895  0.2252 -0.1623
 4927SOL    HW126417   4.217   1.896   3.968  0.7509  0.1681 -0.4368
 4927SOL    HW226418   4.275   1.957   4.093 -0.0832  0.5103 -0.2700
 4928SOL     OW26419   4.210   0.443   8.600  0.6785  0.5469 -0.0365
 4928SOL    HW126420   4.205   0.539   8.605  0.5011  0.5472 -0.1896
 4928SOL    HW226421   4.281   0.435   8.536  0.6681  0.2590 -0.0111
 4929SOL     OW26422   1.494   2.500  13.884  0.3755 -0.8627  0.1298
 4929SOL    HW126423   1.463   2.453  13.961 -0.3461  0.2620  0.5188
 4929SOL    HW226424   1.559   2.435  13.855  1.9379  0.2171  1.2437
 4930SOL     OW26425   1.554   0.684   9.800  0.1774  0.1549  0.3217
 4930SOL    HW126426   1.497   0.761   9.800 -1.0585 -0.7500  2.0821
 4930SOL    HW226427   1.638   0.721   9.773 -0.0141 -0.4278 -1.0842
 4931SOL     OW26428   4.329   1.848   7.187 -0.7112 -0.2048 -0.2149
 4931SOL    HW126429   4.275   1.826   7.111  1.9197 -1.5499 -1.6911
 4931SOL    HW226430   4.268   1.856   7.260 -0.8987  0.1063 -0.4073
 4932SOL     OW26431   0.716   4.024   4.373 -0.0611 -0.5507  0.0959
 4932SOL    HW126432   0.791   4.083   4.368 -1.2692  0.8213 -2.4157
 4932SOL    HW226433   0.746   3.949   4.423 -0.8330 -0.6810  0.3591
 4933SOL     OW26434   4.047   3.640   8.993 -0.5227  0.2772  0.5102
 4933SOL    HW126435   3.961   3.637   8.951  0.2592 -0.8126 -1.0409
 4933SOL    HW226436   4.071   3.548   8.987  0.0945  0.4472  0.2597
 4934SOL     OW26437   2.770   0.394   5.866  0.0608  0.4076 -0.4174
 4934SOL    HW126438   2.770   0.479   5.822  1.9712  0.8076  0.3670
 4934SOL    HW226439   2.730   0.414   5.951  0.3500 -3.1530  0.5699
 4935SOL     OW26440   4.323   1.936   0.731 -0.0456 -0.1317 -0.4264
 4935SOL    HW126441   4.382   2.008   0.752  0.8384 -1.1628  0.6319
 4935SOL    HW226442   4.365   1.871   0.788  1.4412  0.4462 -0.8593
 4936SOL     OW26443   0.753   4.071   6.520  0.1202 -0.0588  0.1922
 4936SOL    HW126444   0.671   4.120   6.510 -1.7667 -2.7882  2.1952
 4936SOL    HW226445   0.743   3.995   6.462 -2.1348 -0.6223  1.3246
 4937SOL     OW26446   2.483   2.045   2.796  0.3449 -0.4165 -0.6680
 4937SOL    HW126447   2.419   2.106   2.833  0.0307 -0.8893 -0.4396
 4937SOL    HW226448   2.442   1.963   2.821 -0.6834  0.1472 -0.4980
 4938SOL     OW26449   3.028   1.734   7.898  1.0980  0.5012 -0.1526
 4938SOL    HW126450   3.045   1.828   7.886  1.7352  0.4653  0.5024
 4938SOL    HW226451   2.997   1.730   7.988  1.7587  1.6791  0.1347
 4939SOL     OW26452   1.687   3.214   6.512 -0.3996 -0.0186 -0.0798
 4939SOL    HW126453   1.781   3.220   6.526 -0.6761  0.4203  1.5519
 4939SOL    HW226454   1.684   3.180   6.423  0.5807  0.0270 -0.1272
 4940SOL     OW26455   1.879   2.676  12.326 -0.1175 -0.4794 -0.2306
 4940SOL    HW126456   1.918   2.762  12.346  2.5458 -1.3355 -1.7711
 4940SOL    HW226457   1.827   2.670  12.406  0.2508  1.6694  0.1852
 4941SOL     OW26458   4.736   3.419   1.808  0.0735  0.5815 -1.0736
 4941SOL    HW126459   4.697   3.372   1.734 -0.5900  0.9378 -0.9464
 4941SOL    HW226460   0.062   3.356   1.844 -0.4287  0.8347  0.2269
 4942SOL     OW26461   1.283   2.701   6.918  0.0917 -0.1708  0.2891
 4942SOL    HW126462   1.312   2.653   6.840  2.4315 -1.2424  1.8319
 4942SOL    HW226463   1.359   2.683   6.973  0.7845 -2.5270 -1.4293
 4943SOL     OW26464   2.884   3.980   9.956 -0.6701  0.0212  0.5595
 4943SOL    HW126465   2.860   3.904   9.904 -0.6080  1.0037 -0.9228
 4943SOL    HW226466   2.845   4.056   9.911 -0.0835  1.3819  2.3626
 4944SOL     OW26467   1.530   1.108   0.640 -0.2343 -0.0455 -0.1149
 4944SOL    HW126468   1.497   1.110   0.550  0.9845  0.7072 -0.5386
 4944SOL    HW226469   1.494   1.025   0.672 -0.0366  0.0312  0.3032
 4945SOL     OW26470   3.550   1.494  16.292  0.7705  0.1200 -0.1072
 4945SOL    HW126471   3.592   1.580  16.298  0.8228  0.3327 -3.4731
 4945SOL    HW226472   3.608   1.426  16.325  0.1351  0.4315  1.6557
 4946SOL     OW26473   3.223   1.737  10.258  0.1129 -0.0327  0.1475
 4946SOL    HW126474   3.170   1.687  10.195  2.3259 -2.4824  0.2117
 4946SOL    HW226475   3.197   1.827  10.240 -0.9231 -0.4661 -0.5773
 4947SOL     OW26476   3.898   1.712   4.162  0.0386 -0.1747  0.2657
 4947SOL    HW126477   3.961   1.721   4.234 -2.4099  1.6494  2.1902
 4947SOL    HW226478   3.957   1.747   4.096 -0.7327  0.3798 -0.1316
 4948SOL     OW26479   2.420   4.234   1.961  0.0641 -0.4800  0.1332
 4948SOL    HW126480   2.478   4.293   1.913 -0.2883  0.7026  1.1543
 4948SOL    HW226481   2.474   4.202   2.033  0.7725  1.9599  0.6912
 4949SOL     OW26482   2.656   2.442  12.643 -0.0263 -0.2744 -0.6202
 4949SOL    HW126483   2.600   2.367  12.661 -0.3217  0.1389  0.1870
 4949SOL    HW226484   2.640   2.464  12.551 -2.3101  2.5771  0.4838
 4950SOL     OW26485   3.042   0.723   1.623 -0.3758 -0.1114 -0.3025
 4950SOL    HW126486   3.133   0.712   1.649 -1.2044  0.4031  2.8431
 4950SOL    HW226487   3.042   0.664   1.547  0.4382  1.6257 -1.6525
 4951SOL     OW26488   4.463   2.495   9.241 -0.2492 -0.3548  0.6589
 4951SOL    HW126489   4.390   2.516   9.299  0.7449 -1.3270  2.2883
 4951SOL    HW226490   4.508   2.437   9.302  0.2292  0.2770  0.9141
 4952SOL     OW26491   0.108   1.532  16.986  0.3747  0.3326  0.5440
 4952SOL    HW126492   0.037   1.469  16.979  0.0711  0.6877  0.4263
 4952SOL    HW226493   0.059   1.611  16.962  0.4910  0.1402 -0.3060
 4953SOL     OW26494   4.538   3.438  16.117 -0.6078 -0.6776 -0.4730
 4953SOL    HW126495   4.589   3.357  16.109  2.2525  0.7335  3.3640
 4953SOL    HW226496   4.535   3.459  16.023  1.3551 -2.0425 -0.8399
 4954SOL     OW26497   3.983   3.360  13.019  0.1874 -0.4980  0.3877
 4954SOL    HW126498   3.954   3.291  12.959  2.1465  0.5333 -1.7627
 4954SOL    HW226499   4.076   3.345  13.036  0.0794 -0.0217  1.3999
 4955SOL     OW26500   2.023   2.254  12.917 -0.3676 -0.3043 -0.8012
 4955SOL    HW126501   1.999   2.179  12.864 -0.1788 -0.0577 -1.2370
 4955SOL    HW226502   2.112   2.270  12.885  0.3923 -2.0947  0.3906
 4956SOL     OW26503   1.299   3.123   6.100 -0.1717  0.2391  0.0505
 4956SOL    HW126504   1.228   3.113   6.036  0.0455 -1.2707  0.0439
 4956SOL    HW226505   1.275   3.053   6.161 -1.5448  1.1303  0.5225
 4957SOL     OW26506   3.444   1.238  17.740 -0.2985 -0.3068  0.1939
 4957SOL    HW126507   3.513   1.264   0.056  0.4580  1.1254 -1.2366
 4957SOL    HW226508   3.410   1.325  17.716 -0.1929 -1.0708 -2.7605
 4958SOL     OW26509   3.764   0.208   2.889  0.4184  0.2075  0.2956
 4958SOL    HW126510   3.826   0.135   2.897 -1.9893 -1.7330  1.3230
 4958SOL    HW226511   3.680   0.163   2.892 -0.1610  1.2389 -0.5610
 4959SOL     OW26512   3.148   0.629   7.525 -0.0391  1.0712  0.8426
 4959SOL    HW126513   3.168   0.569   7.597 -0.4660 -1.9394 -1.5578
 4959SOL    HW226514   3.128   0.716   7.559  0.8933  1.9391 -0.8055
 4960SOL     OW26515   2.585   3.140   8.284 -0.2317  0.3658  0.0370
 4960SOL    HW126516   2.528   3.215   8.266 -0.2811  0.6792  1.4261
 4960SOL    HW226517   2.520   3.079   8.318 -3.7284  3.9886 -0.1252
 4961SOL     OW26518   1.751   0.723   1.552 -0.1621 -0.4542 -0.0101
 4961SOL    HW126519   1.821   0.767   1.503 -2.2332  2.1680 -0.5685
 4961SOL    HW226520   1.682   0.724   1.485 -1.0458 -1.2652  0.9001
 4962SOL     OW26521   2.569   1.550   2.776 -0.0335  0.0949  0.4386
 4962SOL    HW126522   2.540   1.515   2.692 -0.8313 -1.8758  1.5374
 4962SOL    HW226523   2.646   1.599   2.747 -0.9538  1.6559  0.6331
 4963SOL     OW26524   1.807   1.587  10.901 -0.3461  0.2731  0.0308
 4963SOL    HW126525   1.894   1.625  10.886 -0.4827  0.7868  0.5896
 4963SOL    HW226526   1.817   1.562  10.992 -0.9901 -1.0408 -0.2519
 4964SOL     OW26527   4.676   0.133   9.569  0.0592 -0.0418  0.4033
 4964SOL    HW126528   0.012   0.113   9.628 -0.0587  1.3047  1.0113
 4964SOL    HW226529   4.670   0.228   9.566  0.0010  0.0059  2.0467
 4965SOL     OW26530   3.630   1.526   5.299  0.0117 -0.2932 -0.1962
 4965SOL    HW126531   3.640   1.472   5.377  0.4767 -1.5693 -1.1411
 4965SOL    HW226532   3.714   1.537   5.254 -0.3645 -0.6829 -1.0050
 4966SOL     OW26533   2.639   0.998   7.764  0.5500  0.0199 -0.2048
 4966SOL    HW126534   2.675   1.056   7.697 -0.5214  0.5508 -0.3377
 4966SOL    HW226535   2.545   0.998   7.743  0.6262 -0.0244 -0.5447
 4967SOL     OW26536   3.933   2.389   9.659 -0.0535 -0.1036  0.2536
 4967SOL    HW126537   3.895   2.397   9.747  0.0960  0.8440  0.2342
 4967SOL    HW226538   4.027   2.403   9.673  0.0539 -1.4433  0.8765
 4968SOL     OW26539   1.464   3.541   7.727 -0.2369 -0.4724  0.3133
 4968SOL    HW126540   1.435   3.488   7.801  0.1307 -1.5544 -0.3131
 4968SOL    HW226541   1.421   3.624   7.744  1.0573  0.3177 -0.2495
 4969SOL     OW26542   0.421   4.638   4.958  0.6577  0.0028 -0.2144
 4969SOL    HW126543   0.516   4.630   4.964  1.0135  2.4197 -2.6022
 4969SOL    HW226544   0.406   4.569   4.893  2.9078 -1.3883  0.7742
 4970SOL     OW26545   3.291   2.734   1.461  0.5954 -0.1799  0.5311
 4970SOL    HW126546   3.273   2.828   1.455 -3.7052 -0.9248  1.6051
 4970SOL    HW226547   3.387   2.729   1.457  0.5454 -0.7425  0.0686
 4971SOL     OW26548   2.667   1.318   2.247 -0.8874 -0.9990  0.3024
 4971SOL    HW126549   2.748   1.355   2.281 -2.3812  1.1615  1.4386
 4971SOL    HW226550   2.662   1.234   2.293 -0.2485 -1.0594  0.2652
 4972SOL     OW26551   0.116   2.230   2.774  0.1366  0.1276  0.3595
 4972SOL    HW126552   0.154   2.188   2.697  0.1150  1.7630 -0.5489
 4972SOL    HW226553   0.029   2.190   2.770  0.3787 -0.3383 -0.2838
 4973SOL     OW26554   2.202   0.853  15.481 -0.3103 -0.0942 -0.0861
 4973SOL    HW126555   2.138   0.877  15.415  0.1369  1.1522 -0.0676
 4973SOL    HW226556   2.160   0.769  15.498  1.7403 -1.7079 -3.0293
 4974SOL     OW26557   4.393   0.466  10.974  0.4409  0.2275  0.5937
 4974SOL    HW126558   4.429   0.407  11.040 -0.8646  1.8188  2.7717
 4974SOL    HW226559   4.411   0.415  10.896 -4.3248  0.8428 -0.8785
 4975SOL     OW26560   1.355   0.310   6.015  0.0765 -0.5444 -0.5285
 4975SOL    HW126561   1.339   0.261   5.935 -1.7237  1.0060 -1.1327
 4975SOL    HW226562   1.450   0.298   6.010  0.4748  1.7198  1.4015
 4976SOL     OW26563   2.783   4.538   0.864 -0.5996  0.6686  0.1399
 4976SOL    HW126564   2.862   4.590   0.871  0.0004 -0.0749 -1.2006
 4976SOL    HW226565   2.766   4.526   0.958 -0.9689 -2.7197 -0.3448
 4977SOL     OW26566   2.287   3.614   5.033  0.0792 -0.1253  0.1855
 4977SOL    HW126567   2.272   3.708   5.043 -1.0459 -0.2270 -0.4912
 4977SOL    HW226568   2.378   3.614   5.004  0.6643  0.8922  2.0729
 4978SOL     OW26569   1.397   0.537   9.508  0.7030 -0.7408 -0.5154
 4978SOL    HW126570   1.358   0.559   9.423  0.0838  0.3890  0.0666
 4978SOL    HW226571   1.439   0.619   9.535 -0.7311 -0.0076 -0.5192
 4979SOL     OW26572   0.121   4.196   4.920 -0.0575 -0.2018 -0.0950
 4979SOL    HW126573   0.147   4.283   4.890  1.1641 -1.2509 -2.1352
 4979SOL    HW226574   0.201   4.146   4.935  0.3417  1.4922  3.3324
 4980SOL     OW26575   2.830   3.051  14.424  0.3929 -0.4812  0.0047
 4980SOL    HW126576   2.841   2.966  14.466  0.2205 -1.0237 -1.0434
 4980SOL    HW226577   2.924   3.059  14.409  0.6013 -1.2656  0.9484
 4981SOL     OW26578   0.093   0.182   1.891  1.1484 -0.3678  0.9204
 4981SOL    HW126579   0.132   0.269   1.883 -0.2815  0.1599 -0.2792
 4981SOL    HW226580   0.006   0.193   1.853  1.4260 -1.5391 -0.0647
 4982SOL     OW26581   2.468   1.453  15.763 -0.0953 -0.0378 -0.4946
 4982SOL    HW126582   2.504   1.404  15.836  0.0624 -1.3763 -1.4587
 4982SOL    HW226583   2.543   1.496  15.721 -0.9340 -0.7582 -2.7270
 4983SOL     OW26584   4.731   2.785  10.575 -0.2048  0.1978  0.3725
 4983SOL    HW126585   4.678   2.791  10.655 -0.4085  2.0522  0.1148
 4983SOL    HW226586   0.052   2.711  10.590  0.3151  0.5064 -0.1290
 4984SOL     OW26587   4.344   3.380   3.839 -0.2174 -0.1111 -0.3893
 4984SOL    HW126588   4.407   3.315   3.809 -1.8263 -2.2845  0.9400
 4984SOL    HW226589   4.330   3.351   3.929 -3.7321 -0.4593 -1.0443
 4985SOL     OW26590   4.256   1.219   5.952 -0.5073 -0.4601  0.2246
 4985SOL    HW126591   4.274   1.310   5.978  0.4479 -1.0443  1.5832
 4985SOL    HW226592   4.163   1.207   5.973 -0.2972 -0.5862  1.0925
 4986SOL     OW26593   1.201   2.241   7.931 -0.3211 -0.9773  0.3602
 4986SOL    HW126594   1.148   2.311   7.893 -2.4619 -3.6218 -1.5312
 4986SOL    HW226595   1.272   2.227   7.868 -1.6428 -2.3063 -0.8114
 4987SOL     OW26596   1.513   1.278   3.591 -0.4966 -0.3443  0.2922
 4987SOL    HW126597   1.558   1.313   3.514 -2.7416  1.9161 -0.0121
 4987SOL    HW226598   1.422   1.304   3.577 -0.3767 -1.8229 -3.2476
 4988SOL     OW26599   0.167   2.080   9.152  0.1780 -0.0975  0.6219
 4988SOL    HW126600   0.130   2.042   9.071  0.7057 -0.9839  0.7960
 4988SOL    HW226601   0.097   2.146   9.158 -2.6159 -2.7534 -2.1615
 4989SOL     OW26602   3.733   2.741   2.758  0.1603  0.4210  0.3873
 4989SOL    HW126603   3.702   2.651   2.766 -1.1467  1.0016  1.9091
 4989SOL    HW226604   3.804   2.717   2.699  0.1874 -1.3299  1.1351
 4990SOL     OW26605   1.467   2.125   3.910 -0.5066  0.1042  0.0582
 4990SOL    HW126606   1.379   2.099   3.934 -0.0776 -0.4743  1.0200
 4990SOL    HW226607   1.516   2.045   3.888  1.0036  0.8402  0.7525
 4991SOL     OW26608   2.175   1.516   1.102 -0.4503 -0.6407  0.1461
 4991SOL    HW126609   2.109   1.558   1.046 -1.6450 -0.8758  1.3938
 4991SOL    HW226610   2.247   1.579   1.096 -0.5587 -0.4015  1.5812
 4992SOL     OW26611   1.168   4.264   0.584 -0.0922  0.0064 -0.5724
 4992SOL    HW126612   1.212   4.314   0.653 -2.1201 -0.1388  0.8407
 4992SOL    HW226613   1.080   4.303   0.578  1.1087  2.6189 -1.0983
 4993SOL     OW26614   2.501   1.825   4.040 -0.6802 -0.0627 -0.1033
 4993SOL    HW126615   2.594   1.804   4.036 -0.2750  1.5108  0.6505
 4993SOL    HW226616   2.517   1.878   4.119  2.0033 -1.1724  0.1103
 4994SOL     OW26617   0.915   4.201   6.712  1.0329 -0.0322 -0.7476
 4994SOL    HW126618   0.835   4.196   6.765 -0.2384  3.1140 -2.3636
 4994SOL    HW226619   0.907   4.119   6.664  0.1903 -1.1737  1.3267
 4995SOL     OW26620   3.108   2.592   1.628 -0.1364 -0.4063  0.2441
 4995SOL    HW126621   3.177   2.575   1.693  0.2112 -1.1909 -0.3309
 4995SOL    HW226622   3.159   2.639   1.562  0.8855  1.4773  2.3397
 4996SOL     OW26623   4.259   2.230   6.260  0.3822 -0.3202  0.5023
 4996SOL    HW126624   4.312   2.190   6.191  0.6936  1.2348 -0.1631
 4996SOL    HW226625   4.279   2.321   6.237 -0.2942 -0.4443 -0.5825
 4997SOL     OW26626   3.361   0.403   1.172 -1.0178  0.1914 -0.4402
 4997SOL    HW126627   3.383   0.441   1.257 -0.2702 -0.5470 -0.3060
 4997SOL    HW226628   3.289   0.350   1.207 -0.0504 -0.9686 -0.2373
 4998SOL     OW26629   0.908   3.583   8.994 -0.5480  0.2107  0.1046
 4998SOL    HW126630   0.845   3.651   9.015  0.0122  0.6808  0.2622
 4998SOL    HW226631   0.978   3.640   8.963  2.1885 -3.8439 -1.2004
 4999SOL     OW26632   0.515   1.676   4.810  0.3394  0.2175  0.2403
 4999SOL    HW126633   0.534   1.750   4.752 -0.0385  0.6765  0.6968
 4999SOL    HW226634   0.436   1.640   4.768  0.1407  3.1251 -1.8944
 5000SOL     OW26635   4.203   0.882   2.187 -0.4457 -0.0344 -0.7683
 5000SOL    HW126636   4.211   0.790   2.161 -1.6747 -0.2426 -0.3835
 5000SOL    HW226637   4.239   0.924   2.109 -1.3189  2.6474  0.2866
 5001SOL     OW26638   4.117   2.878   2.594 -0.4245  0.2340  0.6721
 5001SOL    HW126639   4.140   2.916   2.509 -1.4526  0.8652  0.6687
 5001SOL    HW226640   4.045   2.824   2.561 -1.1122 -0.0061  2.5610
 5002SOL     OW26641   0.095   3.126  16.320  0.1657 -0.5735  0.0282
 5002SOL    HW126642   0.109   3.149  16.412 -0.1891 -0.7051  0.1117
 5002SOL    HW226643   0.178   3.161  16.287  0.5803  2.1526  4.0556
 5003SOL     OW26644   3.565   4.325   7.120 -0.4604 -0.0093  1.4051
 5003SOL    HW126645   3.626   4.329   7.046 -0.4944 -2.7263  1.2459
 5003SOL    HW226646   3.487   4.346   7.069 -1.1436  0.7853  2.7864
 5004SOL     OW26647   0.548   3.068  16.700 -0.3612  0.1609  0.4122
 5004SOL    HW126648   0.554   2.992  16.641  0.3840  0.2323  0.3875
 5004SOL    HW226649   0.641   3.076  16.722 -0.3184 -0.9922  0.6784
 5005SOL     OW26650   4.643   1.502   2.172 -0.1390  0.1981 -0.7368
 5005SOL    HW126651   4.655   1.592   2.202  1.5927 -0.2286 -0.1951
 5005SOL    HW226652   4.654   1.449   2.251  2.2923  0.3406 -0.9917
 5006SOL     OW26653   4.147   2.471   2.802 -0.0417 -1.0649  0.3117
 5006SOL    HW126654   4.162   2.563   2.825 -0.6274 -1.3714  1.8935
 5006SOL    HW226655   4.100   2.478   2.719 -1.9058 -1.2911  1.3425
 5007SOL     OW26656   1.598   3.103   0.715  0.2130  0.3859  0.0782
 5007SOL    HW126657   1.534   3.171   0.737  0.6730  0.2484  1.8375
 5007SOL    HW226658   1.631   3.092   0.805  0.9148 -0.2959 -0.2615
 5008SOL     OW26659   1.299   4.302   5.687  0.0189  0.5895 -0.6853
 5008SOL    HW126660   1.392   4.316   5.703  0.1339  0.4791 -1.2557
 5008SOL    HW226661   1.296   4.207   5.681 -1.1340  0.5617  0.2880
 5009SOL     OW26662   0.631   4.688   0.987  0.3693 -0.6143  0.2321
 5009SOL    HW126663   0.538   4.710   0.987  0.0536 -1.9460  1.9132
 5009SOL    HW226664   0.661   4.692   1.078  0.2126  0.2886  0.2443
 5010SOL     OW26665   2.407   3.409   8.219 -0.4088 -0.3506 -0.0911
 5010SOL    HW126666   2.335   3.418   8.157  1.0589  0.3234 -1.6974
 5010SOL    HW226667   2.350   3.431   8.292  0.0985  0.4361  0.0742
 5011SOL     OW26668   4.156   2.373   4.038  0.4671  0.0380 -0.1192
 5011SOL    HW126669   4.174   2.313   3.965 -1.0124  0.7818 -1.0827
 5011SOL    HW226670   4.164   2.307   4.106  2.7755 -0.7963 -1.1938
 5012SOL     OW26671   4.174   2.384   8.762 -0.0215 -0.4785  0.0456
 5012SOL    HW126672   4.097   2.327   8.765 -0.1743 -0.3169 -0.6394
 5012SOL    HW226673   4.205   2.368   8.851 -0.3318  1.0409  0.4279
 5013SOL     OW26674   4.371   2.243   4.192 -0.1359  0.0588  0.3268
 5013SOL    HW126675   4.466   2.240   4.191 -0.2349 -2.5732 -1.8598
 5013SOL    HW226676   4.347   2.289   4.272 -1.3739  1.3468 -0.7596
 5014SOL     OW26677   3.855   4.271   7.549 -0.0338 -0.1332  0.4979
 5014SOL    HW126678   3.765   4.270   7.517 -0.4771 -0.8607  1.7641
 5014SOL    HW226679   3.871   4.341   7.487  3.2786 -1.2454  0.0740
 5015SOL     OW26680   2.235   1.294   1.253 -0.2863 -0.0987  0.4404
 5015SOL    HW126681   2.328   1.293   1.277  0.2903 -0.8128 -1.7750
 5015SOL    HW226682   2.231   1.359   1.183  2.1048 -0.6874 -0.2594
 5016SOL     OW26683   3.299   4.455   3.784  0.3197 -0.1577 -0.0187
 5016SOL    HW126684   3.226   4.438   3.843 -0.0675 -0.3070 -0.5369
 5016SOL    HW226685   3.370   4.429   3.842  1.0669  0.2424 -0.7487
 5017SOL     OW26686   4.154   0.440   3.153  0.3210  0.1014  0.2183
 5017SOL    HW126687   4.212   0.511   3.181 -0.5466  0.7527  0.3838
 5017SOL    HW226688   4.153   0.389   3.234  2.1394 -0.6295 -0.2275
 5018SOL     OW26689   1.898   4.574   7.828  0.0414 -0.4309 -0.4071
 5018SOL    HW126690   1.895   4.631   7.751 -0.4352  0.4364  0.2659
 5018SOL    HW226691   1.827   4.622   7.870  0.6817 -1.7475  2.1636
 5019SOL     OW26692   1.225   1.952   3.504  0.1746 -0.1169  0.0817
 5019SOL    HW126693   1.169   2.011   3.452  0.8511 -0.5238 -1.1161
 5019SOL    HW226694   1.218   1.870   3.454 -0.7589  0.1281 -0.2068
 5020SOL     OW26695   0.481   2.130   8.713  0.4042 -0.0291  0.1999
 5020SOL    HW126696   0.464   2.117   8.806 -2.0702 -0.5885 -0.3321
 5020SOL    HW226697   0.493   2.040   8.682 -1.4137 -0.0588 -0.4414
 5021SOL     OW26698   3.961   2.259   9.068  0.7218  0.1209  0.3815
 5021SOL    HW126699   3.898   2.327   9.044 -2.1442 -1.6062  2.9859
 5021SOL    HW226700   4.031   2.304   9.115  0.1052  1.3600  0.1137
 5022SOL     OW26701   2.191   3.449   4.634  0.2275  0.7057 -0.0629
 5022SOL    HW126702   2.168   3.377   4.575 -1.3494  1.7701 -0.7342
 5022SOL    HW226703   2.161   3.519   4.577 -0.4999 -0.9885 -1.7684
 5023SOL     OW26704   0.254   1.034  11.137  0.2164  0.2806  0.1421
 5023SOL    HW126705   0.327   0.974  11.119  1.2703  1.0413  1.8885
 5023SOL    HW226706   0.262   1.094  11.063 -2.8519  0.1747 -0.2764
 5024SOL     OW26707   1.566   3.176   8.950 -0.0419 -0.1105  0.2523
 5024SOL    HW126708   1.506   3.106   8.926  1.0706 -0.6037 -1.1169
 5024SOL    HW226709   1.637   3.130   8.995 -0.0306 -0.9253 -0.5967
 5025SOL     OW26710   3.693   1.615   2.711  0.2273  0.3488 -0.4434
 5025SOL    HW126711   3.768   1.618   2.770 -0.5697 -0.5102  0.6065
 5025SOL    HW226712   3.621   1.610   2.774  1.4632 -0.6082  0.8745
 5026SOL     OW26713   3.405   2.831  13.343 -0.1421 -0.2775 -0.6579
 5026SOL    HW126714   3.432   2.912  13.300  0.2312  0.9017  1.7948
 5026SOL    HW226715   3.457   2.765  13.297  2.7489 -0.2041  2.4896
 5027SOL     OW26716   0.538   4.079   9.916 -0.0416  0.4774  0.3738
 5027SOL    HW126717   0.548   4.117   9.828  2.5798 -0.3690  0.2823
 5027SOL    HW226718   0.626   4.054   9.946 -0.5018 -1.9133 -0.2559
 5028SOL     OW26719   0.688   0.850   7.341  0.1872  0.8740 -0.3790
 5028SOL    HW126720   0.647   0.858   7.255  0.7989 -0.2852 -0.7747
 5028SOL    HW226721   0.674   0.756   7.352  0.9520  0.7722 -0.3054
 5029SOL     OW26722   1.377   1.976   6.495  0.2767  0.1994 -0.5406
 5029SOL    HW126723   1.414   1.943   6.577 -1.1869 -1.1106 -0.4202
 5029SOL    HW226724   1.344   1.895   6.457 -1.4793  1.0100 -0.7115
 5030SOL     OW26725   2.643   3.946   6.386 -0.1506  0.5318  0.5307
 5030SOL    HW126726   2.562   3.994   6.369 -1.0007 -1.0151  0.2130
 5030SOL    HW226727   2.639   3.926   6.479 -0.8330  0.6401  0.5208
 5031SOL     OW26728   0.594   0.654   2.944 -0.1946 -0.2585 -0.3023
 5031SOL    HW126729   0.552   0.582   2.897 -1.1004  1.2482 -1.7784
 5031SOL    HW226730   0.682   0.644   2.908 -0.1669  2.6264 -1.0609
 5032SOL     OW26731   1.762   2.246   5.861 -0.1568 -0.4209 -0.5386
 5032SOL    HW126732   1.707   2.206   5.928 -0.1337 -0.5913 -0.6211
 5032SOL    HW226733   1.753   2.338   5.888  1.0437 -0.5655  0.3871
 5033SOL     OW26734   3.101   3.573   7.078 -0.0036  0.0678 -0.0104
 5033SOL    HW126735   3.130   3.664   7.082  1.5093 -0.4330  0.6577
 5033SOL    HW226736   3.109   3.544   7.168 -0.2135  0.0013 -0.0146
 5034SOL     OW26737   3.064   3.307   0.180  0.4395  0.7455 -0.3267
 5034SOL    HW126738   2.974   3.332   0.201  0.2432 -0.1764 -0.0923
 5034SOL    HW226739   3.101   3.388   0.143  0.7969 -0.8455 -3.4406
 5035SOL     OW26740   2.474   2.769   4.137 -0.2369  0.5581  0.0326
 5035SOL    HW126741   2.391   2.812   4.155 -0.6500 -1.2795  2.4839
 5035SOL    HW226742   2.510   2.832   4.074  2.3047  0.0794  0.9859
 5036SOL     OW26743   1.207   1.019  10.158  0.0123 -0.2209 -0.0137
 5036SOL    HW126744   1.300   1.022  10.136 -0.3165  2.4033 -1.0697
 5036SOL    HW226745   1.178   0.928  10.160  1.4461 -0.6688  0.3135
 5037SOL     OW26746   1.277   0.544   6.307 -0.0404  0.3200 -0.1002
 5037SOL    HW126747   1.211   0.489   6.264  0.9450 -0.6227 -0.4004
 5037SOL    HW226748   1.314   0.584   6.228  0.2167 -0.8953 -0.6009
 5038SOL     OW26749   2.998   0.458   2.153 -0.3413 -0.8008 -0.0711
 5038SOL    HW126750   3.036   0.396   2.215 -2.3063 -1.5112  0.4037
 5038SOL    HW226751   3.001   0.536   2.209 -0.3486 -1.1263  0.3878
 5039SOL     OW26752   2.625   3.434   1.692 -0.1979 -0.1811  0.2833
 5039SOL    HW126753   2.604   3.517   1.735 -0.3976 -0.5410  0.8874
 5039SOL    HW226754   2.551   3.421   1.632 -0.5325  2.2618  0.1757
 5040SOL     OW26755   1.429   4.084   4.765 -0.2970 -0.0999 -0.1765
 5040SOL    HW126756   1.373   4.030   4.821  0.3463 -2.9236 -2.2617
 5040SOL    HW226757   1.513   4.039   4.767  0.9581  2.2600 -0.2862
 5041SOL     OW26758   4.501   1.297  10.441 -0.3210  0.1390 -0.1165
 5041SOL    HW126759   4.463   1.320  10.526 -0.0442 -0.5086  0.1887
 5041SOL    HW226760   4.427   1.268  10.388 -1.0077  1.4460  0.1299
 5042SOL     OW26761   2.009   4.588   2.037 -0.7665  0.2693  0.2594
 5042SOL    HW126762   2.069   4.551   2.103 -0.5118 -0.3428 -0.3214
 5042SOL    HW226763   1.938   4.525   2.050  1.0769 -1.7847  0.4230
 5043SOL     OW26764   4.446   2.489   4.855  0.1502  0.0497  0.1382
 5043SOL    HW126765   4.472   2.581   4.853  1.5888 -0.3706 -0.9235
 5043SOL    HW226766   4.471   2.451   4.939 -2.9681  2.2602  2.0793
 5044SOL     OW26767   2.016   0.731  11.321 -0.6125 -0.1705  0.1502
 5044SOL    HW126768   1.925   0.756  11.338 -0.1416  1.8007 -0.2539
 5044SOL    HW226769   2.032   0.723  11.227  0.5376  0.7259  0.2793
 5045SOL     OW26770   4.388   4.426   3.642 -0.3524  0.2750 -0.5276
 5045SOL    HW126771   4.420   4.456   3.728 -1.4271 -2.3610  0.7981
 5045SOL    HW226772   4.297   4.453   3.637 -0.4564  0.5343  2.6489
 5046SOL     OW26773   4.172   1.993   8.117 -0.0431 -0.4060  0.1848
 5046SOL    HW126774   4.127   2.006   8.200  0.5247  0.7608  0.3096
 5046SOL    HW226775   4.257   1.964   8.151  1.2296  1.4063 -1.4721
 5047SOL     OW26776   4.667   3.779   3.253  0.3057  0.6193  0.2084
 5047SOL    HW126777   4.582   3.809   3.223  0.5928  1.6598  0.4351
 5047SOL    HW226778   4.676   3.832   3.332 -0.7658  1.4699 -0.2446
 5048SOL     OW26779   3.782   3.396   3.271  0.3445 -0.1618 -0.3321
 5048SOL    HW126780   3.846   3.325   3.261  0.4002 -0.0808 -0.5638
 5048SOL    HW226781   3.712   3.373   3.210 -0.3851  2.7495 -0.5668
 5049SOL     OW26782   0.719   1.588   6.393  0.0170 -0.5627 -0.0965
 5049SOL    HW126783   0.814   1.599   6.397 -0.0140 -1.4110  2.5218
 5049SOL    HW226784   0.690   1.680   6.389  2.4247  0.1365 -1.3030
 5050SOL     OW26785   1.880   0.795  15.758 -0.3831  0.3392  0.2896
 5050SOL    HW126786   1.807   0.778  15.817 -0.8492  4.5230  0.8731
 5050SOL    HW226787   1.849   0.864  15.700  0.5923  0.5845  0.0583
 5051SOL     OW26788   1.902   0.773   4.691 -0.2053 -0.0151 -0.1534
 5051SOL    HW126789   1.962   0.845   4.671 -1.4054  1.1218  0.3882
 5051SOL    HW226790   1.879   0.757   4.600 -2.3104  1.0723  0.2027
 5052SOL     OW26791   1.015   4.162   8.948  0.0826  0.4349  0.3418
 5052SOL    HW126792   1.063   4.210   8.880 -0.4244 -1.6856 -1.4885
 5052SOL    HW226793   1.052   4.196   9.030 -1.0773  1.3698  0.4806
 5053SOL     OW26794   0.153   4.245  13.823 -0.3342 -0.2695 -0.3483
 5053SOL    HW126795   0.094   4.317  13.847  1.1700  0.7661  0.2974
 5053SOL    HW226796   0.202   4.236  13.905  0.7450  0.1096 -0.9509
 5054SOL     OW26797   4.162   4.383   0.012  0.3553  0.0362 -0.5241
 5054SOL    HW126798   4.080   4.412  17.718  0.5045  1.8636  0.4848
 5054SOL    HW226799   4.160   4.295  17.722  0.0452 -0.0286 -0.3396
 5055SOL     OW26800   2.351   3.655   8.059  0.7899 -0.2216 -0.0213
 5055SOL    HW126801   2.442   3.681   8.070  0.7007  0.5378 -1.1733
 5055SOL    HW226802   2.357   3.639   7.965  0.7858 -1.1812  0.1413
 5056SOL     OW26803   1.613   0.450  12.700 -0.0928 -0.3354  0.6211
 5056SOL    HW126804   1.700   0.457  12.660 -0.3574  1.7912  0.3831
 5056SOL    HW226805   1.569   0.530  12.669  0.6877 -0.5203 -0.9730
 5057SOL     OW26806   3.995   3.330   3.907 -0.4694  0.5798 -0.3229
 5057SOL    HW126807   4.030   3.309   3.821 -0.8492  0.6364 -0.4910
 5057SOL    HW226808   4.062   3.288   3.961 -2.4298  0.8061  2.2817
 5058SOL     OW26809   2.671   2.402   3.040 -0.4518 -0.0963  0.0328
 5058SOL    HW126810   2.690   2.313   3.013 -0.3320  0.3455 -1.3372
 5058SOL    HW226811   2.620   2.389   3.120  0.1329  0.3240  0.4786
 5059SOL     OW26812   1.393   4.178   7.679  0.4554 -0.4778  0.2836
 5059SOL    HW126813   1.394   4.273   7.687  0.7242 -0.7049  2.9743
 5059SOL    HW226814   1.454   4.146   7.746  0.0135  0.2705  1.0273
 5060SOL     OW26815   2.568   0.829   9.622  0.1144 -0.1393 -0.2289
 5060SOL    HW126816   2.616   0.912   9.622  0.0786 -0.1014  1.4619
 5060SOL    HW226817   2.641   0.767   9.624  1.8319  1.9069  1.9871
 5061SOL     OW26818   4.119   4.545  16.903 -0.0629 -0.1298 -0.1483
 5061SOL    HW126819   4.074   4.462  16.915  0.2019 -0.0186  1.5604
 5061SOL    HW226820   4.180   4.523  16.833 -1.4746 -2.2938 -0.6965
 5062SOL     OW26821   2.219   2.377   0.623 -0.1874 -0.1334  1.1581
 5062SOL    HW126822   2.275   2.394   0.699 -0.5153  1.0340  1.1362
 5062SOL    HW226823   2.183   2.296   0.658  1.0519 -1.5244 -0.7434
 5063SOL     OW26824   0.132   2.563   9.392  0.3810  0.6458  0.6000
 5063SOL    HW126825   0.170   2.638   9.347 -0.5220  0.6519 -0.1485
 5063SOL    HW226826   0.211   2.527   9.433  1.6469  1.3421 -1.2626
 5064SOL     OW26827   4.683   0.727   2.177  0.3498  0.1480  0.0943
 5064SOL    HW126828   4.703   0.633   2.169 -0.6342  0.0759 -1.5188
 5064SOL    HW226829   4.631   0.711   2.255  3.5718 -1.2378  1.9823
 5065SOL     OW26830   3.652   3.311   3.009 -0.4642 -0.3798 -0.3919
 5065SOL    HW126831   3.605   3.309   2.926  1.2432 -2.8195 -1.3106
 5065SOL    HW226832   3.738   3.350   2.996 -0.5780 -0.1886 -0.5702
 5066SOL     OW26833   0.809   1.708   7.013  0.4741  0.0917  0.5096
 5066SOL    HW126834   0.801   1.769   7.086 -0.0492  0.4611  0.1446
 5066SOL    HW226835   0.843   1.625   7.048  2.0079  1.4783  2.2929
 5067SOL     OW26836   0.317   3.182  13.818  1.0325  0.5900 -0.2838
 5067SOL    HW126837   0.406   3.153  13.796  0.5456 -1.1064 -0.0193
 5067SOL    HW226838   0.301   3.253  13.755 -2.1665 -0.8005 -1.0263
 5068SOL     OW26839   1.315   0.752   2.375  0.1129  0.5158 -0.3112
 5068SOL    HW126840   1.285   0.744   2.465 -0.2019  0.8335 -0.3890
 5068SOL    HW226841   1.293   0.670   2.330  0.1981  0.0854  0.4293
 5069SOL     OW26842   3.356   1.767   8.648  0.6267 -0.2357 -0.6389
 5069SOL    HW126843   3.345   1.674   8.664  1.7799 -0.3676 -0.6196
 5069SOL    HW226844   3.305   1.790   8.570 -1.2984  0.3469  0.7816
 5070SOL     OW26845   3.299   0.546   4.622 -0.2379  0.4476 -0.7326
 5070SOL    HW126846   3.373   0.496   4.587  0.0523  1.2533 -1.2780
 5070SOL    HW226847   3.218   0.496   4.633  0.3314  0.2010  2.4719
 5071SOL     OW26848   0.070   0.059   2.976  0.1429  0.2482  0.1274
 5071SOL    HW126849   0.004   0.074   3.044  0.1437  0.3280  0.1110
 5071SOL    HW226850   0.099   0.145   2.944  0.1561 -0.1481 -0.9165
 5072SOL     OW26851   3.853   4.288   3.034 -0.2416  0.0249 -0.5788
 5072SOL    HW126852   3.812   4.206   3.062 -1.1251  0.9418  0.8183
 5072SOL    HW226853   3.941   4.250   3.045 -0.0696  0.1922 -1.3719
 5073SOL     OW26854   0.003   3.532   1.214  0.0245 -0.1349  0.1479
 5073SOL    HW126855   0.088   3.564   1.246  0.2129  0.4384 -0.9479
 5073SOL    HW226856   0.028   3.439   1.216 -1.9392 -0.6527  0.7083
 5074SOL     OW26857   0.489   0.510   6.515  0.3664  0.3652  0.7563
 5074SOL    HW126858   0.425   0.551   6.457  1.0561 -0.8929 -0.9013
 5074SOL    HW226859   0.495   0.564   6.594  0.8203  1.1934  0.1539
 5075SOL     OW26860   0.413   4.496   1.448  0.1459 -0.1199 -0.6764
 5075SOL    HW126861   0.367   4.444   1.514  1.1913  0.8188  0.7736
 5075SOL    HW226862   0.426   4.574   1.500  0.0235 -0.9519  0.5921
 5076SOL     OW26863   1.122   3.079  16.058  0.4082 -0.6996 -0.5017
 5076SOL    HW126864   1.103   3.134  15.982 -2.0247 -0.8879 -0.0068
 5076SOL    HW226865   1.141   2.999  16.010 -0.8129 -1.5507  0.4452
 5077SOL     OW26866   2.242   0.531   8.608 -0.0450  0.6622  0.2167
 5077SOL    HW126867   2.177   0.551   8.541  0.8001 -1.6918 -1.2982
 5077SOL    HW226868   2.190   0.504   8.684 -1.3592  1.7222 -0.3124
 5078SOL     OW26869   3.394   1.898   5.691 -0.4524  0.0969  0.0037
 5078SOL    HW126870   3.354   1.814   5.712 -0.9032  0.3094 -0.0028
 5078SOL    HW226871   3.352   1.926   5.609  0.3515 -1.4979 -0.9626
 5079SOL     OW26872   2.167   1.105   4.094  0.1982 -0.2196 -0.2764
 5079SOL    HW126873   2.251   1.133   4.056 -0.3538  2.3959  0.4676
 5079SOL    HW226874   2.117   1.177   4.056 -0.0588  0.3528  1.1824
 5080SOL     OW26875   2.967   1.522  16.504  0.0036 -0.4594 -0.0809
 5080SOL    HW126876   2.951   1.493  16.414 -1.7419  0.5699 -0.0954
 5080SOL    HW226877   3.042   1.582  16.505  0.0410 -0.4652 -2.2001
 5081SOL     OW26878   0.060   3.434   4.883  0.9722 -0.1731 -0.2206
 5081SOL    HW126879   0.057   3.391   4.968 -0.2352  0.0932 -0.1207
 5081SOL    HW226880   0.063   3.353   4.833  2.5595 -0.1216 -0.2014
 5082SOL     OW26881   2.371   2.467   7.201 -0.6591 -0.1704 -0.0421
 5082SOL    HW126882   2.405   2.547   7.160 -2.5055  1.4749  1.6334
 5082SOL    HW226883   2.424   2.448   7.278 -0.2126  2.7329  0.3492
 5083SOL     OW26884   4.009   2.104   5.460  0.0059 -0.4893  0.0473
 5083SOL    HW126885   4.017   2.092   5.555  1.5433  1.0791  0.1059
 5083SOL    HW226886   4.033   2.196   5.450  0.3319 -0.6689 -0.8419
 5084SOL     OW26887   2.425   3.692   4.202  0.7778 -0.3324  0.4252
 5084SOL    HW126888   2.388   3.777   4.177 -0.4739 -0.7181  1.0028
 5084SOL    HW226889   2.494   3.721   4.262 -0.0749  0.3266  1.0779
 5085SOL     OW26890   4.075   0.457   5.576 -0.5353  0.1782  0.0986
 5085SOL    HW126891   4.128   0.531   5.607 -0.5197 -0.9030  2.6373
 5085SOL    HW226892   4.145   0.396   5.551  0.5240  0.7287  1.7076
 5086SOL     OW26893   3.725   3.585  14.168  0.2503 -0.1318  0.2973
 5086SOL    HW126894   3.695   3.495  14.152 -0.0091  0.8709 -4.9042
 5086SOL    HW226895   3.649   3.622  14.213 -1.0528 -0.8118 -1.3461
 5087SOL     OW26896   2.665   1.439   6.344 -0.1828  0.7759 -0.2100
 5087SOL    HW126897   2.672   1.449   6.439  0.4120  1.6746 -0.3544
 5087SOL    HW226898   2.630   1.519   6.306 -1.4281  0.1215 -0.4348
 5088SOL     OW26899   3.492   4.663   6.118 -0.0648  0.7752  0.2852
 5088SOL    HW126900   3.464   4.704   6.200 -0.9922 -1.4194  1.0635
 5088SOL    HW226901   3.552   4.728   6.081 -0.6052  1.2593  0.2681
 5089SOL     OW26902   1.665   1.734   7.095  0.9052 -0.6652  0.1650
 5089SOL    HW126903   1.630   1.694   7.016  0.3201 -1.1815  0.6858
 5089SOL    HW226904   1.714   1.659   7.130 -1.8389 -1.2583  2.7521
 5090SOL     OW26905   1.781   1.086   4.749 -0.6191 -0.2645  0.2271
 5090SOL    HW126906   1.723   1.039   4.808 -1.8853  2.0993  0.8619
 5090SOL    HW226907   1.868   1.090   4.787 -0.4426  0.8123 -0.2960
 5091SOL     OW26908   1.097   2.902   8.237 -0.1372  0.1484  0.1633
 5091SOL    HW126909   1.048   2.953   8.302 -0.1579 -0.6941  0.8159
 5091SOL    HW226910   1.185   2.892   8.273 -0.9954 -1.7874  1.7114
 5092SOL     OW26911   4.055   3.164  11.388 -0.7737  0.1209 -0.4729
 5092SOL    HW126912   4.052   3.260  11.380  2.4436  0.2432 -0.0298
 5092SOL    HW226913   4.125   3.148  11.451  0.4559  2.5132 -1.2439
 5093SOL     OW26914   3.217   1.571   2.238 -0.4414  0.5510  1.1625
 5093SOL    HW126915   3.162   1.623   2.297 -1.2292 -0.4363  1.2940
 5093SOL    HW226916   3.194   1.480   2.257  2.7254 -0.0693  2.0703
 5094SOL     OW26917   2.753   3.098   6.405 -0.3859  0.3805  0.3383
 5094SOL    HW126918   2.699   3.098   6.326 -0.8625 -0.4538  0.6590
 5094SOL    HW226919   2.751   3.194   6.402 -0.2670  0.3764  0.1288
 5095SOL     OW26920   4.281   4.723   8.659  0.1970  0.1817 -0.3863
 5095SOL    HW126921   4.206   0.017   8.609  0.5356 -0.0700 -1.0528
 5095SOL    HW226922   4.250   4.734   8.749  0.5930 -2.0982  0.0290
 5096SOL     OW26923   1.685   1.108   9.210 -0.1209 -0.0402  0.4020
 5096SOL    HW126924   1.725   1.061   9.137  0.7571 -0.9392  1.4535
 5096SOL    HW226925   1.752   1.115   9.278 -0.6718  2.0426  0.7246
 5097SOL     OW26926   2.626   3.680   5.257 -0.1882  0.1865  0.0253
 5097SOL    HW126927   2.584   3.727   5.330  0.3157 -0.0637  0.4802
 5097SOL    HW226928   2.549   3.636   5.221 -1.8501  0.5979  3.0328
 5098SOL     OW26929   3.921   1.540   5.247 -0.1702 -0.3059  0.1860
 5098SOL    HW126930   3.985   1.524   5.317 -0.9576 -0.3605  0.8920
 5098SOL    HW226931   3.926   1.631   5.219  1.0713 -0.1680  0.8330
 5099SOL     OW26932   0.604   3.673  13.044  0.1544 -0.0676 -0.5183
 5099SOL    HW126933   0.584   3.764  13.023  1.6390  0.6736  1.2889
 5099SOL    HW226934   0.557   3.632  12.971  0.8193 -0.1163 -0.9150
 5100SOL     OW26935   2.241   2.282   3.464 -0.5665  0.0766  0.0760
 5100SOL    HW126936   2.332   2.269   3.489 -0.6340 -2.1479 -0.8407
 5100SOL    HW226937   2.224   2.201   3.415  0.4813  0.8362 -1.5225
 5101SOL     OW26938   1.200   2.582   0.107  0.2381  0.0934  0.6157
 5101SOL    HW126939   1.266   2.645   0.136  1.0029  0.7582 -2.5047
 5101SOL    HW226940   1.209   2.525   0.184 -1.3078 -1.2929 -0.2320
 5102SOL     OW26941   0.786   3.152  13.880 -0.0457  0.8089 -0.2103
 5102SOL    HW126942   0.767   3.100  13.958 -2.3120  2.7939  0.5245
 5102SOL    HW226943   0.877   3.180  13.890  0.9715 -1.7197 -2.1555
 5103SOL     OW26944   1.830   0.482  12.976 -0.1864  0.2676 -0.6136
 5103SOL    HW126945   1.849   0.504  13.067  1.1235 -1.8065 -0.3835
 5103SOL    HW226946   1.750   0.534  12.981 -0.8140 -0.9504  2.0420
 5104SOL     OW26947   3.856   0.066  10.172 -0.1146  0.2551 -0.8641
 5104SOL    HW126948   3.837   0.017  10.092 -1.9297 -2.8870  1.4558
 5104SOL    HW226949   3.918   0.009  10.218 -1.4470 -0.9629 -0.5818
 5105SOL     OW26950   0.354   3.113   6.209 -0.4017  0.4842  0.6070
 5105SOL    HW126951   0.295   3.173   6.164 -1.1166 -0.2915  0.5080
 5105SOL    HW226952   0.299   3.114   6.287 -2.9865  0.4071 -1.2081
 5106SOL     OW26953   0.911   1.585   5.622  0.1436 -0.5180 -0.2433
 5106SOL    HW126954   0.862   1.543   5.552  1.3391  0.0527 -1.4267
 5106SOL    HW226955   0.988   1.527   5.623 -0.5906 -1.4864 -0.5274
 5107SOL     OW26956   4.486   2.894  10.164 -0.3424 -0.3504  0.1339
 5107SOL    HW126957   4.396   2.865  10.157 -0.8428  1.0678  0.7029
 5107SOL    HW226958   4.518   2.819  10.213 -0.1973 -1.1173 -1.1520
 5108SOL     OW26959   0.049   1.845  16.599 -0.1194  0.0008  0.0422
 5108SOL    HW126960   0.105   1.817  16.672 -1.0387  0.8179  1.0549
 5108SOL    HW226961   0.104   1.897  16.540  0.8213 -0.7855  0.2251
 5109SOL     OW26962   3.256   1.724   8.988  0.2590 -0.3372 -0.1951
 5109SOL    HW126963   3.202   1.676   9.050 -1.3512  1.7363  0.0013
 5109SOL    HW226964   3.241   1.670   8.911 -1.4037  0.7648 -0.6367
 5110SOL     OW26965   3.909   2.765   4.424  0.6604 -0.6209  0.0639
 5110SOL    HW126966   3.934   2.704   4.355  0.8740  1.2003 -1.4605
 5110SOL    HW226967   3.882   2.847   4.384  0.1954 -0.1136  1.3999
 5111SOL     OW26968   3.017   2.602   7.299  0.1411 -0.2761 -0.0040
 5111SOL    HW126969   3.019   2.650   7.216 -1.4397 -1.7720 -0.9177
 5111SOL    HW226970   3.110   2.595   7.317  0.1681  1.4857  0.5541
 5112SOL     OW26971   3.714   4.682   9.803  0.6001 -0.3255  0.1277
 5112SOL    HW126972   3.713   4.610   9.867 -1.0481  2.3377  3.0890
 5112SOL    HW226973   3.734   4.627   9.727 -0.2284 -3.4147  2.1381
 5113SOL     OW26974   2.431   1.834   5.384 -0.2277  0.1315 -0.2899
 5113SOL    HW126975   2.404   1.839   5.476  2.5624  0.9122  0.4918
 5113SOL    HW226976   2.484   1.754   5.380  0.5174  0.4890  2.4260
 5114SOL     OW26977   3.513   0.554  15.890 -0.1073  0.0252 -0.3122
 5114SOL    HW126978   3.464   0.477  15.860  1.4749 -0.6135 -1.2261
 5114SOL    HW226979   3.473   0.621  15.833  0.6960  0.8957  0.1580
 5115SOL     OW26980   3.394   2.573   0.992  0.0047  0.0621  0.0135
 5115SOL    HW126981   3.339   2.600   1.065  0.2091  3.2555 -1.0304
 5115SOL    HW226982   3.330   2.598   0.925 -0.5406 -2.8943 -0.5753
 5116SOL     OW26983   3.324   3.050   5.768 -0.2530 -0.5704  0.1881
 5116SOL    HW126984   3.292   3.139   5.783  0.3320 -0.5735  1.4013
 5116SOL    HW226985   3.268   3.030   5.693 -4.3211  0.6880  2.8874
 5117SOL     OW26986   0.360   1.023   2.827 -0.1566 -0.1993 -0.0439
 5117SOL    HW126987   0.337   1.111   2.798 -0.5665  0.3171  1.8227
 5117SOL    HW226988   0.270   0.993   2.842 -0.2543  1.6213  2.9800
 5118SOL     OW26989   0.916   3.642   5.008  0.5026 -0.0415 -0.5429
 5118SOL    HW126990   0.966   3.655   4.928  0.5285  0.0710 -0.5091
 5118SOL    HW226991   0.882   3.552   5.009 -0.0382  0.1577 -1.7702
 5119SOL     OW26992   0.176   0.410   6.590  0.2331 -0.0782 -0.1058
 5119SOL    HW126993   0.245   0.363   6.636  2.8550  2.4291 -1.4429
 5119SOL    HW226994   0.100   0.364   6.626 -0.4150  2.0915  1.2462
 5120SOL     OW26995   2.830   2.976   8.182 -0.0862 -0.1288  0.0845
 5120SOL    HW126996   2.783   2.893   8.195 -1.6703  0.6179 -0.8603
 5120SOL    HW226997   2.795   3.035   8.249  2.0066 -0.6260  1.6007
 5121SOL     OW26998   3.593   0.049   1.999 -0.0114  0.0800  0.3315
 5121SOL    HW126999   3.662   0.109   1.970 -0.3948  1.5043  2.3060
 5121SOL    HW227000   3.555   0.111   2.063  0.3939  1.6481 -0.9409
 5122SOL     OW27001   1.990   0.115   0.087  0.5160 -0.3574 -0.0724
 5122SOL    HW127002   2.031   0.098   0.002  0.3650  0.0028 -0.2168
 5122SOL    HW227003   1.921   0.174   0.057  0.1516 -1.1337 -0.7661
 5123SOL     OW27004   0.041   2.279  14.841  0.4557  0.0696  0.0810
 5123SOL    HW127005   4.728   2.310  14.765  0.6145  1.7702  0.6610
 5123SOL    HW227006   4.707   2.258  14.902  0.2928 -0.2039 -0.2046
 5124SOL     OW27007   4.376   4.282  11.112 -0.0949 -0.2813 -0.3617
 5124SOL    HW127008   4.328   4.327  11.041  0.6297  0.9537 -0.0592
 5124SOL    HW227009   4.362   4.190  11.086 -1.4840  0.0389 -0.7605
 5125SOL     OW27010   4.254   2.122   2.285 -0.3622  0.2462  0.0095
 5125SOL    HW127011   4.329   2.084   2.330 -1.7557 -1.8795  0.5237
 5125SOL    HW227012   4.273   2.091   2.197  1.6741 -0.3059  0.6357
 5126SOL     OW27013   3.191   2.054   2.541 -0.3622  0.2510  0.2958
 5126SOL    HW127014   3.230   2.134   2.505  0.2736  0.5494  1.6823
 5126SOL    HW227015   3.250   1.994   2.496  1.0852  0.5135  1.8459
 5127SOL     OW27016   4.445   2.644   7.507  0.1315 -0.3226  0.0556
 5127SOL    HW127017   4.506   2.624   7.435  1.2418  2.8471  0.1321
 5127SOL    HW227018   4.480   2.601   7.585  0.2432 -3.8087 -1.9262
 5128SOL     OW27019   0.076   3.252   3.759 -0.0324  0.3290  0.1465
 5128SOL    HW127020   0.163   3.261   3.798 -1.0337  1.3893  2.1078
 5128SOL    HW227021   0.039   3.173   3.797 -0.8214  0.0239 -1.2397
 5129SOL     OW27022   2.795   0.960  15.808 -0.2751 -0.3372 -0.2050
 5129SOL    HW127023   2.711   1.001  15.785  0.2674  0.9667  0.1437
 5129SOL    HW227024   2.827   0.959  15.718 -0.8689  0.8941 -0.4301
 5130SOL     OW27025   0.930   0.423   2.232 -0.1429 -0.1164 -0.1965
 5130SOL    HW127026   0.972   0.432   2.317 -0.8431  1.5059 -0.0167
 5130SOL    HW227027   0.862   0.359   2.250  1.4739 -2.0817 -1.0669
 5131SOL     OW27028   1.798   1.191   1.512  0.3180 -0.0231 -0.0522
 5131SOL    HW127029   1.867   1.209   1.576  0.4685  1.5746 -0.6593
 5131SOL    HW227030   1.761   1.278   1.495 -0.1670 -0.3115 -0.4709
 5132SOL     OW27031   4.704   0.085   7.076  0.1165 -0.4655 -0.1989
 5132SOL    HW127032   0.059   0.075   7.052 -0.1812 -2.4810 -0.5054
 5132SOL    HW227033   4.670   0.146   7.010  0.0949  1.3791  1.5290
 5133SOL     OW27034   4.577   1.642   4.552  0.0917  0.6398 -0.5213
 5133SOL    HW127035   4.604   1.624   4.642  1.3460 -2.4018 -1.4974
 5133SOL    HW227036   4.486   1.665   4.572  0.1217  1.4994 -1.3754
 5134SOL     OW27037   2.852   0.455   1.832  0.1682 -0.2190 -0.2512
 5134SOL    HW127038   2.911   0.391   1.874  0.9326 -0.0603 -1.0853
 5134SOL    HW227039   2.856   0.533   1.887 -2.8116 -0.0781 -0.2710
 5135SOL     OW27040   4.504   1.498   7.037  0.4012  0.5578  0.2676
 5135SOL    HW127041   4.584   1.464   6.998 -1.1473  0.6034 -2.9288
 5135SOL    HW227042   4.529   1.589   7.053  1.5303  0.3578 -0.3953
 5136SOL     OW27043   4.451   2.112   7.097  0.3682  0.3213 -0.2082
 5136SOL    HW127044   4.469   2.170   7.172  1.3944  0.0207 -0.2193
 5136SOL    HW227045   4.428   2.030   7.141  0.7959  0.3529  0.0759
 5137SOL     OW27046   0.925   2.563   1.202  0.1897  0.1118  0.6202
 5137SOL    HW127047   0.855   2.501   1.183 -1.2003  1.7458  0.3939
 5137SOL    HW227048   0.884   2.639   1.160  0.0728 -0.4527 -0.2957
 5138SOL     OW27049   4.616   2.185  16.327  0.0119 -0.3984 -0.5610
 5138SOL    HW127050   4.588   2.107  16.374  2.3179 -1.1481 -0.4402
 5138SOL    HW227051   4.682   2.211  16.391  0.3067  1.1206 -1.4896
 5139SOL     OW27052   4.431   1.319   2.320 -0.9426 -0.3271  0.1544
 5139SOL    HW127053   4.417   1.314   2.415 -1.4143  0.5306  0.1299
 5139SOL    HW227054   4.494   1.247   2.317  1.2049  1.5192  1.0851
 5140SOL     OW27055   1.470   2.043   6.221 -0.0063  0.0033  0.3987
 5140SOL    HW127056   1.431   2.022   6.306  0.7714 -1.3704  0.4158
 5140SOL    HW227057   1.409   2.002   6.160 -1.9850  2.5527  0.6663
 5141SOL     OW27058   2.930   1.260   7.810 -0.3770 -0.5453 -0.2178
 5141SOL    HW127059   2.878   1.210   7.873  1.1220 -1.0724  0.6076
 5141SOL    HW227060   2.886   1.345   7.816 -0.0294 -0.5700  2.9862
 5142SOL     OW27061   1.241   3.599   3.590  0.0402  0.2058  0.1083
 5142SOL    HW127062   1.337   3.591   3.593  0.1662  0.0998 -3.6360
 5142SOL    HW227063   1.228   3.567   3.500  0.8101 -0.5689  0.2679
 5143SOL     OW27064   0.430   3.537   1.085  0.0002 -0.7971  0.3314
 5143SOL    HW127065   0.419   3.597   1.011  1.2769 -2.1097 -0.9281
 5143SOL    HW227066   0.381   3.591   1.147 -1.9250 -1.9111 -0.2265
 5144SOL     OW27067   2.463   1.054   4.549  0.1401  0.4783 -0.4606
 5144SOL    HW127068   2.535   1.118   4.542  0.1307  0.5415  0.0053
 5144SOL    HW227069   2.423   1.062   4.463 -1.1548 -1.3113 -0.0152
 5145SOL     OW27070   0.295   3.865   7.849 -0.0975  0.3414  0.6348
 5145SOL    HW127071   0.276   3.959   7.847  0.4359  0.4947  2.0753
 5145SOL    HW227072   0.315   3.846   7.941 -0.4410 -1.5645  0.3089
 5146SOL     OW27073   1.909   2.841   8.865  0.0793  0.4455  0.7043
 5146SOL    HW127074   1.855   2.877   8.795  0.7966  0.2360  0.0426
 5146SOL    HW227075   1.879   2.888   8.942  0.9342  0.2930  1.1245
 5147SOL     OW27076   4.284   4.419   8.345  0.7564 -0.5238  0.3256
 5147SOL    HW127077   4.290   4.393   8.253 -1.7076  0.0065  0.0160
 5147SOL    HW227078   4.274   4.514   8.340  1.4068 -0.3610  1.9432
 5148SOL     OW27079   2.562   3.753  10.691 -0.2889 -0.0702 -0.2974
 5148SOL    HW127080   2.547   3.807  10.769 -1.6816 -0.2833 -0.4338
 5148SOL    HW227081   2.472   3.742  10.661 -0.5171 -0.9172  0.7296
 5149SOL     OW27082   4.411   1.192   9.515  0.0592 -0.2833  0.0707
 5149SOL    HW127083   4.402   1.114   9.460 -1.3580 -0.0972  0.0390
 5149SOL    HW227084   4.444   1.155   9.597  1.8616  1.0379 -0.0723
 5150SOL     OW27085   3.616   3.309   8.234  0.3811  0.0581 -0.0352
 5150SOL    HW127086   3.658   3.262   8.162 -2.3603  0.4024 -1.8697
 5150SOL    HW227087   3.598   3.232   8.288  1.0601  1.0728  1.6446
 5151SOL     OW27088   0.482   2.599   7.001 -0.4095  0.2282  0.8339
 5151SOL    HW127089   0.550   2.618   6.935 -0.8009 -1.8650 -0.1680
 5151SOL    HW227090   0.428   2.677   6.993  1.1516  1.3082  0.7132
 5152SOL     OW27091   3.052   2.071   8.462 -0.3278  0.2174  0.0873
 5152SOL    HW127092   2.959   2.095   8.460 -0.3482  0.1618  0.3267
 5152SOL    HW227093   3.099   2.154   8.465 -0.7692  0.4221  1.4562
 5153SOL     OW27094   0.812   4.550   6.868  0.5674  0.2063  0.7052
 5153SOL    HW127095   0.776   4.463   6.851 -1.7333  1.1977  0.5097
 5153SOL    HW227096   0.815   4.539   6.963 -1.3179 -0.3648  0.6924
 5154SOL     OW27097   3.297   2.530   3.232  0.5687  0.2770 -0.3044
 5154SOL    HW127098   3.265   2.447   3.197  1.0635  0.4640 -1.2069
 5154SOL    HW227099   3.212   2.556   3.267  0.2805 -1.0425 -0.0168
 5155SOL     OW27100   4.274   0.190   1.504 -0.3925 -0.0470  0.0815
 5155SOL    HW127101   4.249   0.276   1.469 -2.6880 -0.8150 -0.1623
 5155SOL    HW227102   4.227   0.177   1.587 -0.8255 -1.8813 -0.4553
 5156SOL     OW27103   0.729   4.208  13.516  0.2665  0.0986 -0.0727
 5156SOL    HW127104   0.667   4.258  13.568 -2.5525 -2.5931 -0.8510
 5156SOL    HW227105   0.810   4.199  13.566  0.5801 -2.4605 -1.0287
 5157SOL     OW27106   1.068   3.729   6.490 -0.3398  0.0354  0.4571
 5157SOL    HW127107   1.097   3.805   6.541 -1.0496  2.1376 -2.2550
 5157SOL    HW227108   1.022   3.681   6.559  0.6731 -0.2714  0.9121
 5158SOL     OW27109   4.597   2.964  15.738  0.4094  0.3796  0.4835
 5158SOL    HW127110   4.565   2.880  15.772  1.0015  0.3076  0.8720
 5158SOL    HW227111   4.655   2.928  15.671 -0.8957  0.0038 -0.4311
 5159SOL     OW27112   4.237   4.118   8.127 -0.6695 -0.1614  0.4246
 5159SOL    HW127113   4.240   4.188   8.062  0.0823 -3.1038 -2.7366
 5159SOL    HW227114   4.181   4.047   8.094 -0.4839 -0.1025 -0.0225
 5160SOL     OW27115   1.501   0.582   7.991  0.0784  0.5193  0.6802
 5160SOL    HW127116   1.587   0.623   7.986  0.6282 -0.8979 -1.0943
 5160SOL    HW227117   1.485   0.563   8.083 -1.3056 -1.4684  0.0250
 5161SOL     OW27118   1.561   3.575   8.973 -0.0133 -0.2291  0.3130
 5161SOL    HW127119   1.651   3.575   8.940 -0.0660 -2.1408  0.1723
 5161SOL    HW227120   1.518   3.532   8.899 -3.0864  1.5437  1.0352
 5162SOL     OW27121   1.467   0.150   7.896 -0.7925 -0.0914 -0.2901
 5162SOL    HW127122   1.442   0.229   7.849  1.4354  2.2158  2.4014
 5162SOL    HW227123   1.408   0.128   7.968  1.2351 -1.0556  1.0905
 5163SOL     OW27124   1.043   0.053   2.535  0.3426 -0.6904  0.1299
 5163SOL    HW127125   0.959   0.009   2.528 -0.4665  0.9143 -0.1182
 5163SOL    HW227126   1.006   0.140   2.548  1.4440 -0.7515  3.6728
 5164SOL     OW27127   0.312   0.378   2.926 -0.2959  0.1583  0.0550
 5164SOL    HW127128   0.230   0.356   2.880  0.8942 -0.1890 -1.9220
 5164SOL    HW227129   0.294   0.353   3.016 -0.1052 -0.6048 -0.1144
 5165SOL     OW27130   2.921   4.021   4.202  0.0814  0.0906 -0.2433
 5165SOL    HW127131   2.909   3.996   4.110  2.0020 -0.2550 -0.4014
 5165SOL    HW227132   2.952   4.111   4.195  3.4209 -1.0323  0.3966
 5166SOL     OW27133   3.703   0.929   2.953  0.3247 -0.4783 -0.0039
 5166SOL    HW127134   3.659   0.844   2.955 -0.8606  0.0985 -1.4853
 5166SOL    HW227135   3.796   0.904   2.953  0.4430 -0.0757 -1.6948
 5167SOL     OW27136   0.463   0.657  12.289 -0.5801  0.5675  0.1352
 5167SOL    HW127137   0.423   0.743  12.304  3.1759  2.0681  1.5984
 5167SOL    HW227138   0.514   0.675  12.210  0.1118 -1.5490  0.0978
 5168SOL     OW27139   3.037   1.388  17.079  0.9218  0.2765 -0.8442
 5168SOL    HW127140   2.947   1.354  17.073  1.0034 -0.2164  0.5235
 5168SOL    HW227141   3.008   1.470  17.039  2.1566  0.9885 -0.2643
 5169SOL     OW27142   3.479   1.687   2.334 -0.0554  0.2088 -0.2585
 5169SOL    HW127143   3.569   1.680   2.303  1.0524  1.7027  2.6836
 5169SOL    HW227144   3.425   1.623   2.288  0.0536 -0.8483  1.0917
 5170SOL     OW27145   2.494   3.844   8.694  0.5674  0.5035 -0.2475
 5170SOL    HW127146   2.572   3.899   8.707  1.2715 -0.5295 -0.1334
 5170SOL    HW227147   2.429   3.913   8.683 -1.1131 -0.6386  2.6552
 5171SOL     OW27148   1.429   1.442  15.738  0.5840 -0.1593 -0.5954
 5171SOL    HW127149   1.417   1.370  15.677  1.7678 -1.8065  1.1219
 5171SOL    HW227150   1.368   1.508  15.705  0.1449 -0.4174 -0.3019
 5172SOL     OW27151   2.845   1.557  14.691 -0.4815  0.0936  0.0888
 5172SOL    HW127152   2.797   1.548  14.774 -1.0354  1.8670 -0.0398
 5172SOL    HW227153   2.783   1.504  14.641  1.2931 -2.2545  0.4099
 5173SOL     OW27154   3.874   4.576  15.031 -0.1084  0.1293 -0.0242
 5173SOL    HW127155   3.948   4.578  15.092 -0.6102 -1.6747  0.6254
 5173SOL    HW227156   3.865   4.668  15.005  2.9852 -0.2080 -2.3804
 5174SOL     OW27157   1.070   4.617   4.475 -0.0046  0.2484 -0.2524
 5174SOL    HW127158   1.109   4.633   4.561  0.4764  0.7766 -0.5686
 5174SOL    HW227159   1.143   4.617   4.413  0.6219  3.7941  0.4947
 5175SOL     OW27160   4.459   0.122   3.880 -0.0054  0.2346  0.0103
 5175SOL    HW127161   4.376   0.170   3.876  0.2079  0.4926 -1.2775
 5175SOL    HW227162   4.501   0.141   3.797  0.8380  3.1996  1.1355
 5176SOL     OW27163   0.572   1.031   1.556 -0.1800  0.0914 -0.0072
 5176SOL    HW127164   0.486   1.028   1.598  0.4572 -0.4343  1.2571
 5176SOL    HW227165   0.559   1.080   1.474 -1.3524 -0.7128 -0.3063
 5177SOL     OW27166   1.549   3.128   4.843 -0.4137 -0.1014  0.3420
 5177SOL    HW127167   1.575   3.076   4.767 -1.3871 -1.5494  0.9967
 5177SOL    HW227168   1.455   3.141   4.828  0.2031  1.7258 -1.9119
 5178SOL     OW27169   2.600   1.106   3.460 -0.0469 -0.7072  0.4134
 5178SOL    HW127170   2.687   1.139   3.483 -1.8907  3.1657  1.8630
 5178SOL    HW227171   2.542   1.182   3.453 -0.3630 -0.8379  1.5426
 5179SOL     OW27172   3.396   1.417  11.889  0.6482  0.5520  0.1550
 5179SOL    HW127173   3.466   1.452  11.944 -0.1596  2.7038 -0.1650
 5179SOL    HW227174   3.316   1.422  11.942 -1.2744  0.4085 -2.7367
 5180SOL     OW27175   3.972   0.649   8.894 -0.2047  0.4826  0.9030
 5180SOL    HW127176   3.941   0.599   8.818  0.3463 -0.3732  1.2383
 5180SOL    HW227177   3.982   0.733   8.848  1.7506 -0.5059 -0.4810
 5181SOL     OW27178   1.946   4.044  17.578 -0.1741  0.2881 -0.1111
 5181SOL    HW127179   1.968   3.992  17.501  0.0496  1.1520 -0.6316
 5181SOL    HW227180   1.995   3.998  17.646 -1.9159 -0.7320  0.4504
 5182SOL     OW27181   1.715   2.690   9.227 -0.4703 -0.0725 -0.2963
 5182SOL    HW127182   1.673   2.729   9.304  0.0414 -0.7658  0.3377
 5182SOL    HW227183   1.679   2.751   9.163  0.7375  1.4236  0.4574
 5183SOL     OW27184   2.584   0.765   4.711 -0.0653  0.1260  0.9559
 5183SOL    HW127185   2.529   0.843   4.708 -1.1711 -0.6071  2.1019
 5183SOL    HW227186   2.518   0.701   4.734 -0.1727  0.2106  0.8801
 5184SOL     OW27187   1.066   4.637   6.267  0.5689  0.0435 -0.2932
 5184SOL    HW127188   1.160   4.637   6.285  0.4480  1.4016  0.3261
 5184SOL    HW227189   1.055   4.706   6.202 -0.6013  1.1525  1.0874
 5185SOL     OW27190   4.622   0.510   5.039 -0.0548  0.7112  0.1485
 5185SOL    HW127191   4.616   0.519   5.134  0.1950  0.5391  0.1825
 5185SOL    HW227192   4.530   0.526   5.017 -0.9457 -1.1031  2.5055
 5186SOL     OW27193   1.661   4.482   4.200  0.0158  0.0405  0.3574
 5186SOL    HW127194   1.699   4.490   4.113 -0.9469  1.8218  0.1095
 5186SOL    HW227195   1.735   4.445   4.248 -0.2164 -1.0484 -0.1159
 5187SOL     OW27196   4.322   0.340  14.392 -0.0017  0.3496 -0.3175
 5187SOL    HW127197   4.396   0.283  14.411  1.0615  1.6947 -0.4362
 5187SOL    HW227198   4.290   0.306  14.309  0.7574  0.3800 -0.6217
 5188SOL     OW27199   4.708   1.385   7.486  0.0534  0.6269  0.3221
 5188SOL    HW127200   4.710   1.316   7.552 -0.4111  1.3771  1.1142
 5188SOL    HW227201   4.674   1.337   7.410  0.1274  1.7860 -0.4427
 5189SOL     OW27202   0.873   3.762   0.611 -0.2526 -0.1884 -0.1677
 5189SOL    HW127203   0.909   3.837   0.564 -0.8098 -0.6507 -1.3097
 5189SOL    HW227204   0.919   3.751   0.695 -0.6844  1.0981  0.2322
 5190SOL     OW27205   3.518   0.554   6.550 -0.6547 -0.0880  0.3446
 5190SOL    HW127206   3.551   0.503   6.476  1.3548  2.8503 -0.8032
 5190SOL    HW227207   3.428   0.563   6.520 -0.8503  1.4527  1.4066
 5191SOL     OW27208   1.054   0.281  11.212  0.1530 -0.1963  0.3096
 5191SOL    HW127209   0.986   0.347  11.219 -0.1426 -0.7122  2.4966
 5191SOL    HW227210   1.013   0.208  11.166  0.5351  0.6021 -1.2680
 5192SOL     OW27211   0.860   3.549   8.192 -0.1906  0.1801 -0.1269
 5192SOL    HW127212   0.940   3.591   8.223 -0.4328  0.6278 -0.1141
 5192SOL    HW227213   0.797   3.566   8.262  0.2918  0.6235  0.1993
 5193SOL     OW27214   1.918   0.310   6.677  0.4058 -0.0427 -0.5581
 5193SOL    HW127215   1.968   0.379   6.720 -1.6145  3.0543 -3.2483
 5193SOL    HW227216   1.924   0.245   6.748 -2.9155  0.1366 -0.1439
 5194SOL     OW27217   0.195   1.420  13.144 -0.8865 -0.2805 -0.4381
 5194SOL    HW127218   0.127   1.415  13.212 -1.0613 -0.0011 -0.5946
 5194SOL    HW227219   0.172   1.347  13.086 -1.1051 -1.1896  0.7898
 5195SOL     OW27220   2.501   0.614  16.969  0.3555 -0.0201  0.3713
 5195SOL    HW127221   2.500   0.519  16.962 -2.4871  0.1241 -0.9999
 5195SOL    HW227222   2.559   0.634  17.042 -0.6497  1.9806  0.6408
 5196SOL     OW27223   1.224   2.954   3.058  0.3911 -0.3772 -0.2573
 5196SOL    HW127224   1.162   3.021   3.088  1.0342 -1.2800  3.1767
 5196SOL    HW227225   1.268   2.934   3.141  1.9215 -1.2704 -1.2913
 5197SOL     OW27226   2.219   4.411   3.490  0.0127 -0.0115  0.2093
 5197SOL    HW127227   2.136   4.454   3.470  0.0741  1.1042  2.3589
 5197SOL    HW227228   2.195   4.318   3.493 -1.5336  0.2991 -2.0478
 5198SOL     OW27229   4.719   0.884   3.479 -0.1008  0.0604 -0.2776
 5198SOL    HW127230   4.657   0.847   3.542 -2.2290  0.9020 -1.8753
 5198SOL    HW227231   0.068   0.848   3.502 -0.1492  1.0956  1.4554
 5199SOL     OW27232   3.148   0.942   1.334  0.0435 -0.3828  0.3966
 5199SOL    HW127233   3.140   0.896   1.251  2.7261  0.0275 -0.1044
 5199SOL    HW227234   3.058   0.951   1.366  1.0537 -0.1595  3.1936
 5200SOL     OW27235   3.192   1.173   7.190  0.3336  0.2885  0.0344
 5200SOL    HW127236   3.250   1.234   7.235  2.0338 -0.3042 -1.3746
 5200SOL    HW227237   3.164   1.112   7.259  3.3779 -2.9042 -1.5234
 5201SOL     OW27238   1.562   3.675   2.222 -0.3388  0.0669 -0.0649
 5201SOL    HW127239   1.632   3.630   2.269  0.1607  1.2073  0.2934
 5201SOL    HW227240   1.521   3.713   2.301  0.3596  0.0021  0.3233
 5202SOL     OW27241   2.354   3.219   1.288  0.1070 -1.2899  0.3571
 5202SOL    HW127242   2.268   3.193   1.320  0.0555 -1.7645 -0.1589
 5202SOL    HW227243   2.389   3.266   1.364  1.3176 -0.7382 -0.5261
 5203SOL     OW27244   0.583   1.654   8.469  0.0236  0.0244  0.2782
 5203SOL    HW127245   0.655   1.669   8.408  0.2085  0.6503  0.6528
 5203SOL    HW227246   0.565   1.569   8.429 -1.0317  1.0632 -1.4936
 5204SOL     OW27247   3.300   1.196   2.351 -0.1568 -0.3839  0.1822
 5204SOL    HW127248   3.221   1.232   2.310 -0.3669 -0.6513  0.3534
 5204SOL    HW227249   3.332   1.273   2.397  1.1009  0.3683 -1.9806
 5205SOL     OW27250   0.292   1.452   1.286  0.3090 -0.4015  0.4996
 5205SOL    HW127251   0.369   1.415   1.328  0.6544  0.7583  0.8937
 5205SOL    HW227252   0.236   1.375   1.279 -0.7729  0.4232  0.0740
 5206SOL     OW27253   0.642   3.757  13.824 -0.4770 -0.4067 -0.2419
 5206SOL    HW127254   0.597   3.837  13.798  0.3781 -0.7056 -2.6448
 5206SOL    HW227255   0.701   3.734  13.752  0.4564 -0.8364  0.6587
 5207SOL     OW27256   2.611   2.391   1.035  0.4552 -0.4391 -0.0306
 5207SOL    HW127257   2.702   2.367   1.020  1.0837  1.9690 -0.1220
 5207SOL    HW227258   2.596   2.338   1.113  0.1712 -0.4967 -0.1223
 5208SOL     OW27259   1.601   0.823   6.446 -0.1815  0.1054  0.1884
 5208SOL    HW127260   1.564   0.736   6.436  0.6359 -0.0552 -1.4710
 5208SOL    HW227261   1.692   0.798   6.428 -0.0798  0.6282 -0.0300
 5209SOL     OW27262   1.118   0.723   1.832  0.2597 -0.4098  0.0625
 5209SOL    HW127263   1.107   0.815   1.809  1.6533 -0.3392 -0.2914
 5209SOL    HW227264   1.093   0.687   1.747 -1.7695 -1.3357  1.0542
 5210SOL     OW27265   0.194   4.642   5.453 -0.3579  0.1184  0.2189
 5210SOL    HW127266   0.150   4.559   5.470  0.7625 -0.2733  1.2011
 5210SOL    HW227267   0.237   4.620   5.371  0.3682  1.4917  0.2332
 5211SOL     OW27268   1.481   2.019   1.053 -0.0147 -0.3856  0.4371
 5211SOL    HW127269   1.406   2.078   1.051  0.6007  0.3552 -1.1637
 5211SOL    HW227270   1.499   2.010   0.959 -3.6389  1.1008 -0.4246
 5212SOL     OW27271   3.090   0.646  16.485  0.8568  0.3313  0.3460
 5212SOL    HW127272   3.074   0.551  16.485  1.8464  0.1633 -0.0089
 5212SOL    HW227273   3.006   0.680  16.514  1.1532 -0.1935  1.8524
 5213SOL     OW27274   0.669   1.895  10.253  0.2598 -0.2426  0.4211
 5213SOL    HW127275   0.635   1.889  10.342  0.6015  0.2720  0.5868
 5213SOL    HW227276   0.735   1.825  10.258  0.3821  0.0157  2.3168
 5214SOL     OW27277   0.605   2.846  10.090  0.3655  0.0336  0.5046
 5214SOL    HW127278   0.644   2.833  10.176  0.8155 -3.7167 -0.2943
 5214SOL    HW227279   0.621   2.762  10.047 -0.3474  0.7092 -1.1149
 5215SOL     OW27280   3.641   0.560   2.470  0.2552  0.2286  0.2845
 5215SOL    HW127281   3.622   0.563   2.564  1.5864 -1.1073  0.5791
 5215SOL    HW227282   3.626   0.649   2.437  2.8455  0.1598 -1.0090
 5216SOL     OW27283   4.568   4.590   3.806  0.4395  0.3278  0.2520
 5216SOL    HW127284   4.636   4.554   3.749 -0.3091  0.7069 -0.8812
 5216SOL    HW227285   4.585   4.684   3.799  0.5529  0.1649 -1.7464
 5217SOL     OW27286   1.608   2.247  13.353  0.1891 -0.2868  0.3320
 5217SOL    HW127287   1.541   2.313  13.372  0.6952  1.1597 -3.0024
 5217SOL    HW227288   1.586   2.229  13.262 -0.7218  0.3861  0.4155
 5218SOL     OW27289   1.312   1.318   7.393 -0.5983 -0.0892  0.4881
 5218SOL    HW127290   1.367   1.243   7.370 -0.0777  0.7842 -1.1402
 5218SOL    HW227291   1.353   1.389   7.343 -2.3947  1.4501  1.2164
 5219SOL     OW27292   3.377   1.932  13.524 -0.0855 -0.1159  0.3453
 5219SOL    HW127293   3.294   1.969  13.554 -0.1522  0.6071 -0.7473
 5219SOL    HW227294   3.438   1.995  13.563  0.3515 -0.1119 -0.3491
 5220SOL     OW27295   0.497   0.832   8.384  0.1264  0.8854  0.3775
 5220SOL    HW127296   0.509   0.872   8.470 -1.0312 -0.8757  1.3530
 5220SOL    HW227297   0.584   0.824   8.346 -1.0662 -2.9455 -1.5547
 5221SOL     OW27298   3.274   3.150   8.053 -0.4908 -0.1022  0.5544
 5221SOL    HW127299   3.208   3.081   8.046  0.1433 -0.7100  0.5043
 5221SOL    HW227300   3.344   3.105   8.101  0.9520  0.1804 -1.2892
 5222SOL     OW27301   2.196   3.610  15.165 -0.3497 -0.0644 -0.1708
 5222SOL    HW127302   2.164   3.687  15.213 -0.5655 -0.8616  0.9809
 5222SOL    HW227303   2.172   3.543  15.230  0.1452  0.9407  1.0555
 5223SOL     OW27304   2.698   0.266  13.888  0.3115 -0.3398 -0.4438
 5223SOL    HW127305   2.646   0.254  13.967 -0.9817  0.1267 -1.2253
 5223SOL    HW227306   2.755   0.189  13.889 -0.8515 -1.1740  0.4527
 5224SOL     OW27307   0.385   3.389   9.330  0.3175  0.0755  0.5847
 5224SOL    HW127308   0.404   3.449   9.402  3.9117 -0.9383  0.5309
 5224SOL    HW227309   0.423   3.308   9.366  1.8352  0.2605 -0.6231
 5225SOL     OW27310   0.808   1.891   7.255 -0.0306 -0.3400 -0.2181
 5225SOL    HW127311   0.853   1.970   7.226  0.3352  0.5936  2.8880
 5225SOL    HW227312   0.828   1.894   7.349 -1.7067 -1.0111  0.1605
 5226SOL     OW27313   3.837   2.777  12.816 -0.1247  0.8389  0.3620
 5226SOL    HW127314   3.873   2.734  12.737  0.6491 -1.5020  1.9774
 5226SOL    HW227315   3.918   2.798  12.863 -0.7948  4.6088 -0.1703
 5227SOL     OW27316   1.995   4.016   4.442  0.1509 -0.0231 -0.2237
 5227SOL    HW127317   2.075   3.971   4.468  0.6698  0.3630 -1.1462
 5227SOL    HW227318   2.007   4.104   4.477 -0.6895  0.4774 -1.1852
 5228SOL     OW27319   2.459   1.212   2.994 -0.1490  0.0395  0.5702
 5228SOL    HW127320   2.501   1.290   3.030 -1.7564  0.1852  2.1161
 5228SOL    HW227321   2.385   1.196   3.052  0.9231 -2.9581  1.1243
 5229SOL     OW27322   1.997   2.501   1.050  0.5449 -0.0372 -0.5970
 5229SOL    HW127323   2.079   2.536   1.085 -0.0200  0.9598 -0.2637
 5229SOL    HW227324   2.014   2.531   0.960 -0.9927 -3.5902 -2.0886
 5230SOL     OW27325   0.236   2.465   2.742 -0.3024  0.5658 -0.1623
 5230SOL    HW127326   0.169   2.519   2.701 -0.7084 -0.2663 -0.5949
 5230SOL    HW227327   0.198   2.377   2.740  0.1818  0.3702 -0.6527
 5231SOL     OW27328   4.279   0.583   9.007 -0.2961 -0.2846 -0.1829
 5231SOL    HW127329   4.290   0.488   9.009 -0.5078 -0.2500  2.1259
 5231SOL    HW227330   4.195   0.593   9.052 -0.1963 -1.1930  0.2207
 5232SOL     OW27331   3.733   0.427   6.051 -0.1771 -0.3723  0.0881
 5232SOL    HW127332   3.730   0.333   6.033  1.2722 -0.0992 -1.5722
 5232SOL    HW227333   3.715   0.464   5.964  2.5885 -1.0835 -0.7807
 5233SOL     OW27334   1.443   3.107   9.454  0.0488 -0.3213  0.5595
 5233SOL    HW127335   1.351   3.106   9.428  0.6534 -0.6089 -1.6419
 5233SOL    HW227336   1.461   3.201   9.449  1.1652 -0.6377 -1.5554
 5234SOL     OW27337   2.423   4.108  11.817 -0.4064 -0.1908  0.4499
 5234SOL    HW127338   2.506   4.130  11.858  0.0989  1.3754 -1.4096
 5234SOL    HW227339   2.395   4.199  11.805 -0.6916 -0.1363  1.4649
 5235SOL     OW27340   1.732   0.086   3.276 -0.1659 -0.5134 -0.6724
 5235SOL    HW127341   1.716   4.729   3.267  1.0763 -0.8985  1.1937
 5235SOL    HW227342   1.825   0.088   3.253 -0.4215 -1.7991 -1.8070
 5236SOL     OW27343   1.257   0.577   1.987 -0.5931  0.2227  0.0692
 5236SOL    HW127344   1.217   0.616   1.908 -1.5830  0.7417  0.8161
 5236SOL    HW227345   1.322   0.516   1.953 -0.3429  1.8548 -2.4330
 5237SOL     OW27346   3.078   0.221   7.888 -0.2331  0.1813  0.0741
 5237SOL    HW127347   3.108   0.171   7.812  2.3922 -0.7660  1.7446
 5237SOL    HW227348   3.017   0.161   7.930 -0.6151 -1.4724 -2.8384
 5238SOL     OW27349   2.370   0.248   0.083  0.3118 -0.0150  0.2757
 5238SOL    HW127350   2.437   0.233   0.150 -0.0513  1.1833  0.8954
 5238SOL    HW227351   2.369   0.162   0.042 -1.6271  0.7112 -1.1909
 5239SOL     OW27352   2.959   1.240   9.941 -0.0532 -0.4715  0.2152
 5239SOL    HW127353   2.974   1.183  10.017  0.2827 -0.7671 -0.0778
 5239SOL    HW227354   3.051   1.256   9.922 -1.6119  0.9452 -5.9089
 5240SOL     OW27355   4.510   1.833   7.405 -0.1328  0.3825  0.1764
 5240SOL    HW127356   4.494   1.747   7.443 -2.1746 -0.0007 -1.5640
 5240SOL    HW227357   4.481   1.828   7.314 -0.5374  2.0377  0.2115
 5241SOL     OW27358   1.424   2.277   6.016 -0.0810 -0.4018  0.0428
 5241SOL    HW127359   1.415   2.356   5.963  0.2232 -0.7816 -0.5708
 5241SOL    HW227360   1.372   2.304   6.092  0.7203  1.7861 -0.1816
 5242SOL     OW27361   0.564   1.721   2.101 -1.0878  0.0136  0.0229
 5242SOL    HW127362   0.491   1.659   2.101 -0.6601 -0.4964  1.7643
 5242SOL    HW227363   0.532   1.776   2.172 -1.1904  0.5246 -0.4138
 5243SOL     OW27364   1.372   2.458   1.414 -0.5750 -0.0806 -0.0232
 5243SOL    HW127365   1.466   2.464   1.434 -0.4237  0.3624 -0.8668
 5243SOL    HW227366   1.365   2.548   1.383  0.9023  0.2826  0.7065
 5244SOL     OW27367   0.229   1.517   2.594 -0.1409 -0.2083 -0.0830
 5244SOL    HW127368   0.219   1.553   2.682  0.8400 -0.0041 -0.0544
 5244SOL    HW227369   0.300   1.578   2.573  0.2697  0.1666  2.4720
 5245SOL     OW27370   3.045   2.321   3.576 -0.1323  0.2225  0.1213
 5245SOL    HW127371   3.106   2.392   3.596 -0.4104  0.7204 -0.7852
 5245SOL    HW227372   3.011   2.351   3.492  3.0551 -0.8342 -1.5236
 5246SOL     OW27373   2.317   3.532   1.760  0.2197 -0.0181  0.2557
 5246SOL    HW127374   2.358   3.616   1.741 -0.7310 -0.2800 -2.9960
 5246SOL    HW227375   2.372   3.503   1.833 -0.0060  1.7591  1.1312
 5247SOL     OW27376   1.367   3.971   5.048 -0.5322  0.2611 -0.1215
 5247SOL    HW127377   1.428   3.925   5.106  1.6635  1.5445 -1.3898
 5247SOL    HW227378   1.341   3.906   4.983  0.9086 -0.9657  0.5411
 5248SOL     OW27379   0.976   0.587   3.004 -0.2244 -0.0571 -0.2967
 5248SOL    HW127380   1.057   0.621   3.041 -1.1986  2.2513 -0.2296
 5248SOL    HW227381   0.991   0.584   2.910  1.6132 -0.4836  0.0160
 5249SOL     OW27382   4.368   4.409   3.933  0.0123 -0.0696 -0.2718
 5249SOL    HW127383   4.291   4.352   3.931 -0.0890  0.0345  0.8086
 5249SOL    HW227384   4.427   4.361   3.992 -2.0623  0.6604  2.3895
 5250SOL     OW27385   3.933   0.748   4.613  0.3945  0.0592  0.3776
 5250SOL    HW127386   4.017   0.790   4.632  0.2035  1.1334 -1.1788
 5250SOL    HW227387   3.866   0.806   4.650  1.2359  0.4589  1.2780
 5251SOL     OW27388   2.983   2.588   5.098  0.0682 -0.0188 -0.2370
 5251SOL    HW127389   2.947   2.611   5.013 -0.4685 -1.8820 -0.5199
 5251SOL    HW227390   3.031   2.507   5.078 -0.6645 -0.6249  0.4236
 5252SOL     OW27391   0.119   0.883   5.568  0.3013  0.3228  0.2030
 5252SOL    HW127392   0.162   0.861   5.485 -1.1330 -1.1613 -0.1427
 5252SOL    HW227393   0.028   0.888   5.539  0.5419 -0.7576 -0.7363
 5253SOL     OW27394   1.982   0.437   9.495 -0.5133  0.1140  0.4538
 5253SOL    HW127395   2.064   0.472   9.462 -1.1826  1.9092  0.6617
 5253SOL    HW227396   1.987   0.469   9.585 -0.1263  2.4175 -0.3878
 5254SOL     OW27397   3.241   4.139   6.588 -0.2590  0.7007 -0.3182
 5254SOL    HW127398   3.236   4.063   6.645 -0.4331 -0.2265 -1.5527
 5254SOL    HW227399   3.265   4.097   6.505 -0.7651  1.2788 -0.7600
 5255SOL     OW27400   2.127   0.369   0.143 -0.4429  0.0117  0.1137
 5255SOL    HW127401   2.222   0.378   0.130 -0.6241  0.7615 -0.7251
 5255SOL    HW227402   2.122   0.275   0.155  2.1466 -0.0557  0.8113
 5256SOL     OW27403   0.701   1.594   6.760 -0.0647 -0.6018 -0.1784
 5256SOL    HW127404   0.791   1.625   6.749 -0.0152  0.0942  2.2868
 5256SOL    HW227405   0.675   1.629   6.845  1.7763 -2.6907  1.2349
 5257SOL     OW27406   1.266   2.150   0.662 -0.1295 -0.7589  0.2645
 5257SOL    HW127407   1.199   2.149   0.731  1.5198 -0.1625  1.8900
 5257SOL    HW227408   1.252   2.242   0.640 -0.3716 -0.8151  0.1874
 5258SOL     OW27409   3.485   1.491   8.108 -0.1382 -0.0779 -0.5918
 5258SOL    HW127410   3.528   1.489   8.023  0.8999  0.9028 -0.0846
 5258SOL    HW227411   3.396   1.476   8.076  0.3523  1.1305 -2.4978
 5259SOL     OW27412   3.298   3.880   8.831 -0.9600 -0.3919 -0.5254
 5259SOL    HW127413   3.263   3.833   8.755 -2.1195 -0.1836 -0.1172
 5259SOL    HW227414   3.318   3.810   8.894  0.0957 -0.3873 -0.8559
 5260SOL     OW27415   3.099   3.429   2.487 -0.1701  0.2344 -0.7304
 5260SOL    HW127416   3.085   3.362   2.554 -0.8213  0.0106 -1.0851
 5260SOL    HW227417   3.021   3.479   2.511 -0.6369 -0.4757 -0.7370
 5261SOL     OW27418   0.985   0.613   5.688 -0.4465 -0.4423  0.2384
 5261SOL    HW127419   1.040   0.541   5.660  0.0654 -0.2335  0.6983
 5261SOL    HW227420   0.900   0.570   5.696 -1.1565  0.5139 -2.3808
 5262SOL     OW27421   3.991   0.980   7.468  0.2688  0.1361  0.2096
 5262SOL    HW127422   3.915   1.032   7.443 -0.9366 -1.1580  1.1505
 5262SOL    HW227423   4.024   0.944   7.386 -0.0313 -0.0837  0.1859
 5263SOL     OW27424   2.621   1.449   6.898  0.0787  0.1570  0.3315
 5263SOL    HW127425   2.546   1.507   6.885  0.4539  0.4508 -0.5782
 5263SOL    HW227426   2.651   1.439   6.807 -0.2433  2.0930  0.0170
 5264SOL     OW27427   4.685   2.395   7.606 -0.4975  0.4220  0.3206
 5264SOL    HW127428   4.666   2.369   7.516 -2.1953  2.7078 -0.0047
 5264SOL    HW227429   0.043   2.389   7.606 -0.5171  0.1473 -0.0309
 5265SOL     OW27430   4.585   4.058  11.929 -0.3021 -0.2688 -0.5835
 5265SOL    HW127431   4.579   4.153  11.941 -1.5715 -0.2984 -0.9738
 5265SOL    HW227432   4.672   4.045  11.967 -0.7472 -1.1821  0.1176
 5266SOL     OW27433   3.730   0.723   5.919 -0.1299 -0.4340  0.0419
 5266SOL    HW127434   3.815   0.739   5.961 -1.3957  1.8074  1.7413
 5266SOL    HW227435   3.676   0.796   5.948 -0.7184 -1.1389  0.7274
 5267SOL     OW27436   0.037   1.734   2.002 -0.0030 -0.4497 -0.6995
 5267SOL    HW127437   4.692   1.727   2.051 -0.5559 -0.8802 -1.6956
 5267SOL    HW227438   0.012   1.781   1.923  0.9980  2.3858  0.6354
 5268SOL     OW27439   2.759   3.731   8.356  0.0330  0.3446  0.3219
 5268SOL    HW127440   2.798   3.679   8.427 -0.4182 -2.5036 -1.5242
 5268SOL    HW227441   2.670   3.735   8.392 -1.2180 -2.7788 -2.4661
 5269SOL     OW27442   0.113   3.902   5.364  0.0461  0.1039 -0.4228
 5269SOL    HW127443   0.196   3.861   5.342  0.2223  0.5149 -0.5184
 5269SOL    HW227444   0.053   3.828   5.369 -0.5867  0.7171  1.3505
 5270SOL     OW27445   2.264   4.541   8.116  0.2181 -0.2486  0.4289
 5270SOL    HW127446   2.194   4.594   8.155 -1.1033 -1.0803 -0.7957
 5270SOL    HW227447   2.209   4.467   8.089  0.1656 -0.0136 -0.1069
 5271SOL     OW27448   2.681   3.614   2.721  0.3450  0.1041  0.0686
 5271SOL    HW127449   2.639   3.678   2.664 -0.8705 -0.8600 -0.1062
 5271SOL    HW227450   2.678   3.661   2.804  0.1184  1.2028 -0.5701
 5272SOL     OW27451   0.098   2.383   6.988 -0.2636 -0.2095  0.5584
 5272SOL    HW127452   0.186   2.348   7.001  0.4284  1.2730 -0.2064
 5272SOL    HW227453   0.057   2.303   6.956  0.5909 -0.8812  1.1296
 5273SOL     OW27454   2.676   2.049  14.619 -0.0406 -0.1477 -0.2781
 5273SOL    HW127455   2.719   1.970  14.652 -0.7850 -0.3096  0.3025
 5273SOL    HW227456   2.599   2.006  14.582 -0.5935 -1.3091  2.2421
 5274SOL     OW27457   3.341   3.388   6.426  0.0110  0.2990  0.1149
 5274SOL    HW127458   3.330   3.312   6.483 -0.6276 -1.0416 -1.7541
 5274SOL    HW227459   3.325   3.457   6.490  2.2049  0.6753  0.2714
 5275SOL     OW27460   3.426   3.348  11.728  0.0672 -0.4821 -0.5535
 5275SOL    HW127461   3.430   3.407  11.803 -0.3625 -0.0984 -0.8344
 5275SOL    HW227462   3.436   3.404  11.651  1.3561  0.5397  0.3505
 5276SOL     OW27463   0.566   3.676  10.049  0.1813  0.0694 -0.1434
 5276SOL    HW127464   0.619   3.653  10.126 -0.5352 -0.0576  0.3123
 5276SOL    HW227465   0.633   3.693   9.983  1.8784 -3.0619  0.7454
 5277SOL     OW27466   1.446   0.796   6.657 -0.2742  0.3661 -0.8549
 5277SOL    HW127467   1.471   0.706   6.679  3.3637  1.5552 -0.1319
 5277SOL    HW227468   1.488   0.813   6.573  2.0692 -2.1236 -0.1834
 5278SOL     OW27469   1.790   2.803   7.228 -0.4200 -0.4600  0.4537
 5278SOL    HW127470   1.792   2.710   7.207  1.5750 -1.0984  3.5587
 5278SOL    HW227471   1.883   2.825   7.231 -0.3083 -1.3804  3.1285
 5279SOL     OW27472   2.020   0.674  17.538 -0.4911 -0.0176  0.5170
 5279SOL    HW127473   1.929   0.648  17.521 -0.3828  0.0713 -0.2002
 5279SOL    HW227474   2.026   0.733  17.463 -1.5818 -0.9159 -0.2765
 5280SOL     OW27475   2.143   4.712   7.188  0.5316  0.3511 -0.3589
 5280SOL    HW127476   2.067   0.003   7.240  1.1858  1.5571 -0.0515
 5280SOL    HW227477   2.199   4.687   7.261 -0.4665  0.2818  0.3795
 5281SOL     OW27478   2.657   1.341   7.959 -0.1468  0.4976 -0.4808
 5281SOL    HW127479   2.565   1.346   7.936 -0.2307  2.1160  0.1994
 5281SOL    HW227480   2.683   1.430   7.985  1.6248 -0.4274  0.8909
 5282SOL     OW27481   4.541   4.653   6.244  0.2220 -0.2265  0.2618
 5282SOL    HW127482   4.595   4.687   6.173  0.4698  2.3377  1.6740
 5282SOL    HW227483   4.494   4.732   6.271  0.0473 -0.7237  1.4180
 5283SOL     OW27484   2.803   3.945   3.603 -0.3632  0.1004  0.1220
 5283SOL    HW127485   2.801   3.862   3.650  0.3525 -0.5805 -1.0319
 5283SOL    HW227486   2.848   3.995   3.671 -1.6176  0.9243  0.3315
 5284SOL     OW27487   3.152   1.543   9.139  0.1906  0.0427 -0.1414
 5284SOL    HW127488   3.179   1.452   9.124 -1.2311 -0.7711  2.3109
 5284SOL    HW227489   3.058   1.534   9.123  0.2813 -0.6864 -0.3048
 5285SOL     OW27490   2.533   2.188  12.691  0.1606 -0.4211 -0.3896
 5285SOL    HW127491   2.563   2.133  12.763  0.9536 -0.8164 -1.0203
 5285SOL    HW227492   2.475   2.137  12.634 -1.5992  0.3875  0.6487
 5286SOL     OW27493   1.946   2.831   1.600  0.1485 -0.5113  0.3500
 5286SOL    HW127494   1.905   2.909   1.565 -3.2346 -0.6676  3.9863
 5286SOL    HW227495   1.926   2.843   1.693 -1.9096  2.3232 -0.4507
 5287SOL     OW27496   4.119   0.576  17.201  0.0081 -0.1906 -0.3565
 5287SOL    HW127497   4.101   0.545  17.113  1.6055 -2.0305 -0.0281
 5287SOL    HW227498   4.034   0.613  17.226 -0.4475 -1.0215 -0.6812
 5288SOL     OW27499   4.550   2.847  16.097 -0.0939 -0.0266  0.0982
 5288SOL    HW127500   4.625   2.874  16.150  0.4374  0.5231 -0.9255
 5288SOL    HW227501   4.560   2.755  16.074  2.2000  0.1439  0.4384
 5289SOL     OW27502   3.068   3.471   4.064  0.0693  0.0294  0.2614
 5289SOL    HW127503   3.043   3.403   4.001  1.3880 -1.9574  1.9158
 5289SOL    HW227504   3.066   3.424   4.147 -4.5043 -1.5734 -0.7410
 5290SOL     OW27505   1.601   1.091   3.098 -0.1298  0.2913  0.1314
 5290SOL    HW127506   1.655   1.129   3.029 -0.2872  2.1182  0.9888
 5290SOL    HW227507   1.568   1.011   3.059  0.8579 -0.5227  0.9549
 5291SOL     OW27508   1.555   0.736   1.758  1.0731 -0.9185  0.5586
 5291SOL    HW127509   1.610   0.714   1.683  0.0529 -2.0303  0.1312
 5291SOL    HW227510   1.506   0.814   1.731  2.5857  0.3484  1.5206
 5292SOL     OW27511   0.339   1.496  13.623 -0.3021 -0.1189 -0.3565
 5292SOL    HW127512   0.254   1.538  13.638  0.0029 -0.4386  2.2350
 5292SOL    HW227513   0.325   1.402  13.608 -2.9823  0.3129 -0.5896
 5293SOL     OW27514   3.660   4.050   9.659  0.3261  0.3965  0.0853
 5293SOL    HW127515   3.592   4.027   9.723  1.6070  0.8928  1.6251
 5293SOL    HW227516   3.722   4.108   9.703  1.4199 -1.7744  1.3792
 5294SOL     OW27517   1.934   0.395   2.230  0.0671 -0.0779 -0.2883
 5294SOL    HW127518   1.899   0.313   2.264  1.8166 -0.3362  0.8758
 5294SOL    HW227519   1.859   0.455   2.226  0.3132  0.3114  0.8541
 5295SOL     OW27520   0.217   1.597   4.248 -0.3482 -0.2049  0.4070
 5295SOL    HW127521   0.148   1.548   4.204  1.0568 -0.5916 -1.3603
 5295SOL    HW227522   0.195   1.682   4.212  1.7277 -0.4219 -1.3842
 5296SOL     OW27523   3.434   3.764  10.611  0.1029 -0.0207 -0.1056
 5296SOL    HW127524   3.400   3.799  10.694 -2.9076 -0.4454 -1.1397
 5296SOL    HW227525   3.371   3.694  10.594 -2.1963  1.8474  0.6793
 5297SOL     OW27526   2.006   1.638   1.639  0.3361 -0.0233 -0.1222
 5297SOL    HW127527   2.096   1.657   1.665  0.9673 -3.1656  0.0779
 5297SOL    HW227528   2.002   1.650   1.544 -1.3459 -0.7308 -0.1374
 5298SOL     OW27529   3.081   4.478  13.449  0.2180 -0.6657 -0.5438
 5298SOL    HW127530   3.007   4.442  13.499  0.0460  0.9900  0.3902
 5298SOL    HW227531   3.151   4.417  13.472  0.1008 -0.0529  1.4728
 5299SOL     OW27532   0.462   0.280   4.336 -0.6569  0.0709 -0.2272
 5299SOL    HW127533   0.457   0.345   4.267  0.3069  1.2142  0.7925
 5299SOL    HW227534   0.412   0.323   4.405 -1.4411  0.6969 -1.1827
 5300SOL     OW27535   0.433   0.567  10.373 -0.3513 -0.2888  0.5393
 5300SOL    HW127536   0.414   0.480  10.340  1.9635 -0.2550 -0.8589
 5300SOL    HW227537   0.471   0.541  10.457  0.7925  1.1484  0.4628
 5301SOL     OW27538   2.962   1.561   6.549 -0.6154 -0.7651 -0.3870
 5301SOL    HW127539   2.911   1.589   6.473 -0.6855  0.4879  0.1308
 5301SOL    HW227540   2.959   1.466   6.542  0.5281 -0.5560 -3.7324
 5302SOL     OW27541   3.553   1.204   2.612 -0.1517 -0.2055 -0.6054
 5302SOL    HW127542   3.556   1.172   2.522  0.7407 -1.8798  0.0405
 5302SOL    HW227543   3.483   1.270   2.614  0.3049  0.2626  0.0285
 5303SOL     OW27544   4.674   4.405  10.329  0.2447  0.1190  0.3508
 5303SOL    HW127545   4.649   4.326  10.376  2.4887  0.0669  1.4385
 5303SOL    HW227546   0.014   4.365  10.289  0.4695  0.8824  0.0114
 5304SOL     OW27547   1.033   4.682  16.080  0.4527  0.1131 -0.2001
 5304SOL    HW127548   1.114   4.641  16.110 -0.8052 -1.5365  0.9064
 5304SOL    HW227549   1.069   0.022  16.037  0.1304  0.9342  1.0149
 5305SOL     OW27550   3.320   1.522   4.787 -0.9268  0.2877 -0.2281
 5305SOL    HW127551   3.301   1.453   4.850 -1.9133  0.3334 -0.4806
 5305SOL    HW227552   3.339   1.459   4.718 -1.6717  1.5388 -1.5774
 5306SOL     OW27553   1.966   2.935   7.499 -0.5768  0.3371 -0.3155
 5306SOL    HW127554   1.934   2.906   7.413  0.3649  2.5598 -1.4028
 5306SOL    HW227555   1.921   3.019   7.508  1.0394  1.1677  0.0001
 5307SOL     OW27556   0.147   3.637   6.637 -0.2018 -0.2457  0.5460
 5307SOL    HW127557   0.098   3.572   6.588 -0.7903 -0.4306  1.3740
 5307SOL    HW227558   0.186   3.588   6.710 -0.7642  0.8568  1.5945
 5308SOL     OW27559   1.754   0.286   4.755  0.1928  0.1120 -0.2329
 5308SOL    HW127560   1.831   0.230   4.756  0.6549  0.7502  0.3881
 5308SOL    HW227561   1.703   0.245   4.685 -0.5567  0.0978  0.3198
 5309SOL     OW27562   1.697   3.766  16.734  0.2678 -0.4540  0.0238
 5309SOL    HW127563   1.705   3.861  16.725  2.0679 -0.8288 -2.4223
 5309SOL    HW227564   1.606   3.760  16.703  0.7380 -0.4136 -1.3897
 5310SOL     OW27565   2.791   0.177   8.621  0.2736  0.4649  0.1189
 5310SOL    HW127566   2.876   0.135   8.626 -0.2012 -0.5724 -0.3930
 5310SOL    HW227567   2.794   0.248   8.685  0.9486  1.9869 -1.6030
 5311SOL     OW27568   0.245   0.941  12.487 -0.2063 -0.1810 -0.0821
 5311SOL    HW127569   0.176   0.881  12.459 -0.0804 -0.6668  0.6609
 5311SOL    HW227570   0.320   0.880  12.483 -1.6298 -2.0034  0.7913
 5312SOL     OW27571   0.433   1.385   9.226  0.2052  0.0933 -0.1435
 5312SOL    HW127572   0.487   1.461   9.247  0.6780 -0.0274 -0.8979
 5312SOL    HW227573   0.364   1.397   9.291  0.0717  0.1692 -0.2990
 5313SOL     OW27574   4.503   0.785   3.641  0.5698  0.0766 -0.0346
 5313SOL    HW127575   4.432   0.840   3.674  0.3732  0.3998 -0.9833
 5313SOL    HW227576   4.452   0.725   3.586 -3.1988  1.4941  1.8851
 5314SOL     OW27577   0.212   1.629  14.454 -0.1057 -0.4546 -0.0263
 5314SOL    HW127578   0.271   1.579  14.510  0.8761  2.7464  1.7883
 5314SOL    HW227579   0.199   1.707  14.508 -2.0292 -1.5068  1.0328
 5315SOL     OW27580   0.290   2.486   3.008  0.1094  0.2366 -0.0916
 5315SOL    HW127581   0.273   2.447   2.923  3.1987  1.2152 -1.1512
 5315SOL    HW227582   0.306   2.572   2.969 -0.3805 -0.4811 -1.8616
 5316SOL     OW27583   2.507   4.271   2.714  0.6815  0.0847  0.4752
 5316SOL    HW127584   2.557   4.330   2.657  1.0695 -0.6149  0.1054
 5316SOL    HW227585   2.548   4.269   2.801  0.8947  0.1639  0.3770
 5317SOL     OW27586   0.470   3.719   3.137  0.0149  0.5187  0.2333
 5317SOL    HW127587   0.481   3.732   3.232  0.1944  3.8943 -0.2651
 5317SOL    HW227588   0.468   3.624   3.132 -0.3752  0.6479 -1.8935
 5318SOL     OW27589   0.195   2.523   8.077 -0.3578 -0.0004 -0.1708
 5318SOL    HW127590   0.118   2.488   8.032 -0.7508  0.6781 -0.0295
 5318SOL    HW227591   0.233   2.444   8.115 -0.5804 -0.6250 -1.2560
 5319SOL     OW27592   0.372   2.997   9.472 -0.3644  0.3553  0.2284
 5319SOL    HW127593   0.326   3.079   9.493 -1.3936 -0.7015  2.1231
 5319SOL    HW227594   0.319   2.932   9.517  2.7113 -2.0861  0.3477
 5320SOL     OW27595   1.565   1.299   1.230  0.0404 -0.6185 -0.0631
 5320SOL    HW127596   1.583   1.229   1.167 -0.4261  1.4143 -2.4679
 5320SOL    HW227597   1.651   1.333   1.254 -1.3605  2.0637  1.2007
 5321SOL     OW27598   1.646   1.900   5.267 -0.4100 -0.6403 -0.8229
 5321SOL    HW127599   1.649   1.994   5.251  2.5601 -0.8689 -1.6048
 5321SOL    HW227600   1.695   1.883   5.348 -0.4061 -0.9280 -0.8843
 5322SOL     OW27601   4.120   2.624   1.803 -0.0371  0.0377 -0.3350
 5322SOL    HW127602   4.113   2.603   1.709 -0.7734 -1.5707  0.0738
 5322SOL    HW227603   4.088   2.538   1.830  0.9228  0.8469  3.3686
 5323SOL     OW27604   3.521   0.480   1.674  0.1726 -0.2478  0.5996
 5323SOL    HW127605   3.600   0.506   1.722  0.3437 -0.4298  0.4199
 5323SOL    HW227606   3.540   0.389   1.649  0.5441 -0.6139  2.2013
 5324SOL     OW27607   0.584   3.409   8.899  0.7405 -0.1665  0.1423
 5324SOL    HW127608   0.551   3.338   8.954  0.1352  1.3245  1.7103
 5324SOL    HW227609   0.676   3.403   8.925  0.1112 -2.0256  1.9930
 5325SOL     OW27610   3.318   0.784  17.549  0.2446  0.1411  0.1739
 5325SOL    HW127611   3.358   0.869  17.566  0.2404  0.0985  0.3930
 5325SOL    HW227612   3.348   0.768  17.460 -0.6774  0.1512 -0.1366
 5326SOL     OW27613   1.948   1.071   1.294 -0.4822 -0.0561  0.1436
 5326SOL    HW127614   2.037   1.062   1.328 -0.4472 -0.9412 -0.1860
 5326SOL    HW227615   1.896   1.054   1.373 -0.0363 -0.7947  0.2819
 5327SOL     OW27616   3.068   4.730   1.960  0.3826 -0.3076  0.3203
 5327SOL    HW127617   3.057   4.690   2.046  1.2939 -2.3506 -0.5189
 5327SOL    HW227618   3.066   4.648   1.911 -0.5306 -1.4418  2.2965
 5328SOL     OW27619   3.071   3.444   2.193 -0.2459 -0.1158 -0.1096
 5328SOL    HW127620   3.161   3.418   2.174  0.5444  1.7252  1.0343
 5328SOL    HW227621   3.081   3.506   2.266  0.3323  0.5017 -0.7114
 5329SOL     OW27622   1.790   0.104   5.713  0.5433 -0.3660  0.1394
 5329SOL    HW127623   1.829   0.117   5.626  1.0678  1.7206  0.6713
 5329SOL    HW227624   1.696   0.114   5.696  0.5611 -1.6702 -0.7309
 5330SOL     OW27625   1.644   2.405   2.430 -0.0471 -0.0899 -0.0400
 5330SOL    HW127626   1.723   2.353   2.444 -1.6115 -2.0115  1.7115
 5330SOL    HW227627   1.594   2.363   2.500 -0.4766 -0.9599 -0.8487
 5331SOL     OW27628   0.295   0.027   9.551  0.1517 -0.0631 -0.0861
 5331SOL    HW127629   0.384   4.732   9.566  0.0758  0.0862  0.6835
 5331SOL    HW227630   0.267   0.067   9.633 -0.4799 -1.8321  0.5812
 5332SOL     OW27631   1.191   4.051   2.599 -0.7129 -0.1463 -0.1086
 5332SOL    HW127632   1.224   4.134   2.565 -0.0780 -0.0220  0.8137
 5332SOL    HW227633   1.247   4.035   2.675 -2.2095 -1.5075  0.7126
 5333SOL     OW27634   3.689   3.867   5.346 -0.2083  0.0672 -0.4032
 5333SOL    HW127635   3.652   3.866   5.435 -0.4598 -0.7043 -0.5180
 5333SOL    HW227636   3.661   3.952   5.314  1.2338  0.8827  0.5047
 5334SOL     OW27637   0.656   1.702   6.123  0.5400  0.1399  0.1605
 5334SOL    HW127638   0.736   1.652   6.105  0.5618  1.0478 -2.2664
 5334SOL    HW227639   0.679   1.756   6.198 -0.5875  1.3104 -0.3463
 5335SOL     OW27640   3.122   3.252  12.321  0.3062  0.1280 -0.0575
 5335SOL    HW127641   3.183   3.223  12.253  1.1097  1.2354  0.1692
 5335SOL    HW227642   3.134   3.184  12.387  0.7190 -0.8485 -1.1553
 5336SOL     OW27643   0.664   0.870  12.324 -0.5098 -0.3082 -0.0263
 5336SOL    HW127644   0.702   0.957  12.339  1.1392 -1.8466  4.6390
 5336SOL    HW227645   0.662   0.857  12.229 -3.5487  3.3786 -0.4924
 5337SOL     OW27646   3.198   4.368   2.449  0.1444 -0.3412  0.4690
 5337SOL    HW127647   3.131   4.423   2.409  1.6079  1.2234  0.1566
 5337SOL    HW227648   3.171   4.380   2.540  0.6304  0.7222  0.4752
 5338SOL     OW27649   3.881   2.395   3.513 -0.8055 -0.0431 -1.0290
 5338SOL    HW127650   3.806   2.443   3.477 -1.6929  0.3724  1.3699
 5338SOL    HW227651   3.940   2.390   3.438  2.0335  1.6490  1.1087
 5339SOL     OW27652   1.097   2.663   5.168  0.7330 -0.4581  0.0055
 5339SOL    HW127653   1.175   2.630   5.213  2.1911  2.1689 -0.5762
 5339SOL    HW227654   1.132   2.747   5.139 -0.0297 -0.1355  0.0061
 5340SOL     OW27655   1.831   2.977   9.092  0.0809  0.2906  0.2160
 5340SOL    HW127656   1.916   2.945   9.121  0.2286 -0.0444 -0.5994
 5340SOL    HW227657   1.800   3.015   9.174  0.7016  0.9254  0.1620
 5341SOL     OW27658   4.703   3.351   9.371 -0.2594  0.2587  0.0039
 5341SOL    HW127659   4.667   3.303   9.296 -0.5440  0.7726 -0.1936
 5341SOL    HW227660   4.632   3.415   9.368  2.4561  3.2874  0.8870
 5342SOL     OW27661   2.311   1.795   7.117 -0.3482  0.0315 -0.3987
 5342SOL    HW127662   2.365   1.739   7.061  0.4014  0.4969 -0.1450
 5342SOL    HW227663   2.227   1.750   7.108 -0.9658  1.4019 -1.6473
 5343SOL     OW27664   2.331   2.239   9.421  0.5780 -0.0438 -0.7277
 5343SOL    HW127665   2.293   2.182   9.488  0.6548  0.8780  0.1155
 5343SOL    HW227666   2.260   2.292   9.386 -0.7016  0.1346  2.0840
 5344SOL     OW27667   3.715   2.530   8.530  0.2941  0.2982 -0.0226
 5344SOL    HW127668   3.632   2.487   8.551  1.4113 -0.4302  2.8554
 5344SOL    HW227669   3.759   2.466   8.474  1.2343 -0.7246  1.8751
 5345SOL     OW27670   4.006   4.041   2.592 -0.3393  0.1846  0.1869
 5345SOL    HW127671   4.068   4.051   2.664 -0.0081 -1.1911  0.0917
 5345SOL    HW227672   3.992   4.134   2.576 -1.7164  0.0915  0.8264
 5346SOL     OW27673   3.605   2.109  11.091 -0.4460  0.2059  0.3498
 5346SOL    HW127674   3.629   2.159  11.169  0.6770  2.0807 -1.2201
 5346SOL    HW227675   3.690   2.082  11.058 -0.1489 -1.3148  2.2847
 5347SOL     OW27676   1.153   2.534  17.341 -0.1839  0.3375  0.6094
 5347SOL    HW127677   1.131   2.522  17.434 -1.3030 -1.5565  0.1000
 5347SOL    HW227678   1.145   2.629  17.332  0.1503  0.3881  0.8417
 5348SOL     OW27679   3.562   2.214   9.129 -0.0585 -0.2684  0.0572
 5348SOL    HW127680   3.537   2.235   9.039 -1.8590  0.6118  0.7687
 5348SOL    HW227681   3.519   2.128   9.127  0.9248 -0.7566 -0.6893
 5349SOL     OW27682   2.121   4.213   5.413  0.3676 -0.3052 -0.3981
 5349SOL    HW127683   2.107   4.270   5.489 -0.3534 -0.9320 -0.0599
 5349SOL    HW227684   2.093   4.262   5.336  0.6568  0.5562  0.0443
 5350SOL     OW27685   1.698   1.500  10.421  0.2120 -0.2965 -0.2695
 5350SOL    HW127686   1.661   1.420  10.458  1.4145 -1.0861 -0.7768
 5350SOL    HW227687   1.791   1.490  10.441  0.6934 -0.7349 -2.6457
 5351SOL     OW27688   1.757   4.227   3.771 -1.0109  0.6199  0.3154
 5351SOL    HW127689   1.794   4.162   3.832 -0.9422  1.7825  1.5167
 5351SOL    HW227690   1.818   4.298   3.791  0.4570  0.1348 -2.4759
 5352SOL     OW27691   0.268   2.152   6.206 -0.2469 -0.1049  0.1433
 5352SOL    HW127692   0.316   2.090   6.260 -0.3714 -0.9948 -0.7731
 5352SOL    HW227693   0.219   2.092   6.150 -0.9313 -0.3981  1.0567
 5353SOL     OW27694   4.514   3.311   7.334  0.0881 -0.1585 -0.5752
 5353SOL    HW127695   4.605   3.336   7.326 -0.6414  2.0218 -1.8938
 5353SOL    HW227696   4.529   3.216   7.337  0.8216 -0.0554 -1.1478
 5354SOL     OW27697   2.909   2.035   5.776 -0.3895 -0.1931 -0.4113
 5354SOL    HW127698   2.930   1.945   5.800  1.2969 -0.6436 -3.6007
 5354SOL    HW227699   2.853   2.067   5.847  0.3212  1.4172 -0.5831
 5355SOL     OW27700   2.544   1.979   4.266 -0.1288 -1.2272  0.1596
 5355SOL    HW127701   2.628   2.025   4.270 -0.4400 -0.6422  0.0337
 5355SOL    HW227702   2.497   2.060   4.243  1.2968 -0.1203  1.1067
 5356SOL     OW27703   1.096   2.859   4.763 -0.2324 -0.1364  0.0237
 5356SOL    HW127704   1.189   2.864   4.789  0.1053  1.8523 -1.6166
 5356SOL    HW227705   1.086   2.767   4.786 -1.9305  0.4700  1.7564
 5357SOL     OW27706   2.055   0.900   0.897 -0.1437  0.5647 -0.5036
 5357SOL    HW127707   1.983   0.919   0.957  0.2148 -1.8027  0.6580
 5357SOL    HW227708   2.121   0.967   0.917  0.3084 -0.3382  1.0730
 5358SOL     OW27709   1.179   3.202   5.658  0.1179  0.4848 -0.6708
 5358SOL    HW127710   1.231   3.282   5.661  0.9754 -0.0973 -0.0548
 5358SOL    HW227711   1.099   3.233   5.615 -0.7948  0.1043  0.7314
 5359SOL     OW27712   1.434   3.652   9.661 -0.4977 -0.3015 -0.5144
 5359SOL    HW127713   1.403   3.634   9.572 -1.7452 -2.3570  0.3321
 5359SOL    HW227714   1.509   3.593   9.668  1.2062  2.1146  1.5045
 5360SOL     OW27715   0.295   1.953  10.078 -0.3306 -0.1201  0.1995
 5360SOL    HW127716   0.353   2.024  10.105  0.5738 -1.4780  1.8372
 5360SOL    HW227717   0.347   1.875  10.099 -0.9995 -0.4699  0.5466
 5361SOL     OW27718   0.179   0.256  16.675  0.5927  0.2089  0.2759
 5361SOL    HW127719   0.136   0.194  16.734  1.4969 -0.2360  0.4496
 5361SOL    HW227720   0.151   0.331  16.728  0.5233  0.6432 -0.3784
 5362SOL     OW27721   2.455   1.361   9.239  0.0210 -0.1434  0.2609
 5362SOL    HW127722   2.502   1.407   9.309 -0.1315 -0.9844  0.9172
 5362SOL    HW227723   2.368   1.400   9.249 -0.4720 -0.1220 -4.3140
 5363SOL     OW27724   3.592   2.609   8.214 -0.1192  0.1286  0.4493
 5363SOL    HW127725   3.613   2.554   8.138  1.6750  0.4724  0.7130
 5363SOL    HW227726   3.668   2.662   8.236 -0.6482  1.7013 -1.4706
 5364SOL     OW27727   4.590   0.593   3.811 -0.2313  0.0220 -0.2542
 5364SOL    HW127728   4.571   0.672   3.760  0.9021 -0.2319 -1.0660
 5364SOL    HW227729   4.519   0.601   3.874  1.5886  0.8387  1.7008
 5365SOL     OW27730   0.523   3.383   4.314  0.3421 -0.4537 -0.2776
 5365SOL    HW127731   0.512   3.291   4.293 -0.9386 -0.3003 -0.2826
 5365SOL    HW227732   0.596   3.401   4.254  0.3874 -0.3726 -0.1993
 5366SOL     OW27733   2.826   0.762  12.663 -0.5458 -0.7882  0.2974
 5366SOL    HW127734   2.843   0.669  12.648 -1.1392 -1.2247  2.3673
 5366SOL    HW227735   2.808   0.782  12.571  0.3495  0.9250  0.4949
 5367SOL     OW27736   3.590   2.289   0.366  0.6403 -0.0618  0.5530
 5367SOL    HW127737   3.502   2.319   0.343  0.9455 -0.7170 -1.4821
 5367SOL    HW227738   3.625   2.376   0.387  1.0006 -0.2877  0.9034
 5368SOL     OW27739   3.803   3.680   8.878  0.4430 -1.0028  0.4163
 5368SOL    HW127740   3.711   3.705   8.889  0.2680 -1.9537  1.1986
 5368SOL    HW227741   3.850   3.755   8.843  0.8302 -0.9394  1.0662
 5369SOL     OW27742   0.593   2.332   4.828 -0.3795 -0.5227  0.1848
 5369SOL    HW127743   0.611   2.394   4.899  0.1958 -0.5418  0.0630
 5369SOL    HW227744   0.567   2.255   4.878  1.0750 -3.0536 -3.0110
 5370SOL     OW27745   4.629   4.190   6.842 -0.1393  0.0403 -0.1873
 5370SOL    HW127746   4.568   4.141   6.896 -0.0634  0.4180  0.2410
 5370SOL    HW227747   4.706   4.157   6.888 -0.7398 -1.1154 -0.0343
 5371SOL     OW27748   2.607   3.125   4.243  0.0534  0.6533 -0.1858
 5371SOL    HW127749   2.582   3.197   4.301  0.5147  0.0953  0.7111
 5371SOL    HW227750   2.596   3.049   4.300  0.5202 -1.7639 -3.3059
 5372SOL     OW27751   2.210   1.141   0.993 -0.6600  0.5928  0.3646
 5372SOL    HW127752   2.142   1.201   0.962  1.2465  2.3861 -0.3565
 5372SOL    HW227753   2.206   1.162   1.086  0.6549 -2.2994  1.0741
 5373SOL     OW27754   1.379   3.712   3.181  0.1208 -0.1842 -0.2418
 5373SOL    HW127755   1.449   3.664   3.225 -0.5861  0.1785  1.2737
 5373SOL    HW227756   1.310   3.670   3.231 -0.7294  0.9176 -0.4843
 5374SOL     OW27757   0.737   0.317   4.497  0.4842  0.3475  0.1465
 5374SOL    HW127758   0.686   0.284   4.571 -0.3394  2.5773  0.5730
 5374SOL    HW227759   0.825   0.302   4.533  0.8858  2.3119 -0.0415
 5375SOL     OW27760   3.943   0.230  14.563  0.6239  0.8419 -0.0486
 5375SOL    HW127761   3.852   0.202  14.577  1.0788 -0.6976 -0.1700
 5375SOL    HW227762   3.928   0.276  14.480 -0.4415 -0.9061 -0.8153
 5376SOL     OW27763   0.349   4.688   3.811 -0.0435 -0.1073 -0.2391
 5376SOL    HW127764   0.315   4.690   3.900 -0.9259  0.8770 -0.5889
 5376SOL    HW227765   0.345   4.598   3.780  1.1136 -0.0586 -0.5239
 5377SOL     OW27766   0.431   3.025   7.595 -0.3056  0.5834 -0.4988
 5377SOL    HW127767   0.384   2.993   7.518 -0.1296 -0.1679 -0.2947
 5377SOL    HW227768   0.455   3.116   7.581 -0.9216  0.4091 -2.6396
 5378SOL     OW27769   1.864   2.853  14.283  0.0520 -0.0813 -0.4667
 5378SOL    HW127770   1.952   2.881  14.310  0.2594 -1.3054  0.1091
 5378SOL    HW227771   1.834   2.821  14.368 -1.5958 -0.2239 -1.0932
 5379SOL     OW27772   1.163   3.672   4.038 -0.3317  0.5469  0.3108
 5379SOL    HW127773   1.226   3.685   3.968  0.4076 -0.1467  0.8462
 5379SOL    HW227774   1.208   3.721   4.106  0.5710  1.2652 -0.8235
 5380SOL     OW27775   4.705   1.258   5.105  0.1437 -0.4173  0.4242
 5380SOL    HW127776   4.652   1.226   5.178  1.0482 -1.0199  0.8088
 5380SOL    HW227777   0.043   1.198   5.105  1.2964  1.0184  0.7629
 5381SOL     OW27778   3.228   3.818   9.129  0.4965 -0.0780  0.0184
 5381SOL    HW127779   3.142   3.812   9.088  0.0691 -1.7125  1.1757
 5381SOL    HW227780   3.212   3.746   9.189 -2.9945  1.0821  0.4712
 5382SOL     OW27781   4.475   1.483  13.229  0.4896  0.5776  0.1128
 5382SOL    HW127782   4.476   1.391  13.201  1.1595  0.1237  1.6230
 5382SOL    HW227783   4.562   1.491  13.266  0.8589  2.5579 -1.2158
 5383SOL     OW27784   4.565   4.684   8.686  0.3745 -0.4370 -0.2093
 5383SOL    HW127785   4.489   0.005   8.693  0.0792 -0.6128 -2.1327
 5383SOL    HW227786   4.637   0.002   8.719  0.2020 -0.2396 -0.1573
 5384SOL     OW27787   0.703   2.531   8.293 -0.2827 -0.3132  0.2341
 5384SOL    HW127788   0.675   2.623   8.285  1.1544  0.2482  1.6798
 5384SOL    HW227789   0.724   2.509   8.383 -2.0700 -0.6189  0.5740
 5385SOL     OW27790   4.514   4.535   5.652 -0.3671  0.6690 -0.1699
 5385SOL    HW127791   4.433   4.584   5.663  0.4491  1.9932 -0.0477
 5385SOL    HW227792   4.494   4.457   5.599  0.6591  1.5061 -1.7813
 5386SOL     OW27793   3.537   4.319   3.864  0.1501  0.5472  0.4320
 5386SOL    HW127794   3.564   4.305   3.955 -2.8210 -3.5251  0.7258
 5386SOL    HW227795   3.600   4.374   3.818  2.3333 -2.1095  0.2587
 5387SOL     OW27796   4.201   1.100   2.637  0.0722  0.3310 -0.1516
 5387SOL    HW127797   4.115   1.138   2.616  0.3760  1.0079 -0.1303
 5387SOL    HW227798   4.186   1.014   2.676  2.6411 -0.6392 -1.2908
 5388SOL     OW27799   2.006   3.429   7.394  0.0849 -0.3060  0.1862
 5388SOL    HW127800   2.065   3.453   7.466  0.2152 -0.5283  0.1551
 5388SOL    HW227801   2.073   3.401   7.331 -0.1709  1.1734 -0.7277
 5389SOL     OW27802   3.110   0.589  14.379 -0.4313  0.1939 -0.6406
 5389SOL    HW127803   3.174   0.599  14.450 -0.0512  2.3145 -1.2780
 5389SOL    HW227804   3.160   0.623  14.305  1.6910 -2.4167 -0.3867
 5390SOL     OW27805   1.994   2.484  16.600 -0.5055 -0.0748  0.1995
 5390SOL    HW127806   1.904   2.492  16.631  0.8328  1.6237  3.5246
 5390SOL    HW227807   2.040   2.532  16.669  3.9933 -1.7433 -1.6006
 5391SOL     OW27808   0.368   2.317  16.758 -0.2477  0.0955 -0.2687
 5391SOL    HW127809   0.276   2.314  16.728 -0.1504  0.0621 -0.5673
 5391SOL    HW227810   0.394   2.241  16.705  3.5709 -0.4207  2.4092
 5392SOL     OW27811   0.024   1.458   8.097  0.0719 -0.2093  0.5434
 5392SOL    HW127812   4.701   1.489   8.029 -1.7851 -0.6364  1.9878
 5392SOL    HW227813   4.706   1.384   8.125  1.6559 -1.5382  0.1245
 5393SOL     OW27814   3.554   4.560   7.755  0.2575 -0.2844 -0.1918
 5393SOL    HW127815   3.614   4.486   7.747 -0.5716 -1.0274  0.4082
 5393SOL    HW227816   3.566   4.606   7.672  0.6294  1.2337  0.7045
 5394SOL     OW27817   3.868   1.395   6.985 -0.0773 -0.1253  0.6008
 5394SOL    HW127818   3.834   1.483   6.970 -0.5865 -0.3728  0.3344
 5394SOL    HW227819   3.927   1.379   6.912  0.5899  1.2234  0.8258
 5395SOL     OW27820   4.608   4.602   5.290  0.8669  0.3593 -0.1298
 5395SOL    HW127821   4.600   4.506   5.293 -0.0028  0.3758 -1.5853
 5395SOL    HW227822   4.613   4.604   5.194 -1.9435  0.0304 -0.3002
 5396SOL     OW27823   1.620   0.118   1.960  0.2030  0.2939 -0.2430
 5396SOL    HW127824   1.614   0.111   1.865 -1.8437 -0.9889 -0.0085
 5396SOL    HW227825   1.574   0.202   1.963 -0.0230  0.1969 -1.0706
 5397SOL     OW27826   2.699   1.451   8.223 -0.4011 -0.0813  0.0703
 5397SOL    HW127827   2.710   1.546   8.230 -1.9822 -0.0522  2.1577
 5397SOL    HW227828   2.619   1.431   8.271 -1.6909  2.1976 -1.1263
 5398SOL     OW27829   3.441   1.078   1.907  0.1020  0.0015  0.5176
 5398SOL    HW127830   3.478   1.151   1.856 -1.1937  0.8089  0.7389
 5398SOL    HW227831   3.474   1.101   1.994  0.5087 -1.2054  0.6741
 5399SOL     OW27832   1.270   3.753   3.815 -0.4653 -0.2320  0.2811
 5399SOL    HW127833   1.245   3.717   3.730 -0.1190 -1.7068  0.8032
 5399SOL    HW227834   1.348   3.805   3.796  1.6386 -3.2883  0.5580
 5400SOL     OW27835   3.244   3.846   9.716 -0.1344  0.4720  0.5896
 5400SOL    HW127836   3.292   3.791   9.654  0.1581  0.9361  0.3952
 5400SOL    HW227837   3.281   3.932   9.692 -0.9253  0.2944 -1.2526
 5401SOL     OW27838   3.083   2.138   1.761 -0.1870  0.1541  0.2780
 5401SOL    HW127839   3.017   2.072   1.785  0.0411 -0.1814 -0.0245
 5401SOL    HW227840   3.143   2.074   1.724 -0.1107  0.7860 -0.6955
 5402SOL     OW27841   1.455   0.856  11.699 -0.2800  0.0066 -0.7032
 5402SOL    HW127842   1.379   0.848  11.756  0.0536  3.5166  0.2443
 5402SOL    HW227843   1.497   0.933  11.736 -1.6674  0.7196 -0.6059
 5403SOL     OW27844   1.549   4.646   2.625 -0.1718 -0.2407 -0.5116
 5403SOL    HW127845   1.555   4.558   2.663  2.7549  0.7600  1.3680
 5403SOL    HW227846   1.477   4.687   2.673  0.6144  0.7532 -0.1766
 5404SOL     OW27847   2.671   2.987   4.019 -0.3030 -0.1454  0.3079
 5404SOL    HW127848   2.737   2.939   4.070  0.4304  1.0343  0.4759
 5404SOL    HW227849   2.636   3.057   4.074  1.5839  1.2022 -0.2033
 5405SOL     OW27850   2.660   0.050   2.875  0.2776  0.0700  0.7880
 5405SOL    HW127851   2.627   4.728   2.807  1.3835 -1.5645  1.6801
 5405SOL    HW227852   2.622   0.132   2.842  4.2651  1.2938 -0.8033
 5406SOL     OW27853   4.392   2.585   2.686 -0.3376  0.5485 -0.0942
 5406SOL    HW127854   4.342   2.503   2.677 -1.5588  1.0074  2.3946
 5406SOL    HW227855   4.481   2.550   2.683 -1.3830 -2.2655  1.6317
 5407SOL     OW27856   1.811   0.365   5.829  0.2220  0.1059 -0.1064
 5407SOL    HW127857   1.874   0.334   5.893  0.9868 -0.8691 -1.3227
 5407SOL    HW227858   1.780   0.279   5.802  0.0988 -0.4230  1.7971
 5408SOL     OW27859   3.213   1.999   2.804 -0.4057  0.2522  0.2871
 5408SOL    HW127860   3.216   2.015   2.710  1.8062  3.2182  0.8391
 5408SOL    HW227861   3.286   2.059   2.820 -1.5682  2.0989 -1.2845
 5409SOL     OW27862   0.995   3.772   3.178 -0.0666  0.6411  0.2824
 5409SOL    HW127863   0.923   3.710   3.165  0.5247  0.1111 -0.4847
 5409SOL    HW227864   0.989   3.808   3.089 -0.2697 -0.2363 -0.0529
 5410SOL     OW27865   3.969   0.910  15.137  0.3521  0.3119  0.5392
 5410SOL    HW127866   3.927   0.832  15.172 -0.7757  1.3919  1.5965
 5410SOL    HW227867   3.918   0.937  15.061  1.0375  1.8970  0.6355
 5411SOL     OW27868   3.048   1.238   4.084  0.1605  0.1566 -0.3718
 5411SOL    HW127869   3.108   1.249   4.010  0.8672 -4.0665 -0.4543
 5411SOL    HW227870   2.977   1.190   4.042 -0.1669  0.6792 -0.4117
 5412SOL     OW27871   1.804   4.442  12.736  0.1879 -0.4604  0.1973
 5412SOL    HW127872   1.890   4.463  12.698 -0.4434 -0.5088 -1.2708
 5412SOL    HW227873   1.825   4.412  12.824  0.6424  1.0397  0.6069
 5413SOL     OW27874   1.030   3.585   2.620 -0.0712 -0.5741  0.1084
 5413SOL    HW127875   1.012   3.568   2.713 -0.5841 -2.5355 -0.3465
 5413SOL    HW227876   1.024   3.681   2.617  1.3065 -0.5116 -0.7660
 5414SOL     OW27877   3.653   2.576   1.589 -0.2936  0.1795  0.0613
 5414SOL    HW127878   3.615   2.653   1.547 -0.4846  0.0511 -0.0017
 5414SOL    HW227879   3.668   2.508   1.523 -0.6485  0.6376 -0.4894
 5415SOL     OW27880   1.413   1.371   8.606 -0.4939  0.1168  0.0924
 5415SOL    HW127881   1.369   1.403   8.685 -1.0816 -0.5746  0.0456
 5415SOL    HW227882   1.341   1.365   8.544 -0.0650  0.5535 -0.4411
 5416SOL     OW27883   4.427   1.613   3.598  0.0946 -0.8486  0.4321
 5416SOL    HW127884   4.465   1.536   3.555 -1.1571 -0.9067 -0.5812
 5416SOL    HW227885   4.352   1.573   3.643 -1.5511  2.5301  0.6821
 5417SOL     OW27886   3.499   3.768   0.747 -0.0592  0.1506  0.0671
 5417SOL    HW127887   3.529   3.853   0.716  1.6733 -0.0263  1.2440
 5417SOL    HW227888   3.545   3.708   0.688  0.8548  1.6193 -0.6981
 5418SOL     OW27889   1.648   0.554   8.507 -0.5752  0.4215 -0.3515
 5418SOL    HW127890   1.636   0.592   8.594  0.6472 -1.6235  0.7165
 5418SOL    HW227891   1.634   0.461   8.521 -4.4108  1.4704  2.7206
 5419SOL     OW27892   0.961   0.557   3.325 -0.4867 -0.0025 -0.3681
 5419SOL    HW127893   1.022   0.490   3.354  0.0071  0.5063 -0.2304
 5419SOL    HW227894   0.975   0.558   3.230  0.4176 -2.3768 -0.2585
 5420SOL     OW27895   3.563   3.090  11.660  0.1060  0.5602 -0.0957
 5420SOL    HW127896   3.544   3.177  11.694  2.2723  1.1531 -0.3957
 5420SOL    HW227897   3.622   3.047  11.723 -1.5392 -0.8165  0.5256
 5421SOL     OW27898   0.281   4.067  16.107 -0.3026 -0.1431 -0.1341
 5421SOL    HW127899   0.318   4.074  16.019 -2.8044 -2.0697 -1.3169
 5421SOL    HW227900   0.310   4.150  16.146 -1.0033 -0.0060  0.0931
 5422SOL     OW27901   0.494   0.891   2.025 -0.0315 -0.8292  0.7921
 5422SOL    HW127902   0.449   0.914   2.106  3.2231 -0.0753  2.3743
 5422SOL    HW227903   0.578   0.934   2.042 -0.3459  0.7359 -1.5634
 5423SOL     OW27904   2.719   0.138  12.862 -0.0946 -0.1253  0.3078
 5423SOL    HW127905   2.749   0.050  12.887 -2.9909 -1.2069 -0.0458
 5423SOL    HW227906   2.625   0.123  12.857 -0.2727  1.7472 -1.7913
 5424SOL     OW27907   3.493   3.223   3.679  0.1960 -0.0552  0.4379
 5424SOL    HW127908   3.560   3.155   3.676  0.9558  0.6373  1.6215
 5424SOL    HW227909   3.552   3.288   3.718  1.5403  0.5356 -2.5973
 5425SOL     OW27910   3.588   0.641   4.745  0.2528 -0.7721  0.3871
 5425SOL    HW127911   3.553   0.704   4.683 -1.0589  0.1433  2.0413
 5425SOL    HW227912   3.569   0.694   4.822 -2.2523 -1.5552  0.3298
 5426SOL     OW27913   2.529   4.587  10.268  0.0254 -0.1621  0.2103
 5426SOL    HW127914   2.594   4.658  10.276  0.2712 -0.4712  0.9747
 5426SOL    HW227915   2.550   4.535  10.190 -1.8825 -1.0126  0.2744
 5427SOL     OW27916   1.381   3.045  11.381  0.0960  0.0763  0.1782
 5427SOL    HW127917   1.357   3.108  11.314  1.0452  0.4875  0.2139
 5427SOL    HW227918   1.302   3.051  11.435  0.3321 -2.9095  0.8513
 5428SOL     OW27919   2.057   2.482   7.787  0.0290 -0.1420  0.2143
 5428SOL    HW127920   2.147   2.504   7.808  0.6418 -0.6726 -1.8763
 5428SOL    HW227921   2.056   2.496   7.692 -0.4406 -0.9149  0.1028
 5429SOL     OW27922   4.046   0.540  16.668 -0.1751 -0.1222  0.3451
 5429SOL    HW127923   3.957   0.573  16.677 -1.0562 -2.0228 -1.5183
 5429SOL    HW227924   4.087   0.627  16.665  0.9048 -0.5925  1.3114
 5430SOL     OW27925   2.409   1.869   4.638 -0.7247  0.0031 -0.2173
 5430SOL    HW127926   2.355   1.799   4.601  1.2669 -1.8965  0.4573
 5430SOL    HW227927   2.445   1.833   4.719  0.0689 -3.6197 -2.1518
 5431SOL     OW27928   4.342   0.638   3.446 -0.2204 -0.6284 -0.2413
 5431SOL    HW127929   4.354   0.553   3.489 -1.7176 -0.2644  0.8980
 5431SOL    HW227930   4.386   0.617   3.364  1.5363 -0.6167  0.6955
 5432SOL     OW27931   2.262   0.569   2.806  0.5564  0.1353  0.1907
 5432SOL    HW127932   2.236   0.653   2.767 -3.1619 -1.5083 -0.9070
 5432SOL    HW227933   2.351   0.590   2.835  0.0850  2.2731  0.1082
 5433SOL     OW27934   0.406   1.756   9.152 -0.4642  0.0006 -0.0535
 5433SOL    HW127935   0.443   1.804   9.078  1.8385  1.1986  1.8555
 5433SOL    HW227936   0.396   1.825   9.218  1.0236  1.2711 -1.1578
 5434SOL     OW27937   0.182   0.850   5.843 -0.3932  0.1534 -0.2488
 5434SOL    HW127938   0.153   0.852   5.752  2.4776  3.8631 -1.0909
 5434SOL    HW227939   0.226   0.765   5.845  1.7431  1.2833  0.9936
 5435SOL     OW27940   3.937   2.065  14.647  0.0990  0.4340  0.0582
 5435SOL    HW127941   3.988   1.984  14.647 -1.5181 -0.5844  1.5482
 5435SOL    HW227942   3.879   2.032  14.579  0.7965 -0.3268 -0.1654
 5436SOL     OW27943   3.153   3.112   3.354  0.2230  0.2426 -0.4331
 5436SOL    HW127944   3.091   3.173   3.313  1.3290  1.3170 -0.5021
 5436SOL    HW227945   3.200   3.176   3.407  0.3067  0.5295 -0.8594
 5437SOL     OW27946   0.730   1.717  13.110  0.2636  0.5358  0.1860
 5437SOL    HW127947   0.824   1.733  13.102  0.1898  1.2864  0.8287
 5437SOL    HW227948   0.704   1.771  13.185  1.7006  1.2059  0.1983
 5438SOL     OW27949   2.750   2.316   3.667 -0.0547  0.1810  0.0086
 5438SOL    HW127950   2.763   2.370   3.745  0.6067  0.4427 -0.2832
 5438SOL    HW227951   2.821   2.343   3.608 -2.7179  0.6167 -3.0052
 5439SOL     OW27952   2.634   1.894   1.068 -0.3839  0.2737  0.5283
 5439SOL    HW127953   2.548   1.922   1.039 -0.2893  0.2737  0.2529
 5439SOL    HW227954   2.696   1.949   1.020  0.6286  0.5550  2.1361
 5440SOL     OW27955   2.213   2.700   3.515  0.3816  0.1634 -0.6271
 5440SOL    HW127956   2.135   2.646   3.523  0.1042  1.0177  2.4946
 5440SOL    HW227957   2.192   2.750   3.436 -0.0293  2.2993  0.8242
 5441SOL     OW27958   4.386   4.638   2.169  0.2297  0.0807  0.1238
 5441SOL    HW127959   4.323   4.643   2.097  0.1357  0.6697  0.2467
 5441SOL    HW227960   4.333   4.600   2.239 -0.3788  0.1036 -0.3297
 5442SOL     OW27961   2.558   2.639   4.952 -0.0525 -0.1125  0.1630
 5442SOL    HW127962   2.553   2.733   4.933 -0.1189  0.3352  2.3800
 5442SOL    HW227963   2.464   2.622   4.961 -0.1000 -1.1557 -2.3432
 5443SOL     OW27964   4.495   4.716  14.864  0.2407 -0.2849 -0.7553
 5443SOL    HW127965   4.566   4.654  14.882  1.3441  0.5302 -2.2657
 5443SOL    HW227966   4.507   4.733  14.770 -1.2399  1.6168 -0.6167
 5444SOL     OW27967   0.891   3.206   4.389 -0.1649  0.2006  0.5695
 5444SOL    HW127968   0.803   3.228   4.417  0.0100  0.1857  1.1271
 5444SOL    HW227969   0.879   3.117   4.354  0.8602 -0.3419  1.5796
 5445SOL     OW27970   2.062   3.782   3.627  0.1403 -0.1798  0.0186
 5445SOL    HW127971   2.119   3.748   3.696 -0.1758 -0.8869 -0.0760
 5445SOL    HW227972   2.092   3.734   3.550  0.0636 -1.2233  0.6412
 5446SOL     OW27973   2.021   3.364   9.494  0.5366  0.0202  0.0673
 5446SOL    HW127974   2.010   3.279   9.453  0.9091  0.1093 -0.2240
 5446SOL    HW227975   1.990   3.424   9.426  1.7253  0.2195 -0.3094
 5447SOL     OW27976   2.113   3.115   9.979 -0.1727  0.2319 -0.0246
 5447SOL    HW127977   2.141   3.195   9.934 -0.3258  0.9536  1.1684
 5447SOL    HW227978   2.077   3.066   9.905  0.9985  1.6891 -1.5797
 5448SOL     OW27979   3.632   2.116  16.871 -0.3858  0.3299  0.3402
 5448SOL    HW127980   3.598   2.183  16.930  0.4481 -0.4753  1.7407
 5448SOL    HW227981   3.640   2.167  16.790  3.5264 -2.2033 -0.8666
 5449SOL     OW27982   3.530   2.632   7.498  0.3809  0.0234  0.6365
 5449SOL    HW127983   3.546   2.707   7.441 -0.5024 -1.7143 -1.9216
 5449SOL    HW227984   3.593   2.637   7.570  2.1450  1.1770 -1.0195
 5450SOL     OW27985   0.117   0.325   8.425 -0.4821  0.7912  0.2256
 5450SOL    HW127986   0.143   0.319   8.517 -3.2653 -0.6797  0.9185
 5450SOL    HW227987   0.117   0.229   8.419  1.9740  0.9073 -1.6031
 5451SOL     OW27988   1.462   0.468   5.742 -0.0094  0.3305  0.3818
 5451SOL    HW127989   1.389   0.407   5.750 -0.4382  0.7715 -0.1738
 5451SOL    HW227990   1.519   0.441   5.814  0.7111 -0.9251 -0.6412
 5452SOL     OW27991   1.686   2.974   8.680  0.3117  0.5703  0.4244
 5452SOL    HW127992   1.711   3.066   8.678 -0.2626  0.7725  2.9921
 5452SOL    HW227993   1.627   2.966   8.605  0.9446  1.0576 -0.1199
 5453SOL     OW27994   0.252   3.002   8.391 -0.2036  0.0170  0.3585
 5453SOL    HW127995   0.202   2.989   8.472 -2.7266  1.1185 -1.0198
 5453SOL    HW227996   0.335   2.964   8.421 -0.1966 -0.4421 -0.2397
 5454SOL     OW27997   2.897   0.055  13.265 -0.6361  0.5978  0.2278
 5454SOL    HW127998   2.952   4.720  13.232  0.0664 -0.1103  2.9103
 5454SOL    HW227999   2.951   0.131  13.243  1.7754 -1.5726 -1.3944
 5455SOL     OW28000   1.601   4.074   3.050  0.4152 -0.4777 -0.3618
 5455SOL    HW128001   1.514   4.091   3.014  0.1099 -0.1977  0.5123
 5455SOL    HW228002   1.617   3.990   3.006 -0.4844 -0.8900  0.0895
 5456SOL     OW28003   1.248   0.642   0.536  0.4016 -0.1300 -0.9574
 5456SOL    HW128004   1.170   0.594   0.562  0.6487  0.4448  0.7894
 5456SOL    HW228005   1.302   0.568   0.506 -1.0385 -0.7464 -1.9953
 5457SOL     OW28006   0.242   1.759  16.761  0.7048  0.3816  0.2677
 5457SOL    HW128007   0.305   1.831  16.766  0.7564  0.5673 -3.3744
 5457SOL    HW228008   0.296   1.693  16.718  1.1464  0.6401  0.4247
 5458SOL     OW28009   0.694   2.888  13.690 -0.0718  0.2169 -0.1361
 5458SOL    HW128010   0.632   2.916  13.623 -0.4225 -0.1143  0.0471
 5458SOL    HW228011   0.758   2.954  13.663  1.2719 -0.5562  1.1296
 5459SOL     OW28012   1.862   1.293   6.558 -0.2155 -0.1682  0.2413
 5459SOL    HW128013   1.886   1.203   6.536  1.3012  0.1413  0.6141
 5459SOL    HW228014   1.934   1.337   6.512 -0.5051 -0.8985 -0.9267
 5460SOL     OW28015   0.948   1.525   4.858  0.1933 -0.0763  0.1289
 5460SOL    HW128016   0.859   1.550   4.886  1.3762  4.9339 -0.5888
 5460SOL    HW228017   0.933   1.499   4.767  1.3918  1.1448 -0.4090
 5461SOL     OW28018   4.193   1.557   3.731 -0.2675  0.6290 -0.1677
 5461SOL    HW128019   4.161   1.474   3.697 -1.8954  0.2856  2.2345
 5461SOL    HW228020   4.110   1.605   3.720 -1.2730 -0.7224  1.5633
 5462SOL     OW28021   0.943   4.435  15.993 -0.6019  0.3609  0.2181
 5462SOL    HW128022   0.955   4.529  16.004  0.5874  0.0168  1.8516
 5462SOL    HW228023   0.893   4.433  15.912  0.6908 -1.0804 -0.5552
 5463SOL     OW28024   3.963   1.021   1.806 -0.3011  0.1915 -0.3351
 5463SOL    HW128025   3.896   1.085   1.831  0.6611  0.8153  0.6538
 5463SOL    HW228026   4.037   1.067   1.846 -0.8413  0.1458  0.7330
 5464SOL     OW28027   4.471   0.731  10.233  0.3096 -0.2012 -0.3200
 5464SOL    HW128028   4.544   0.721  10.172  2.6133 -1.7841  2.7053
 5464SOL    HW228029   4.492   0.824  10.246 -1.3744 -0.0937  1.5530
 5465SOL     OW28030   3.155   3.895   2.467 -0.0261 -0.0255  0.3974
 5465SOL    HW128031   3.124   3.883   2.557 -1.6307 -1.1243 -0.2961
 5465SOL    HW228032   3.199   3.979   2.482 -0.7841  0.7245 -1.7044
 5466SOL     OW28033   2.425   4.459   4.509  0.7290 -0.1917 -0.1352
 5466SOL    HW128034   2.479   4.536   4.492  1.1276 -0.0821  1.6683
 5466SOL    HW228035   2.413   4.434   4.417  2.1894 -2.0056  0.1697
 5467SOL     OW28036   3.102   1.027   3.776  0.0717 -0.1133  0.6789
 5467SOL    HW128037   3.028   0.985   3.821  1.3618  0.4714  3.3436
 5467SOL    HW228038   3.158   1.034   3.853  0.0701  1.4454  0.5388
 5468SOL     OW28039   3.567   3.977  14.675 -0.2430  0.3437 -0.0016
 5468SOL    HW128040   3.571   4.018  14.588 -1.0309  0.7987  0.1803
 5468SOL    HW228041   3.661   3.960  14.686 -0.0964  1.1170 -0.0607
 5469SOL     OW28042   0.132   0.944   7.742 -0.3988 -0.0362  0.5107
 5469SOL    HW128043   0.118   0.867   7.797 -2.0662 -1.3284 -1.7213
 5469SOL    HW228044   0.043   0.958   7.710 -0.4479 -0.4867  0.4492
 5470SOL     OW28045   1.495   1.233   5.003 -0.1608 -0.3823 -0.6123
 5470SOL    HW128046   1.576   1.283   4.989  0.5185 -0.8410  1.7260
 5470SOL    HW228047   1.434   1.307   5.000  1.5448  1.0669  0.4181
 5471SOL     OW28048   0.315   2.192   9.732 -0.4830 -0.2443 -0.6957
 5471SOL    HW128049   0.236   2.234   9.767 -0.3785 -1.2307  0.7413
 5471SOL    HW228050   0.381   2.261   9.723 -3.1710  2.4851  0.7073
 5472SOL     OW28051   4.263   1.080   7.619 -0.8069 -0.0890 -0.3174
 5472SOL    HW128052   4.258   1.134   7.541 -0.0520  1.1522  0.4864
 5472SOL    HW228053   4.169   1.084   7.639 -0.8429 -0.2215 -0.4597
 5473SOL     OW28054   1.153   4.566   5.781  0.0541  0.3071  0.0360
 5473SOL    HW128055   1.215   4.499   5.751  0.1570  0.7872 -0.8270
 5473SOL    HW228056   1.102   4.517   5.846  1.9562 -1.5164  0.1764
 5474SOL     OW28057   3.092   2.068   4.540  0.0556 -0.4807  0.3489
 5474SOL    HW128058   3.136   2.083   4.624  1.7994 -1.3188 -0.4129
 5474SOL    HW228059   3.069   1.977   4.554 -0.3913 -0.5439 -0.7763
 5475SOL     OW28060   1.714   3.025   4.644 -0.2170 -0.3786 -0.5163
 5475SOL    HW128061   1.785   3.087   4.629  0.1337 -0.3577  1.3130
 5475SOL    HW228062   1.771   2.955   4.678  0.4396  0.2894 -0.2545
 5476SOL     OW28063   1.038   1.683   7.385 -0.2520 -0.3420 -0.0196
 5476SOL    HW128064   1.070   1.690   7.475  0.4629 -1.2334 -0.2021
 5476SOL    HW228065   0.949   1.650   7.392 -1.0705  1.9954  0.4491
 5477SOL     OW28066   1.168   3.666   2.334  0.5519 -0.0217 -0.5215
 5477SOL    HW128067   1.085   3.626   2.362  1.4149 -1.4218  0.0414
 5477SOL    HW228068   1.204   3.707   2.413  1.1309 -2.9801  0.7367
 5478SOL     OW28069   4.424   1.278   4.180 -0.1641 -0.3871  0.0394
 5478SOL    HW128070   4.420   1.330   4.259  2.1607  0.3484 -0.3452
 5478SOL    HW228071   4.515   1.251   4.172 -0.3724 -1.4143  1.1623
 5479SOL     OW28072   1.349   2.365  13.429  0.2639 -0.2155 -0.2819
 5479SOL    HW128073   1.316   2.453  13.449  0.8746  0.1060 -0.6596
 5479SOL    HW228074   1.264   2.325  13.447  0.0060  0.7261  0.6201
 5480SOL     OW28075   0.446   2.506   9.432  0.6284  0.0444 -0.1697
 5480SOL    HW128076   0.519   2.541   9.482  0.9012 -0.4960 -0.1839
 5480SOL    HW228077   0.478   2.531   9.345 -0.0429  0.1918 -0.3761
 5481SOL     OW28078   1.700   2.077   6.086  0.3017  0.5139 -0.2027
 5481SOL    HW128079   1.620   2.060   6.136 -0.0952  0.3257 -0.9045
 5481SOL    HW228080   1.745   2.120   6.158 -3.8851  0.1865  2.5845
 5482SOL     OW28081   1.111   4.454   1.825 -0.1162 -0.1499  0.1524
 5482SOL    HW128082   1.077   4.489   1.908  1.9875 -1.2262  1.4664
 5482SOL    HW228083   1.040   4.389   1.822 -1.5213  1.4485 -0.5932
 5483SOL     OW28084   4.204   1.239   3.443 -0.9036  0.1177 -0.3306
 5483SOL    HW128085   4.137   1.284   3.494 -0.7881 -0.4961  0.3697
 5483SOL    HW228086   4.150   1.176   3.396 -1.0069 -0.3497  0.4016
 5484SOL     OW28087   2.260   4.599   4.655 -0.5655 -0.2122  0.1161
 5484SOL    HW128088   2.300   4.542   4.589  0.3970  1.8627 -1.0834
 5484SOL    HW228089   2.217   4.528   4.702  1.0349 -1.4306 -0.2659
 5485SOL     OW28090   2.639   0.850   5.638 -0.1570 -0.5258 -0.4363
 5485SOL    HW128091   2.592   0.932   5.623  0.6784  0.3929  2.0975
 5485SOL    HW228092   2.595   0.825   5.718 -1.8794 -0.2411 -1.3004
 5486SOL     OW28093   1.061   1.850  16.637  0.3969  0.0335 -0.0768
 5486SOL    HW128094   1.112   1.814  16.565  0.2483  0.1599 -0.2446
 5486SOL    HW228095   0.973   1.815  16.623 -0.4141  1.6373  1.0149
 5487SOL     OW28096   3.689   2.247   4.444 -0.2489  0.0041  0.3970
 5487SOL    HW128097   3.746   2.298   4.501  1.4079 -1.6316  0.2051
 5487SOL    HW228098   3.690   2.155   4.472  0.3698 -0.7688 -2.1378
 5488SOL     OW28099   1.870   1.432  13.383  0.4594  0.5505 -0.9165
 5488SOL    HW128100   1.885   1.344  13.348  0.2725 -0.2166  0.9307
 5488SOL    HW228101   1.898   1.426  13.474 -0.3412 -0.5754 -0.7468
 5489SOL     OW28102   4.023   4.470  13.864  0.1691 -0.4299 -0.7779
 5489SOL    HW128103   4.089   4.539  13.862  0.8639 -1.0071  1.7322
 5489SOL    HW228104   3.988   4.476  13.775 -0.0621 -0.9999 -0.7262
 5490SOL     OW28105   0.703   1.472  12.920  0.5710  0.2325  0.2074
 5490SOL    HW128106   0.689   1.563  12.949  0.0494  0.1379  0.2580
 5490SOL    HW228107   0.645   1.429  12.982 -0.1352  4.0514  2.2208
 5491SOL     OW28108   2.434   4.230   6.054  0.6492 -0.4358 -0.0399
 5491SOL    HW128109   2.418   4.277   5.972 -0.3623  1.0792  1.0264
 5491SOL    HW228110   2.460   4.309   6.100 -0.1182 -0.0050 -0.3377
 5492SOL     OW28111   2.204   1.448   7.161  0.4735  0.5346 -0.3015
 5492SOL    HW128112   2.266   1.471   7.231 -2.2856  2.6038  1.4882
 5492SOL    HW228113   2.196   1.355   7.180 -1.3596  0.7530  0.0175
 5493SOL     OW28114   2.773   3.379   5.640  0.3463  0.3563  0.1460
 5493SOL    HW128115   2.738   3.290   5.644 -0.3599  0.6428  0.2213
 5493SOL    HW228116   2.841   3.370   5.707 -0.4505  2.0441  1.1820
 5494SOL     OW28117   3.755   4.122  17.029 -0.2561 -0.2831 -0.0037
 5494SOL    HW128118   3.660   4.127  17.022 -0.3628  0.5284  2.0772
 5494SOL    HW228119   3.769   4.159  17.116  2.2139 -2.3546  0.5141
 5495SOL     OW28120   4.029   0.729   8.138 -0.4961 -0.4658  0.5971
 5495SOL    HW128121   4.044   0.823   8.153 -2.1807 -0.1256  0.2091
 5495SOL    HW228122   4.091   0.705   8.070  0.7737  1.0162  1.2148
 5496SOL     OW28123   4.329   4.158   3.214  0.0046  0.2434 -0.1344
 5496SOL    HW128124   4.420   4.163   3.186 -0.3551 -1.1630 -1.5702
 5496SOL    HW228125   4.340   4.093   3.284 -0.1381  1.9295  1.4310
 5497SOL     OW28126   0.758   0.186   2.911  0.0993 -0.1846  0.5373
 5497SOL    HW128127   0.840   0.204   2.955 -0.2944  0.1834  1.1190
 5497SOL    HW228128   0.707   0.268   2.916  1.7500  0.7519  1.7882
 5498SOL     OW28129   4.641   2.569   4.453 -0.0930 -0.3791 -0.1571
 5498SOL    HW128130   4.617   2.660   4.439 -1.1786 -1.1928 -3.4279
 5498SOL    HW228131   4.557   2.524   4.453  0.3206 -1.1629 -0.7070
 5499SOL     OW28132   0.422   3.980  13.350  0.4399 -0.6395 -0.1643
 5499SOL    HW128133   0.365   4.056  13.364 -0.0813 -0.8984 -0.8760
 5499SOL    HW228134   0.497   4.022  13.308  0.3900 -1.1725 -0.7872
 5500SOL     OW28135   0.702   2.619   8.665 -0.0566  0.3799 -0.1094
 5500SOL    HW128136   0.784   2.598   8.620  0.9590 -0.4445  2.0770
 5500SOL    HW228137   0.676   2.529   8.683 -0.3753 -0.0020 -2.5356
 5501SOL     OW28138   4.108   0.214   5.092 -0.3820 -0.2356 -0.0576
 5501SOL    HW128139   4.085   0.167   5.012 -1.7054 -0.9881  0.7632
 5501SOL    HW228140   4.203   0.201   5.099 -0.4308 -0.3158  0.4564
 5502SOL     OW28141   3.035   3.364   7.579  0.4688  0.4411  0.4776
 5502SOL    HW128142   2.952   3.319   7.567  0.2668  0.9864 -0.1754
 5502SOL    HW228143   3.055   3.323   7.663 -0.7208 -0.0994  0.4966
 5503SOL     OW28144   1.299   2.148  12.691  0.1019  0.0794  0.4610
 5503SOL    HW128145   1.341   2.081  12.637 -1.7116  0.1604 -1.0454
 5503SOL    HW228146   1.229   2.090  12.722 -0.1826  0.9311  1.4028
 5504SOL     OW28147   0.910   1.670   0.402  0.4527  0.2173  0.0028
 5504SOL    HW128148   0.905   1.617   0.481 -0.4992 -0.0441 -0.2300
 5504SOL    HW228149   0.992   1.647   0.359 -0.2573  0.5224 -1.5209
 5505SOL     OW28150   4.224   3.292  10.974 -0.0709  0.1232  0.1186
 5505SOL    HW128151   4.298   3.233  10.964  0.0660  0.4036 -0.5737
 5505SOL    HW228152   4.261   3.352  11.039  0.3745 -0.1588  0.1229
 5506SOL     OW28153   2.464   0.352   1.545  0.6526 -0.1696 -0.0057
 5506SOL    HW128154   2.457   0.447   1.540  4.1071  0.1811  1.6314
 5506SOL    HW228155   2.374   0.321   1.555  0.8067 -0.6344 -0.0670
 5507SOL     OW28156   1.108   1.020   6.949 -0.3956  0.3517  0.4911
 5507SOL    HW128157   1.049   1.057   7.015  0.0779  0.8954  0.6114
 5507SOL    HW228158   1.162   1.094   6.922 -3.2781  1.8987 -0.9823
 5508SOL     OW28159   2.390   0.615   5.574  0.6231 -0.1749  0.4262
 5508SOL    HW128160   2.407   0.693   5.627  2.9193  0.9523 -1.9844
 5508SOL    HW228161   2.430   0.554   5.636  1.7467  0.7018  0.5501
 5509SOL     OW28162   0.301   3.450   8.100  0.1380 -0.2929 -0.1629
 5509SOL    HW128163   0.312   3.517   8.167 -1.3178  0.4791 -0.6948
 5509SOL    HW228164   0.298   3.369   8.151 -1.5170  0.8883  1.5985
 5510SOL     OW28165   0.415   3.268   5.227 -0.3280  0.3685  0.1734
 5510SOL    HW128166   0.391   3.233   5.313 -0.7596  0.9570  0.2940
 5510SOL    HW228167   0.428   3.362   5.244 -2.5059  0.6940  0.0433
 5511SOL     OW28168   4.289   1.888  16.545  0.2864  0.0874  0.2171
 5511SOL    HW128169   4.270   1.965  16.491  4.6986  0.7180 -0.3812
 5511SOL    HW228170   4.352   1.932  16.602  0.9334 -0.0727 -0.3694
 5512SOL     OW28171   1.831   1.726   2.169  0.2844  0.2425  0.3664
 5512SOL    HW128172   1.791   1.783   2.104 -0.5315  0.4881  1.0832
 5512SOL    HW228173   1.904   1.780   2.198 -0.2892  0.5974  1.1490
 5513SOL     OW28174   2.457   0.403  10.869  0.1150  0.0665 -0.1720
 5513SOL    HW128175   2.449   0.311  10.845  0.8619  0.1875 -0.8773
 5513SOL    HW228176   2.496   0.390  10.956 -0.6048  2.0980  0.4418
 5514SOL     OW28177   0.426   0.183   2.631 -0.0410  0.2478  0.3862
 5514SOL    HW128178   0.491   0.224   2.574 -1.1513 -0.1958 -1.2280
 5514SOL    HW228179   0.357   0.249   2.624  2.0393  2.2658 -0.9513
 5515SOL     OW28180   4.316   3.027   5.522  0.3811 -0.0111 -0.1607
 5515SOL    HW128181   4.331   2.933   5.534 -0.2333 -0.0974 -0.0726
 5515SOL    HW228182   4.395   3.057   5.569 -0.1076  2.5818 -1.0235
 5516SOL     OW28183   2.418   2.854   5.208 -0.4492  0.9657  0.3240
 5516SOL    HW128184   2.498   2.806   5.228  0.1036  0.2444 -3.5131
 5516SOL    HW228185   2.441   2.872   5.117 -1.4460 -0.1195 -0.1530
 5517SOL     OW28186   3.727   3.835   7.528  0.4590 -0.4724  0.8167
 5517SOL    HW128187   3.766   3.748   7.525  0.0162 -0.6482 -0.1217
 5517SOL    HW228188   3.649   3.815   7.580  0.0005  1.1641  0.7752
 5518SOL     OW28189   1.170   1.666  16.430 -0.5841  0.1895 -0.3922
 5518SOL    HW128190   1.252   1.621  16.452 -0.7554 -0.3437 -0.8438
 5518SOL    HW228191   1.175   1.649  16.336  1.7723  2.7192 -0.7240
 5519SOL     OW28192   4.056   3.382  15.950 -0.1697  0.4704 -0.4355
 5519SOL    HW128193   4.078   3.370  16.043 -0.8118 -2.6891 -0.6990
 5519SOL    HW228194   4.083   3.472  15.934 -1.1202  0.7538 -0.4173
 5520SOL     OW28195   3.062   1.183   6.904 -0.2070 -0.7863 -0.4692
 5520SOL    HW128196   3.130   1.160   6.967 -1.7693  1.6288  2.1135
 5520SOL    HW228197   2.997   1.221   6.962  1.5148 -0.6711  1.3797
 5521SOL     OW28198   2.216   0.618   8.143 -0.1494  0.1606 -0.2133
 5521SOL    HW128199   2.302   0.630   8.183 -1.0202  2.2019  1.0754
 5521SOL    HW228200   2.236   0.625   8.050  0.2242  0.2406 -0.1273
 5522SOL     OW28201   3.149   1.819   4.235  0.7636 -0.5284  0.2765
 5522SOL    HW128202   3.133   1.736   4.280  1.1605 -0.4918  0.4878
 5522SOL    HW228203   3.243   1.815   4.216  0.9822 -2.1321  1.6643
 5523SOL     OW28204   1.480   0.840  11.400 -0.3802  0.1381 -0.1055
 5523SOL    HW128205   1.442   0.836  11.488  0.9096 -0.6002  0.4097
 5523SOL    HW228206   1.420   0.783  11.350  0.2605  1.0050 -1.8701
 5524SOL     OW28207   1.522   1.787   0.805  0.3509  0.2822  0.0627
 5524SOL    HW128208   1.512   1.727   0.731  1.5155  1.6508 -1.2042
 5524SOL    HW228209   1.602   1.756   0.849 -0.1991 -0.2391  0.6843
 5525SOL     OW28210   0.324   0.045   4.348  0.2212  0.2685 -0.1808
 5525SOL    HW128211   0.377   0.124   4.362  0.3472  0.3764 -1.2138
 5525SOL    HW228212   0.271   0.062   4.269 -1.1693 -0.3030  0.6371
 5526SOL     OW28213   1.549   0.098  15.893  0.4533  0.4276 -0.0557
 5526SOL    HW128214   1.642   0.074  15.893 -0.2954 -2.5070 -0.6011
 5526SOL    HW228215   1.540   0.149  15.812  1.2420 -0.2072 -0.5375
 5527SOL     OW28216   1.602   3.376  10.257  0.7901 -0.3031  0.2862
 5527SOL    HW128217   1.575   3.374  10.165 -1.8058 -1.0872  1.0807
 5527SOL    HW228218   1.691   3.411  10.246  0.9486 -0.1231  2.1103
 5528SOL     OW28219   3.877   0.199   7.616 -0.6053  0.0988 -0.0441
 5528SOL    HW128220   3.954   0.159   7.656  0.4717  0.6108 -1.5903
 5528SOL    HW228221   3.823   0.229   7.688 -1.5301 -1.4418 -0.1109
 5529SOL     OW28222   2.501   2.942   2.551 -0.5148  0.5772  0.1749
 5529SOL    HW128223   2.552   2.998   2.492  0.9930 -1.9762 -0.9504
 5529SOL    HW228224   2.496   2.999   2.627  1.0466  1.9033 -0.7179
 5530SOL     OW28225   3.313   0.712   1.672  0.5364 -0.0123  0.2109
 5530SOL    HW128226   3.339   0.707   1.764  1.6882  1.0611 -0.0652
 5530SOL    HW228227   3.381   0.660   1.630 -1.8629 -0.6187 -2.9227
 5531SOL     OW28228   3.432   2.936  15.192 -0.2998 -0.2886  0.1224
 5531SOL    HW128229   3.465   3.026  15.201 -0.9829 -0.1035  0.7177
 5531SOL    HW228230   3.453   2.896  15.276  0.0094  2.7860  1.5049
 5532SOL     OW28231   0.200   2.957  11.942  0.1704 -0.1687 -0.2016
 5532SOL    HW128232   0.149   2.936  12.020 -1.1002 -1.5713 -1.4169
 5532SOL    HW228233   0.259   2.882  11.947  0.4023 -0.0864 -1.5540
 5533SOL     OW28234   0.716   1.137   6.690 -0.4482  0.7648  0.4187
 5533SOL    HW128235   0.761   1.067   6.643 -1.5851  0.3572 -0.0435
 5533SOL    HW228236   0.781   1.164   6.755 -0.9319  0.9049  0.8448
 5534SOL     OW28237   3.366   2.780   2.933 -0.2664 -0.5684  0.4567
 5534SOL    HW128238   3.304   2.707   2.929  0.2887 -1.0737  1.0370
 5534SOL    HW228239   3.311   2.854   2.956  0.4349 -0.8338  3.0053
 5535SOL     OW28240   4.043   2.487   6.492  0.1776  0.0331 -0.1254
 5535SOL    HW128241   4.127   2.502   6.536  2.5834  0.0408 -4.6141
 5535SOL    HW228242   4.034   2.577   6.459  2.9882  1.3399  2.6460
 5536SOL     OW28243   3.453   2.336  11.404  0.3974 -0.0163 -0.0806
 5536SOL    HW128244   3.365   2.302  11.388  0.4545  0.7079 -1.9572
 5536SOL    HW228245   3.461   2.353  11.498 -0.2874  1.5992 -0.3102
 5537SOL     OW28246   1.967   2.570  14.097 -0.1607  0.2788 -0.5100
 5537SOL    HW128247   1.911   2.645  14.077 -0.3773  0.9018  2.4389
 5537SOL    HW228248   2.007   2.554  14.011  1.2503  2.4602 -0.2479
 5538SOL     OW28249   4.003   1.609   9.195  0.1220 -0.0276 -0.3616
 5538SOL    HW128250   4.029   1.534   9.248 -0.0735  0.5081  0.5074
 5538SOL    HW228251   4.010   1.674   9.266 -0.0847 -0.9062  0.4605
 5539SOL     OW28252   3.996   2.593   7.354  0.2703  0.1889 -0.1453
 5539SOL    HW128253   3.906   2.559   7.349  0.0023  0.9938 -0.7352
 5539SOL    HW228254   3.985   2.686   7.338 -1.8450 -0.1277 -0.4808
 5540SOL     OW28255   0.477   3.116  11.860  0.2186  1.1267 -0.1594
 5540SOL    HW128256   0.480   3.172  11.937  2.4218 -0.5895  1.0155
 5540SOL    HW228257   0.504   3.031  11.896 -0.2842  1.2885  0.5831
 5541SOL     OW28258   3.955   4.318  16.127 -0.3786 -0.2477  0.1015
 5541SOL    HW128259   3.939   4.338  16.035  1.1891 -2.5528 -0.6557
 5541SOL    HW228260   3.872   4.315  16.175 -0.9057 -0.8574 -0.8433
 5542SOL     OW28261   3.582   1.787   7.234 -0.0512  0.0049  0.1024
 5542SOL    HW128262   3.515   1.829   7.180  0.5810  0.1973 -0.5225
 5542SOL    HW228263   3.608   1.860   7.290 -0.5635 -0.2484  0.6720
 5543SOL     OW28264   1.081   0.291   8.649  0.5344 -0.4637 -0.3939
 5543SOL    HW128265   0.987   0.274   8.647  0.3808  0.2131  0.8564
 5543SOL    HW228266   1.111   0.246   8.571 -0.7971 -0.2659 -1.0200
 5544SOL     OW28267   4.278   1.945  13.304 -0.1873 -0.5946 -0.0088
 5544SOL    HW128268   4.299   1.852  13.307 -0.4021 -0.5653  1.9515
 5544SOL    HW228269   4.183   1.945  13.313 -0.3787 -1.0001 -1.9933
 5545SOL     OW28270   0.449   4.644  11.344 -0.1972 -0.2059  0.1832
 5545SOL    HW128271   0.511   4.577  11.318 -1.1773 -1.0763  0.0916
 5545SOL    HW228272   0.447   4.634  11.439 -0.5715 -1.1608  0.0716
 5546SOL     OW28273   2.468   0.512  16.409 -0.2099  0.3898 -0.9485
 5546SOL    HW128274   2.509   0.556  16.483 -1.9023 -1.0527  0.8221
 5546SOL    HW228275   2.536   0.450  16.380  0.1354 -0.1241  0.9379
 5547SOL     OW28276   4.629   3.260   3.000 -0.3773 -0.7948 -0.2869
 5547SOL    HW128277   4.723   3.278   3.008 -0.3079 -1.8721  1.2848
 5547SOL    HW228278   4.609   3.206   3.075  3.4355 -0.5083  0.9568
 5548SOL     OW28279   1.513   3.175   3.623  0.2296 -0.9402  0.2560
 5548SOL    HW128280   1.444   3.155   3.685  1.4082  2.1180  2.5476
 5548SOL    HW228281   1.570   3.235   3.671  1.4111 -1.1964 -0.7941
 5549SOL     OW28282   3.878   3.183   9.033  0.2052  0.6445  0.3535
 5549SOL    HW128283   3.820   3.233   9.090  0.3515  1.1116  0.0868
 5549SOL    HW228284   3.841   3.192   8.946  1.6417 -0.1982 -0.3532
 5550SOL     OW28285   1.657   2.224   1.737  0.2133  0.1660  0.1621
 5550SOL    HW128286   1.677   2.139   1.698  1.3668  1.2346 -1.5560
 5550SOL    HW228287   1.570   2.199   1.768 -0.0202  0.9649  0.1523
 5551SOL     OW28288   2.314   4.543   6.299 -0.1741  0.4952 -0.3318
 5551SOL    HW128289   2.229   4.501   6.310  0.3289 -0.0770  1.4757
 5551SOL    HW228290   2.334   4.555   6.392  2.5090 -1.4926 -0.6499
 5552SOL     OW28291   4.221   2.881   9.740  0.1896 -0.2046 -0.3280
 5552SOL    HW128292   4.231   2.817   9.810 -2.1447  0.1462  0.3358
 5552SOL    HW228293   4.266   2.961   9.767  0.7006 -0.2545 -1.0210
 5553SOL     OW28294   1.896   0.451   4.328 -0.2730  0.0015 -0.3130
 5553SOL    HW128295   1.819   0.395   4.322 -1.0399  1.2197 -1.8554
 5553SOL    HW228296   1.973   0.397   4.312  0.6376  1.7868 -1.9782
 5554SOL     OW28297   2.406   3.363   1.519 -0.3169  0.4094 -0.0695
 5554SOL    HW128298   2.366   3.402   1.597 -0.2071  1.5751 -0.5867
 5554SOL    HW228299   2.427   3.280   1.561  0.6510  0.3907 -0.5901
 5555SOL     OW28300   1.444   0.298   1.445  0.3858 -0.3571 -0.3447
 5555SOL    HW128301   1.511   0.366   1.439 -0.9413  0.8649 -1.3375
 5555SOL    HW228302   1.478   0.234   1.383  1.4502 -2.0099  1.9403
 5556SOL     OW28303   2.601   1.858   0.024  0.4194 -0.6803  0.6061
 5556SOL    HW128304   2.669   1.808   0.070 -0.8802  0.5869  3.9259
 5556SOL    HW228305   2.528   1.843   0.084  0.7549 -1.0520  0.9254
 5557SOL     OW28306   0.791   1.275   8.993 -0.5336 -0.6852  0.2572
 5557SOL    HW128307   0.802   1.270   8.898 -0.1620 -2.2405  0.3805
 5557SOL    HW228308   0.882   1.273   9.023  0.9214  0.0169 -4.2020
 5558SOL     OW28309   1.115   0.623  11.416  0.3135 -0.4414  0.0560
 5558SOL    HW128310   1.042   0.620  11.353  0.9431 -0.6246 -0.6700
 5558SOL    HW228311   1.193   0.611  11.362 -1.4807  0.8512 -2.8676
 5559SOL     OW28312   2.180   0.436   1.596  0.6690  0.0384  0.3908
 5559SOL    HW128313   2.171   0.467   1.686 -2.2414 -1.5113  0.6145
 5559SOL    HW228314   2.187   0.515   1.542  1.8766  1.4179  2.5464
 5560SOL     OW28315   0.611   1.420  17.529 -0.9685 -0.5888 -0.4081
 5560SOL    HW128316   0.653   1.426  17.443 -1.2378  0.8803 -0.4285
 5560SOL    HW228317   0.678   1.460  17.583  1.3181 -2.0824 -2.1293
 5561SOL     OW28318   1.331   0.964  12.188  0.6467 -0.2314 -0.3241
 5561SOL    HW128319   1.341   0.982  12.094  2.1082  1.8578  0.2493
 5561SOL    HW228320   1.240   0.935  12.190  0.8540 -0.8576 -0.0022
 5562SOL     OW28321   1.842   3.815   7.211  0.2147 -0.2071  0.1136
 5562SOL    HW128322   1.905   3.800   7.141 -1.4789  0.6285 -1.5967
 5562SOL    HW228323   1.833   3.725   7.242  4.0879 -0.5235  0.3137
 5563SOL     OW28324   0.321   1.415   3.193 -0.3260  0.1141  0.0561
 5563SOL    HW128325   0.247   1.356   3.178  0.9217 -1.7774  1.2775
 5563SOL    HW228326   0.329   1.403   3.288  0.8548  0.7125  0.0376
 5564SOL     OW28327   1.916   4.291   2.851 -0.4349  0.6230  0.4832
 5564SOL    HW128328   1.985   4.333   2.903  4.4016 -0.9107 -4.7282
 5564SOL    HW228329   1.839   4.289   2.909 -0.6859 -3.8193 -0.0597
 5565SOL     OW28330   3.322   1.071   5.693 -0.3563 -0.5942  0.0354
 5565SOL    HW128331   3.404   1.113   5.718 -0.8604  0.3247  0.1902
 5565SOL    HW228332   3.273   1.147   5.662 -1.2870  0.0499  2.9969
 5566SOL     OW28333   4.647   2.050   0.173  0.3871 -0.0212  0.1521
 5566SOL    HW128334   4.557   2.031   0.199  1.0899 -0.9594  1.8776
 5566SOL    HW228335   4.686   2.001   0.245 -0.6356 -0.9166  0.1054
 5567SOL     OW28336   4.621   1.394   8.774 -0.0541  0.0958  0.1302
 5567SOL    HW128337   4.652   1.404   8.864  1.6434 -1.3151 -0.2967
 5567SOL    HW228338   4.531   1.368   8.793 -0.1958 -0.0986 -0.8168
 5568SOL     OW28339   1.699   2.463  13.569  0.1943 -0.4740 -0.0115
 5568SOL    HW128340   1.669   2.477  13.659  1.6498 -0.0927  0.4081
 5568SOL    HW228341   1.721   2.370  13.568  0.1712 -0.4804  0.0447
 5569SOL     OW28342   0.990   1.208  17.356 -0.1058 -0.6976  0.3031
 5569SOL    HW128343   0.937   1.183  17.431 -2.5716 -2.0684 -1.9190
 5569SOL    HW228344   1.078   1.201  17.392 -0.1765  0.3985  0.7078
 5570SOL     OW28345   1.517   2.967   7.684 -0.6843 -0.2480 -0.9565
 5570SOL    HW128346   1.434   3.014   7.675 -0.0425  0.7834 -1.4256
 5570SOL    HW228347   1.562   3.038   7.730  0.1859 -2.6369  1.8481
 5571SOL     OW28348   3.039   0.248  13.173 -0.1085 -0.2163  0.3165
 5571SOL    HW128349   3.031   0.343  13.182 -2.9718 -0.2836 -1.2508
 5571SOL    HW228350   3.031   0.245  13.077 -1.1142  1.3038  0.3419
 5572SOL     OW28351   3.098   2.281   2.753  0.2082  0.1090  0.0569
 5572SOL    HW128352   3.049   2.350   2.708  2.1108  1.1939 -0.3265
 5572SOL    HW228353   3.179   2.272   2.702 -0.4866 -0.0283 -1.0426
 5573SOL     OW28354   4.641   3.562   7.028 -0.5964  0.1564 -0.0807
 5573SOL    HW128355   4.625   3.598   7.115 -0.3317  0.7580 -0.2855
 5573SOL    HW228356   4.631   3.468   7.046  0.5130  0.0937  0.2372
 5574SOL     OW28357   2.639   2.662   1.293  0.4815  0.3696  0.3668
 5574SOL    HW128358   2.674   2.574   1.307  1.3738  0.4372 -1.5638
 5574SOL    HW228359   2.709   2.715   1.331  0.4001 -0.5159  1.7594
 5575SOL     OW28360   3.796   3.230   5.570  0.2791  0.1637 -0.0127
 5575SOL    HW128361   3.880   3.187   5.555 -0.2374  0.0325 -2.5572
 5575SOL    HW228362   3.736   3.156   5.566  0.8049 -0.2565 -0.1387
 5576SOL     OW28363   2.087   4.673  17.566 -0.2657 -0.1893  0.5787
 5576SOL    HW128364   2.037   4.595  17.588  0.6427 -0.4635  1.6631
 5576SOL    HW228365   2.033   4.703  17.492  0.2517 -0.2360  0.1793
 5577SOL     OW28366   1.179   3.952  16.705  0.2700  0.1154  0.1879
 5577SOL    HW128367   1.270   3.923  16.712  1.1990  2.7716 -0.8932
 5577SOL    HW228368   1.172   4.008  16.783  2.2090  2.0270 -1.0398
 5578SOL     OW28369   1.109   3.049   0.202  0.0082 -0.1626 -0.3120
 5578SOL    HW128370   1.093   3.122   0.261 -0.3451  0.9070 -1.7106
 5578SOL    HW228371   1.049   2.984   0.239  0.3134 -0.1030  0.2899
 5579SOL     OW28372   3.507   4.077   7.535 -0.4035 -0.0204 -0.2288
 5579SOL    HW128373   3.450   4.153   7.530 -1.6340 -0.8673  0.8824
 5579SOL    HW228374   3.538   4.065   7.445  1.0680  0.7139  0.1747
 5580SOL     OW28375   0.191   3.051   1.698  0.1894  0.5396 -0.7625
 5580SOL    HW128376   0.247   2.988   1.653 -1.1091 -0.9513 -0.2752
 5580SOL    HW228377   0.111   3.051   1.645 -0.2957  3.1619 -0.0347
 5581SOL     OW28378   2.894   3.524   9.142 -0.5783 -0.1502  0.4715
 5581SOL    HW128379   2.828   3.454   9.149 -0.8666  0.0798  0.0699
 5581SOL    HW228380   2.835   3.599   9.133 -0.2233 -0.1863 -2.1068
 5582SOL     OW28381   3.203   1.004   2.041 -0.5667 -0.3349 -0.2910
 5582SOL    HW128382   3.255   0.950   2.101  0.4928  1.0358  0.0281
 5582SOL    HW228383   3.266   1.031   1.974 -0.4861 -1.1777 -0.5616
 5583SOL     OW28384   0.611   4.544   4.340  0.2377 -0.0869  0.1871
 5583SOL    HW128385   0.628   4.630   4.378 -1.0426  0.8358 -1.3286
 5583SOL    HW228386   0.516   4.549   4.329  0.2885  1.9770  0.6910
 5584SOL     OW28387   1.377   3.909   9.719 -1.1146  0.1319  0.5620
 5584SOL    HW128388   1.283   3.927   9.724 -0.6515  3.0892 -1.0093
 5584SOL    HW228389   1.382   3.819   9.688  1.1585 -0.0728  1.5539
 5585SOL     OW28390   4.619   3.924   7.523 -0.2251  0.4202 -0.1880
 5585SOL    HW128391   4.644   3.965   7.440  1.4158 -2.5164 -1.1166
 5585SOL    HW228392   4.706   3.933   7.561 -0.5033 -1.3492  0.8787
 5586SOL     OW28393   0.538   2.803   2.764 -0.1758 -0.1713 -0.6126
 5586SOL    HW128394   0.483   2.794   2.685 -0.2227  3.0982 -0.9622
 5586SOL    HW228395   0.595   2.873   2.733  0.6679 -0.5675  0.0572
 5587SOL     OW28396   3.483   4.261   5.286 -0.2361  0.1828 -0.2540
 5587SOL    HW128397   3.519   4.190   5.233  1.0202 -0.5598  1.5630
 5587SOL    HW228398   3.423   4.213   5.343 -2.1023  0.4156 -2.0280
 5588SOL     OW28399   3.073   0.213   4.904 -0.0279  0.0069 -0.1084
 5588SOL    HW128400   3.159   0.193   4.866  0.0466 -1.3306  0.7272
 5588SOL    HW228401   3.075   0.160   4.984 -1.6733  0.4547  0.2290
 5589SOL     OW28402   2.451   1.006   1.071 -0.1744  0.1173  0.3057
 5589SOL    HW128403   2.511   1.068   1.030  0.3973 -0.2759  0.5528
 5589SOL    HW228404   2.372   1.048   1.037  0.7044  1.1086 -0.5107
 5590SOL     OW28405   1.410   2.836   6.478 -0.1111 -0.2064 -0.1258
 5590SOL    HW128406   1.365   2.860   6.397 -0.5508 -1.8394 -0.3642
 5590SOL    HW228407   1.335   2.800   6.526 -1.7792 -0.2302 -2.7669
 5591SOL     OW28408   3.283   2.593   4.224  0.5981  0.0421  0.4706
 5591SOL    HW128409   3.309   2.536   4.297 -0.2749  1.0863  1.5922
 5591SOL    HW228410   3.369   2.626   4.198  0.8638 -2.0240 -1.3190
 5592SOL     OW28411   0.008   2.736   7.586 -0.5818 -0.5419 -0.1459
 5592SOL    HW128412   4.703   2.735   7.500 -2.2409  0.1245  0.6594
 5592SOL    HW228413   0.096   2.699   7.578  0.0735  1.2383 -1.3127
 5593SOL     OW28414   4.507   2.926   4.110 -0.1227  0.3190  0.0559
 5593SOL    HW128415   4.593   2.968   4.121 -1.2416  2.9077 -1.1858
 5593SOL    HW228416   4.523   2.848   4.057  0.5273  0.2591  0.3296
 5594SOL     OW28417   3.164   4.214   7.396 -0.1952  0.3380 -0.7832
 5594SOL    HW128418   3.238   4.245   7.449  0.5928 -1.0392 -1.0488
 5594SOL    HW228419   3.150   4.282   7.331  0.3069  1.7499  0.5642
 5595SOL     OW28420   1.678   0.129   6.528  1.1707 -0.0163  0.1746
 5595SOL    HW128421   1.770   0.155   6.536  1.0842  1.1921 -2.6864
 5595SOL    HW228422   1.675   0.070   6.604 -1.6341  0.7162  0.6242
 5596SOL     OW28423   3.766   2.474  16.607  0.2470 -0.2612  0.4495
 5596SOL    HW128424   3.733   2.518  16.529 -0.2369  1.0927  1.4279
 5596SOL    HW228425   3.821   2.408  16.565 -1.5808 -0.8471 -1.0023
 5597SOL     OW28426   3.750   4.097   2.448  0.3077 -0.5934  0.6703
 5597SOL    HW128427   3.761   4.050   2.365 -2.6206  4.2632 -2.4855
 5597SOL    HW228428   3.812   4.052   2.505  1.3235 -0.0246  0.0001
 5598SOL     OW28429   1.073   3.741   7.043 -0.1448 -0.5282 -0.3542
 5598SOL    HW128430   1.098   3.833   7.044  2.3104 -1.2097  0.4560
 5598SOL    HW228431   1.035   3.725   6.957 -1.2003  0.9662 -0.1614
 5599SOL     OW28432   1.307   2.555   7.245  0.8753  1.1088 -0.4648
 5599SOL    HW128433   1.272   2.632   7.288 -0.2416  0.6081 -0.4944
 5599SOL    HW228434   1.235   2.536   7.185  0.8812 -0.8330  0.1405
 5600SOL     OW28435   2.248   1.559  10.992  0.1766 -0.0809 -0.6921
 5600SOL    HW128436   2.339   1.535  10.974  0.0150 -1.7464  0.7000
 5600SOL    HW228437   2.259   1.641  11.041  1.2429 -1.1446  0.8839
 5601SOL     OW28438   3.101   1.324   5.330  0.3343 -0.0230  0.0443
 5601SOL    HW128439   3.114   1.231   5.313 -1.5090 -0.3348  0.3957
 5601SOL    HW228440   3.006   1.333   5.330  0.3228 -0.0481  1.6847
 5602SOL     OW28441   1.012   4.105   5.994 -0.5173  0.2676 -0.1926
 5602SOL    HW128442   0.963   4.129   5.915 -0.8313 -0.0767 -0.1030
 5602SOL    HW228443   1.085   4.167   5.997  1.6536 -2.3708  0.7770
 5603SOL     OW28444   0.984   0.619  11.167 -0.1002  0.0056 -0.1640
 5603SOL    HW128445   0.996   0.595  11.076 -1.0540 -1.1830  0.0199
 5603SOL    HW228446   0.906   0.565  11.182 -0.4856  0.4172 -0.7043
 5604SOL     OW28447   3.157   2.983   5.494  0.0304  0.1739 -0.5515
 5604SOL    HW128448   3.107   2.975   5.575 -0.1772 -0.6004 -0.7657
 5604SOL    HW228449   3.085   3.018   5.442 -0.9448 -0.3257  0.4541
 5605SOL     OW28450   0.045   1.942   3.408 -0.0629 -1.0503 -0.0533
 5605SOL    HW128451   0.140   1.950   3.406 -0.1482 -0.3371 -1.9740
 5605SOL    HW228452   0.030   2.009   3.340 -0.4675 -1.4907 -0.3961
 5606SOL     OW28453   4.106   0.415  13.425 -0.2200  0.5188 -0.2266
 5606SOL    HW128454   4.190   0.426  13.379 -0.9669  3.0563 -1.0271
 5606SOL    HW228455   4.076   0.345  13.367 -2.0047  0.0820  1.2137
 5607SOL     OW28456   0.754   4.528  16.348 -0.2648  0.0643  0.1623
 5607SOL    HW128457   0.707   4.458  16.302  2.1366 -0.4623 -1.4442
 5607SOL    HW228458   0.792   4.573  16.273  0.0597 -0.5710 -0.0522
 5608SOL     OW28459   2.262   0.015   5.609  0.1432 -0.0897 -0.0939
 5608SOL    HW128460   2.311   0.039   5.530 -1.8268  1.5668 -0.7923
 5608SOL    HW228461   2.303   4.666   5.623  0.6175  0.3303  1.1571
 5609SOL     OW28462   0.479   2.963  15.346 -0.2971  0.2234 -0.0445
 5609SOL    HW128463   0.560   2.989  15.389 -0.7883  2.7362 -0.6855
 5609SOL    HW228464   0.507   2.968  15.255 -1.3418  0.5633 -0.3462
 5610SOL     OW28465   1.334   1.398   9.182  0.1254 -0.1377  0.4349
 5610SOL    HW128466   1.403   1.377   9.120  1.3300  0.5507  1.5435
 5610SOL    HW228467   1.378   1.389   9.267 -0.8297 -0.9415  0.8553
 5611SOL     OW28468   0.866   3.615   5.289 -0.7691 -0.4761 -0.2730
 5611SOL    HW128469   0.883   3.643   5.199 -0.6506  1.9698  0.5208
 5611SOL    HW228470   0.784   3.662   5.306 -0.9954 -1.3162  0.9691
 5612SOL     OW28471   0.040   3.679   4.515  0.6045  0.4580  0.4899
 5612SOL    HW128472   0.126   3.640   4.501 -0.8563 -2.4728 -0.2973
 5612SOL    HW228473   0.025   3.709   4.426  0.0369  2.7917  1.3466
 5613SOL     OW28474   2.524   0.587   1.307  0.1158  0.0103 -0.2877
 5613SOL    HW128475   2.458   0.585   1.376  1.5912  0.5413  1.1280
 5613SOL    HW228476   2.582   0.653   1.344 -0.3169  1.5812 -2.3625
 5614SOL     OW28477   1.832   2.104  15.786 -0.0586 -0.5295 -0.2128
 5614SOL    HW128478   1.844   2.189  15.744 -0.1781 -0.0492  0.7143
 5614SOL    HW228479   1.927   2.092  15.792  0.0621  1.4549  1.9949
 5615SOL     OW28480   0.238   2.645   0.403 -0.1019  0.6350 -0.1709
 5615SOL    HW128481   0.171   2.712   0.409 -0.4879  0.4111 -1.9383
 5615SOL    HW228482   0.184   2.566   0.401  0.0174  0.5809 -1.9314
 5616SOL     OW28483   3.508   1.289   7.134 -0.3954  0.2544 -0.4018
 5616SOL    HW128484   3.457   1.294   7.215 -0.7200  1.3304 -0.6796
 5616SOL    HW228485   3.573   1.352   7.165 -0.3198 -0.5361  1.0489
 5617SOL     OW28486   1.777   2.604   3.742  0.5134  0.9014  0.2774
 5617SOL    HW128487   1.716   2.675   3.761 -0.3562 -0.2953  1.9262
 5617SOL    HW228488   1.843   2.609   3.811  1.5757  1.0057 -0.7380
 5618SOL     OW28489   4.196   1.439   8.493 -0.0876 -0.0535  0.3998
 5618SOL    HW128490   4.126   1.375   8.504  1.0454 -0.8961  2.7458
 5618SOL    HW228491   4.191   1.465   8.585  1.8836 -0.3143  0.5847
 5619SOL     OW28492   3.118   3.913   6.717 -0.0081 -0.1828 -0.2771
 5619SOL    HW128493   3.112   3.858   6.794 -1.2606  3.1958  2.0463
 5619SOL    HW228494   3.023   3.924   6.723  0.0525  0.4650 -0.4179
 5620SOL     OW28495   3.188   2.063   4.802  0.1853 -0.0449 -0.1045
 5620SOL    HW128496   3.110   2.068   4.857 -1.6052  1.4352 -2.8494
 5620SOL    HW228497   3.259   2.046   4.865  0.1038  1.5620  0.4150
 5621SOL     OW28498   3.487   3.861  12.637 -0.1305  0.1358 -0.4171
 5621SOL    HW128499   3.516   3.892  12.723 -0.0194 -1.2243  0.0278
 5621SOL    HW228500   3.554   3.795  12.620  0.2160 -0.3643  2.9834
 5622SOL     OW28501   3.840   4.712   4.105 -0.2407  0.1032 -0.0187
 5622SOL    HW128502   3.798   4.627   4.095  0.3703 -0.1239 -0.6069
 5622SOL    HW228503   3.859   4.720   4.199 -1.0090  0.1411  0.1363
 5623SOL     OW28504   0.396   1.720   2.526 -0.8639 -0.1554  0.6887
 5623SOL    HW128505   0.427   1.771   2.451 -2.7700 -1.2697 -0.8636
 5623SOL    HW228506   0.473   1.710   2.583 -1.3484  2.6202  1.8422
 5624SOL     OW28507   2.115   4.329   8.082  0.1297  0.1358  0.3984
 5624SOL    HW128508   2.075   4.278   8.011  0.9780  1.9098 -1.3596
 5624SOL    HW228509   2.042   4.332   8.144  0.0367  0.6524  0.2686
 5625SOL     OW28510   1.271   0.609  10.260 -0.6699  0.6578  0.0637
 5625SOL    HW128511   1.348   0.662  10.283 -0.6726  0.7745 -0.1976
 5625SOL    HW228512   1.227   0.669  10.200 -2.2260  0.6587  1.1841
 5626SOL     OW28513   3.521   1.987  17.327 -0.1200  0.3343 -0.2201
 5626SOL    HW128514   3.482   2.071  17.352  0.0234  0.4719 -0.4621
 5626SOL    HW228515   3.556   2.012  17.242  0.6506 -0.6669 -0.1951
 5627SOL     OW28516   2.845   1.724  12.635  0.1334  0.2065 -0.0016
 5627SOL    HW128517   2.851   1.769  12.719 -0.0781 -0.5425  0.4235
 5627SOL    HW228518   2.819   1.638  12.670 -1.4193  0.0553 -1.5232
 5628SOL     OW28519   0.643   1.890   5.631 -0.2020 -0.0163  0.4965
 5628SOL    HW128520   0.727   1.847   5.618 -1.3576 -2.0400 -0.4718
 5628SOL    HW228521   0.650   1.966   5.573 -0.3554 -0.2993  0.1018
 5629SOL     OW28522   0.117   4.304   5.535  0.2552 -0.1067  0.9380
 5629SOL    HW128523   0.043   4.258   5.496  0.4053 -0.3357  0.9242
 5629SOL    HW228524   0.192   4.246   5.521  0.0045 -0.1362 -0.2552
 5630SOL     OW28525   3.149   4.207   1.642 -0.3170 -0.0951  0.1892
 5630SOL    HW128526   3.232   4.250   1.619 -0.3641  0.3116  0.7753
 5630SOL    HW228527   3.094   4.282   1.664 -0.1504  0.2907 -0.6916
 5631SOL     OW28528   4.474   3.388   4.190 -0.1599  0.2679 -0.1279
 5631SOL    HW128529   4.536   3.456   4.160  2.2273 -2.3470 -1.1052
 5631SOL    HW228530   4.412   3.444   4.237 -2.3401 -1.6176 -0.7593
 5632SOL     OW28531   3.699   1.426   6.013 -0.5811 -0.2830  0.6692
 5632SOL    HW128532   3.657   1.474   5.942  1.2464 -0.8586 -0.7852
 5632SOL    HW228533   3.643   1.446   6.089 -0.9365  1.5338 -0.0704
 5633SOL     OW28534   3.236   2.555  16.989  0.0678  1.3106 -0.0170
 5633SOL    HW128535   3.220   2.640  17.030 -2.3533  0.1002  1.5108
 5633SOL    HW228536   3.150   2.512  16.992 -0.1008  1.6545  0.0532
 5634SOL     OW28537   0.353   1.025  14.257  0.5484  0.5193  0.4278
 5634SOL    HW128538   0.331   0.994  14.345  1.2998  0.1307  0.4854
 5634SOL    HW228539   0.436   0.987  14.228  0.5775  0.2528  0.8606
 5635SOL     OW28540   1.533   0.099  13.322 -0.0665  0.1458  0.1729
 5635SOL    HW128541   1.548   0.046  13.400 -1.7657 -0.3263  0.1702
 5635SOL    HW228542   1.622   0.104  13.288  0.6001 -2.4093  1.5954
 5636SOL     OW28543   1.170   1.343  14.460  0.2397  0.0944 -0.0742
 5636SOL    HW128544   1.188   1.302  14.376 -1.6686  0.1759 -0.5100
 5636SOL    HW228545   1.258   1.339  14.499 -0.9514  0.3214  2.6594
 5637SOL     OW28546   4.486   2.362  12.124  0.0225  0.3614 -0.3203
 5637SOL    HW128547   4.495   2.429  12.057  0.5893  1.7461  1.1475
 5637SOL    HW228548   4.438   2.414  12.188 -0.9894 -2.1957  1.0261
 5638SOL     OW28549   0.816   4.207   7.227  0.0291 -0.4578 -0.2364
 5638SOL    HW128550   0.823   4.292   7.184 -1.1772 -0.3095 -0.1458
 5638SOL    HW228551   0.839   4.223   7.318  2.2770  0.8927 -1.0346
 5639SOL     OW28552   0.288   0.681   8.452  0.3189 -0.1697  0.0156
 5639SOL    HW128553   0.241   0.751   8.497 -1.9728 -0.6556 -1.6494
 5639SOL    HW228554   0.373   0.715   8.422 -0.1907  0.6487 -0.5041
 5640SOL     OW28555   2.242   0.726   1.977 -0.2498 -0.8781 -0.2372
 5640SOL    HW128556   2.305   0.654   1.983  1.4100  0.4933 -0.9841
 5640SOL    HW228557   2.262   0.775   1.897 -0.4553 -0.8189 -0.2510
 5641SOL     OW28558   1.917   2.353   4.102  0.4215 -0.3917  0.5422
 5641SOL    HW128559   1.883   2.325   4.187  2.1869  1.5274  1.8724
 5641SOL    HW228560   1.847   2.323   4.044 -0.4166  1.1970  0.7361
 5642SOL     OW28561   0.022   3.433   7.367 -0.3521 -0.2072 -0.4503
 5642SOL    HW128562   0.048   3.436   7.459 -0.4312 -0.2132 -0.4279
 5642SOL    HW228563   0.033   3.525   7.346  1.7023 -0.2153  0.6078
 5643SOL     OW28564   1.217   1.206   9.814  0.0291  0.2540  0.0058
 5643SOL    HW128565   1.291   1.263   9.837  0.5915  0.2610 -1.7693
 5643SOL    HW228566   1.183   1.268   9.749  2.3520  0.8171 -0.6675
 5644SOL     OW28567   4.478   2.201   4.985  0.2623  0.4035 -0.1784
 5644SOL    HW128568   4.453   2.109   4.977  1.3764  0.1122 -0.2047
 5644SOL    HW228569   4.390   2.240   4.984 -1.1022 -2.6355 -0.2863
 5645SOL     OW28570   1.015   2.451   7.863  0.3381  0.1867 -0.1731
 5645SOL    HW128571   0.957   2.485   7.795  0.8978 -0.3442 -0.9140
 5645SOL    HW228572   1.027   2.532   7.914  1.5546  0.5070 -0.9730
 5646SOL     OW28573   1.236   3.175   3.827 -0.2166  0.3495  0.2492
 5646SOL    HW128574   1.256   3.222   3.908 -0.8442 -0.0283  0.6220
 5646SOL    HW228575   1.188   3.244   3.782  1.1303  1.4609  0.5048
 5647SOL     OW28576   4.103   0.040   4.159 -0.5777 -0.3656  0.4381
 5647SOL    HW128577   4.160   4.707   4.128 -0.9698 -0.9957  1.1562
 5647SOL    HW228578   4.018   0.007   4.129 -0.7429  0.0692  0.4262
 5648SOL     OW28579   1.670   0.032   4.630  0.1601 -0.4181 -0.0905
 5648SOL    HW128580   1.747   0.039   4.574  0.6588 -2.1215  0.3798
 5648SOL    HW228581   1.637   4.680   4.616 -0.2049  0.1013 -2.6169
 5649SOL     OW28582   2.303   4.719   0.010 -0.1015  0.1624  0.2882
 5649SOL    HW128583   2.381   4.670  17.729 -1.8813 -2.2585 -0.4633
 5649SOL    HW228584   2.245   4.694  17.684 -0.0706 -0.8000  0.6058
 5650SOL     OW28585   2.631   0.342   7.535 -0.5854  0.2192  0.8071
 5650SOL    HW128586   2.722   0.336   7.566 -0.8426  1.1754  1.7370
 5650SOL    HW228587   2.588   0.313   7.616 -2.1437 -0.3123 -0.2104
 5651SOL     OW28588   2.052   3.269   9.052 -0.1436 -0.3064  0.0227
 5651SOL    HW128589   2.022   3.244   8.964 -0.5487 -1.0164  0.3722
 5651SOL    HW228590   2.075   3.188   9.096  1.7806 -0.4571 -1.2499
 5652SOL     OW28591   3.489   4.008   3.006  0.3113  0.1301  0.5148
 5652SOL    HW128592   3.484   3.951   2.929 -2.9496  0.5996  0.3796
 5652SOL    HW228593   3.426   3.976   3.071 -0.7260  0.6724 -0.2159
 5653SOL     OW28594   1.078   3.736   8.195 -0.1494 -0.2591  0.5392
 5653SOL    HW128595   1.022   3.794   8.247 -2.4148 -1.0670 -0.9937
 5653SOL    HW228596   1.167   3.765   8.211 -0.2829  0.6175 -0.2804
 5654SOL     OW28597   4.101   2.755   2.091 -0.1515  0.6110 -0.2111
 5654SOL    HW128598   4.194   2.742   2.070 -0.3310 -0.7018 -0.1761
 5654SOL    HW228599   4.055   2.731   2.010 -0.3063  1.1230 -0.2762
 5655SOL     OW28600   1.389   2.717  12.105 -0.2177  0.2653 -0.1489
 5655SOL    HW128601   1.449   2.699  12.032 -0.5090 -0.9224 -0.0977
 5655SOL    HW228602   1.456   2.756  12.161  0.1076 -0.7402  0.1641
 5656SOL     OW28603   1.327   0.956  10.643  0.2227  0.3918 -0.4465
 5656SOL    HW128604   1.255   0.964  10.705 -0.0268 -0.1259 -0.6675
 5656SOL    HW228605   1.282   0.973  10.560 -0.0179 -0.7025 -0.5358
 5657SOL     OW28606   3.532   3.512   3.391  0.5293  0.4674 -0.2335
 5657SOL    HW128607   3.618   3.544   3.364  1.1568 -1.5500 -0.6477
 5657SOL    HW228608   3.562   3.425   3.417  0.4227  0.6353  0.4377
 5658SOL     OW28609   2.928   3.737   1.778 -0.3755  0.0538 -0.0117
 5658SOL    HW128610   2.870   3.714   1.851  0.0411  0.7170  0.5370
 5658SOL    HW228611   2.911   3.832   1.778 -1.6803 -0.1721 -2.8946
 5659SOL     OW28612   4.624   0.202   6.677  0.4966 -0.0822  0.0244
 5659SOL    HW128613   4.563   0.129   6.666 -1.2121  1.2643  0.5518
 5659SOL    HW228614   4.708   0.156   6.671 -0.4780 -1.7688 -0.5115
 5660SOL     OW28615   0.702   3.438   0.873  0.3279 -0.0674 -0.2233
 5660SOL    HW128616   0.689   3.520   0.825 -0.8154  0.4540  0.9741
 5660SOL    HW228617   0.771   3.406   0.815 -0.5934  2.9096 -2.9517
 5661SOL     OW28618   2.373   3.612   3.667  0.3102  0.0513 -0.0461
 5661SOL    HW128619   2.386   3.520   3.642  1.9604  0.4109 -0.4815
 5661SOL    HW228620   2.424   3.655   3.599  1.6174 -0.9394  0.3203
 5662SOL     OW28621   4.002   0.838   7.246 -1.1832  0.2046  0.0425
 5662SOL    HW128622   3.909   0.819   7.258 -0.8946 -2.6184 -1.8487
 5662SOL    HW228623   4.010   0.818   7.152  0.0907 -0.0510  0.2065
 5663SOL     OW28624   1.147   3.213  17.231  0.3562  0.3541 -0.1528
 5663SOL    HW128625   1.091   3.232  17.306  0.0094  0.7833 -0.5186
 5663SOL    HW228626   1.233   3.204  17.272 -0.0398 -1.2909  0.3068
 5664SOL     OW28627   4.177   4.410   5.430 -0.0887  0.2383 -0.3871
 5664SOL    HW128628   4.094   4.390   5.473  1.3352 -4.2118  0.3485
 5664SOL    HW228629   4.143   4.467   5.361  3.0695  1.6229 -0.7929
 5665SOL     OW28630   2.684   3.712   6.270 -0.6364 -0.2631  0.0277
 5665SOL    HW128631   2.649   3.665   6.345  1.9649 -1.9343  0.1828
 5665SOL    HW228632   2.686   3.798   6.313 -4.1740  0.0245 -0.3988
 5666SOL     OW28633   2.781   2.900   2.730 -0.1051  0.1018 -0.7260
 5666SOL    HW128634   2.785   2.950   2.811  2.0445  2.3041 -2.1913
 5666SOL    HW228635   2.691   2.870   2.747 -0.1599  0.1553 -0.9129
 5667SOL     OW28636   3.530   3.645   8.561 -0.1699 -0.4165 -0.7232
 5667SOL    HW128637   3.594   3.650   8.490 -0.3376  1.3129 -0.7423
 5667SOL    HW228638   3.453   3.677   8.513  0.5195  1.8422 -0.2967
 5668SOL     OW28639   3.153   1.740   2.801 -0.3077 -0.5168  0.4085
 5668SOL    HW128640   3.183   1.827   2.826  1.7310 -1.3250  0.8427
 5668SOL    HW228641   3.071   1.769   2.761  0.0448  0.0963  0.1320
 5669SOL     OW28642   2.307   0.134  17.491  0.5494 -0.4841  0.2815
 5669SOL    HW128643   2.253   0.068  17.533 -1.1690  0.7614  0.0136
 5669SOL    HW228644   2.294   0.209  17.549 -1.8412 -1.0607  0.4730
 5670SOL     OW28645   3.029   3.153   7.792 -0.3622  0.1083 -0.0047
 5670SOL    HW128646   3.012   3.085   7.726 -2.3844  1.1930 -0.5964
 5670SOL    HW228647   3.008   3.092   7.863 -1.2316 -0.6117 -0.8747
 5671SOL     OW28648   1.585   4.111   7.846 -0.0735 -0.0902 -0.3898
 5671SOL    HW128649   1.646   4.114   7.772  0.2795  0.3270 -0.0784
 5671SOL    HW228650   1.590   4.200   7.879 -1.7830  0.2658 -1.0969
 5672SOL     OW28651   4.008   2.527   4.975  0.4389 -0.0905 -0.5949
 5672SOL    HW128652   4.051   2.506   4.892  1.7259 -1.3606  0.4182
 5672SOL    HW228653   3.944   2.456   4.983  1.3025 -0.8200 -0.2357
 5673SOL     OW28654   2.846   1.692   6.788 -0.0300  0.7335  0.2043
 5673SOL    HW128655   2.797   1.697   6.870 -0.4333 -1.4033  0.0948
 5673SOL    HW228656   2.908   1.622   6.811 -1.0560 -1.3706 -3.5431
 5674SOL     OW28657   2.780   0.921  13.326  0.7526 -0.1186 -0.2892
 5674SOL    HW128658   2.862   0.970  13.328  0.6859 -0.0323  0.2606
 5674SOL    HW228659   2.719   0.983  13.365 -0.1150  0.6878 -2.9004
 5675SOL     OW28660   0.736   1.952   5.914  0.2565 -0.1544  0.2900
 5675SOL    HW128661   0.743   1.881   5.850  0.3296 -0.7028  0.9076
 5675SOL    HW228662   0.643   1.971   5.923  0.2829 -0.4650  1.2098
 5676SOL     OW28663   3.818   0.947   6.363  0.1984  0.1352 -0.1087
 5676SOL    HW128664   3.772   0.877   6.408 -2.2123  0.6037 -1.8589
 5676SOL    HW228665   3.783   1.026   6.405  4.4462  1.2072  1.5053
 5677SOL     OW28666   0.020   2.282   6.359  0.0409  0.5370 -0.7355
 5677SOL    HW128667   0.108   2.284   6.397 -0.6822 -0.6026  1.0034
 5677SOL    HW228668   4.705   2.250   6.433  0.1457  2.1121  0.0164
 5678SOL     OW28669   1.465   2.173   2.530 -0.3536 -0.5273  0.5856
 5678SOL    HW128670   1.380   2.157   2.571 -1.2529  3.0940  0.1896
 5678SOL    HW228671   1.529   2.133   2.589 -0.8343  0.0559  1.5088
 5679SOL     OW28672   0.057   4.375  17.137  0.5773 -0.1952  0.7501
 5679SOL    HW128673   4.722   4.420  17.182  0.4288 -1.7221  2.0790
 5679SOL    HW228674   0.128   4.386  17.201 -1.8073  1.2188  3.1503
 5680SOL     OW28675   0.614   0.292   5.700 -0.0932  0.0798 -0.1178
 5680SOL    HW128676   0.523   0.267   5.721  0.4029 -0.1227  1.7998
 5680SOL    HW228677   0.647   0.213   5.658  0.7495  0.6489 -0.5132
 5681SOL     OW28678   4.389   2.773   5.585 -0.1801 -0.1049 -0.7074
 5681SOL    HW128679   4.411   2.717   5.511  1.5222  0.0575 -0.3322
 5681SOL    HW228680   4.402   2.716   5.660  0.5088  0.6232 -0.2615
 5682SOL     OW28681   2.778   4.231   3.643  0.6385  0.6511  0.4098
 5682SOL    HW128682   2.838   4.258   3.574 -1.1995 -2.4392 -2.3883
 5682SOL    HW228683   2.832   4.225   3.722  0.0297 -1.2117  0.6927
 5683SOL     OW28684   2.862   3.130   1.363  0.1448 -0.1020  0.6729
 5683SOL    HW128685   2.783   3.184   1.360 -0.2346 -0.6273  1.1825
 5683SOL    HW228686   2.922   3.182   1.311 -1.1644 -1.6651 -2.3933
 5684SOL     OW28687   0.908   2.963  12.857  0.1143  0.0860  0.2749
 5684SOL    HW128688   0.985   2.905  12.853  0.7907  0.9298  1.2697
 5684SOL    HW228689   0.876   2.953  12.767  1.5560  1.2986 -0.3856
 5685SOL     OW28690   0.620   0.589   4.956  0.0408  0.3060  0.1925
 5685SOL    HW128691   0.661   0.514   4.914 -2.2264 -1.5610  1.3523
 5685SOL    HW228692   0.566   0.541   5.018 -0.3273  0.8365  0.2855
 5686SOL     OW28693   4.698   0.232   5.000 -0.3475  0.0363  0.4688
 5686SOL    HW128694   4.725   0.209   5.089 -2.3587 -0.7807  0.8677
 5686SOL    HW228695   4.683   0.326   5.008 -0.3975  0.1163 -0.4957
 5687SOL     OW28696   2.714   0.810  10.313 -0.0441 -0.3210  0.5133
 5687SOL    HW128697   2.781   0.806  10.381  0.9684  1.1586 -0.3965
 5687SOL    HW228698   2.636   0.786  10.362  0.6113 -1.1164  1.1498
 5688SOL     OW28699   3.457   3.070   5.024 -0.1583  0.0614 -0.2213
 5688SOL    HW128700   3.531   3.030   4.977  1.1563  0.5847  1.3716
 5688SOL    HW228701   3.498   3.074   5.111 -2.3628  1.3577  0.7478
 5689SOL     OW28702   2.463   1.856   1.805 -0.0682  0.3481  0.1043
 5689SOL    HW128703   2.527   1.903   1.752  0.7825 -0.7498  0.1691
 5689SOL    HW228704   2.456   1.909   1.885  2.0922  0.6766  0.0658
 5690SOL     OW28705   0.027   4.442   4.440 -0.0383  0.2027 -0.5992
 5690SOL    HW128706   4.728   4.526   4.413  0.1587  0.0883 -1.2199
 5690SOL    HW228707   4.698   4.404   4.497  1.4122 -0.9559  0.3189
 5691SOL     OW28708   0.659   1.295  13.643 -0.4353 -0.1735 -0.0151
 5691SOL    HW128709   0.752   1.276  13.656 -0.5836 -0.3346  0.7609
 5691SOL    HW228710   0.658   1.372  13.587 -1.1904 -0.6363 -0.6371
 5692SOL     OW28711   0.195   1.212   6.730 -0.5768  0.6601  0.1415
 5692SOL    HW128712   0.194   1.204   6.825  0.9105  0.5376  0.1481
 5692SOL    HW228713   0.288   1.199   6.713 -0.3890  2.5387 -0.2671
 5693SOL     OW28714   2.305   0.445  16.626 -0.2667 -1.0083 -0.0484
 5693SOL    HW128715   2.353   0.423  16.546 -0.3102 -0.5372 -0.1997
 5693SOL    HW228716   2.385   0.483  16.661 -0.6221  0.4579 -0.8170
 5694SOL     OW28717   4.487   2.847   1.536 -0.5838  0.1596  0.4240
 5694SOL    HW128718   4.430   2.804   1.600 -0.6899 -0.5714 -0.1636
 5694SOL    HW228719   4.460   2.939   1.533  1.5621  0.8097  1.6469
 5695SOL     OW28720   2.105   2.591   7.091 -0.3999  0.5345  0.1939
 5695SOL    HW128721   2.080   2.537   7.166  1.8792  0.8911  1.1968
 5695SOL    HW228722   2.200   2.582   7.097 -0.1059  2.5913 -1.3690
 5696SOL     OW28723   0.901   1.970   2.027 -0.5060  0.0262  0.3333
 5696SOL    HW128724   0.942   1.942   2.109  0.9675 -0.9169 -0.7442
 5696SOL    HW228725   0.973   2.013   1.982  1.3028 -2.2808  1.0525
 5697SOL     OW28726   1.651   2.406   9.112  0.4011  0.2054  0.1442
 5697SOL    HW128727   1.734   2.384   9.072  0.2925 -0.9873  0.5771
 5697SOL    HW228728   1.679   2.493   9.140  1.7908  0.6917 -2.8808
 5698SOL     OW28729   2.351   0.754   0.961 -0.2967 -0.0626 -0.2755
 5698SOL    HW128730   2.375   0.786   0.874  0.3175  0.6674  0.1669
 5698SOL    HW228731   2.391   0.822   1.015 -0.8433 -0.9974  1.3043
 5699SOL     OW28732   4.671   2.046   4.848  0.1154  0.1471 -0.2888
 5699SOL    HW128733   4.617   2.065   4.924 -2.5159  1.7947 -2.5684
 5699SOL    HW228734   4.599   2.030   4.786 -0.2022  1.4492 -0.2513
 5700SOL     OW28735   1.588   0.619   5.148  0.6144  0.5617  0.0952
 5700SOL    HW128736   1.615   0.628   5.057  3.3182  2.7885  1.1130
 5700SOL    HW228737   1.532   0.541   5.141  2.4910 -0.7366 -0.6857
 5701SOL     OW28738   0.074   2.986   4.103  0.1913 -0.1127 -0.3691
 5701SOL    HW128739   0.128   3.045   4.155  0.5635  0.0016 -0.8804
 5701SOL    HW228740   0.079   2.903   4.150 -0.2491 -0.0184 -0.1577
 5702SOL     OW28741   3.054   1.663   2.465  0.2195 -0.4766  0.3175
 5702SOL    HW128742   3.058   1.745   2.513 -1.3716 -0.2575  0.0705
 5702SOL    HW228743   3.055   1.591   2.529  0.1027  0.0141  0.8714
 5703SOL     OW28744   2.083   0.473   6.856  0.4007  1.0671  0.2019
 5703SOL    HW128745   2.176   0.455   6.844  0.2550  0.6484 -0.2974
 5703SOL    HW228746   2.079   0.547   6.916  2.0952  0.8348  0.5967
 5704SOL     OW28747   1.706   2.256   8.114  0.1001 -1.5250  0.1308
 5704SOL    HW128748   1.714   2.226   8.205  0.8318 -0.8674  0.2774
 5704SOL    HW228749   1.711   2.350   8.134 -0.7869 -1.1512 -1.3804
 5705SOL     OW28750   4.476   1.715  11.633 -0.6807  0.0772  0.2701
 5705SOL    HW128751   4.504   1.633  11.672  0.3771  0.5232  0.4358
 5705SOL    HW228752   4.381   1.699  11.635 -0.2431 -2.5305 -0.4336
 5706SOL     OW28753   0.000   3.134   5.406  0.0599  0.1537 -0.2440
 5706SOL    HW128754   0.095   3.125   5.396  0.1153  0.2103  0.2427
 5706SOL    HW228755   4.719   3.117   5.498 -0.5449  0.3255 -0.3296
 5707SOL     OW28756   3.302   2.160   6.568 -0.8001  0.0557 -0.0399
 5707SOL    HW128757   3.331   2.164   6.477 -0.1762 -1.3082  0.1056
 5707SOL    HW228758   3.383   2.125   6.603 -0.3790  0.4283 -0.6393
 5708SOL     OW28759   0.049   0.850   8.904  0.9664  0.2882  0.7044
 5708SOL    HW128760   4.706   0.895   8.931  0.9727  0.5311  0.3197
 5708SOL    HW228761   0.023   0.758   8.909  0.9680  0.1445 -2.3183
 5709SOL     OW28762   0.180   1.690  13.430 -0.4283 -0.5454  1.0261
 5709SOL    HW128763   0.131   1.752  13.375  0.6675 -1.7988 -1.3640
 5709SOL    HW228764   0.266   1.730  13.437 -0.4837 -0.1688 -0.4576
 5710SOL     OW28765   1.282   3.824  14.735  0.0161  0.4605  0.2518
 5710SOL    HW128766   1.332   3.863  14.664  1.4915  0.1639  1.1450
 5710SOL    HW228767   1.350   3.783  14.789 -0.8740 -2.4215 -0.8154
 5711SOL     OW28768   1.028   1.404   5.093 -0.5520  0.0712  0.7580
 5711SOL    HW128769   0.977   1.327   5.067 -0.5475 -0.1324  1.3510
 5711SOL    HW228770   1.024   1.456   5.013  1.3274 -0.3687  0.3856
 5712SOL     OW28771   0.997   2.467  17.125 -0.1685 -0.2126  0.2332
 5712SOL    HW128772   1.068   2.475  17.189 -0.1031 -2.0456  0.3903
 5712SOL    HW228773   0.953   2.393  17.167 -0.2019  0.0710  0.6972
 5713SOL     OW28774   2.068   3.983   6.053  0.5479 -0.7091 -0.3562
 5713SOL    HW128775   2.098   4.025   5.972  0.1784 -1.8493 -1.0958
 5713SOL    HW228776   2.111   4.043   6.114 -0.6199  1.9675 -2.1832
 5714SOL     OW28777   0.325   3.105   7.833 -0.0953  0.2398  0.3438
 5714SOL    HW128778   0.238   3.066   7.839  0.1179 -0.3987 -0.6532
 5714SOL    HW228779   0.356   3.078   7.746 -1.2005 -1.6339  0.5301
 5715SOL     OW28780   0.529   1.785  15.451  0.6656  0.2042 -0.0609
 5715SOL    HW128781   0.561   1.797  15.540  0.8431  1.4586 -0.2897
 5715SOL    HW228782   0.437   1.805  15.470  0.1025  0.6920 -3.2102
 5716SOL     OW28783   2.336   2.524   4.025 -0.6827 -0.3680  1.0072
 5716SOL    HW128784   2.313   2.546   3.935 -0.1348 -1.1829  0.6742
 5716SOL    HW228785   2.315   2.607   4.069 -1.4324 -0.2026  0.3388
 5717SOL     OW28786   2.111   0.269  14.105 -0.0696  0.0059  0.3000
 5717SOL    HW128787   2.201   0.302  14.115 -0.3590  0.5384  1.1733
 5717SOL    HW228788   2.128   0.221  14.024 -0.3876 -0.1685  0.3387
 5718SOL     OW28789   1.129   1.140   3.670  0.1076 -0.1413  0.4007
 5718SOL    HW128790   1.162   1.181   3.590 -0.8920 -0.6048 -0.2404
 5718SOL    HW228791   1.059   1.202   3.689  0.5969  0.9330 -1.2737
 5719SOL     OW28792   0.584   4.423  11.268 -0.2537  0.4075 -0.0456
 5719SOL    HW128793   0.590   4.349  11.207  0.2974  0.1246  0.3490
 5719SOL    HW228794   0.665   4.469  11.246 -0.5800  0.7303 -0.5719
 5720SOL     OW28795   0.819   4.007   5.634  0.3303  0.1114  0.0848
 5720SOL    HW128796   0.779   4.002   5.721  0.2406  2.3283  0.1734
 5720SOL    HW228797   0.833   3.917   5.603 -2.4138  0.0876 -1.0509
 5721SOL     OW28798   1.685   0.576  11.147  0.4750 -0.4072 -0.2158
 5721SOL    HW128799   1.718   0.659  11.113 -1.3677 -0.5740 -2.3678
 5721SOL    HW228800   1.710   0.599  11.237  0.5446  2.3540 -0.9509
 5722SOL     OW28801   1.689   4.626  17.279  0.4924  0.0339 -0.0908
 5722SOL    HW128802   1.680   4.539  17.317 -0.5564  1.3339  2.6025
 5722SOL    HW228803   1.645   4.620  17.194 -1.4633  4.7498  0.5782
 5723SOL     OW28804   4.421   0.443   6.120  0.0128  0.6817  0.0038
 5723SOL    HW128805   4.456   0.532   6.119 -0.2890  0.8091  0.5242
 5723SOL    HW228806   4.354   0.451   6.052  1.0258 -0.1541 -1.0872
 5724SOL     OW28807   3.689   1.491   4.901 -0.4118  0.2249 -0.1109
 5724SOL    HW128808   3.641   1.416   4.937 -0.8900  0.3694 -0.4393
 5724SOL    HW228809   3.780   1.483   4.927 -0.6473  0.1142  0.6991
 5725SOL     OW28810   0.296   2.018   5.330  0.0505  0.0740 -0.1088
 5725SOL    HW128811   0.370   1.959   5.318  2.5418  4.2091 -4.8846
 5725SOL    HW228812   0.230   1.970   5.381  0.1937 -1.0101 -0.9566
 5726SOL     OW28813   2.265   4.353   2.479  0.0139 -0.0582  0.2895
 5726SOL    HW128814   2.244   4.288   2.546  0.5643 -0.3178  0.2165
 5726SOL    HW228815   2.359   4.364   2.490 -0.0684 -0.1076  1.0169
 5727SOL     OW28816   0.998   3.513  10.552 -0.4233  0.1870  0.0089
 5727SOL    HW128817   1.071   3.542  10.498 -0.3765  1.2169  0.6163
 5727SOL    HW228818   0.969   3.427  10.523  1.7014 -0.4733 -0.1414
 5728SOL     OW28819   0.586   4.356  14.962  0.0814 -0.1080  0.1342
 5728SOL    HW128820   0.558   4.447  14.963  3.2086  0.8609 -0.0208
 5728SOL    HW228821   0.665   4.359  15.015  0.9275  2.3356 -1.2443
 5729SOL     OW28822   3.320   3.561   8.858  0.2038  0.1514 -0.6927
 5729SOL    HW128823   3.281   3.504   8.793 -1.5054 -1.0184  1.3706
 5729SOL    HW228824   3.250   3.560   8.923  1.4342 -2.6933  0.5560
 5730SOL     OW28825   0.334   1.967   3.381 -0.2791  0.1620  0.0336
 5730SOL    HW128826   0.343   2.034   3.313 -0.8878  1.3183  1.0955
 5730SOL    HW228827   0.400   1.906   3.348  0.7521  1.2063  0.1231
 5731SOL     OW28828   3.911   2.008   3.350 -0.2054 -0.3144  0.3476
 5731SOL    HW128829   3.985   2.057   3.316  0.4407 -3.3331 -2.6029
 5731SOL    HW228830   3.853   2.016   3.275 -0.0765 -0.6001  0.2170
 5732SOL     OW28831   3.196   3.935  16.575  0.0426  0.2643  0.0668
 5732SOL    HW128832   3.251   3.861  16.548 -0.9290  0.3809 -2.2465
 5732SOL    HW228833   3.120   3.926  16.517  0.6583 -1.0179 -0.5633
 5733SOL     OW28834   2.867   1.645   6.187 -0.6003  0.3804  0.1151
 5733SOL    HW128835   2.848   1.739   6.182  2.2365  1.0345  1.3013
 5733SOL    HW228836   2.781   1.611   6.209  0.7676 -2.2885  1.3592
 5734SOL     OW28837   3.983   3.195   5.196  0.1661 -0.2136 -0.1804
 5734SOL    HW128838   4.038   3.272   5.213 -1.2907  1.4462 -3.0923
 5734SOL    HW228839   3.947   3.183   5.284  0.9549 -0.8171  0.0668
 5735SOL     OW28840   0.174   1.886   5.545  0.2612 -0.5034  0.0095
 5735SOL    HW128841   0.093   1.904   5.593 -0.0447  1.9526 -1.3931
 5735SOL    HW228842   0.253   1.883   5.598  0.8493 -1.8083 -0.9465
 5736SOL     OW28843   2.229   1.936   1.688  0.8224  0.1406 -0.2996
 5736SOL    HW128844   2.295   1.878   1.727  2.7513  1.3917 -1.6644
 5736SOL    HW228845   2.283   1.989   1.629  1.5844 -1.6700 -1.2306
 5737SOL     OW28846   2.236   1.272  10.900  0.1495  0.0431  0.1706
 5737SOL    HW128847   2.230   1.366  10.917  2.6956  0.1979  0.1955
 5737SOL    HW228848   2.254   1.237  10.987  0.2521 -0.2838  0.0157
 5738SOL     OW28849   4.464   2.438   2.026  0.2316 -0.6012  0.1210
 5738SOL    HW128850   4.392   2.407   1.971  0.0420 -1.3080  0.7607
 5738SOL    HW228851   4.543   2.427   1.974 -1.6704  1.6715 -3.1973
 5739SOL     OW28852   1.258   4.221  12.174 -0.1860 -0.3257  0.6181
 5739SOL    HW128853   1.343   4.215  12.217  1.0189 -0.5772 -1.7600
 5739SOL    HW228854   1.282   4.269  12.095 -5.1123  2.3447  0.7967
 5740SOL     OW28855   1.472   3.276   4.246  1.1261 -0.6173  0.6368
 5740SOL    HW128856   1.459   3.361   4.203 -2.1681 -0.0711  2.7345
 5740SOL    HW228857   1.385   3.237   4.237  1.0317  0.0084 -1.1358
 5741SOL     OW28858   2.163   3.313   6.051 -0.6508 -0.1738  0.4555
 5741SOL    HW128859   2.144   3.381   5.986 -1.2739 -0.0493  0.7587
 5741SOL    HW228860   2.223   3.363   6.105 -1.1228  1.9823 -0.9864
 5742SOL     OW28861   2.801   2.101  10.472 -0.4202 -0.0984 -0.6486
 5742SOL    HW128862   2.814   2.115  10.566 -3.1989 -0.5394 -0.2018
 5742SOL    HW228863   2.832   2.011  10.469 -0.9770 -0.3316  0.5940
 5743SOL     OW28864   2.189   2.004   3.741  0.0845 -0.0195 -0.0733
 5743SOL    HW128865   2.176   2.054   3.822  2.1532 -2.2849  1.6590
 5743SOL    HW228866   2.107   2.014   3.692 -0.5988  0.5589  1.1566
 5744SOL     OW28867   1.552   1.676   3.804 -0.6270  0.2910  0.6047
 5744SOL    HW128868   1.496   1.613   3.851 -0.0244 -1.0096 -0.4288
 5744SOL    HW228869   1.632   1.627   3.786 -0.8399 -1.0015  3.0835
 5745SOL     OW28870   0.095   3.904   5.990  0.7723  0.6167 -0.0163
 5745SOL    HW128871   0.170   3.953   6.024 -0.7180  1.3758  2.1376
 5745SOL    HW228872   0.110   3.921   5.897  0.3459  0.3819 -0.1305
 5746SOL     OW28873   3.400   3.851   7.642  0.0270 -0.3517  0.1141
 5746SOL    HW128874   3.472   3.803   7.683  0.6129  0.9552  0.6184
 5746SOL    HW228875   3.430   3.941   7.628  1.1450 -0.7225  0.1303
 5747SOL     OW28876   4.420   1.855   9.787  0.5007  0.2956 -0.3219
 5747SOL    HW128877   4.512   1.879   9.788  0.3178  0.9631 -0.0538
 5747SOL    HW228878   4.409   1.823   9.697  2.7165 -0.9864 -0.1537
 5748SOL     OW28879   3.359   0.079  17.692 -0.6146  0.1535  0.2827
 5748SOL    HW128880   3.351   4.721  17.680  1.0424  0.0020  0.4128
 5748SOL    HW228881   3.444   0.104  17.657 -0.3219 -2.0717 -0.5530
 5749SOL     OW28882   2.851   1.903   1.695 -0.2819 -0.2620 -0.3147
 5749SOL    HW128883   2.844   1.907   1.600 -0.0673 -1.4131 -0.3842
 5749SOL    HW228884   2.810   1.822   1.728 -0.1082  0.6911  2.2713
 5750SOL     OW28885   3.447   1.305  16.124  0.0936  0.2116  0.2983
 5750SOL    HW128886   3.475   1.223  16.166  1.6156  0.9635  0.7491
 5750SOL    HW228887   3.473   1.372  16.187  1.5539  0.4005 -0.5010
 5751SOL     OW28888   4.274   0.658   5.616 -0.2251 -0.4093  0.1277
 5751SOL    HW128889   4.334   0.675   5.544  0.0466 -0.4000  0.3575
 5751SOL    HW228890   4.285   0.736   5.671  1.1953 -0.5055 -0.0193
 5752SOL     OW28891   3.977   0.710  11.027 -0.5146  0.1461 -0.0019
 5752SOL    HW128892   3.982   0.709  11.123 -0.4238 -0.8981 -0.0181
 5752SOL    HW228893   4.023   0.633  10.992 -1.1565  0.0531 -0.6211
 5753SOL     OW28894   0.137   2.584   7.176  0.4766 -0.1386  0.2361
 5753SOL    HW128895   0.128   2.518   7.107  2.0506 -2.9147  2.6486
 5753SOL    HW228896   0.201   2.540   7.233 -1.0730 -0.9185  1.3874
 5754SOL     OW28897   3.656   2.900  11.921 -0.1804  0.0475  0.1950
 5754SOL    HW128898   3.629   2.848  11.997  2.4964  1.3037  2.0107
 5754SOL    HW228899   3.635   2.987  11.953 -2.3902  0.5703 -2.6469
 5755SOL     OW28900   3.543   3.177   4.325 -0.6687 -0.1882  0.2022
 5755SOL    HW128901   3.605   3.241   4.289  0.4740 -0.8014  1.0959
 5755SOL    HW228902   3.598   3.100   4.339  1.0055  0.9448 -0.1071
 5756SOL     OW28903   1.088   2.338   1.775  0.0801  0.1720 -0.8101
 5756SOL    HW128904   1.179   2.362   1.757 -0.2716  1.4814 -0.8385
 5756SOL    HW228905   1.043   2.423   1.783  3.1565  1.8422 -1.0824
 5757SOL     OW28906   3.501   0.001  13.321  0.4096 -0.6823 -0.0409
 5757SOL    HW128907   3.429   0.059  13.296  0.0807  0.0515  2.6939
 5757SOL    HW228908   3.479   4.659  13.272  0.5376  1.0074 -2.8286
 5758SOL     OW28909   2.145   4.255   2.709  0.0422 -0.2073  0.2881
 5758SOL    HW128910   2.170   4.333   2.758 -1.0215  1.1296 -1.3154
 5758SOL    HW228911   2.054   4.244   2.735 -0.7093  0.6651 -2.0281
 5759SOL     OW28912   4.067   0.110   5.733  0.2798 -0.1903  0.3604
 5759SOL    HW128913   4.006   0.175   5.769 -0.0570  0.1617 -0.8682
 5759SOL    HW228914   4.148   0.149   5.766  1.5889 -1.8733 -0.8877
 5760SOL     OW28915   0.591   1.895   7.776  0.1931  0.1534 -0.3594
 5760SOL    HW128916   0.598   1.909   7.682  1.8284 -0.4525 -0.3211
 5760SOL    HW228917   0.558   1.805   7.778 -0.8033  0.5104 -0.7690
 5761SOL     OW28918   0.739   3.861   5.028 -0.0668  0.0671  0.9343
 5761SOL    HW128919   0.787   3.778   5.026 -1.3260 -0.6495  0.6606
 5761SOL    HW228920   0.715   3.862   5.121  2.1983 -1.3526  1.5296
 5762SOL     OW28921   2.264   2.861  15.382 -0.1298 -0.4589 -0.3727
 5762SOL    HW128922   2.247   2.955  15.387  2.9223 -0.0417  2.2136
 5762SOL    HW228923   2.353   2.861  15.418  0.0261  1.4692 -0.7607
 5763SOL     OW28924   1.330   1.001   8.117  0.2189 -0.6292  0.3413
 5763SOL    HW128925   1.295   1.081   8.157  1.1594 -1.7188  3.3192
 5763SOL    HW228926   1.425   1.012   8.126  0.1255 -0.0130  0.5902
 5764SOL     OW28927   0.178   0.093   6.639  0.0288 -0.1839 -0.1120
 5764SOL    HW128928   0.190   0.107   6.545 -1.5643  0.6506 -0.1825
 5764SOL    HW228929   0.269   0.078   6.667 -0.4503 -1.7913  0.5973
 5765SOL     OW28930   3.511   3.755   7.339 -0.4185 -0.3427 -0.3369
 5765SOL    HW128931   3.600   3.722   7.343  0.1320  1.2051  0.3058
 5765SOL    HW228932   3.476   3.695   7.404 -1.5110 -0.1489 -0.7319
 5766SOL     OW28933   1.609   3.825   6.684  0.0763  0.2336 -0.2753
 5766SOL    HW128934   1.589   3.833   6.591  1.1786  4.0315 -0.1724
 5766SOL    HW228935   1.518   3.843   6.706  0.2803  1.6717 -0.6460
 5767SOL     OW28936   1.674   0.330   4.263 -0.0580  0.0677 -0.3383
 5767SOL    HW128937   1.650   0.250   4.215  0.3723 -1.3208  1.7746
 5767SOL    HW228938   1.643   0.402   4.208  0.5265 -0.2418 -1.0784
 5768SOL     OW28939   2.645   4.659   6.623  0.4659 -0.2586  0.7902
 5768SOL    HW128940   2.716   4.598   6.642  0.8866  0.0725  0.2699
 5768SOL    HW228941   2.623   4.690   6.711 -0.6038  0.2871  0.3199
 5769SOL     OW28942   1.063   2.482  17.634  0.3479  0.4697 -0.2809
 5769SOL    HW128943   1.102   2.514  17.715  0.7932 -1.6122  0.3313
 5769SOL    HW228944   1.035   2.399  17.673  0.8072  0.4698  0.0459
 5770SOL     OW28945   2.507   0.817   8.080  0.0963  0.1127 -0.3034
 5770SOL    HW128946   2.532   0.828   7.988  0.8107 -0.3172 -0.1583
 5770SOL    HW228947   2.537   0.728   8.099  0.8043 -0.2714 -3.2531
 5771SOL     OW28948   2.615   0.052   6.374  0.0098  0.6322 -0.4020
 5771SOL    HW128949   2.600   0.010   6.459  0.5805  1.7793  0.2602
 5771SOL    HW228950   2.704   0.086   6.387 -0.0849  1.4015 -1.7870
 5772SOL     OW28951   3.897   0.465   3.466  0.2485 -0.3241  0.1276
 5772SOL    HW128952   3.986   0.483   3.497  0.2081 -0.8919  0.5815
 5772SOL    HW228953   3.851   0.530   3.520  2.2177  0.8007  0.4496
 5773SOL     OW28954   1.661   1.322  10.909  0.5652 -0.3467  0.3936
 5773SOL    HW128955   1.709   1.373  10.844 -0.5088  0.2507  0.0804
 5773SOL    HW228956   1.729   1.269  10.951  0.5853 -0.5742  0.0774
 5774SOL     OW28957   4.468   0.974  11.778 -0.0776 -0.6549 -0.1151
 5774SOL    HW128958   4.401   1.020  11.728  0.9623  1.2859  0.2618
 5774SOL    HW228959   4.430   0.887  11.786 -0.4449 -0.5302 -0.4847
 5775SOL     OW28960   2.210   2.378   2.716 -0.0669  0.2431 -0.1734
 5775SOL    HW128961   2.124   2.397   2.680 -0.7956  0.7701  1.8515
 5775SOL    HW228962   2.195   2.285   2.730  1.0134  0.3007  1.3508
 5776SOL     OW28963   2.152   4.313   1.972  0.1260  0.5866  0.6541
 5776SOL    HW128964   2.125   4.317   2.064 -1.0294  1.9032  0.2521
 5776SOL    HW228965   2.246   4.298   1.981  0.6366  2.1982 -1.7947
 5777SOL     OW28966   4.180   0.965   1.376  0.2868  0.1215 -0.1287
 5777SOL    HW128967   4.220   1.049   1.357  2.9361 -0.9996  0.5955
 5777SOL    HW228968   4.089   0.981   1.350  0.2523 -0.4805 -0.3763
 5778SOL     OW28969   2.425   1.009   8.254 -0.5310 -0.2536 -0.0909
 5778SOL    HW128970   2.454   0.940   8.196  2.1953  0.0433  0.9237
 5778SOL    HW228971   2.338   0.977   8.280 -0.8555  0.0030 -0.8702
 5779SOL     OW28972   2.568   1.356   1.253  0.2411  0.1626  0.1074
 5779SOL    HW128973   2.636   1.332   1.190  0.6127 -1.1933  1.0170
 5779SOL    HW228974   2.620   1.420   1.300 -0.6270  0.5020  0.6048
 5780SOL     OW28975   0.879   4.317  12.447  0.1593  0.6339  0.1695
 5780SOL    HW128976   0.969   4.328  12.477  0.1896  0.3909  0.1660
 5780SOL    HW228977   0.893   4.277  12.361  1.9118 -0.4047  0.9510
 5781SOL     OW28978   0.022   0.469   2.134 -0.0670  0.2064 -0.1123
 5781SOL    HW128979   0.107   0.433   2.159  0.3820  1.0908 -0.3543
 5781SOL    HW228980   4.705   0.391   2.147 -1.9888  1.5142 -0.1707
 5782SOL     OW28981   3.771   0.465  15.339 -0.2347 -0.0072  0.1114
 5782SOL    HW128982   3.785   0.443  15.246  0.7730  0.0865  0.2435
 5782SOL    HW228983   3.744   0.557  15.330  1.3948  0.6558  2.2626
 5783SOL     OW28984   1.134   4.611   8.941 -0.4044  0.1948  0.2001
 5783SOL    HW128985   1.053   4.565   8.921 -1.0764  1.0286  1.0159
 5783SOL    HW228986   1.194   4.545   8.975 -3.2704 -1.7350  1.5075
 5784SOL     OW28987   3.907   4.656   7.180  0.2680  0.0505  0.1844
 5784SOL    HW128988   3.997   4.685   7.193 -0.6449  2.6730  0.8000
 5784SOL    HW228989   3.877   4.682   7.093  0.4295  0.3394  0.2143
 5785SOL     OW28990   2.423   0.056   8.380 -0.3205 -0.0508  0.6490
 5785SOL    HW128991   2.476   4.721   8.345 -0.3770  0.4545 -0.4745
 5785SOL    HW228992   2.363   0.009   8.437 -1.3422 -1.0287 -1.2760
 5786SOL     OW28993   1.972   3.193   5.018 -0.0328 -0.2607  0.1092
 5786SOL    HW128994   2.025   3.119   4.989  0.7165 -0.3270  1.6259
 5786SOL    HW228995   2.034   3.261   4.993 -0.7329 -0.3674 -1.9384
 5787SOL     OW28996   3.775   2.452   9.882  0.2213 -0.4057 -0.5244
 5787SOL    HW128997   3.811   2.520   9.938 -1.2629 -0.1317  0.0896
 5787SOL    HW228998   3.711   2.414   9.942 -0.6823  0.1350 -1.1577
 5788SOL     OW28999   3.600   1.419   2.220  0.0685 -0.6757  0.0318
 5788SOL    HW129000   3.677   1.463   2.184 -0.8116  1.5956  0.9360
 5788SOL    HW229001   3.611   1.447   2.310  0.5151 -1.7956  0.3331
 5789SOL     OW29002   1.461   3.688   5.477  0.0658 -0.3135 -0.4279
 5789SOL    HW129003   1.454   3.682   5.572  0.0202 -0.3747 -0.4346
 5789SOL    HW229004   1.524   3.618   5.461 -1.3039 -0.9726 -2.8990
 5790SOL     OW29005   4.641   3.233   9.146  0.0141 -0.1719  0.3898
 5790SOL    HW129006   4.720   3.231   9.092  0.2730 -0.2418  0.7690
 5790SOL    HW229007   4.578   3.249   9.076 -0.1216  0.4766  0.6601
 5791SOL     OW29008   0.507   2.460  17.578  0.3540  0.1776  0.2935
 5791SOL    HW129009   0.600   2.476  17.590  0.7615 -1.6935 -0.3921
 5791SOL    HW229010   0.493   2.435  17.487  2.0280  1.5901 -0.3441
 5792SOL     OW29011   3.597   2.833   8.520 -0.3988 -0.7343 -0.2826
 5792SOL    HW129012   3.638   2.747   8.524 -0.2669 -0.5795  1.3620
 5792SOL    HW229013   3.605   2.854   8.613 -0.9683 -0.9297 -0.1917
 5793SOL     OW29014   1.540   4.688   4.354  0.4377 -0.4984 -0.0999
 5793SOL    HW129015   1.459   4.638   4.353 -0.3148  0.7247 -0.1388
 5793SOL    HW229016   1.592   4.635   4.294 -1.8206 -2.3046 -0.4512
 5794SOL     OW29017   3.220   4.350   8.035 -0.0301  0.4053  0.2408
 5794SOL    HW129018   3.286   4.378   8.098  0.0587  2.6757 -0.8637
 5794SOL    HW229019   3.207   4.258   8.060  0.0322  1.2849  3.4345
 5795SOL     OW29020   1.420   0.008  11.345 -0.1587 -0.5347 -0.3065
 5795SOL    HW129021   1.388   0.083  11.295 -1.7320 -1.6988 -1.0628
 5795SOL    HW229022   1.501   0.049  11.375  0.3463 -1.0159 -1.0370
 5796SOL     OW29023   3.641   4.384  15.157 -0.4004  0.0406  0.2269
 5796SOL    HW129024   3.734   4.359  15.156  0.4208  3.0956 -0.3683
 5796SOL    HW229025   3.609   4.297  15.181 -0.9746 -0.6731 -3.1107
 5797SOL     OW29026   0.276   4.102   6.931 -0.2300  0.6223 -0.0154
 5797SOL    HW129027   0.276   4.176   6.870 -2.1758 -0.1503 -0.9528
 5797SOL    HW229028   0.256   4.035   6.865 -0.0182 -0.3200  0.8766
 5798SOL     OW29029   2.228   3.912   4.520 -0.7087 -1.1126  0.2331
 5798SOL    HW129030   2.288   3.946   4.585  2.3061  0.5595 -3.4127
 5798SOL    HW229031   2.289   3.917   4.446 -1.5123  1.1568 -0.2796
 5799SOL     OW29032   3.136   3.870   5.916 -0.1044  0.2150 -0.2979
 5799SOL    HW129033   3.191   3.794   5.932 -1.7112 -0.5602  1.5226
 5799SOL    HW229034   3.190   3.923   5.857 -0.2180  0.7536  0.0862
 5800SOL     OW29035   0.830   1.074   8.401  0.4215  0.4233  0.3407
 5800SOL    HW129036   0.891   1.079   8.327  0.9421  0.8340  0.7942
 5800SOL    HW229037   0.749   1.095   8.354 -0.0437  1.1952  1.4676
 5801SOL     OW29038   2.798   2.308  10.285  0.1780  0.1306 -0.4169
 5801SOL    HW129039   2.767   2.281  10.199  1.3975  0.8369 -1.0694
 5801SOL    HW229040   2.794   2.229  10.339  0.5211 -0.7657 -1.6994
 5802SOL     OW29041   1.953   0.026  17.344  0.0669  0.0683  0.3411
 5802SOL    HW129042   1.876   0.082  17.347  0.9444  1.3370 -1.4475
 5802SOL    HW229043   1.944   4.732  17.254 -1.3340  1.5785 -0.0225
 5803SOL     OW29044   4.013   2.746   6.378 -0.4160 -0.3114  0.2064
 5803SOL    HW129045   3.969   2.754   6.294 -0.0564 -0.7311 -0.0256
 5803SOL    HW229046   3.963   2.801   6.438 -1.3176 -1.5688  0.6050
 5804SOL     OW29047   2.166   0.334   4.320  0.1271  0.4183 -0.2064
 5804SOL    HW129048   2.226   0.394   4.363 -1.3312  0.7782  1.3372
 5804SOL    HW229049   2.200   0.248   4.345 -0.2537 -0.1676 -1.6907
 5805SOL     OW29050   2.302   1.223   3.379  0.0418 -0.5152 -0.0860
 5805SOL    HW129051   2.240   1.197   3.447  0.6634  0.8503  0.9974
 5805SOL    HW229052   2.327   1.307   3.418  2.6448 -2.2056  1.8422
 5806SOL     OW29053   4.019   0.120   2.958 -0.2734  0.7616 -0.3434
 5806SOL    HW129054   4.094   0.064   2.978  0.2092  0.7711 -2.1364
 5806SOL    HW229055   3.979   0.132   3.044 -1.1264 -2.4763 -0.2873
 5807SOL     OW29056   1.836   1.111  10.977 -0.7402  0.0913 -0.2841
 5807SOL    HW129057   1.915   1.062  10.955 -0.7203 -0.1538  0.3588
 5807SOL    HW229058   1.854   1.125  11.070 -0.0246 -1.6496 -0.1775
 5808SOL     OW29059   4.388   2.465   8.986  0.0683  0.1960  0.2554
 5808SOL    HW129060   4.408   2.511   9.067 -0.8838  2.6098 -0.8804
 5808SOL    HW229061   4.354   2.380   9.013 -1.0895  0.8794  0.9029
 5809SOL     OW29062   0.432   0.211   7.448  0.4237  0.2101 -0.4745
 5809SOL    HW129063   0.363   0.153   7.415 -1.5302  0.0674  3.9384
 5809SOL    HW229064   0.503   0.176   7.394 -0.5540  1.3129 -2.4873
 5810SOL     OW29065   3.060   1.046  10.411  0.3945  0.3554 -0.8008
 5810SOL    HW129066   2.987   0.997  10.450  1.6281 -1.7695 -1.1286
 5810SOL    HW229067   3.133   1.044  10.474 -1.0243 -0.2161  0.8429
 5811SOL     OW29068   0.442   1.804  13.277  0.2585 -0.4725 -1.0638
 5811SOL    HW129069   0.513   1.785  13.338 -0.4566  1.6836  0.4314
 5811SOL    HW229070   0.485   1.876  13.231  0.0948  0.1060 -0.3099
 5812SOL     OW29071   2.230   0.585   9.424  0.2212  0.1270  0.9441
 5812SOL    HW129072   2.299   0.650   9.411  1.6038 -1.7336 -0.9951
 5812SOL    HW229073   2.273   0.510   9.465  0.8060  0.0580  0.2071
 5813SOL     OW29074   3.217   0.219   8.747  0.3850  0.0390  0.4325
 5813SOL    HW129075   3.227   0.241   8.840 -0.2877 -1.6522  0.9060
 5813SOL    HW229076   3.307   0.194   8.726  0.6112  0.9894  0.2722
 5814SOL     OW29077   4.266   0.828   4.577  0.1902 -0.2550 -0.0955
 5814SOL    HW129078   4.304   0.913   4.599  1.9874 -1.0297 -0.1410
 5814SOL    HW229079   4.336   0.772   4.611 -0.2631 -0.7860 -0.0403
 5815SOL     OW29080   3.899   3.506   3.637  0.1469  0.5752  0.6777
 5815SOL    HW129081   3.988   3.536   3.653  0.5670 -0.1971 -0.2550
 5815SOL    HW229082   3.869   3.541   3.553 -1.5554  0.4026  1.1947
 5816SOL     OW29083   4.716   1.168   7.666  0.2587  0.0796 -0.1962
 5816SOL    HW129084   4.644   1.146   7.726  0.5474 -0.6056 -0.1087
 5816SOL    HW229085   4.699   1.094   7.608 -0.8856 -0.4515  0.8047
 5817SOL     OW29086   1.320   1.951   4.708 -0.4118  0.3765 -0.4648
 5817SOL    HW129087   1.257   1.922   4.642  1.2919  0.7810 -2.2669
 5817SOL    HW229088   1.394   1.891   4.692 -1.5981 -1.3605  0.5651
 5818SOL     OW29089   0.750   3.435   6.899  0.0742  0.0612 -1.0574
 5818SOL    HW129090   0.784   3.461   6.813  3.2907 -0.2584  0.1372
 5818SOL    HW229091   0.830   3.452   6.947 -0.3201  0.3538 -0.5013
 5819SOL     OW29092   3.364   4.649   2.808 -0.2879 -0.1356  0.2766
 5819SOL    HW129093   3.363   4.556   2.833  2.6376 -0.5419 -1.0850
 5819SOL    HW229094   3.449   4.672   2.845 -1.0080  0.2386  1.7049
 5820SOL     OW29095   1.735   2.081   8.991 -0.3195  0.1752  0.3854
 5820SOL    HW129096   1.642   2.090   9.014 -1.1062  0.1639 -2.8679
 5820SOL    HW229097   1.748   2.171   8.960  0.1031  1.0190  2.9767
 5821SOL     OW29098   1.053   1.904   3.734  0.6222  0.1080  0.1167
 5821SOL    HW129099   1.116   1.933   3.668 -1.5798 -2.2886 -3.0513
 5821SOL    HW229100   0.998   1.982   3.739  3.0391  1.6166  3.1881
 5822SOL     OW29101   0.763   1.094  12.077 -0.0300 -0.1675 -0.0356
 5822SOL    HW129102   0.681   1.136  12.102 -0.3660 -0.1935 -1.0868
 5822SOL    HW229103   0.723   1.033  12.014  0.7917 -1.4213  0.6545
 5823SOL     OW29104   3.102   4.713   5.060 -0.4576  0.0087 -0.2313
 5823SOL    HW129105   3.085   4.642   4.998 -1.0322 -0.2335  0.2076
 5823SOL    HW229106   3.070   4.675   5.142 -0.3188 -0.1908 -0.2712
 5824SOL     OW29107   2.883   0.492  14.473  0.0865 -0.0751 -0.1021
 5824SOL    HW129108   2.857   0.578  14.508  0.2120  0.8372 -2.2632
 5824SOL    HW229109   2.958   0.519  14.420  0.6432 -0.7253  0.3587
 5825SOL     OW29110   2.024   3.782   2.455 -0.5248 -0.0976  0.1122
 5825SOL    HW129111   2.046   3.774   2.548 -0.5312 -1.1796  0.0209
 5825SOL    HW229112   2.009   3.874   2.435 -0.1976  0.7597  3.8567
 5826SOL     OW29113   4.489   3.228  15.700 -0.1967  0.1154  0.5144
 5826SOL    HW129114   4.535   3.146  15.720  0.0178  0.5882  1.9863
 5826SOL    HW229115   4.421   3.237  15.767 -1.5869  1.2138 -1.0550
 5827SOL     OW29116   4.555   2.280   3.741  0.3314  0.1843 -0.5016
 5827SOL    HW129117   4.607   2.199   3.730 -0.1519  0.2083 -2.9621
 5827SOL    HW229118   4.517   2.289   3.654 -3.9839 -0.1214  1.3693
 5828SOL     OW29119   1.106   1.264  10.086  0.2926 -0.1347  0.1750
 5828SOL    HW129120   1.148   1.181  10.107 -1.0287 -0.9150 -0.2906
 5828SOL    HW229121   1.146   1.270   9.999 -0.3157  1.5679  0.0141
 5829SOL     OW29122   1.019   2.078   7.753 -0.3143  0.4492  0.2616
 5829SOL    HW129123   1.081   2.066   7.681  1.8666  1.6250  1.9695
 5829SOL    HW229124   1.055   2.157   7.792 -0.7953  0.1643  1.2825
 5830SOL     OW29125   0.786   1.864   0.010 -0.9232  0.0236  0.5437
 5830SOL    HW129126   0.695   1.889   0.028 -0.1933  2.2010  1.2649
 5830SOL    HW229127   0.840   1.918   0.067 -0.1796  1.1199 -1.1996
 5831SOL     OW29128   2.083   4.196   3.129  0.2226 -0.0724  0.2579
 5831SOL    HW129129   2.051   4.285   3.119  0.7896 -0.2078 -2.8600
 5831SOL    HW229130   2.033   4.178   3.209 -1.8154  0.3583 -0.9342
 5832SOL     OW29131   4.174   1.099  17.296 -0.3141 -0.1727  0.3560
 5832SOL    HW129132   4.247   1.161  17.299  0.5169 -1.1369  0.0119
 5832SOL    HW229133   4.219   1.023  17.261 -0.6202 -0.3311  0.3066
 5833SOL     OW29134   3.264   2.335  16.766  0.1670 -0.1387 -0.0448
 5833SOL    HW129135   3.267   2.372  16.854  1.0542  0.4579 -0.3280
 5833SOL    HW229136   3.303   2.248  16.772 -2.2796 -1.1136  1.9158
 5834SOL     OW29137   3.646   3.031   7.884  0.5695  0.0524 -0.5792
 5834SOL    HW129138   3.628   2.989   7.800 -2.4985  1.0643 -0.4123
 5834SOL    HW229139   3.662   3.121   7.857  0.9683  0.2511  0.3409
 5835SOL     OW29140   3.689   4.521   2.680  0.2542 -0.4120 -0.2185
 5835SOL    HW129141   3.647   4.458   2.621 -0.3528 -0.6399  0.4568
 5835SOL    HW229142   3.760   4.464   2.709  0.2789 -0.6729 -0.7935
 5836SOL     OW29143   1.761   3.368   6.273  0.1662  0.0124  0.4227
 5836SOL    HW129144   1.782   3.388   6.182  1.8849 -1.3981  0.4927
 5836SOL    HW229145   1.678   3.321   6.262 -0.2163  0.8398 -0.2126
 5837SOL     OW29146   4.648   1.281   7.252  0.3325  0.1102  0.1997
 5837SOL    HW129147   4.670   1.333   7.176  0.6578 -0.9878 -0.4584
 5837SOL    HW229148   0.000   1.251   7.268  1.2276  2.3310 -0.6354
 5838SOL     OW29149   0.444   3.853   8.640  0.2758  0.2274 -0.6118
 5838SOL    HW129150   0.421   3.918   8.706  1.9826  0.6253 -0.4002
 5838SOL    HW229151   0.355   3.833   8.610 -0.6096  0.1998  2.0499
 5839SOL     OW29152   2.099   0.355   4.066  0.0126  0.9240 -0.5037
 5839SOL    HW129153   2.133   0.351   4.155  0.7519  0.2779 -0.8247
 5839SOL    HW229154   2.018   0.407   4.068 -0.1666  0.5227  3.4222
 5840SOL     OW29155   1.869   0.506  10.864  0.4351  0.2710 -0.4623
 5840SOL    HW129156   1.838   0.529  10.952 -2.2681 -0.4853 -1.2056
 5840SOL    HW229157   1.840   0.582  10.812  0.1240  0.1569 -0.4549
 5841SOL     OW29158   0.951   1.742   1.740  0.0213  0.1749 -0.4284
 5841SOL    HW129159   0.983   1.828   1.712  0.4801  1.0111  2.6628
 5841SOL    HW229160   0.871   1.762   1.692 -0.1612 -1.3583 -0.7835
 5842SOL     OW29161   0.581   3.646   4.407  0.8292  0.5747  0.6715
 5842SOL    HW129162   0.546   3.560   4.384  1.8033  0.9652 -2.2426
 5842SOL    HW229163   0.671   3.618   4.421  0.6381 -1.5047 -2.3577
 5843SOL     OW29164   4.443   2.402   5.502 -0.2816 -0.3421  0.3308
 5843SOL    HW129165   4.444   2.470   5.434 -0.3364 -1.4632 -0.7833
 5843SOL    HW229166   4.476   2.323   5.459  1.6107  0.3371  0.5369
 5844SOL     OW29167   4.282   1.461   5.792  0.5711  0.5124  0.1845
 5844SOL    HW129168   4.199   1.500   5.817  0.3743  1.4681 -1.9200
 5844SOL    HW229169   4.342   1.464   5.866 -1.3120  3.6296  1.5568
 5845SOL     OW29170   1.772   1.786   7.372  0.5551  0.3569  0.2821
 5845SOL    HW129171   1.820   1.835   7.439  0.9877  1.2254 -0.6617
 5845SOL    HW229172   1.766   1.851   7.302 -0.8163 -0.7662 -0.6495
 5846SOL     OW29173   3.142   4.141  17.188 -0.2496  0.2551  0.4488
 5846SOL    HW129174   3.221   4.186  17.217 -0.3854  0.3484  0.6767
 5846SOL    HW229175   3.177   4.061  17.149  2.8634  1.7484  0.1589
 5847SOL     OW29176   2.363   4.590   1.653  0.5169 -0.3355  0.2574
 5847SOL    HW129177   2.345   4.511   1.703 -0.6830 -0.5329 -0.4906
 5847SOL    HW229178   2.426   4.635   1.710 -0.7276  1.0049  0.5913
 5848SOL     OW29179   1.375   0.014   6.077  0.4723 -0.0323  0.0143
 5848SOL    HW129180   1.412   0.033   6.164  0.5770 -0.6792  0.1177
 5848SOL    HW229181   1.367   0.102   6.042  0.6728  0.2684  0.7311
 5849SOL     OW29182   2.855   0.145   6.438 -0.2732 -0.1104  0.0451
 5849SOL    HW129183   2.851   0.194   6.520  2.2308  0.8209 -0.3923
 5849SOL    HW229184   2.927   0.188   6.392  0.9005  0.9837  2.9293
 5850SOL     OW29185   2.424   4.215   0.282 -0.4993  0.0505  0.2061
 5850SOL    HW129186   2.406   4.154   0.353 -0.5917 -1.6505 -1.2541
 5850SOL    HW229187   2.514   4.243   0.299  0.1641 -1.6086 -0.4878
 5851SOL     OW29188   0.823   2.845   9.293 -0.1037 -0.0207  0.2101
 5851SOL    HW129189   0.842   2.928   9.250  0.5907  0.2529  1.0409
 5851SOL    HW229190   0.732   2.854   9.320 -0.3501  3.0334 -1.6304
 5852SOL     OW29191   2.716   4.519   3.677  0.3967 -0.3432 -0.6748
 5852SOL    HW129192   2.754   4.460   3.613  1.6059 -0.6173  0.2960
 5852SOL    HW229193   2.624   4.502   3.655  0.1269  1.8614 -1.3086
 5853SOL     OW29194   4.043   4.174  12.068  0.2057  0.0928  0.0143
 5853SOL    HW129195   4.073   4.222  11.991 -0.6914  0.8963  0.1671
 5853SOL    HW229196   4.092   4.221  12.136 -1.5814 -0.2577  1.5478
 5854SOL     OW29197   3.628   0.825   2.523  0.1892  0.1400  0.2818
 5854SOL    HW129198   3.617   0.903   2.468  1.3511  1.9170  2.5974
 5854SOL    HW229199   3.546   0.810   2.569 -0.1392  0.9627 -0.0316
 5855SOL     OW29200   4.221   4.529  10.618 -0.0419 -0.0298 -0.9209
 5855SOL    HW129201   4.205   4.618  10.589  2.3495  0.5002 -0.5814
 5855SOL    HW229202   4.131   4.508  10.643 -0.2554  2.5582  0.5088
 5856SOL     OW29203   1.931   4.099  15.436 -0.0611  0.6904  0.0670
 5856SOL    HW129204   1.938   4.153  15.357 -4.1602 -1.9951 -2.1544
 5856SOL    HW229205   1.835   4.098  15.444 -0.1524  0.3707 -0.9961
 5857SOL     OW29206   3.018   3.374   8.613  0.1469  0.3165  0.2703
 5857SOL    HW129207   2.997   3.348   8.702 -3.0648  1.3429 -0.1899
 5857SOL    HW229208   3.114   3.379   8.607  0.2765  1.1108  3.0522
 5858SOL     OW29209   0.204   2.524   6.693  0.0162  0.5362  0.0244
 5858SOL    HW129210   0.195   2.516   6.788  0.1267 -0.8608 -0.0851
 5858SOL    HW229211   0.123   2.575   6.682 -0.5179 -0.6354 -1.4185
 5859SOL     OW29212   4.092   4.461   6.340  0.4444  0.1544 -1.0204
 5859SOL    HW129213   4.001   4.452   6.311 -0.2665 -2.4122  1.9992
 5859SOL    HW229214   4.128   4.407   6.270 -1.1177 -0.3101 -1.4694
 5860SOL     OW29215   2.919   1.319   8.356 -0.2084  0.0935  0.4338
 5860SOL    HW129216   2.914   1.234   8.312  1.7676 -0.1126  0.6183
 5860SOL    HW229217   2.849   1.368   8.313  1.4555  1.2418 -0.9695
 5861SOL     OW29218   0.395   3.779   9.602 -0.0613 -0.3236  0.4178
 5861SOL    HW129219   0.364   3.838   9.671  3.0095  0.2341  1.3303
 5861SOL    HW229220   0.474   3.826   9.575  0.1735  1.0642  3.6096
 5862SOL     OW29221   3.668   3.720  16.123  0.0432  0.6831  0.3384
 5862SOL    HW129222   3.666   3.711  16.218  1.0225 -1.6684  0.1490
 5862SOL    HW229223   3.760   3.747  16.114  0.5148  0.0108  3.1082
 5863SOL     OW29224   3.722   2.375   1.347 -0.1224 -0.0650  0.3929
 5863SOL    HW129225   3.679   2.300   1.388  0.8175  1.0533  3.3824
 5863SOL    HW229226   3.674   2.385   1.265  0.2154 -1.4275  0.0190
 5864SOL     OW29227   0.165   3.925   2.018 -0.7072 -0.4498  0.1360
 5864SOL    HW129228   0.253   3.911   1.983 -0.1751  0.0341  1.2838
 5864SOL    HW229229   0.161   3.849   2.076 -0.7920 -0.1172  0.5678
 5865SOL     OW29230   0.728   2.943   7.857  0.0815  0.2848 -0.1340
 5865SOL    HW129231   0.723   2.861   7.808  0.6599  0.5169 -0.5813
 5865SOL    HW229232   0.804   2.935   7.914 -0.3326 -0.2387  0.3517
 5866SOL     OW29233   4.714   3.494   3.590 -0.1230  0.3243  0.3208
 5866SOL    HW129234   0.025   3.513   3.509 -0.6093 -2.7010 -0.6836
 5866SOL    HW229235   0.045   3.450   3.642 -0.2919 -0.3299 -0.0116
 5867SOL     OW29236   0.512   4.641  11.609  0.0195  0.4031 -0.2784
 5867SOL    HW129237   0.594   4.677  11.643 -0.3708  0.8325  0.1859
 5867SOL    HW229238   0.474   4.591  11.681 -1.5448  2.0148  0.0186
 5868SOL     OW29239   2.962   2.154   3.951  0.3606  0.1168  0.8935
 5868SOL    HW129240   2.962   2.106   4.033  1.1829 -0.4555  0.5595
 5868SOL    HW229241   2.869   2.159   3.931 -0.0035 -0.4931  2.5097
 5869SOL     OW29242   0.036   3.631   6.078 -0.3613 -0.1166  0.5151
 5869SOL    HW129243   0.069   3.701   6.022 -1.0278 -0.2201 -0.0122
 5869SOL    HW229244   4.684   3.613   6.047 -0.2921  0.8468 -0.2435
 5870SOL     OW29245   1.148   0.759  14.594  0.0033 -0.4139 -0.1514
 5870SOL    HW129246   1.149   0.855  14.586 -1.1601 -0.1884  2.4761
 5870SOL    HW229247   1.213   0.757  14.664 -1.5823  0.7445  1.3652
 5871SOL     OW29248   0.155   3.152  11.730  0.0220  0.1881 -0.3847
 5871SOL    HW129249   0.141   3.074  11.676  0.4846  0.1977 -0.5235
 5871SOL    HW229250   0.223   3.135  11.796  0.5497 -2.1341 -1.5575
 5872SOL     OW29251   0.068   1.799  16.974  1.1774  0.1876 -0.3459
 5872SOL    HW129252   0.149   1.776  16.928  0.8942  2.8662 -2.1409
 5872SOL    HW229253   0.056   1.884  16.933 -2.6351  0.8214  2.0888
 5873SOL     OW29254   2.870   2.388   1.972  0.2633  0.8867  0.3535
 5873SOL    HW129255   2.803   2.433   1.921 -0.7580 -0.5647  0.3962
 5873SOL    HW229256   2.896   2.458   2.032  1.4073  0.3213  0.5279
 5874SOL     OW29257   0.518   0.812   5.396 -0.3149 -0.4542  0.5531
 5874SOL    HW129258   0.606   0.779   5.414  0.5065  1.0983 -0.5252
 5874SOL    HW229259   0.474   0.788   5.477 -2.5283 -3.0946 -1.4439
 5875SOL     OW29260   0.815   4.483   7.135  0.4408 -0.1800  0.4709
 5875SOL    HW129261   0.745   4.540   7.167  0.9409 -0.8659  2.7844
 5875SOL    HW229262   0.883   4.490   7.202  0.3107  0.1748  0.5642
 5876SOL     OW29263   3.768   3.705   4.213  0.1327 -0.4986  0.2104
 5876SOL    HW129264   3.678   3.672   4.206 -0.2541  0.4763  0.5855
 5876SOL    HW229265   3.819   3.660   4.146  0.7350 -0.4902  0.6760
 5877SOL     OW29266   1.457   2.927   2.501  0.3349  0.0061 -0.2210
 5877SOL    HW129267   1.502   2.845   2.477  1.0575  0.2316  0.3668
 5877SOL    HW229268   1.430   2.975   2.423 -2.9449 -1.2384  0.1895
 5878SOL     OW29269   3.292   3.843  16.196 -0.2444 -0.4006  0.4516
 5878SOL    HW129270   3.326   3.834  16.285  0.8699  0.3275  0.1070
 5878SOL    HW229271   3.226   3.911  16.207  1.8695  1.4845  1.6528
 5879SOL     OW29272   4.105   0.472  12.765  0.0469  0.5375 -0.2362
 5879SOL    HW129273   4.035   0.529  12.733 -0.3866 -0.6738 -1.4572
 5879SOL    HW229274   4.106   0.400  12.701  0.6833 -0.7486  1.2189
 5880SOL     OW29275   2.978   2.048  12.517 -0.2109 -0.1391 -0.3288
 5880SOL    HW129276   3.061   2.013  12.484  0.8666  1.1299  1.0772
 5880SOL    HW229277   3.004   2.133  12.554 -1.5153  0.3436 -0.5294
 5881SOL     OW29278   1.052   2.034  17.383  0.2516  0.1498 -0.3877
 5881SOL    HW129279   1.045   2.096  17.311 -1.0725 -0.4168 -0.7487
 5881SOL    HW229280   1.075   2.084  17.461 -2.6648  0.6659  0.1406
 5882SOL     OW29281   4.686   0.728   1.859 -0.2030  0.3428  0.0700
 5882SOL    HW129282   0.022   0.696   1.911 -0.4009 -4.6171 -2.7069
 5882SOL    HW229283   4.715   0.817   1.841  0.1743  0.0427 -0.7882
 5883SOL     OW29284   1.569   3.204   3.337 -0.3082  0.1163 -0.0119
 5883SOL    HW129285   1.564   3.227   3.429  1.4454 -0.6124  0.2596
 5883SOL    HW229286   1.487   3.228   3.294 -0.7680 -0.5404  0.5056
 5884SOL     OW29287   3.280   1.871   8.063 -1.0774  0.4801 -0.1007
 5884SOL    HW129288   3.198   1.897   8.105 -0.2679 -0.3789  2.0551
 5884SOL    HW229289   3.326   1.829   8.136 -0.7704  0.9608 -0.0163
 5885SOL     OW29290   0.312   3.809  10.028 -0.0724  0.3171  0.2344
 5885SOL    HW129291   0.400   3.772  10.029  0.1731  0.9600  2.0947
 5885SOL    HW229292   0.306   3.855  10.112  0.9050  3.2779 -1.2855
 5886SOL     OW29293   0.309   0.653  17.158  0.2326  0.3676  0.0920
 5886SOL    HW129294   0.397   0.647  17.122 -1.0324  1.1372 -3.1088
 5886SOL    HW229295   0.288   0.559  17.155 -2.2576  0.7756  3.7845
 5887SOL     OW29296   4.121   1.708   6.371  0.6390  0.1482  0.1806
 5887SOL    HW129297   4.142   1.619   6.398 -0.6244 -0.3062 -0.3362
 5887SOL    HW229298   4.200   1.750   6.404  0.0003  1.1730  0.4247
 5888SOL     OW29299   3.188   2.352   3.825 -0.1610  0.2619  0.3716
 5888SOL    HW129300   3.179   2.276   3.882  1.0509 -0.5400 -0.5018
 5888SOL    HW229301   3.162   2.313   3.742 -2.9338 -1.9404  2.2654
 5889SOL     OW29302   1.878   2.000   1.291  0.9637  0.0110  0.1671
 5889SOL    HW129303   1.836   2.005   1.377 -0.1421 -0.2894 -0.3540
 5889SOL    HW229304   1.809   1.944   1.257  0.8183  0.6198 -0.5285
 5890SOL     OW29305   1.258   1.153   5.796  0.7583  0.6769  0.0040
 5890SOL    HW129306   1.301   1.080   5.842 -0.6836 -0.2184 -0.0639
 5890SOL    HW229307   1.296   1.221   5.852 -1.5673  0.2540  2.1062
 5891SOL     OW29308   4.705   3.285   7.099  0.1683  0.1207 -0.3304
 5891SOL    HW129309   4.701   3.218   7.167 -1.0462  0.4159 -0.1044
 5891SOL    HW229310   0.057   3.268   7.067  0.4325 -0.3506  0.6610
 5892SOL     OW29311   3.462   4.527  13.166  0.4484  0.2577  0.1965
 5892SOL    HW129312   3.383   4.538  13.113  0.4222 -1.0207 -0.0300
 5892SOL    HW229313   3.521   4.500  13.095  0.1267 -2.4323  0.9571
 5893SOL     OW29314   0.927   4.390   5.851 -0.2164  0.2072 -0.4223
 5893SOL    HW129315   0.853   4.377   5.790 -1.6136  1.5814  0.9822
 5893SOL    HW229316   0.888   4.398   5.938 -2.0343  0.5526 -1.2502
 5894SOL     OW29317   3.298   0.941  12.463  0.3302  0.3997  0.6799
 5894SOL    HW129318   3.253   0.933  12.379 -0.0320 -0.1046  0.9199
 5894SOL    HW229319   3.252   0.876  12.516 -1.4712  1.9590  0.9903
 5895SOL     OW29320   1.057   0.771  14.998 -0.1817  0.4807  0.1179
 5895SOL    HW129321   1.013   0.739  15.076 -0.3042  1.4729  0.4533
 5895SOL    HW229322   1.146   0.736  15.011  0.1656  1.6979  0.9479
 5896SOL     OW29323   3.822   2.156  16.066 -0.5211  0.5405 -0.6964
 5896SOL    HW129324   3.795   2.243  16.097  0.4010  0.6736 -0.2929
 5896SOL    HW229325   3.736   2.126  16.034 -1.0303 -2.4571  3.5715
 5897SOL     OW29326   2.021   2.675  17.691 -0.8028 -0.7896  0.4884
 5897SOL    HW129327   2.098   2.713  17.732 -1.3839  0.1013  0.7605
 5897SOL    HW229328   2.007   2.604   0.009 -0.3314 -0.2442  1.1933
 5898SOL     OW29329   2.448   2.281   6.732  0.5530 -0.0861 -0.2101
 5898SOL    HW129330   2.496   2.262   6.813  1.3365 -1.3813 -0.9860
 5898SOL    HW229331   2.417   2.192   6.717  1.5627  0.2534 -4.1415
 5899SOL     OW29332   2.781   1.880  12.435 -0.3410 -0.1577 -0.3066
 5899SOL    HW129333   2.806   1.830  12.513  2.1409  1.7555  0.0962
 5899SOL    HW229334   2.850   1.945  12.437 -2.1678  1.7966 -0.7718
 5900SOL     OW29335   2.500   0.129   7.367  0.1039  0.1334 -0.1024
 5900SOL    HW129336   2.550   0.097   7.292  2.0010 -0.9282  1.6360
 5900SOL    HW229337   2.564   0.188   7.405  0.4971 -0.5064  0.2250
 5901SOL     OW29338   3.090   1.312   2.265 -0.1113 -0.0814  0.3452
 5901SOL    HW129339   3.031   1.301   2.340  0.4976  0.5365  0.9059
 5901SOL    HW229340   3.030   1.341   2.196 -0.6882 -0.1693  0.8072
 5902SOL     OW29341   0.253   0.166  15.229  0.5130 -0.0074  0.3358
 5902SOL    HW129342   0.199   0.091  15.250 -1.1428  1.4110  1.0898
 5902SOL    HW229343   0.205   0.225  15.287  1.6789  1.3808 -0.0992
 5903SOL     OW29344   2.104   4.270  17.590  0.1205 -0.5548  0.3855
 5903SOL    HW129345   2.043   4.199  17.613  0.6117 -1.2972 -0.6016
 5903SOL    HW229346   2.164   4.277  17.663  1.5108  0.1108 -0.8216
 5904SOL     OW29347   1.782   0.991   5.268  0.3843  0.4665  0.3726
 5904SOL    HW129348   1.812   0.900   5.273 -2.6076 -0.4937  0.5890
 5904SOL    HW229349   1.775   1.009   5.175 -1.1210  0.9622  0.5786
 5905SOL     OW29350   2.730   0.614  11.893  0.3239  0.1980  0.7622
 5905SOL    HW129351   2.753   0.643  11.805  1.2463  2.0816  1.6329
 5905SOL    HW229352   2.668   0.684  11.912 -0.2796  0.3201 -1.5694
 5906SOL     OW29353   3.398   0.576  16.138  0.2555 -0.2357 -0.4906
 5906SOL    HW129354   3.438   0.544  16.057 -0.7290 -1.1858 -0.5969
 5906SOL    HW229355   3.311   0.538  16.131 -0.2199  1.0399 -1.5508
 5907SOL     OW29356   4.222   0.310  12.347 -0.0999  0.2625 -0.6225
 5907SOL    HW129357   4.238   0.241  12.283 -0.4793  0.2584 -0.7159
 5907SOL    HW229358   4.306   0.356  12.351 -0.5714  1.0143  0.7937
 5908SOL     OW29359   3.868   2.883   7.487  0.5637 -0.1210  0.2352
 5908SOL    HW129360   3.932   2.918   7.425 -1.2112  0.7105 -1.1206
 5908SOL    HW229361   3.838   2.968   7.520  0.9758 -0.0188  0.3422
 5909SOL     OW29362   0.248   2.409   9.117 -0.2350  0.4470  0.1704
 5909SOL    HW129363   0.203   2.366   9.045  0.0665  0.2963  0.0718
 5909SOL    HW229364   0.318   2.351   9.146  0.2118  0.1487 -1.5338
 5910SOL     OW29365   4.091   0.715   5.937  0.2024  0.3652  0.6939
 5910SOL    HW129366   4.164   0.656   5.919  2.0381  3.4052 -1.9817
 5910SOL    HW229367   4.015   0.670   5.900  1.0237 -0.2472 -0.2463
 5911SOL     OW29368   0.779   2.964  14.076  0.1388 -0.0243 -0.7410
 5911SOL    HW129369   0.813   2.933  14.160  1.0883 -0.8732 -1.4343
 5911SOL    HW229370   0.685   2.948  14.077  0.0053  1.0351  2.7275
 5912SOL     OW29371   3.055   1.506  13.843 -0.2075 -0.2366 -0.2115
 5912SOL    HW129372   3.070   1.444  13.772 -1.2804 -0.8672  0.1068
 5912SOL    HW229373   2.973   1.541  13.807  0.7964  2.2639 -0.0078
 5913SOL     OW29374   0.830   2.758  16.060 -0.0172  0.3610 -0.3273
 5913SOL    HW129375   0.798   2.834  16.011 -3.7149  1.0464  3.2069
 5913SOL    HW229376   0.897   2.793  16.119 -0.5027  0.0235  0.4149
 5914SOL     OW29377   4.360   1.711   8.555  0.0847 -0.2570 -0.2403
 5914SOL    HW129378   4.355   1.806   8.556  4.1780  0.0013 -0.7857
 5914SOL    HW229379   4.334   1.684   8.643 -1.9562  0.2176 -0.6978
 5915SOL     OW29380   3.936   0.007   9.297 -0.2027 -0.0859 -0.4494
 5915SOL    HW129381   3.929   0.101   9.277  0.8692  0.1669  0.3707
 5915SOL    HW229382   4.000   0.003   9.368 -1.7582  0.0701  0.9388
 5916SOL     OW29383   1.923   2.831   4.609  0.0607  0.6639 -0.4236
 5916SOL    HW129384   1.952   2.750   4.567 -2.8050 -1.2311  1.3298
 5916SOL    HW229385   1.908   2.888   4.534  2.5302  0.0269 -1.3915
 5917SOL     OW29386   4.258   0.224  17.280  0.9270  0.2562  0.0266
 5917SOL    HW129387   4.225   0.164  17.346 -2.0925  1.5581 -0.3134
 5917SOL    HW229388   4.182   0.248  17.228  0.9940  0.6631  0.1133
 5918SOL     OW29389   3.257   4.698   3.679  0.1510  0.2721  0.3792
 5918SOL    HW129390   3.285   4.627   3.736 -0.2437 -0.2853 -0.1268
 5918SOL    HW229391   3.339   0.009   3.667 -0.7496  0.9945 -2.9991
 5919SOL     OW29392   3.290   3.688   2.175  0.1072  0.3832  0.5881
 5919SOL    HW129393   3.303   3.655   2.086 -1.8214  2.0273 -0.2996
 5919SOL    HW229394   3.369   3.741   2.176  0.1224  0.3871 -0.9053
 5920SOL     OW29395   4.114   3.696   2.636  0.1736 -0.3315 -0.0692
 5920SOL    HW129396   4.066   3.650   2.705  0.6981 -0.3132  0.3054
 5920SOL    HW229397   4.180   3.746   2.684  0.5839  0.7013 -1.7394
 5921SOL     OW29398   4.736   0.481   2.436  0.5793  0.1520  0.3735
 5921SOL    HW129399   4.672   0.482   2.507 -2.2284 -0.5112 -2.1698
 5921SOL    HW229400   4.690   0.526   2.365 -0.3756 -1.5835 -0.1242
 5922SOL     OW29401   4.635   4.505   4.055  0.2698 -0.0407  0.0740
 5922SOL    HW129402   4.628   4.409   4.054  1.4505 -0.1357  0.7825
 5922SOL    HW229403   4.608   4.530   3.967  2.6406 -1.4671 -1.0690
 5923SOL     OW29404   3.962   0.744   5.084  0.5694  0.2738  0.2347
 5923SOL    HW129405   3.871   0.714   5.082  0.4157  0.7608 -0.1208
 5923SOL    HW229406   3.978   0.745   5.178 -1.6218 -0.5088  0.6117
 5924SOL     OW29407   0.542   2.189   2.719  0.3932 -0.4003  0.1575
 5924SOL    HW129408   0.597   2.167   2.643  1.3108  0.4648  0.5715
 5924SOL    HW229409   0.489   2.109   2.726 -0.7833  0.4522  0.8037
 5925SOL     OW29410   0.816   4.220  13.067 -0.7065 -0.1294  0.3708
 5925SOL    HW129411   0.907   4.243  13.084 -0.8144  1.5796 -1.4404
 5925SOL    HW229412   0.783   4.307  13.043  2.2656  0.7637 -0.3844
 5926SOL     OW29413   3.212   1.341   7.855 -0.1226  0.0904 -0.2221
 5926SOL    HW129414   3.127   1.298   7.849 -0.9125  1.1680  3.1045
 5926SOL    HW229415   3.211   1.378   7.944  0.5977  0.4585 -0.3646
 5927SOL     OW29416   0.378   1.944   5.733  0.1470 -0.3980  0.1638
 5927SOL    HW129417   0.470   1.937   5.704 -0.4864 -0.3389 -1.8894
 5927SOL    HW229418   0.381   1.945   5.828  1.0805 -0.8797  0.1468
 5928SOL     OW29419   1.420   2.785   3.977 -0.4792  0.1785  0.5898
 5928SOL    HW129420   1.465   2.805   4.059  0.2502 -0.2743  0.2993
 5928SOL    HW229421   1.328   2.798   4.000 -0.9249 -2.4049  0.2200
 5929SOL     OW29422   1.561   3.048   1.250 -0.0971  0.0827 -0.3183
 5929SOL    HW129423   1.627   3.009   1.191  0.2800  1.9171 -1.0955
 5929SOL    HW229424   1.578   3.140   1.233  0.4366  0.2673  1.2104
 5930SOL     OW29425   1.571   4.153   2.653 -0.6453 -0.6922  0.4591
 5930SOL    HW129426   1.507   4.095   2.694 -1.3805  1.0091  1.7015
 5930SOL    HW229427   1.623   4.101   2.592  0.0973 -0.1277  0.6070
 5931SOL     OW29428   3.384   0.629  12.488  0.0378 -0.1198 -0.8505
 5931SOL    HW129429   3.326   0.653  12.416 -2.1013 -2.3556  0.1586
 5931SOL    HW229430   3.332   0.650  12.565  0.8380  0.2726 -0.4172
 5932SOL     OW29431   4.594   0.399   7.818  0.5316 -0.3250  0.3944
 5932SOL    HW129432   4.594   0.493   7.800  1.5487 -0.1208  1.4432
 5932SOL    HW229433   4.535   0.362   7.752 -1.2412  1.6893  0.8443
 5933SOL     OW29434   1.346   2.411   1.736 -0.1040  0.1310  0.8148
 5933SOL    HW129435   1.418   2.442   1.792 -0.9286  0.8867  1.4474
 5933SOL    HW229436   1.369   2.434   1.646  0.4120 -1.2259  0.5989
 5934SOL     OW29437   1.484   4.102  16.648  0.5613  0.3484  0.1581
 5934SOL    HW129438   1.567   4.094  16.602  0.6303 -0.0782  0.3591
 5934SOL    HW229439   1.486   4.030  16.711 -0.6573  0.0688 -0.1092
 5935SOL     OW29440   3.953   2.848   4.954 -0.3712 -0.4570 -0.3605
 5935SOL    HW129441   3.894   2.864   4.880 -1.6127 -0.3135  0.6550
 5935SOL    HW229442   4.020   2.802   4.903  0.1671 -0.7451  0.6104
 5936SOL     OW29443   1.616   1.085   1.683  0.0388  0.0828  0.7019
 5936SOL    HW129444   1.550   1.036   1.635 -1.2804 -0.0602  2.6842
 5936SOL    HW229445   1.671   1.113   1.610  0.0936 -1.1410  0.2836
 5937SOL     OW29446   2.438   3.764   8.946 -0.2250  0.3251  0.3369
 5937SOL    HW129447   2.343   3.752   8.943 -0.0301 -1.3067  0.6486
 5937SOL    HW229448   2.453   3.770   8.852  3.0706 -0.4709  0.8074
 5938SOL     OW29449   3.420   1.030   7.027  0.4316 -0.3215 -0.0003
 5938SOL    HW129450   3.470   1.109   7.046 -1.4462  0.4024  2.0722
 5938SOL    HW229451   3.335   1.057   7.062  0.5495  1.0423 -0.8063
 5939SOL     OW29452   0.741   2.963   1.646 -0.2622 -0.4294 -0.0615
 5939SOL    HW129453   0.687   2.942   1.723 -1.1121 -0.1870 -0.5851
 5939SOL    HW229454   0.689   3.029   1.601  1.0311  0.3086 -0.4686
 5940SOL     OW29455   1.856   1.366  15.454 -0.5891 -0.0011  0.0387
 5940SOL    HW129456   1.814   1.401  15.376  0.4715  2.1639  0.4515
 5940SOL    HW229457   1.794   1.299  15.483 -1.2131  0.7362  0.3934
 5941SOL     OW29458   0.254   1.818   0.401  0.0639  0.2028  0.5644
 5941SOL    HW129459   0.229   1.725   0.393 -0.3449  0.4039 -0.4780
 5941SOL    HW229460   0.347   1.833   0.384 -0.1191  0.5062 -0.1587
 5942SOL     OW29461   2.399   4.534   6.576 -0.3077 -0.0141  0.0039
 5942SOL    HW129462   2.417   4.467   6.642 -0.0959 -1.1350 -1.2009
 5942SOL    HW229463   2.483   4.580   6.574 -1.4741  2.1773  1.0777
 5943SOL     OW29464   3.171   1.230  10.823  0.1301  0.0246  0.0240
 5943SOL    HW129465   3.129   1.297  10.877 -1.3399 -1.6705  0.9795
 5943SOL    HW229466   3.259   1.220  10.857  0.6577 -0.8484 -1.6208
 5944SOL     OW29467   3.381   1.586   2.734 -0.2471  0.0745  0.5917
 5944SOL    HW129468   3.298   1.631   2.750 -1.5115 -1.9418 -0.3207
 5944SOL    HW229469   3.393   1.553   2.823  4.9839  1.2729  0.3329
 5945SOL     OW29470   2.989   3.859   6.251 -0.1153 -0.5161  0.2358
 5945SOL    HW129471   3.004   3.767   6.231  2.0705  0.2640 -1.7562
 5945SOL    HW229472   2.958   3.852   6.341 -0.8877  0.3810  0.0336
 5946SOL     OW29473   1.840   4.054   5.024 -0.8647  0.3703  0.2629
 5946SOL    HW129474   1.894   4.028   5.100  0.3518 -0.9607 -1.0432
 5946SOL    HW229475   1.798   4.134   5.054 -0.5606  0.1031  1.3998
 5947SOL     OW29476   3.280   1.552   4.038 -0.0224  0.7035  1.0138
 5947SOL    HW129477   3.228   1.625   4.005  0.4501 -0.3876 -2.1562
 5947SOL    HW229478   3.248   1.538   4.127  1.8165  0.4326  1.6233
 5948SOL     OW29479   2.153   4.000   1.433 -0.0328 -0.2234  0.7085
 5948SOL    HW129480   2.066   4.022   1.468 -1.4877 -0.0830 -3.0603
 5948SOL    HW229481   2.217   4.055   1.479 -0.4354  0.1022  0.8863
 5949SOL     OW29482   2.796   2.463   8.377 -0.2755  0.1919 -0.0458
 5949SOL    HW129483   2.730   2.437   8.443  1.5509 -0.6580  1.4620
 5949SOL    HW229484   2.846   2.530   8.424 -0.6869  1.2701 -1.1772
 5950SOL     OW29485   2.468   3.500  10.485  0.0449 -0.1731 -0.8388
 5950SOL    HW129486   2.521   3.442  10.540 -0.2180 -0.0744 -0.4851
 5950SOL    HW229487   2.541   3.546  10.442  0.1102 -0.9972 -1.6172
 5951SOL     OW29488   3.154   1.535   4.267 -0.1985 -0.1871 -0.3498
 5951SOL    HW129489   3.131   1.547   4.359 -1.6776 -0.3996 -0.6851
 5951SOL    HW229490   3.089   1.468   4.245  1.3700 -1.6373 -0.5411
 5952SOL     OW29491   1.038   3.440   3.728  0.2965  0.4441 -0.4755
 5952SOL    HW129492   1.038   3.449   3.824  2.0286 -0.4213 -0.3899
 5952SOL    HW229493   1.091   3.515   3.703 -0.2586  1.8266  2.5053
 5953SOL     OW29494   2.593   2.872  13.562 -0.6036  0.3710 -0.3318
 5953SOL    HW129495   2.499   2.861  13.575 -0.5683 -0.1437 -0.4922
 5953SOL    HW229496   2.632   2.798  13.609  0.6215 -0.0558 -2.0069
 5954SOL     OW29497   0.828   2.136   8.135 -0.3848 -0.0007 -0.8106
 5954SOL    HW129498   0.857   2.226   8.126 -1.7952  0.6150  0.7240
 5954SOL    HW229499   0.737   2.143   8.107  0.0558  2.2336 -1.6486
 5955SOL     OW29500   3.049   3.347   6.320 -0.3262  0.0984  0.0617
 5955SOL    HW129501   2.965   3.303   6.305  0.3342 -0.7212 -1.1953
 5955SOL    HW229502   3.117   3.283   6.300 -0.3445  0.4672 -1.1840
 5956SOL     OW29503   4.185   3.211   8.514 -0.5751  0.2438 -0.2984
 5956SOL    HW129504   4.112   3.274   8.507 -0.2201  0.8879  1.9125
 5956SOL    HW229505   4.141   3.127   8.498 -0.7012  0.2203  0.1859
 5957SOL     OW29506   1.830   1.524  15.996 -0.0268 -0.5970  0.0781
 5957SOL    HW129507   1.902   1.550  15.939  0.4611 -0.9519  0.5427
 5957SOL    HW229508   1.837   1.564  16.083  0.8649 -0.1639 -0.1952
 5958SOL     OW29509   0.203   3.302  13.324  0.1066  0.1540  0.0398
 5958SOL    HW129510   0.178   3.224  13.274 -0.2617  0.8976 -0.9474
 5958SOL    HW229511   0.297   3.297  13.338  0.5589  0.2899 -2.8589
 5959SOL     OW29512   3.461   3.810   1.562  0.2874 -0.3806  0.3541
 5959SOL    HW129513   3.372   3.844   1.552  0.0605 -0.7571  1.0899
 5959SOL    HW229514   3.502   3.880   1.613  2.0102 -1.6475  0.7061
 5960SOL     OW29515   1.021   3.186  17.729 -0.1317 -0.6886  0.1480
 5960SOL    HW129516   1.078   3.259   0.007  0.2199 -0.3699 -1.7339
 5960SOL    HW229517   1.066   3.115   0.028 -0.6485 -1.8558 -1.1804
 5961SOL     OW29518   0.829   2.698   1.957  0.0701  0.0817 -0.0424
 5961SOL    HW129519   0.843   2.620   1.904 -0.0930  0.1590 -0.1975
 5961SOL    HW229520   0.877   2.666   2.034  0.6419 -3.9607 -2.0716
 5962SOL     OW29521   4.131   3.541   4.690 -0.0155 -0.4387 -0.3681
 5962SOL    HW129522   4.172   3.536   4.777  1.7125  1.3684 -1.0631
 5962SOL    HW229523   4.192   3.493   4.635 -0.0564  2.1718 -2.7205
 5963SOL     OW29524   1.173   3.299   5.287  0.0668  0.1220 -0.3746
 5963SOL    HW129525   1.248   3.254   5.326  1.2120  1.0021 -1.5494
 5963SOL    HW229526   1.179   3.386   5.327 -0.9029 -1.3738  3.0848
 5964SOL     OW29527   2.662   1.204  12.665  0.1888 -0.2224 -0.4733
 5964SOL    HW129528   2.670   1.108  12.668 -1.8065 -0.3829 -0.5824
 5964SOL    HW229529   2.701   1.230  12.748 -0.4209  0.8436 -0.5313
 5965SOL     OW29530   1.187   1.785  11.889 -0.2953 -1.4758  0.6500
 5965SOL    HW129531   1.121   1.771  11.958  0.3600 -0.9124  1.3922
 5965SOL    HW229532   1.150   1.722  11.827 -1.7949  0.5437 -0.5363
 5966SOL     OW29533   0.715   4.502  10.725 -0.3964  0.1840 -0.1325
 5966SOL    HW129534   0.804   4.539  10.726  0.1094 -1.0330 -0.0928
 5966SOL    HW229535   0.668   4.578  10.760 -0.9383  0.0852 -0.6607
 5967SOL     OW29536   3.005   4.461   7.936  0.1112  0.1299  0.1647
 5967SOL    HW129537   3.060   4.399   7.983  2.3797  1.1230 -1.1385
 5967SOL    HW229538   3.055   4.537   7.966  0.2665 -0.1101  0.5082
 5968SOL     OW29539   0.422   3.394   6.469  0.2565  0.2041 -0.2591
 5968SOL    HW129540   0.495   3.390   6.408 -1.1831  1.3763 -2.0775
 5968SOL    HW229541   0.373   3.467   6.429 -0.3726 -0.2382 -0.2999
 5969SOL     OW29542   0.589   3.687   7.396  0.2279  0.4011 -0.2610
 5969SOL    HW129543   0.649   3.760   7.382  2.0994 -0.8106  1.4443
 5969SOL    HW229544   0.572   3.693   7.490  0.1928  1.6228 -0.3476
 5970SOL     OW29545   1.020   0.366  14.133 -0.3562 -0.2013  0.6373
 5970SOL    HW129546   0.997   0.305  14.204  0.9242 -0.4267  0.8525
 5970SOL    HW229547   1.110   0.346  14.108  0.0207 -1.6200  3.0944
 5971SOL     OW29548   1.629   1.811  16.938  0.4852 -0.7403 -0.6014
 5971SOL    HW129549   1.542   1.839  16.908  0.9702  1.1435 -0.2253
 5971SOL    HW229550   1.627   1.846  17.027 -0.0713 -0.4216 -0.7386
 5972SOL     OW29551   4.008   4.604   2.529 -0.6765 -0.0377  1.0246
 5972SOL    HW129552   4.017   4.532   2.591  0.2323  0.3638  1.3626
 5972SOL    HW229553   4.068   4.667   2.569 -1.5639  1.2193  0.3772
 5973SOL     OW29554   3.774   1.082  14.987  0.5142 -0.1432 -0.6792
 5973SOL    HW129555   3.692   1.106  15.029  1.5791  0.3554  1.1465
 5973SOL    HW229556   3.815   1.167  14.975  0.4949 -0.3623 -2.2705
 5974SOL     OW29557   0.896   3.254   1.868 -0.3417 -0.2380 -0.4427
 5974SOL    HW129558   0.906   3.340   1.827 -0.1747 -1.0100 -2.0385
 5974SOL    HW229559   0.805   3.228   1.852 -0.4095  0.4415 -1.1267
 5975SOL     OW29560   3.105   0.066   5.365  0.1590  0.0484  0.8821
 5975SOL    HW129561   3.191   0.078   5.405 -0.2226  0.6583  1.5073
 5975SOL    HW229562   3.057   0.045   5.444  0.2682 -1.9352  0.4166
 5976SOL     OW29563   2.449   3.931   4.350  0.1814 -0.2640  0.0176
 5976SOL    HW129564   2.482   4.020   4.342  0.5203 -0.3556  0.4188
 5976SOL    HW229565   2.518   3.894   4.404  0.0322  1.3586  1.2771
 5977SOL     OW29566   3.721   2.607   6.839 -0.3900  0.3065 -0.7732
 5977SOL    HW129567   3.745   2.608   6.746  0.5205  1.3156 -0.5224
 5977SOL    HW229568   3.638   2.655   6.847 -0.9601 -0.6706 -0.8209
 5978SOL     OW29569   1.979   2.227   8.008  0.4646  0.0717  0.0982
 5978SOL    HW129570   1.899   2.220   8.061  1.5154 -0.5820  1.6236
 5978SOL    HW229571   2.046   2.229   8.077 -0.9334 -2.1267  1.5283
 5979SOL     OW29572   4.458   1.579   6.253  0.2412 -0.2362  0.4999
 5979SOL    HW129573   4.382   1.574   6.311  1.1324  0.8078  1.7667
 5979SOL    HW229574   4.525   1.548   6.315  1.8929  2.2694 -0.0683
 5980SOL     OW29575   2.252   3.090   5.428  1.0014 -0.6572  0.2570
 5980SOL    HW129576   2.166   3.128   5.412  1.1772  0.2489  1.4266
 5980SOL    HW229577   2.281   3.096   5.337 -0.7407  4.8762  0.0743
 5981SOL     OW29578   1.024   4.133   4.141  0.1996  0.3599 -0.3695
 5981SOL    HW129579   1.019   4.189   4.218 -0.2996 -0.0677 -0.0851
 5981SOL    HW229580   1.102   4.079   4.155 -0.8140 -0.4818  2.0032
 5982SOL     OW29581   1.508   0.709   7.528 -0.4834 -0.2174  0.4993
 5982SOL    HW129582   1.584   0.677   7.577 -0.2357  0.6348  0.6759
 5982SOL    HW229583   1.555   0.722   7.445  0.5597  0.9154  1.2838
 5983SOL     OW29584   1.278   0.941   3.765  0.2965  0.3305  0.3057
 5983SOL    HW129585   1.219   1.008   3.729  1.4567  0.9496 -0.4695
 5983SOL    HW229586   1.252   0.869   3.708  0.3901  0.4041  0.1695
 5984SOL     OW29587   3.150   0.825   1.081 -0.1602 -0.5937  0.1304
 5984SOL    HW129588   3.083   0.766   1.115 -0.6383  0.5906  1.2438
 5984SOL    HW229589   3.213   0.760   1.052  1.1048  0.3069  0.8452
 5985SOL     OW29590   1.821   0.852  10.026 -0.5134  0.4500 -0.4635
 5985SOL    HW129591   1.891   0.813  10.078 -2.1820  0.4982  1.8331
 5985SOL    HW229592   1.769   0.911  10.080  0.3700  2.5114 -1.8618
 5986SOL     OW29593   4.060   4.016   4.471 -0.0837 -0.4157 -0.6516
 5986SOL    HW129594   4.138   4.003   4.418  1.0444  4.4784 -0.2055
 5986SOL    HW229595   4.007   3.944   4.436  1.0608 -1.7732  0.4054
 5987SOL     OW29596   0.089   1.833   2.563  0.2427  0.0059  0.2754
 5987SOL    HW129597   0.110   1.926   2.564 -0.4188  0.1582  0.3279
 5987SOL    HW229598   0.140   1.800   2.489 -3.1322  0.7765 -2.4467
 5988SOL     OW29599   1.551   4.347   5.764 -0.6744 -0.4228 -0.3200
 5988SOL    HW129600   1.622   4.285   5.780 -0.4655  0.1077  0.8714
 5988SOL    HW229601   1.504   4.356   5.847 -0.4821  1.7133 -0.4406
 5989SOL     OW29602   3.937   0.025   6.490 -0.3886 -0.4992 -0.3498
 5989SOL    HW129603   3.987   4.684   6.517  2.0128  1.0846 -0.2153
 5989SOL    HW229604   3.971   0.085   6.557  1.4822 -0.7856 -1.0471
 5990SOL     OW29605   2.435   2.559   8.256 -0.3179 -0.0935  0.3307
 5990SOL    HW129606   2.357   2.604   8.224  0.3084  0.7335 -0.0308
 5990SOL    HW229607   2.413   2.545   8.348 -5.0953  0.5796 -0.7413
 5991SOL     OW29608   0.764   1.528   7.548 -0.1696  0.9718  0.3032
 5991SOL    HW129609   0.855   1.500   7.557 -0.9718 -1.9144 -0.3294
 5991SOL    HW229610   0.731   1.482   7.625  1.8205 -1.5077 -0.3056
 5992SOL     OW29611   1.364   1.269   3.122  0.5505 -0.0960  0.7397
 5992SOL    HW129612   1.444   1.217   3.134  1.4483  1.2378  0.5904
 5992SOL    HW229613   1.357   1.261   3.027 -3.0485  2.2562  0.8087
 5993SOL     OW29614   2.123   1.890  10.634  0.3754  0.1619 -0.1630
 5993SOL    HW129615   2.121   1.970  10.582  0.2468 -0.1948 -0.7115
 5993SOL    HW229616   2.029   1.884  10.652  0.4673 -0.3322  0.1589
 5994SOL     OW29617   0.549   2.334   5.250 -0.0356 -0.4707 -0.1400
 5994SOL    HW129618   0.608   2.369   5.183 -0.3009 -0.3224 -0.2948
 5994SOL    HW229619   0.479   2.309   5.191 -1.3331  0.9107  0.7969
 5995SOL     OW29620   1.743   0.845   5.639  0.4132 -0.3503 -0.4924
 5995SOL    HW129621   1.725   0.752   5.647 -0.1955 -0.1526  0.5607
 5995SOL    HW229622   1.711   0.864   5.728  0.7976  0.0544 -0.4389
 5996SOL     OW29623   2.166   1.329   2.667  0.2882  0.1061  0.3852
 5996SOL    HW129624   2.193   1.419   2.651 -2.0794  1.2744  3.0126
 5996SOL    HW229625   2.119   1.340   2.750  0.5941 -1.0356  0.7225
 5997SOL     OW29626   2.642   3.344   9.147 -0.1950 -0.4200 -0.0262
 5997SOL    HW129627   2.677   3.280   9.209  1.4530 -1.1756 -1.7507
 5997SOL    HW229628   2.555   3.306   9.136  0.5718 -1.5671 -2.0751
 5998SOL     OW29629   0.171   3.686   2.154 -0.2129  0.1615  0.5187
 5998SOL    HW129630   0.159   3.592   2.166 -1.0099  0.7372  4.0510
 5998SOL    HW229631   0.171   3.718   2.244 -1.9904  1.2875  0.1134
 5999SOL     OW29632   4.432   2.752   6.829  0.8096 -0.0809  0.4306
 5999SOL    HW129633   4.415   2.748   6.923 -0.3534 -3.0214  0.0903
 5999SOL    HW229634   4.415   2.841   6.798 -2.4474 -0.6375  0.6658
 6000SOL     OW29635   3.507   2.167   7.042 -0.4925 -0.0626  0.6622
 6000SOL    HW129636   3.480   2.127   7.124 -0.8380  0.6007  0.8748
 6000SOL    HW229637   3.414   2.164   7.017 -0.0007  0.5887 -1.2600
 6001SOL     OW29638   0.248   2.903   7.447 -0.4289  0.1574 -0.1720
 6001SOL    HW129639   0.217   2.869   7.362 -1.5511  1.7907 -0.4126
 6001SOL    HW229640   0.281   2.824   7.490 -0.9593 -1.8590 -3.4130
 6002SOL     OW29641   1.450   1.035  17.398 -0.3932 -0.3653 -0.0153
 6002SOL    HW129642   1.500   0.977  17.456 -0.0602  2.6332  2.6937
 6002SOL    HW229643   1.399   1.084  17.463  1.3737  1.2968  0.1371
 6003SOL     OW29644   0.338   2.215   5.700 -0.4750  0.0174 -0.1808
 6003SOL    HW129645   0.300   2.129   5.713  1.7489 -1.1131 -1.1164
 6003SOL    HW229646   0.389   2.195   5.621 -1.0817 -0.6007 -0.4142
 6004SOL     OW29647   0.361   0.578   3.154  0.5591 -0.0399  0.1260
 6004SOL    HW129648   0.401   0.493   3.173  0.7203  0.1992  0.8347
 6004SOL    HW229649   0.416   0.602   3.080  0.9037  1.5086  0.8898
 6005SOL     OW29650   0.355   3.654   2.566 -0.1236 -0.0814  0.3116
 6005SOL    HW129651   0.443   3.691   2.557 -0.3189  0.3533  0.1871
 6005SOL    HW229652   0.326   3.702   2.644 -0.7723 -1.0379  0.6485
 6006SOL     OW29653   4.213   4.499   2.343  0.3966  0.3251 -0.5185
 6006SOL    HW129654   4.283   4.497   2.409  1.9432  0.9642 -2.1517
 6006SOL    HW229655   4.140   4.537   2.392  0.9248  0.0986  0.4477
 6007SOL     OW29656   3.361   0.343   2.902 -0.1857  0.3252  0.1239
 6007SOL    HW129657   3.309   0.406   2.852  1.5321  0.3823 -1.5889
 6007SOL    HW229658   3.414   0.327   2.823 -1.7609 -0.1244 -0.8371
 6008SOL     OW29659   4.062   0.520  16.939  0.2564  0.0462 -1.3719
 6008SOL    HW129660   4.070   0.507  16.845  0.9622  1.5342 -1.5247
 6008SOL    HW229661   4.040   0.613  16.933  1.0049  0.2692 -0.7287
 6009SOL     OW29662   3.182   3.737  14.051  0.6566  0.1671 -0.4550
 6009SOL    HW129663   3.163   3.739  13.957 -1.1432  2.0198 -0.0484
 6009SOL    HW229664   3.098   3.763  14.089  0.5967  0.9438 -1.1270
 6010SOL     OW29665   2.060   1.189   2.445 -0.1761  0.4731  0.1711
 6010SOL    HW129666   2.089   1.267   2.397  3.2184  1.0391  3.1856
 6010SOL    HW229667   2.113   1.210   2.522 -1.6736 -0.4076  1.4377
 6011SOL     OW29668   1.862   2.397  14.271  0.4779  0.1239 -0.0212
 6011SOL    HW129669   1.783   2.450  14.281 -0.8170 -1.4759 -1.7360
 6011SOL    HW229670   1.918   2.453  14.218  0.5748  0.6246  0.6059
 6012SOL     OW29671   4.045   4.171   7.333 -0.3242 -0.2440  0.2376
 6012SOL    HW129672   3.974   4.106   7.329 -1.5811  1.1155  0.3539
 6012SOL    HW229673   4.003   4.256   7.344 -2.5838 -1.5912  1.9503
 6013SOL     OW29674   3.622   0.309   5.013  0.6547 -0.1178 -0.0166
 6013SOL    HW129675   3.619   0.297   5.107  0.0589  0.0220 -0.0139
 6013SOL    HW229676   3.714   0.332   5.001 -0.2837  2.3239 -2.9031
 6014SOL     OW29677   3.980   1.973   4.312  0.1675 -0.1907 -0.7560
 6014SOL    HW129678   4.046   2.039   4.330 -1.4276  0.4265  2.8529
 6014SOL    HW229679   3.907   2.025   4.277  0.0870  1.3448  1.6943
 6015SOL     OW29680   0.244   2.839   6.081 -0.4241  0.1523 -0.7794
 6015SOL    HW129681   0.265   2.823   6.173  0.2587  0.8922 -0.8148
 6015SOL    HW229682   0.299   2.775   6.037  0.3914  1.2537 -1.3460
 6016SOL     OW29683   1.430   2.510   3.921 -0.7687  0.2986  0.2453
 6016SOL    HW129684   1.435   2.605   3.923  0.0528  0.2529  0.2383
 6016SOL    HW229685   1.380   2.498   4.002  1.3629  0.8947  1.6644
 6017SOL     OW29686   2.115   3.385   9.915  0.4960 -0.3193  0.0631
 6017SOL    HW129687   2.187   3.427   9.963  0.8072 -0.1999 -0.5174
 6017SOL    HW229688   2.035   3.421   9.952  0.8159  1.2396 -0.7921
 6018SOL     OW29689   3.380   3.095  12.462  0.2483  0.1570  0.1984
 6018SOL    HW129690   3.416   3.179  12.435 -1.9077  0.0665 -2.9069
 6018SOL    HW229691   3.409   3.095  12.554 -0.9081  1.6841  0.5563
 6019SOL     OW29692   0.901   2.175   8.860  0.2838 -0.4002  0.2333
 6019SOL    HW129693   0.827   2.215   8.814 -0.7036 -2.2319  0.2217
 6019SOL    HW229694   0.895   2.091   8.815  0.1244  0.5524 -1.5261
 6020SOL     OW29695   1.335   1.052   5.115 -0.3727  0.0569  0.1423
 6020SOL    HW129696   1.379   1.119   5.063  0.3637  0.8741  1.8058
 6020SOL    HW229697   1.303   1.098   5.192 -0.1160 -0.8560  0.7958
 6021SOL     OW29698   0.884   0.482  16.312 -0.0573 -0.1515 -0.3332
 6021SOL    HW129699   0.846   0.418  16.252  1.9873 -1.5581 -0.1528
 6021SOL    HW229700   0.920   0.424  16.380  0.9047  2.4542  1.3595
 6022SOL     OW29701   3.920   1.385   8.566 -0.3281 -0.2759  0.4333
 6022SOL    HW129702   3.876   1.429   8.493 -0.8246 -1.7615 -0.1645
 6022SOL    HW229703   3.909   1.452   8.633  1.4276  2.9276 -2.4916
 6023SOL     OW29704   0.489   3.761   1.998  0.1047  0.1254 -0.1982
 6023SOL    HW129705   0.540   3.694   1.953  3.7128  1.5040  1.8123
 6023SOL    HW229706   0.432   3.713   2.058  1.5062  0.4198  1.3838
 6024SOL     OW29707   1.144   0.696   7.595 -0.3128  0.1164 -0.0773
 6024SOL    HW129708   1.186   0.675   7.678  0.9482 -0.2339 -0.8002
 6024SOL    HW229709   1.051   0.682   7.614 -0.7388  0.4401 -1.9195
 6025SOL     OW29710   2.906   0.134   3.601 -0.3090  0.2097 -0.2466
 6025SOL    HW129711   2.870   0.180   3.677 -0.9678 -1.4465  0.4368
 6025SOL    HW229712   2.974   0.199   3.582  0.5137 -0.8442 -0.8778
 6026SOL     OW29713   2.734   1.848   7.424  0.3801 -0.2025 -0.2143
 6026SOL    HW129714   2.712   1.934   7.459 -3.0428 -1.0584 -0.3319
 6026SOL    HW229715   2.826   1.865   7.402  0.7071 -1.5963  0.0312
 6027SOL     OW29716   3.461   2.085   4.974  0.2090 -0.1644 -0.5062
 6027SOL    HW129717   3.501   2.171   4.966  0.5000 -0.2840 -0.3542
 6027SOL    HW229718   3.518   2.042   4.910 -1.5032 -2.6477 -0.3848
 6028SOL     OW29719   0.803   1.156   2.394  0.2871  0.0568  0.1046
 6028SOL    HW129720   0.853   1.237   2.404  2.6418 -1.2976 -0.5115
 6028SOL    HW229721   0.738   1.180   2.328  0.8978 -0.7195 -0.7930
 6029SOL     OW29722   2.279   3.102   7.638 -0.1083 -0.0791  0.0875
 6029SOL    HW129723   2.195   3.100   7.685 -0.0440 -1.9319  0.1249
 6029SOL    HW229724   2.261   3.036   7.571 -0.9505 -0.9602  1.1724
 6030SOL     OW29725   0.989   1.516   3.654 -0.4537  0.2833  0.1394
 6030SOL    HW129726   0.900   1.519   3.619  0.4365 -1.4604 -2.2342
 6030SOL    HW229727   0.972   1.535   3.746  2.2085  3.7752 -0.0866
 6031SOL     OW29728   2.617   0.161   0.165 -0.0028 -0.4358 -0.3593
 6031SOL    HW129729   2.710   0.150   0.187 -0.3390 -0.2486  1.1491
 6031SOL    HW229730   2.623   0.178   0.071  0.9350  0.5780 -0.1169
 6032SOL     OW29731   2.121   0.449   5.164  0.1082 -0.3171 -0.4440
 6032SOL    HW129732   2.139   0.476   5.074  2.1110 -0.4568 -0.0666
 6032SOL    HW229733   2.206   0.440   5.206  0.4215 -1.9417 -1.4250
 6033SOL     OW29734   0.122   2.116   5.141  1.3114 -0.1195  0.3478
 6033SOL    HW129735   0.128   2.053   5.069  0.8524 -0.9789  1.0694
 6033SOL    HW229736   0.195   2.089   5.196  0.8620  2.2040  2.0740
 6034SOL     OW29737   0.193   1.527   5.657  0.2654 -0.5352 -0.1551
 6034SOL    HW129738   0.128   1.553   5.591  1.3174  2.1158 -0.1442
 6034SOL    HW229739   0.272   1.555   5.610  0.8603 -0.8485  0.6688
 6035SOL     OW29740   2.858   4.299   1.216  0.0670 -0.0229  0.1130
 6035SOL    HW129741   2.855   4.332   1.306  2.2453  1.3663 -0.3219
 6035SOL    HW229742   2.824   4.377   1.173 -0.3617 -0.7585 -0.8697
 6036SOL     OW29743   1.057   3.587  16.358  0.7323  0.1887  0.0984
 6036SOL    HW129744   1.132   3.553  16.308 -0.9697 -3.1108 -0.2604
 6036SOL    HW229745   1.017   3.500  16.368  0.7009  0.2879  0.8251
 6037SOL     OW29746   0.050   3.478   7.987 -0.2323  0.1685  0.2645
 6037SOL    HW129747   0.004   3.424   8.052 -1.8374  2.8094  1.2914
 6037SOL    HW229748   0.141   3.462   8.014 -0.0836  0.0735 -0.3057
 6038SOL     OW29749   0.826   0.618  14.023  0.4538 -0.7511  0.2323
 6038SOL    HW129750   0.887   0.562  13.976 -1.8038 -2.2442 -0.9608
 6038SOL    HW229751   0.888   0.673  14.070 -0.3310 -1.0568  1.6422
 6039SOL     OW29752   2.883   4.013   1.199 -0.4161  0.2298  0.4854
 6039SOL    HW129753   2.964   4.009   1.250  0.3259  0.1355 -0.6921
 6039SOL    HW229754   2.863   4.106   1.203  0.5185  0.3844  1.4067
 6040SOL     OW29755   0.751   3.263   1.322 -0.2400  0.2993  0.3496
 6040SOL    HW129756   0.722   3.181   1.282  0.2218 -0.2456  1.1348
 6040SOL    HW229757   0.784   3.308   1.244 -1.0939 -3.3017 -2.0649
 6041SOL     OW29758   4.069   1.391   9.653  0.4379 -0.3319  0.2376
 6041SOL    HW129759   4.103   1.308   9.621  0.5628 -0.9273  1.9053
 6041SOL    HW229760   4.127   1.396   9.729 -2.0392 -1.4221  2.2078
 6042SOL     OW29761   2.406   3.324   3.997 -0.2271 -0.1197  0.0612
 6042SOL    HW129762   2.490   3.366   4.017 -0.1927 -1.1528  2.0782
 6042SOL    HW229763   2.348   3.371   4.057  0.5289  0.3840  0.4055
 6043SOL     OW29764   0.908   2.905   4.319  0.1906  0.1792  0.1495
 6043SOL    HW129765   0.952   2.838   4.267  0.2639  0.7669 -0.5503
 6043SOL    HW229766   0.968   2.918   4.393 -1.5759 -0.5272  1.7052
 6044SOL     OW29767   3.294   1.249   1.169 -0.0401 -0.8873 -0.0259
 6044SOL    HW129768   3.286   1.278   1.260 -0.4454 -1.2117  0.0409
 6044SOL    HW229769   3.329   1.162   1.190  0.4052 -0.0573  2.7257
 6045SOL     OW29770   4.200   3.676  14.055 -0.0859 -0.0923  0.4113
 6045SOL    HW129771   4.206   3.582  14.038  3.0904  0.2092 -0.1064
 6045SOL    HW229772   4.116   3.703  14.018 -0.5625 -1.4770  0.4660
 6046SOL     OW29773   2.724   4.099  17.203 -0.7342  0.2221  0.2818
 6046SOL    HW129774   2.685   4.014  17.183  1.7281 -0.4001 -1.8839
 6046SOL    HW229775   2.693   4.156  17.134  0.1035  1.7290  1.1523
 6047SOL     OW29776   0.370   0.827  14.474  0.0875  0.3224  0.5495
 6047SOL    HW129777   0.391   0.753  14.531 -0.2602 -0.6180 -0.5617
 6047SOL    HW229778   0.405   0.903  14.521  2.5821  0.2005 -1.1278
 6048SOL     OW29779   1.195   4.730  11.588  0.2212 -0.1681 -0.4530
 6048SOL    HW129780   1.279   0.022  11.553  1.0767 -2.8982 -0.6528
 6048SOL    HW229781   1.212   4.636  11.590  2.8385  0.3096  0.1011
 6049SOL     OW29782   3.012   2.040   3.622  0.3251 -0.0223 -0.1948
 6049SOL    HW129783   2.922   2.021   3.649  0.3865 -0.4454 -0.2883
 6049SOL    HW229784   3.014   2.135   3.636  0.6426  0.2469 -2.1165
 6050SOL     OW29785   0.815   0.058  15.420  0.2879 -0.0756 -0.1216
 6050SOL    HW129786   0.740   0.114  15.438  0.1887 -0.7493  1.6079
 6050SOL    HW229787   0.860   0.058  15.505 -1.4385 -0.1470  0.7754
 6051SOL     OW29788   1.925   2.974   4.348  0.3626  0.6144  0.5663
 6051SOL    HW129789   1.961   2.924   4.274 -1.6909 -0.3817  0.2234
 6051SOL    HW229790   1.927   3.058   4.303 -0.8385  0.2083 -0.2275
 6052SOL     OW29791   2.175   2.977   8.551  0.1120  0.6340 -0.2645
 6052SOL    HW129792   2.103   2.962   8.489  0.6070  0.4201 -0.7936
 6052SOL    HW229793   2.178   3.070   8.528  1.0985 -0.0124 -2.7435
 6053SOL     OW29794   0.702   0.543   5.758 -0.0343  0.1118 -0.2165
 6053SOL    HW129795   0.630   0.585   5.710 -0.4627  2.2971  2.3561
 6053SOL    HW229796   0.667   0.455   5.750 -0.1448  0.3315 -2.3215
 6054SOL     OW29797   4.085   4.234   9.747 -0.5220 -0.3376  0.4527
 6054SOL    HW129798   4.058   4.281   9.668  0.6979 -0.7449 -0.2262
 6054SOL    HW229799   4.000   4.203   9.776  0.0331 -2.3371  0.0049
 6055SOL     OW29800   2.100   1.496   7.501  0.2483  0.1692  0.2457
 6055SOL    HW129801   2.054   1.578   7.520 -1.3014 -1.3719  3.1475
 6055SOL    HW229802   2.046   1.448   7.439  0.9572  0.0250 -0.2570
 6056SOL     OW29803   0.697   3.829   3.949  0.5482  0.1278  0.1887
 6056SOL    HW129804   0.742   3.912   3.961  0.4583  0.4736 -1.9249
 6056SOL    HW229805   0.766   3.764   3.962  2.1713  2.4206  3.0866
 6057SOL     OW29806   3.159   4.453   4.004  0.4888 -0.1701 -0.4879
 6057SOL    HW129807   3.093   4.387   4.025 -1.3419  1.1178 -2.2217
 6057SOL    HW229808   3.137   4.523   4.066 -0.6974  1.2957 -2.5954
 6058SOL     OW29809   3.345   1.703  10.500  0.2261 -0.0427 -0.2823
 6058SOL    HW129810   3.295   1.778  10.467  0.4723  1.2373  2.2239
 6058SOL    HW229811   3.297   1.675  10.578 -1.9193  2.4785 -0.6849
 6059SOL     OW29812   4.462   3.939   6.575  0.0030  0.0143  0.3159
 6059SOL    HW129813   4.499   3.910   6.658 -0.1372 -2.9485 -0.6656
 6059SOL    HW229814   4.371   3.939   6.605 -0.8648 -0.5061 -2.2649
 6060SOL     OW29815   1.263   1.035   2.556 -0.5442 -0.3491 -0.0195
 6060SOL    HW129816   1.189   1.064   2.608 -0.2562  0.0789  0.1539
 6060SOL    HW229817   1.325   1.105   2.577  0.7760 -1.2924 -0.7916
 6061SOL     OW29818   3.581   2.735   3.986  0.1364  0.2796 -0.1748
 6061SOL    HW129819   3.676   2.744   3.981  0.2412 -0.0330  1.4212
 6061SOL    HW229820   3.577   2.664   3.921 -0.6091  0.0544  0.1193
 6062SOL     OW29821   2.378   4.013   4.706 -0.2781  0.2091 -0.2069
 6062SOL    HW129822   2.398   4.103   4.733  1.7724  0.6913 -3.2977
 6062SOL    HW229823   2.462   3.972   4.722 -0.6164 -0.6854 -0.7551
 6063SOL     OW29824   4.058   3.461  14.926 -0.7458 -0.2645  0.4167
 6063SOL    HW129825   4.092   3.499  14.845 -2.8239 -1.1983 -0.8900
 6063SOL    HW229826   4.027   3.375  14.897  2.9610 -0.7021 -2.1817
 6064SOL     OW29827   2.144   3.204   4.502  0.1512  0.2728  0.1912
 6064SOL    HW129828   2.140   3.197   4.407 -2.7347  0.3651  0.3132
 6064SOL    HW229829   2.235   3.175   4.509  0.8912  2.0016 -2.1919
 6065SOL     OW29830   1.435   3.211  13.269  0.0155  0.3189 -0.6276
 6065SOL    HW129831   1.433   3.307  13.260 -1.1031  0.2866 -0.6616
 6065SOL    HW229832   1.512   3.191  13.323 -0.9689 -1.1535  0.2092
 6066SOL     OW29833   3.123   4.399   4.409 -0.0366 -0.3314 -0.0818
 6066SOL    HW129834   3.162   4.321   4.449 -0.8536 -0.6944  0.0033
 6066SOL    HW229835   3.036   4.364   4.389 -0.3098  0.0626  0.3784
 6067SOL     OW29836   1.784   1.641   2.587 -0.5462 -0.4488  0.2850
 6067SOL    HW129837   1.718   1.659   2.520 -0.8872 -0.6800  0.5565
 6067SOL    HW229838   1.857   1.677   2.536  1.1857 -2.0731  1.6180
 6068SOL     OW29839   3.028   4.065   6.060  0.1816  0.0861 -0.2721
 6068SOL    HW129840   3.084   4.020   5.997 -1.8719 -1.4558 -0.9883
 6068SOL    HW229841   3.026   3.988   6.117  1.8720 -0.6714 -1.2126
 6069SOL     OW29842   3.985   0.727   2.069 -0.3487  0.0508  0.3629
 6069SOL    HW129843   4.036   0.806   2.088  0.1022 -0.0324 -0.4894
 6069SOL    HW229844   3.901   0.772   2.077 -0.2859  0.3161 -0.4604
 6070SOL     OW29845   3.610   3.537   9.432  0.2062 -0.2507 -0.5016
 6070SOL    HW129846   3.659   3.600   9.484  0.8562 -1.3736  0.2395
 6070SOL    HW229847   3.646   3.457   9.470  2.0726  0.2729 -1.1359
 6071SOL     OW29848   4.587   0.330   6.936 -0.2069  0.0866  0.3626
 6071SOL    HW129849   4.556   0.317   6.847  0.4506 -0.5433  0.2367
 6071SOL    HW229850   4.680   0.348   6.925 -0.0025 -0.3740  1.3190
 6072SOL     OW29851   0.865   1.818   8.465  0.6384  0.1310  0.0527
 6072SOL    HW129852   0.919   1.761   8.410  0.4804  1.1561 -1.1659
 6072SOL    HW229853   0.800   1.838   8.398  1.5620  2.7481 -0.0566
 6073SOL     OW29854   2.908   4.148   8.176 -0.2758  0.4497 -0.0657
 6073SOL    HW129855   2.921   4.056   8.200 -0.8746  0.3906  0.0190
 6073SOL    HW229856   2.983   4.171   8.121  0.9093  0.5445  1.5735
 6074SOL     OW29857   1.272   4.323   2.803  0.0468 -0.5676 -0.3297
 6074SOL    HW129858   1.365   4.336   2.784 -0.5559  2.1758 -1.5272
 6074SOL    HW229859   1.259   4.336   2.897  0.0446 -2.1415 -0.1093
 6075SOL     OW29860   0.099   0.471   6.326 -0.3737  0.0996 -0.1282
 6075SOL    HW129861   0.019   0.513   6.358  0.0213  1.3841 -0.7914
 6075SOL    HW229862   0.140   0.457   6.411  1.3406 -0.1950 -1.0055
 6076SOL     OW29863   2.154   3.301   8.206 -0.0813 -0.1716  0.0694
 6076SOL    HW129864   2.139   3.278   8.297 -0.5325 -3.0010 -0.7019
 6076SOL    HW229865   2.214   3.229   8.186 -0.3590  0.0283 -1.5501
 6077SOL     OW29866   3.803   3.919   9.868 -0.1115 -0.0476  0.2280
 6077SOL    HW129867   3.763   3.990   9.918  0.3516 -0.0828  0.6427
 6077SOL    HW229868   3.768   3.942   9.782  0.3571  0.0798  0.0729
 6078SOL     OW29869   2.911   0.113   2.941  0.1038  0.2339 -0.0775
 6078SOL    HW129870   2.935   0.021   2.925 -2.7335  0.0046 -3.0821
 6078SOL    HW229871   2.819   0.103   2.917 -0.3246  1.6235  1.0150
 6079SOL     OW29872   0.266   3.810   3.428 -0.1586 -0.4253  0.1644
 6079SOL    HW129873   0.361   3.810   3.427 -0.1487 -0.7312  0.9881
 6079SOL    HW229874   0.244   3.748   3.359 -0.1583 -0.1992 -0.0386
 6080SOL     OW29875   0.788   3.860   9.605 -0.0417  0.3892  0.0031
 6080SOL    HW129876   0.754   3.942   9.568  1.5748  1.8738  1.7819
 6080SOL    HW229877   0.878   3.880   9.629 -0.7102  0.9853  2.0345
 6081SOL     OW29878   3.671   1.603  10.097 -0.4096  0.4129 -0.1837
 6081SOL    HW129879   3.758   1.638  10.077 -1.6319  1.2314 -4.1991
 6081SOL    HW229880   3.613   1.637  10.028 -0.4957  3.1780  1.2749
 6082SOL     OW29881   0.192   4.583   4.076 -0.0125 -0.3496  0.5750
 6082SOL    HW129882   0.179   4.673   4.107  1.0631  0.3554 -1.0347
 6082SOL    HW229883   0.100   4.556   4.066  0.7220 -1.5292 -3.0880
 6083SOL     OW29884   3.370   0.547   8.243 -0.2345  0.1416 -0.4428
 6083SOL    HW129885   3.437   0.610   8.217  0.1388  0.7414  1.9680
 6083SOL    HW229886   3.294   0.572   8.190 -0.5277 -0.0938 -0.1405
 6084SOL     OW29887   4.577   3.485   3.232  0.1175  0.5835 -0.2809
 6084SOL    HW129888   4.593   3.454   3.143 -1.2759 -0.2935 -0.2347
 6084SOL    HW229889   4.605   3.577   3.234  0.3904  0.5108 -0.7220
 6085SOL     OW29890   0.009   1.477  13.370 -0.3001 -0.0664 -0.1430
 6085SOL    HW129891   0.057   1.548  13.411  2.2115 -1.7275 -0.1771
 6085SOL    HW229892   0.016   1.407  13.435  1.4233  0.6662  0.4521
 6086SOL     OW29893   4.344   0.692  11.820 -0.5256 -0.6518  0.1338
 6086SOL    HW129894   4.414   0.643  11.862 -1.2349  0.8072  2.9994
 6086SOL    HW229895   4.275   0.670  11.883 -1.4545  1.3355 -0.1820
 6087SOL     OW29896   4.309   3.233  15.225  0.2566  0.0663 -0.2505
 6087SOL    HW129897   4.280   3.147  15.196  0.3778  0.2342 -0.8644
 6087SOL    HW229898   4.232   3.287  15.210  0.0932 -0.7509 -2.2822
 6088SOL     OW29899   0.551   1.557  15.252 -0.5685 -0.3088  0.0980
 6088SOL    HW129900   0.516   1.628  15.307  1.7358  0.4474  0.5826
 6088SOL    HW229901   0.528   1.483  15.307  1.2741 -1.0616 -0.1614
 6089SOL     OW29902   3.222   2.949   4.927  0.2169 -0.6185  0.1416
 6089SOL    HW129903   3.180   2.897   4.996 -1.4251  0.1025 -0.3179
 6089SOL    HW229904   3.290   2.999   4.971  0.5925 -1.4354  0.4781
 6090SOL     OW29905   1.152   1.262  12.312  0.2671  0.0678 -0.1481
 6090SOL    HW129906   1.224   1.246  12.372  0.6377 -1.1586 -0.9139
 6090SOL    HW229907   1.163   1.211  12.231  0.3760 -1.7845  1.0295
 6091SOL     OW29908   2.819   4.407  17.280 -0.2027 -0.7695 -0.1243
 6091SOL    HW129909   2.903   4.408  17.324  0.8278  1.4419 -2.1768
 6091SOL    HW229910   2.833   4.349  17.205  0.4743  0.0432 -0.6217
 6092SOL     OW29911   3.315   0.704  17.004  0.5941  0.0956  0.3149
 6092SOL    HW129912   3.400   0.741  16.981  0.7946 -1.1568 -0.9777
 6092SOL    HW229913   3.299   0.677  16.913 -0.1998 -2.6736  1.2626
 6093SOL     OW29914   2.151   0.664   4.346  0.3220  0.0043 -0.1458
 6093SOL    HW129915   2.124   0.756   4.350 -0.7506 -0.2365 -1.6927
 6093SOL    HW229916   2.071   0.617   4.370  0.3544 -0.4825 -0.9921
 6094SOL     OW29917   0.103   2.266   4.096  0.1836  0.0523 -0.4893
 6094SOL    HW129918   0.144   2.207   4.032 -0.6987 -1.3784  0.2592
 6094SOL    HW229919   0.172   2.330   4.113  2.6917 -3.0954  1.1573
 6095SOL     OW29920   2.277   3.020   3.401 -0.5120 -0.3198 -0.1279
 6095SOL    HW129921   2.320   3.104   3.386 -0.8886 -0.1435 -0.1983
 6095SOL    HW229922   2.192   3.047   3.436  0.6835  0.4630  2.2540
 6096SOL     OW29923   4.179   1.131   0.872 -0.1244  0.2476 -0.4997
 6096SOL    HW129924   4.168   1.077   0.794 -2.8346 -1.7689  1.2489
 6096SOL    HW229925   4.202   1.070   0.942 -0.9129  2.0493  1.3282
 6097SOL     OW29926   2.968   1.104   7.590 -0.3471  0.4805  0.1071
 6097SOL    HW129927   2.881   1.085   7.554  0.0427 -0.4827 -0.3178
 6097SOL    HW229928   2.949   1.154   7.670 -0.6576  0.0111  0.3242
 6098SOL     OW29929   1.814   2.503   6.017  0.4515 -0.3390  0.0499
 6098SOL    HW129930   1.739   2.474   6.069  1.4526 -2.2179  0.4431
 6098SOL    HW229931   1.784   2.591   5.994  0.0496 -0.6662 -0.6766
 6099SOL     OW29932   2.874   2.843  15.696 -0.2316 -0.0997 -0.2739
 6099SOL    HW129933   2.893   2.757  15.659 -1.0491  0.1097 -1.1665
 6099SOL    HW229934   2.847   2.899  15.624  0.5313  1.5173  0.6762
 6100SOL     OW29935   3.694   3.414   9.064  0.2697  0.2217 -0.0497
 6100SOL    HW129936   3.649   3.476   9.006  2.1129  0.6338 -1.0604
 6100SOL    HW229937   3.621   3.363   9.099  0.5585  2.1742  3.3001
 6101SOL     OW29938   0.996   4.618   4.067  0.0016 -0.3230  0.4716
 6101SOL    HW129939   0.941   4.687   4.104 -1.6604 -1.1440 -0.4451
 6101SOL    HW229940   0.936   4.547   4.046  0.8309 -0.7811 -0.3475
 6102SOL     OW29941   3.728   4.121   8.826 -0.0981  0.1497 -0.1104
 6102SOL    HW129942   3.671   4.077   8.762  0.7090  0.5647 -1.1145
 6102SOL    HW229943   3.812   4.089   8.792  0.5471  1.6100  0.1394
 6103SOL     OW29944   3.468   0.352   4.516  0.2163 -0.3598 -0.0626
 6103SOL    HW129945   3.557   0.358   4.551 -0.6420  3.4825  1.4500
 6103SOL    HW229946   3.478   0.385   4.427  0.1413  0.2166  0.1402
 6104SOL     OW29947   0.345   0.937   7.569  0.1507 -0.2429  0.3618
 6104SOL    HW129948   0.317   0.855   7.529  2.0886 -1.0866  0.7325
 6104SOL    HW229949   0.299   0.922   7.652  0.6594  0.5704  0.7881
 6105SOL     OW29950   2.832   2.785   7.470 -0.5627  0.6792 -0.0577
 6105SOL    HW129951   2.744   2.778   7.433 -0.4775  0.4946 -0.2251
 6105SOL    HW229952   2.887   2.717   7.430 -0.4299  0.0423  1.2276
 6106SOL     OW29953   4.596   1.047   8.226 -0.2317  0.0850 -0.3690
 6106SOL    HW129954   4.631   1.014   8.309  0.5760  1.3407 -0.2040
 6106SOL    HW229955   4.569   0.967   8.182 -0.8612 -0.4778  1.0321
 6107SOL     OW29956   2.485   3.308   4.417  0.6349 -0.2780  0.1119
 6107SOL    HW129957   2.469   3.238   4.479 -1.3881 -1.5399 -1.8297
 6107SOL    HW229958   2.522   3.367   4.483 -2.4023  0.5013  1.1030
 6108SOL     OW29959   2.344   3.782   2.612  1.0099 -0.0299  0.0377
 6108SOL    HW129960   2.357   3.873   2.586 -1.0488 -0.1988 -1.6006
 6108SOL    HW229961   2.259   3.798   2.654  0.1691 -0.9405 -1.3015
 6109SOL     OW29962   1.786   1.098  10.199  0.6463  0.5395  0.4824
 6109SOL    HW129963   1.833   1.082  10.281 -1.5870 -0.4559  1.5494
 6109SOL    HW229964   1.713   1.149  10.234  0.5422 -0.1008  1.1941
 6110SOL     OW29965   4.608   1.888   9.398 -0.4786  1.2328  0.5448
 6110SOL    HW129966   4.622   1.950   9.327 -1.2062  0.6980 -0.0591
 6110SOL    HW229967   4.667   1.915   9.468  2.5975 -2.8287 -0.4636
 6111SOL     OW29968   4.431   3.538   6.417  0.7285 -0.4419 -0.2299
 6111SOL    HW129969   4.342   3.572   6.403 -0.3722 -3.2462 -0.0436
 6111SOL    HW229970   4.464   3.579   6.337 -1.3647 -1.4944 -1.6409
 6112SOL     OW29971   3.308   3.645   5.957 -0.0343 -0.2180  0.0579
 6112SOL    HW129972   3.396   3.637   5.920  0.4293  1.6580  0.7318
 6112SOL    HW229973   3.254   3.623   5.882 -0.9324 -1.4668  1.0760
 6113SOL     OW29974   0.438   1.917   6.361 -0.1610 -0.1773  0.2465
 6113SOL    HW129975   0.524   1.875   6.370 -1.0940 -2.3775 -0.9516
 6113SOL    HW229976   0.382   1.841   6.377 -1.1981  1.1217  2.6692
 6114SOL     OW29977   0.981   1.190   5.809  0.8968  0.0230 -0.4402
 6114SOL    HW129978   1.073   1.165   5.798  0.4179 -1.8387 -0.3187
 6114SOL    HW229979   0.994   1.271   5.760 -1.9592 -1.0503 -2.9748
 6115SOL     OW29980   4.058   1.820  14.585 -0.2110 -0.1255 -0.2913
 6115SOL    HW129981   4.143   1.813  14.543  0.1862 -1.2336  0.6981
 6115SOL    HW229982   4.036   1.727  14.589 -0.1351 -0.1887 -1.6742
 6116SOL     OW29983   3.141   4.598  17.064  0.7374  0.1982  1.3835
 6116SOL    HW129984   3.080   4.638  17.001  0.5508  0.4846  1.7444
 6116SOL    HW229985   3.129   4.505  17.044 -0.0623  0.2887  1.4454
 6117SOL     OW29986   0.935   2.751  13.903 -0.1340 -0.0441 -0.0010
 6117SOL    HW129987   0.858   2.782  13.854 -0.8352  0.1753  1.2386
 6117SOL    HW229988   0.924   2.794  13.988  2.7057  0.5351  0.0582
 6118SOL     OW29989   4.466   2.017   4.538 -0.4907  0.1799  0.4292
 6118SOL    HW129990   4.418   2.084   4.585  1.0934  0.7354  1.2623
 6118SOL    HW229991   4.444   1.941   4.593  1.9227 -0.8211  0.0322
 6119SOL     OW29992   3.675   0.243   6.733  0.2875  0.3558  0.0016
 6119SOL    HW129993   3.704   0.334   6.722  1.6544  0.0636  1.1510
 6119SOL    HW229994   3.684   0.192   6.652  1.8633 -1.4965  1.3315
 6120SOL     OW29995   4.410   2.880   7.394 -0.3462 -0.3194  0.1409
 6120SOL    HW129996   4.415   2.797   7.440 -0.3042 -0.1118  0.5099
 6120SOL    HW229997   4.354   2.854   7.321  0.3554  2.2715 -1.3209
 6121SOL     OW29998   1.899   4.467   3.682 -0.6378 -0.0693 -0.3121
 6121SOL    HW129999   1.853   4.545   3.715  1.0143  0.0407  1.7213
 6121SOL    HW230000   1.988   4.500   3.692 -0.3740 -0.9496  0.1431
 6122SOL     OW30001   2.423   3.828   1.466 -0.2460 -0.0740  0.3930
 6122SOL    HW130002   2.372   3.890   1.415  1.3474 -1.5524 -2.9441
 6122SOL    HW230003   2.505   3.872   1.489 -0.1981 -0.9386  1.9508
 6123SOL     OW30004   2.848   0.614   7.826 -0.3549  0.0854  0.4476
 6123SOL    HW130005   2.781   0.651   7.769 -0.3043  2.5407  1.9604
 6123SOL    HW230006   2.926   0.623   7.771 -1.7090 -0.0119 -1.4943
 6124SOL     OW30007   3.393   4.069   9.130  0.4153 -0.2661  0.1572
 6124SOL    HW130008   3.341   3.994   9.100  4.8577 -2.7794 -1.2423
 6124SOL    HW230009   3.337   4.093   9.204 -2.2101 -1.1626 -1.5793
 6125SOL     OW30010   3.289   4.094   5.427 -0.1650 -0.0377  0.3605
 6125SOL    HW130011   3.220   4.116   5.365  0.9427  0.3157 -0.7467
 6125SOL    HW230012   3.267   4.001   5.433  1.1241 -0.3640  0.2103
 6126SOL     OW30013   2.792   3.979  11.491  0.0066 -0.6269  0.7023
 6126SOL    HW130014   2.705   3.979  11.452  0.8381  0.8389 -1.1051
 6126SOL    HW230015   2.781   3.906  11.553 -1.1812 -0.9653  0.0912
 6127SOL     OW30016   0.173   1.064   4.205  0.1692 -0.2964  0.0012
 6127SOL    HW130017   0.258   1.053   4.248 -0.7387 -1.4547  1.5031
 6127SOL    HW230018   0.155   0.977   4.168 -0.5983 -0.1154 -0.0523
 6128SOL     OW30019   4.074   0.315  10.773 -0.0073  0.1487 -0.0004
 6128SOL    HW130020   4.109   0.404  10.764  0.1088 -0.0136 -1.1578
 6128SOL    HW230021   4.003   0.317  10.709  0.9155  1.2930 -0.9860
 6129SOL     OW30022   3.894   3.596   2.770  0.1598  0.1182 -0.2036
 6129SOL    HW130023   3.886   3.500   2.770  0.0646  0.1283  0.0388
 6129SOL    HW230024   3.849   3.623   2.690 -0.4099 -0.3138 -0.0320
 6130SOL     OW30025   0.641   2.842  12.276  0.1000 -0.1543 -0.5915
 6130SOL    HW130026   0.557   2.821  12.318  0.4983  3.3970  2.0277
 6130SOL    HW230027   0.713   2.811  12.331  1.1259  0.0103 -1.8603
 6131SOL     OW30028   1.580   0.157   4.052 -0.0212  0.4139 -0.1920
 6131SOL    HW130029   1.514   0.202   3.999 -0.2640 -1.4861 -1.5199
 6131SOL    HW230030   1.539   0.075   4.080 -0.7051  0.4703 -1.0218
 6132SOL     OW30031   3.482   0.843   8.980 -0.4222  0.1828 -0.0674
 6132SOL    HW130032   3.553   0.810   8.925  0.9509  0.5237  1.5055
 6132SOL    HW230033   3.411   0.785   8.953 -0.0082 -0.5620  0.4642
 6133SOL     OW30034   4.251   4.339   9.253  0.1229 -0.0228  0.3123
 6133SOL    HW130035   4.157   4.359   9.260  0.3876  0.2232  3.0307
 6133SOL    HW230036   4.287   4.427   9.242  0.6377 -0.1305  1.2094
 6134SOL     OW30037   0.458   4.162  13.743 -0.4121 -0.6892 -0.1421
 6134SOL    HW130038   0.503   4.240  13.711 -0.6512  0.6489  2.8106
 6134SOL    HW230039   0.435   4.183  13.833  1.9870 -2.8420  0.9839
 6135SOL     OW30040   4.094   4.721  16.674 -0.2205 -0.0433  0.2795
 6135SOL    HW130041   4.078   0.073  16.704  0.0880  0.0928  0.0459
 6135SOL    HW230042   4.076   4.655  16.741  0.6537  0.8520  1.3930
 6136SOL     OW30043   2.991   3.787   8.989 -0.4513 -0.0203  0.2107
 6136SOL    HW130044   2.985   3.836   8.907  1.5129 -1.5264 -0.8441
 6136SOL    HW230045   2.936   3.834   9.051  0.5086 -1.8608  2.4490
 6137SOL     OW30046   0.872   0.221  10.900 -0.1154  0.7560 -0.0824
 6137SOL    HW130047   0.806   0.245  10.835 -1.0171 -1.1960  0.1108
 6137SOL    HW230048   0.819   0.156  10.946  1.4603 -0.5290 -0.0880
 6138SOL     OW30049   3.229   4.299  16.137  0.1629 -0.2434 -0.1009
 6138SOL    HW130050   3.236   4.240  16.212 -1.9894  0.1656  0.4229
 6138SOL    HW230051   3.294   4.256  16.082  0.8437  1.2398 -0.4583
 6139SOL     OW30052   0.335   3.708  13.307 -0.0615  0.9342  0.7548
 6139SOL    HW130053   0.361   3.799  13.321  0.2561  1.2920 -2.1900
 6139SOL    HW230054   0.421   3.666  13.304 -0.0316  0.8639  2.3825
 6140SOL     OW30055   1.557   3.529   0.562 -0.2096  0.6672  0.5845
 6140SOL    HW130056   1.639   3.549   0.607 -1.4809  0.4733  2.9739
 6140SOL    HW230057   1.516   3.616   0.557  1.7467  1.6227  0.9702
 6141SOL     OW30058   4.285   1.024  15.003  0.2167 -0.1366 -0.4198
 6141SOL    HW130059   4.270   0.995  15.093  0.9451  0.8170  0.0082
 6141SOL    HW230060   4.378   1.045  15.010 -0.2949  1.6229  1.0757
 6142SOL     OW30061   2.483   2.228   1.259  0.0405 -0.1371  0.1344
 6142SOL    HW130062   2.470   2.271   1.344 -2.3836  0.9426 -0.8028
 6142SOL    HW230063   2.557   2.169   1.277 -0.4640 -0.8905 -0.2868
 6143SOL     OW30064   3.066   1.982  12.152  0.0241 -0.2109 -0.2813
 6143SOL    HW130065   3.080   1.955  12.061 -0.4144  0.0486 -0.4205
 6143SOL    HW230066   3.082   2.076  12.156 -0.8616 -0.1202  0.9374
 6144SOL     OW30067   0.341   2.285   5.110  0.1442  0.5729 -0.0458
 6144SOL    HW130068   0.385   2.246   5.034  1.6794 -0.1624  1.2137
 6144SOL    HW230069   0.261   2.234   5.102  2.1876 -2.7992  0.7906
 6145SOL     OW30070   3.194   2.541   2.907 -0.3660 -0.5758 -0.0615
 6145SOL    HW130071   3.120   2.489   2.939 -0.6989  1.6157  2.6920
 6145SOL    HW230072   3.253   2.469   2.886  1.1988 -0.3801  3.7165
 6146SOL     OW30073   1.044   4.210   5.269  0.3109  0.6708 -0.6389
 6146SOL    HW130074   1.103   4.268   5.318  1.0887  0.1695 -0.9900
 6146SOL    HW230075   1.100   4.134   5.252  0.9381  0.8449  0.6705
 6147SOL     OW30076   4.252   3.989   3.791  0.2591  0.0951 -0.1034
 6147SOL    HW130077   4.171   3.977   3.841  0.2793 -1.2333 -0.3786
 6147SOL    HW230078   4.274   3.904   3.752 -0.3548  0.0963 -0.4457
 6148SOL     OW30079   2.303   1.782  11.113  0.0327 -0.5966 -0.3977
 6148SOL    HW130080   2.235   1.812  11.173 -0.2170 -1.4473 -0.2466
 6148SOL    HW230081   2.324   1.867  11.074 -2.0642  0.5693  1.0271
 6149SOL     OW30082   0.739   2.681   6.452 -0.0137 -0.1725 -0.3857
 6149SOL    HW130083   0.688   2.748   6.497 -1.0261  0.7390 -2.8964
 6149SOL    HW230084   0.689   2.664   6.372  0.9156 -0.1141 -0.9729
 6150SOL     OW30085   4.071   0.619   2.786  0.1711  0.6691 -0.0856
 6150SOL    HW130086   4.006   0.659   2.728 -1.5290 -0.4881  1.0359
 6150SOL    HW230087   4.026   0.536   2.799 -0.4661  0.6776 -2.1569
 6151SOL     OW30088   4.735   3.710   9.661  0.2620  0.3611 -0.0621
 6151SOL    HW130089   0.051   3.704   9.740 -1.0862  0.0169  0.8104
 6151SOL    HW230090   4.680   3.632   9.671 -0.6121  0.8376 -1.1653
 6152SOL     OW30091   3.063   4.207   3.198 -0.6268  0.1597 -0.1231
 6152SOL    HW130092   2.978   4.186   3.237  1.1975 -1.9780  2.7399
 6152SOL    HW230093   3.114   4.198   3.279 -2.2650 -0.3769  0.8533
 6153SOL     OW30094   4.719   4.626   2.780 -0.5223 -0.5047  0.0974
 6153SOL    HW130095   0.016   4.696   2.836  0.6932 -2.4360  1.7962
 6153SOL    HW230096   4.662   4.678   2.723 -0.5254  0.0693  0.6212
 6154SOL     OW30097   0.686   0.423  12.775  0.2287  0.5155 -0.0794
 6154SOL    HW130098   0.767   0.450  12.731 -0.5665  1.3588 -1.0431
 6154SOL    HW230099   0.686   0.487  12.846 -0.6441 -0.3058  0.6518
 6155SOL     OW30100   0.429   1.285   7.393 -0.0473 -0.2277 -0.1513
 6155SOL    HW130101   0.455   1.375   7.376  1.3699 -0.6650 -0.2963
 6155SOL    HW230102   0.513   1.240   7.397  0.9441  1.5484 -0.8343
 6156SOL     OW30103   2.157   4.463   3.963 -0.3317 -0.4090 -0.4120
 6156SOL    HW130104   2.179   4.471   4.056 -1.6901  0.3312 -0.1502
 6156SOL    HW230105   2.143   4.370   3.949 -1.3850 -0.1119 -1.3703
 6157SOL     OW30106   1.873   0.302   8.658  0.2109  0.0368  0.0699
 6157SOL    HW130107   1.948   0.332   8.709  0.7892  0.1068 -0.8164
 6157SOL    HW230108   1.874   0.206   8.664  0.0209 -0.0312 -0.9367
 6158SOL     OW30109   3.636   2.699   6.041 -0.2049 -0.5158  0.2791
 6158SOL    HW130110   3.586   2.620   6.025 -0.6566 -0.2603  0.4105
 6158SOL    HW230111   3.572   2.759   6.081  0.8421 -0.5394  2.0110
 6159SOL     OW30112   1.481   0.873   2.976 -0.6607  0.0102 -0.8735
 6159SOL    HW130113   1.464   0.837   2.889 -0.7650  1.4363 -1.4491
 6159SOL    HW230114   1.389   0.884   2.997 -0.6085 -2.3651  0.6635
 6160SOL     OW30115   3.839   0.487   6.952  0.3017  0.0885 -0.1009
 6160SOL    HW130116   3.925   0.457   6.980  0.4667 -1.0149 -1.8275
 6160SOL    HW230117   3.791   0.405   6.965  0.2022  0.2930  0.8040
 6161SOL     OW30118   0.291   3.345  16.950 -0.1219 -0.1391 -0.2211
 6161SOL    HW130119   0.357   3.373  17.012  1.3079  0.9053 -2.2044
 6161SOL    HW230120   0.272   3.263  16.995  1.3547  0.2294  1.0538
 6162SOL     OW30121   0.711   4.523   2.807 -0.2290 -0.2381  0.2475
 6162SOL    HW130122   0.695   4.550   2.897  0.1189 -0.9063  0.5072
 6162SOL    HW230123   0.647   4.454   2.793  0.7234 -0.9884 -0.3943
 6163SOL     OW30124   3.686   0.860   8.756 -0.3705 -0.0056  0.0050
 6163SOL    HW130125   3.642   0.850   8.672  0.8554  3.0367 -0.9765
 6163SOL    HW230126   3.778   0.862   8.732  0.5026 -0.2656  3.2686
 6164SOL     OW30127   3.094   2.028  16.753 -0.4439  0.4974 -0.6491
 6164SOL    HW130128   3.184   2.048  16.780 -0.4946  0.3777 -0.3924
 6164SOL    HW230129   3.089   1.937  16.779 -2.0764  0.8879  0.3426
 6165SOL     OW30130   2.892   2.706   1.797  0.0195 -0.2377 -0.1655
 6165SOL    HW130131   2.920   2.795   1.818 -0.2226 -0.0799 -0.5067
 6165SOL    HW230132   2.965   2.669   1.747 -0.6489 -0.1683 -1.2110
 6166SOL     OW30133   4.150   4.623   0.749 -0.1705 -0.3339 -0.1489
 6166SOL    HW130134   4.100   4.705   0.751  0.9672  0.4351 -3.0408
 6166SOL    HW230135   4.104   4.579   0.678  0.5964 -0.8099 -0.3530
 6167SOL     OW30136   2.813   4.683   0.520 -0.1847  0.1603  0.5971
 6167SOL    HW130137   2.760   4.657   0.444  0.9560  0.5175 -0.3127
 6167SOL    HW230138   2.880   4.616   0.504 -0.5873 -0.4775  1.6119
 6168SOL     OW30139   2.358   4.081   8.641 -0.6574  0.5848  0.7225
 6168SOL    HW130140   2.391   4.169   8.657  2.5227 -0.3848 -0.5550
 6168SOL    HW230141   2.382   4.066   8.550  1.3948 -0.3017  1.4098
 6169SOL     OW30142   1.594   3.451  14.972 -0.0559 -0.3788  0.4929
 6169SOL    HW130143   1.670   3.394  14.986 -0.3367 -0.6664  0.8506
 6169SOL    HW230144   1.529   3.412  15.031 -0.6574  1.2640  0.9262
 6170SOL     OW30145   0.229   2.720   0.692 -0.6285  0.5146 -0.2809
 6170SOL    HW130146   0.169   2.785   0.656 -1.1984  0.7054  1.0242
 6170SOL    HW230147   0.268   2.680   0.614 -2.8163 -1.9357 -0.1031
 6171SOL     OW30148   4.467   4.463   6.887 -0.2363  0.3129 -0.3588
 6171SOL    HW130149   4.503   4.374   6.883  0.1996  0.4673  0.1380
 6171SOL    HW230150   4.516   4.496   6.962  2.2467  0.0370 -1.8189
 6172SOL     OW30151   2.359   1.737   5.125 -0.6403 -0.3438 -0.4049
 6172SOL    HW130152   2.437   1.744   5.180 -0.9424 -1.7186  0.1991
 6172SOL    HW230153   2.296   1.782   5.180 -0.5308 -2.0061  1.0672
 6173SOL     OW30154   0.975   2.789   1.593  0.1728 -0.2096 -0.4772
 6173SOL    HW130155   0.952   2.716   1.536 -0.9536  0.8716 -1.4174
 6173SOL    HW230156   0.894   2.828   1.627  1.2859  2.2182 -0.5980
 6174SOL     OW30157   0.650   4.585   3.073 -0.0387  0.1639  0.3514
 6174SOL    HW130158   0.566   4.630   3.083 -0.7648 -1.4485  1.4670
 6174SOL    HW230159   0.659   4.554   3.163 -1.5297 -2.1477 -0.3075
 6175SOL     OW30160   1.826   2.268   3.073 -0.2616  0.2763 -0.3226
 6175SOL    HW130161   1.806   2.362   3.077 -0.4907  0.2247 -0.2691
 6175SOL    HW230162   1.760   2.235   3.013 -1.1059  1.6924 -0.1867
 6176SOL     OW30163   1.061   3.112   6.005 -0.1237  0.0055  0.4958
 6176SOL    HW130164   1.046   3.024   5.970  1.8167 -0.1450  0.0413
 6176SOL    HW230165   1.003   3.125   6.080 -3.3710 -1.9307 -1.6965
 6177SOL     OW30166   0.036   3.062   2.301  0.6141  0.7200  0.1942
 6177SOL    HW130167   4.702   3.126   2.287  1.2867  1.5604  0.6486
 6177SOL    HW230168   0.090   3.112   2.362 -0.6228  0.4443  1.5159
 6178SOL     OW30169   1.961   4.407  17.349 -0.3453 -0.2573 -0.2704
 6178SOL    HW130170   2.004   4.423  17.433  0.9104 -0.0493 -0.9548
 6178SOL    HW230171   1.884   4.362  17.385 -0.9596 -0.6029 -2.0175
 6179SOL     OW30172   4.583   4.043  11.055 -0.3968 -0.0673 -0.0549
 6179SOL    HW130173   4.521   3.976  11.026 -1.7613  2.3919 -2.9304
 6179SOL    HW230174   4.630   4.052  10.972  0.1851  1.0760  0.3894
 6180SOL     OW30175   1.577   1.265   8.321 -0.3390 -0.0966 -0.3656
 6180SOL    HW130176   1.669   1.241   8.330 -0.8542 -2.3341 -1.0610
 6180SOL    HW230177   1.586   1.341   8.378  0.7286  0.3635 -1.1476
 6181SOL     OW30178   2.973   1.834   5.043 -0.3802 -0.0459  0.1955
 6181SOL    HW130179   2.962   1.812   5.135  1.8694  1.5524  0.8634
 6181SOL    HW230180   3.027   1.769   4.999  0.2835 -1.0439  2.4971
 6182SOL     OW30181   4.217   4.708   4.546 -0.3834 -0.7792 -0.0981
 6182SOL    HW130182   4.147   0.013   4.596 -1.9002 -1.8935 -1.2718
 6182SOL    HW230183   4.165   4.653   4.487  0.1757 -0.6181 -0.7434
 6183SOL     OW30184   0.310   1.193   3.449  0.2463 -0.1304  0.4608
 6183SOL    HW130185   0.222   1.173   3.419  0.5684  1.1351 -1.3382
 6183SOL    HW230186   0.304   1.282   3.484 -1.3537 -0.4332  0.9334
 6184SOL     OW30187   2.438   4.530   5.867  0.6630 -0.6885  0.2380
 6184SOL    HW130188   2.390   4.456   5.831 -0.9660 -0.5444  2.0933
 6184SOL    HW230189   2.526   4.504   5.839  0.2709  0.7457 -2.3565
 6185SOL     OW30190   4.204   2.348   2.505  0.4628 -0.1002  0.1472
 6185SOL    HW130191   4.145   2.423   2.506  1.2196  0.4897  1.5661
 6185SOL    HW230192   4.217   2.349   2.410  3.1760 -1.5296  0.4896
 6186SOL     OW30193   4.355   1.228  10.038  0.0472 -0.3044  0.3758
 6186SOL    HW130194   4.345   1.216  10.132  0.7111 -0.6991  0.3920
 6186SOL    HW230195   4.355   1.137  10.009  0.7971 -0.5196  1.0701
 6187SOL     OW30196   0.611   3.747   2.636  0.3884 -0.3377  0.0782
 6187SOL    HW130197   0.605   3.840   2.659  1.5730 -0.3123  0.2814
 6187SOL    HW230198   0.623   3.713   2.725  0.9400  0.1115  0.1759
 6188SOL     OW30199   1.558   4.473   3.893 -0.4676  0.3258 -0.3250
 6188SOL    HW130200   1.623   4.505   3.830  0.7856 -2.3790 -0.4036
 6188SOL    HW230201   1.556   4.379   3.879  0.0495  0.7275 -3.1254
 6189SOL     OW30202   4.172   2.148  13.121  0.5972  0.1389  0.0274
 6189SOL    HW130203   4.211   2.144  13.208 -0.4794  3.0685  0.6643
 6189SOL    HW230204   4.229   2.080  13.086 -0.7813 -1.2075  0.4271
 6190SOL     OW30205   2.244   2.546  13.002  0.5470  0.4085  0.4009
 6190SOL    HW130206   2.223   2.454  13.015 -0.6786  0.2505 -2.6721
 6190SOL    HW230207   2.339   2.543  13.010  0.6260 -0.8819 -1.1459
 6191SOL     OW30208   0.802   2.718   7.692  0.1175 -0.1869  0.3827
 6191SOL    HW130209   0.730   2.695   7.634  0.7534 -1.0368 -0.0701
 6191SOL    HW230210   0.870   2.753   7.634  1.0208 -1.0455  0.9211
 6192SOL     OW30211   4.523   0.126   3.621  0.4271 -0.2988  0.2110
 6192SOL    HW130212   4.603   0.098   3.576  0.1617 -1.1771  0.2790
 6192SOL    HW230213   4.496   0.200   3.567 -1.2667 -0.4708  0.8280
 6193SOL     OW30214   3.394   2.941   3.348  0.2253 -0.4963  0.0209
 6193SOL    HW130215   3.453   3.008   3.314  2.3332 -2.8249 -0.9752
 6193SOL    HW230216   3.311   2.989   3.349  1.4216  1.5501  0.7025
 6194SOL     OW30217   3.305   0.555   8.506 -0.8807  0.0275  0.3872
 6194SOL    HW130218   3.231   0.495   8.500 -0.5594 -0.1478 -1.9351
 6194SOL    HW230219   3.350   0.533   8.424 -2.3767 -0.7737 -0.2114
 6195SOL     OW30220   1.459   2.242   8.306  0.2890 -0.2045 -0.9017
 6195SOL    HW130221   1.535   2.294   8.280  2.5725 -2.0791  2.0483
 6195SOL    HW230222   1.395   2.273   8.241  1.3103  1.6878 -0.9913
 6196SOL     OW30223   2.514   2.829  15.746 -0.4516  0.1417 -0.0740
 6196SOL    HW130224   2.512   2.884  15.824 -0.5789 -0.9757  0.7062
 6196SOL    HW230225   2.551   2.747  15.778  1.5294  1.2333  0.4226
 6197SOL     OW30226   2.850   1.773   3.577 -0.1651 -0.1813 -0.3521
 6197SOL    HW130227   2.946   1.769   3.581 -0.0640  1.0373 -1.5981
 6197SOL    HW230228   2.833   1.863   3.607 -0.4550 -0.6905  1.0317
 6198SOL     OW30229   2.472   1.269   7.137 -0.1997  0.3394 -0.0198
 6198SOL    HW130230   2.446   1.248   7.048 -1.5720 -2.5057  1.0375
 6198SOL    HW230231   2.561   1.301   7.124 -1.5051  4.2871  0.8042
 6199SOL     OW30232   2.668   4.034  12.079  0.5210 -0.1445  0.3030
 6199SOL    HW130233   2.636   3.955  12.036 -1.5257  0.7308  0.1998
 6199SOL    HW230234   2.744   4.008  12.131  1.0157 -0.2372 -0.4586
 6200SOL     OW30235   1.633   0.345   3.363  0.5921 -0.3482  0.6692
 6200SOL    HW130236   1.715   0.361   3.410 -0.2165 -0.1871  2.0302
 6200SOL    HW230237   1.668   0.276   3.307 -2.5158 -0.3917 -1.2184
 6201SOL     OW30238   4.470   0.714  13.207  0.3884 -0.2997 -0.2973
 6201SOL    HW130239   4.506   0.638  13.162  0.5036  1.2916 -2.9330
 6201SOL    HW230240   4.387   0.719  13.159 -0.6993 -0.8209  1.5225
 6202SOL     OW30241   2.906   3.259   1.591 -0.2227  0.5192  0.1840
 6202SOL    HW130242   2.881   3.196   1.523  2.4683  2.6310 -2.7265
 6202SOL    HW230243   2.822   3.294   1.621 -0.3710 -0.9021  1.4430
 6203SOL     OW30244   0.252   0.445   3.462 -0.0112 -0.1598 -0.2693
 6203SOL    HW130245   0.325   0.426   3.403  0.2456  4.2998 -1.3518
 6203SOL    HW230246   0.288   0.391   3.533  1.5472  1.3828  0.1051
 6204SOL     OW30247   3.093   1.666   4.861 -0.6172 -0.1649 -0.4097
 6204SOL    HW130248   3.180   1.643   4.829 -0.0439  0.4125  0.7375
 6204SOL    HW230249   3.079   1.595   4.924 -0.7706  0.2577  0.0295
 6205SOL     OW30250   0.423   4.656   2.553 -0.0793 -0.3140 -0.2661
 6205SOL    HW130251   0.405   4.695   2.468  2.8609  1.0364 -0.2871
 6205SOL    HW230252   0.426   0.001   2.601 -0.6753 -0.9508  0.8433
 6206SOL     OW30253   4.327   3.112  10.114 -0.3942  0.0187  0.0409
 6206SOL    HW130254   4.397   3.047  10.118 -2.0386 -1.6343  1.8479
 6206SOL    HW230255   4.306   3.121  10.207  3.2218 -1.9172  1.0510
 6207SOL     OW30256   1.952   4.669  11.883  0.5850 -0.2756  0.7038
 6207SOL    HW130257   1.947   4.625  11.968 -0.1794 -1.7729 -0.1395
 6207SOL    HW230258   2.021   4.733  11.901 -2.8501  3.2954  1.0981
 6208SOL     OW30259   2.357   4.156   3.179 -0.2332 -0.0864  0.9952
 6208SOL    HW130260   2.292   4.218   3.145  1.3808  1.3743  0.5816
 6208SOL    HW230261   2.319   4.143   3.266 -1.6371 -0.2900  0.3419
 6209SOL     OW30262   1.130   4.715  15.711  0.0235  0.3853 -0.0555
 6209SOL    HW130263   1.203   0.004  15.766 -0.7501  0.9763  0.6863
 6209SOL    HW230264   1.170   4.636  15.674 -0.7119  1.0925 -2.4084
 6210SOL     OW30265   3.874   0.536   7.477  0.0762 -0.4898  0.1753
 6210SOL    HW130266   3.915   0.603   7.532 -1.1377  0.0825  0.3808
 6210SOL    HW230267   3.782   0.560   7.486  0.5521  1.4864 -0.2431
 6211SOL     OW30268   2.526   1.512  11.059  0.1065  0.0686 -0.7088
 6211SOL    HW130269   2.586   1.537  10.989  0.5634 -2.9586 -1.3847
 6211SOL    HW230270   2.537   1.586  11.119 -0.1775 -0.2545 -0.2548
 6212SOL     OW30271   2.059   1.088   5.404 -0.3705  0.3855 -0.0709
 6212SOL    HW130272   2.096   1.000   5.402  0.5338  0.7559 -0.0258
 6212SOL    HW230273   1.986   1.076   5.464  0.5567  2.1678  1.4211
 6213SOL     OW30274   1.607   3.463   3.102 -0.1046 -0.6031  0.4380
 6213SOL    HW130275   1.583   3.386   3.154  2.4060 -1.4921  0.2638
 6213SOL    HW230276   1.531   3.472   3.045 -0.8224 -1.8450  1.2035
 6214SOL     OW30277   3.529   0.321   6.374 -0.0891 -0.5257  0.2678
 6214SOL    HW130278   3.513   0.226   6.377 -2.2641 -0.1357  0.6596
 6214SOL    HW230279   3.538   0.338   6.280  0.4832  1.5707  0.7095
 6215SOL     OW30280   0.040   3.681   1.793  0.3817  0.5220 -0.1493
 6215SOL    HW130281   0.026   3.587   1.798  0.5262  0.6468  2.2670
 6215SOL    HW230282   4.708   3.714   1.851  2.2116  0.8595  1.8218
 6216SOL     OW30283   3.554   4.270   2.578  0.0931 -0.1885  0.0142
 6216SOL    HW130284   3.574   4.229   2.662 -0.2305 -2.3482 -0.9865
 6216SOL    HW230285   3.567   4.206   2.509  1.0987  0.9759 -0.8846
 6217SOL     OW30286   1.686   0.024   5.305 -0.0069 -0.0837  0.7246
 6217SOL    HW130287   1.596   4.727   5.306  0.0724 -0.3372 -0.1668
 6217SOL    HW230288   1.728   4.709   5.236  0.7360  0.7092  0.5764
 6218SOL     OW30289   3.636   4.734   3.232  0.2902  0.0936  0.0433
 6218SOL    HW130290   3.677   4.660   3.187  1.9704  0.3393  1.1678
 6218SOL    HW230291   3.543   4.715   3.218 -0.0718 -0.6380  3.4503
 6219SOL     OW30292   3.852   4.240  10.105  0.5826 -0.2666 -0.3392
 6219SOL    HW130293   3.901   4.297  10.163 -0.3919 -0.2722  0.4939
 6219SOL    HW230294   3.877   4.156  10.143  2.4655  0.4858  0.0821
 6220SOL     OW30295   2.815   2.024   4.382 -0.6415  0.2025 -0.0526
 6220SOL    HW130296   2.740   2.030   4.442  0.7085  1.9388  1.4653
 6220SOL    HW230297   2.881   2.022   4.451 -0.7839  0.2154  0.0853
 6221SOL     OW30298   4.132   3.763   2.171  0.6527 -0.1559 -0.5985
 6221SOL    HW130299   4.163   3.698   2.234  0.3163  2.1373  1.9278
 6221SOL    HW230300   4.072   3.799   2.236  1.7705 -0.7249  0.7201
 6222SOL     OW30301   0.671   0.918   2.555  0.1892 -0.0602 -0.3791
 6222SOL    HW130302   0.707   0.974   2.486  0.4969  3.0048  2.2592
 6222SOL    HW230303   0.580   0.948   2.555  0.6176  1.2413  0.3844
 6223SOL     OW30304   1.113   0.784  10.054  0.4667 -0.1717 -0.6934
 6223SOL    HW130305   1.032   0.735  10.043  0.2385  0.0342  0.0551
 6223SOL    HW230306   1.135   0.795   9.962  1.0408  0.6836 -0.4481
 6224SOL     OW30307   1.333   1.991   6.831 -0.4060  0.3993 -0.1624
 6224SOL    HW130308   1.421   1.979   6.867  0.1934 -1.3348 -2.2050
 6224SOL    HW230309   1.313   2.084   6.840 -2.7569 -0.1112 -0.0976
 6225SOL     OW30310   0.660   3.408   2.714  0.7345  0.0815  1.1069
 6225SOL    HW130311   0.647   3.356   2.634  0.5678  2.3474 -0.3508
 6225SOL    HW230312   0.722   3.351   2.759  1.9575 -0.4203 -1.1746
 6226SOL     OW30313   0.271   0.620   4.986 -0.2748 -0.0073 -0.2506
 6226SOL    HW130314   0.321   0.626   4.905  0.9742 -2.4676  0.3615
 6226SOL    HW230315   0.188   0.587   4.952 -0.7609  0.9958 -0.0580
 6227SOL     OW30316   1.243   2.001   5.837 -0.2792 -0.9115 -0.5702
 6227SOL    HW130317   1.175   2.067   5.822 -1.1332 -1.2237  2.0008
 6227SOL    HW230318   1.330   2.036   5.823  0.2665 -2.4493 -1.0900
 6228SOL     OW30319   2.143   0.816  13.265 -0.1655  0.1310  0.1153
 6228SOL    HW130320   2.229   0.785  13.295 -0.2588 -0.4344 -0.2015
 6228SOL    HW230321   2.080   0.804  13.336 -1.5775 -2.8256 -1.6485
 6229SOL     OW30322   0.639   1.177   3.989  0.4459  0.0629  0.1529
 6229SOL    HW130323   0.577   1.117   4.030 -0.4592  0.3633 -0.7578
 6229SOL    HW230324   0.719   1.129   3.973  0.6504  1.5698 -3.2541
 6230SOL     OW30325   0.258   0.611  11.629 -0.0556  0.2492  0.6067
 6230SOL    HW130326   0.340   0.597  11.677 -1.2691  0.2233  2.6651
 6230SOL    HW230327   0.297   0.666  11.561  1.2266 -1.3397  0.0232
 6231SOL     OW30328   2.481   4.444   3.599 -0.1853  0.0691 -0.3121
 6231SOL    HW130329   2.385   4.444   3.599 -0.1821 -0.0718  1.9456
 6231SOL    HW230330   2.502   4.476   3.511  0.5912  1.3547  0.3331
 6232SOL     OW30331   1.295   1.944  14.978  0.1452  0.4479  0.2517
 6232SOL    HW130332   1.356   1.917  14.910 -0.4932 -2.3169  0.7890
 6232SOL    HW230333   1.213   1.899  14.954  0.0260  0.6763  0.2277
 6233SOL     OW30334   1.831   2.079  13.377 -0.1951  0.0751  0.1028
 6233SOL    HW130335   1.759   2.141  13.387 -0.7460 -0.7668  1.3213
 6233SOL    HW230336   1.783   2.012  13.330 -1.4203  1.7761 -1.0839
 6234SOL     OW30337   0.231   3.751   2.782 -0.1787 -0.2643  0.2467
 6234SOL    HW130338   0.175   3.802   2.840 -0.0207 -1.4549  1.4614
 6234SOL    HW230339   0.157   3.723   2.728  0.3461  2.4065 -1.8340
 6235SOL     OW30340   2.811   3.654   8.640  0.0950  0.4628  0.0529
 6235SOL    HW130341   2.766   3.730   8.677  0.7800  0.9646 -0.1388
 6235SOL    HW230342   2.903   3.677   8.656 -0.5132  0.9969  2.8671
 6236SOL     OW30343   1.700   2.368   8.559  0.0272 -0.2337 -0.8415
 6236SOL    HW130344   1.622   2.338   8.605 -1.1765  2.7866 -0.9581
 6236SOL    HW230345   1.688   2.462   8.544  0.2942 -0.1381 -0.4708
 6237SOL     OW30346   0.369   1.633   6.251 -0.0005 -0.0927 -0.0787
 6237SOL    HW130347   0.462   1.614   6.236 -0.1814 -0.0264 -1.2528
 6237SOL    HW230348   0.368   1.654   6.345 -0.4783  1.0804 -0.3489
 6238SOL     OW30349   0.635   4.557   6.557 -0.0369 -0.1421 -0.4810
 6238SOL    HW130350   0.564   4.493   6.551 -2.2350  2.0957  2.0318
 6238SOL    HW230351   0.612   4.622   6.490 -1.0814  0.9904  0.9994
 6239SOL     OW30352   0.725   2.995   2.696  0.2554 -0.5338  0.3191
 6239SOL    HW130353   0.791   2.964   2.758  0.3151 -1.9221 -0.4287
 6239SOL    HW230354   0.770   3.015   2.614 -1.8886 -2.1065 -1.2474
 6240SOL     OW30355   3.435   2.702   4.683 -0.0068  0.2243 -0.1269
 6240SOL    HW130356   3.474   2.691   4.596  3.1187 -0.0266  1.3132
 6240SOL    HW230357   3.422   2.797   4.687 -2.1024  0.0001 -1.6432
 6241SOL     OW30358   3.330   4.612   5.756 -0.1265 -0.1252 -0.5496
 6241SOL    HW130359   3.261   4.659   5.802  1.1156  1.7482 -0.5857
 6241SOL    HW230360   3.374   4.582   5.835 -3.0957  0.4935  1.3460
 6242SOL     OW30361   4.497   1.097   9.750  0.3726 -0.5343  0.1684
 6242SOL    HW130362   4.470   1.045   9.825  0.1122 -0.1107  0.3666
 6242SOL    HW230363   4.589   1.117   9.767  0.0390  0.9387  0.2045
 6243SOL     OW30364   1.181   2.504  14.538 -0.0403  0.3530  0.4509
 6243SOL    HW130365   1.158   2.428  14.484  3.8631 -1.4431  1.3444
 6243SOL    HW230366   1.139   2.487  14.623 -0.5556 -0.6078  0.0106
 6244SOL     OW30367   4.339   1.735  10.769  0.1260  0.1459  0.1036
 6244SOL    HW130368   4.386   1.652  10.774  1.3092  0.6716 -2.2335
 6244SOL    HW230369   4.369   1.782  10.847 -1.3714 -0.8518  1.2776
 6245SOL     OW30370   3.967   2.736   7.709 -0.1025 -0.1022  0.2393
 6245SOL    HW130371   3.978   2.645   7.680 -2.2082  0.0550 -1.0269
 6245SOL    HW230372   3.941   2.790   7.635 -2.5464 -1.3292  0.2024
 6246SOL     OW30373   0.463   3.717   0.902 -0.1663 -0.0686 -0.2505
 6246SOL    HW130374   0.519   3.681   0.833  0.7712 -0.3850  0.6842
 6246SOL    HW230375   0.482   3.810   0.911 -0.4206 -0.3366  3.2187
 6247SOL     OW30376   4.316   1.233   8.098 -0.0982 -0.7267 -0.5000
 6247SOL    HW130377   4.224   1.238   8.123 -0.2632  0.2498 -1.2575
 6247SOL    HW230378   4.309   1.276   8.012  3.7678 -0.3923 -0.6309
 6248SOL     OW30379   2.437   3.598   7.801  0.5177  0.2809 -0.1998
 6248SOL    HW130380   2.479   3.526   7.755 -0.5364 -0.0415 -0.6275
 6248SOL    HW230381   2.365   3.618   7.743 -1.1354 -2.8173  0.8013
 6249SOL     OW30382   2.710   4.671   6.060  0.4355 -0.3439  0.0495
 6249SOL    HW130383   2.718   4.728   6.136  1.7146  2.0964 -1.9088
 6249SOL    HW230384   2.658   4.722   5.998  0.9753  0.5873  0.3613
 6250SOL     OW30385   1.867   4.458   8.342  0.2117 -0.1232  0.5101
 6250SOL    HW130386   1.895   4.437   8.432 -0.2544 -0.4007  0.5863
 6250SOL    HW230387   1.860   4.369   8.308 -0.8545  0.5385 -0.9854
 6251SOL     OW30388   1.250   2.870   7.884  0.1675  0.2177 -0.6615
 6251SOL    HW130389   1.243   2.822   7.801 -1.2357  0.1356 -0.4965
 6251SOL    HW230390   1.307   2.938   7.850 -0.8076  1.6893  0.6641
 6252SOL     OW30391   4.293   3.784   7.275  0.0987 -0.0042  0.6652
 6252SOL    HW130392   4.293   3.807   7.368 -1.0367  0.9989  0.4055
 6252SOL    HW230393   4.201   3.805   7.259  0.7448  1.4789 -1.0641
 6253SOL     OW30394   1.360   2.878   1.349  0.7431  0.5295 -0.2985
 6253SOL    HW130395   1.440   2.928   1.330  0.4718  1.3631  0.7709
 6253SOL    HW230396   1.296   2.948   1.365  1.3823  0.9713  0.3046
 6254SOL     OW30397   1.700   2.715   7.739  0.0507 -0.9417  0.5311
 6254SOL    HW130398   1.660   2.628   7.736  0.4989 -1.0879 -1.3180
 6254SOL    HW230399   1.644   2.767   7.681 -0.3720  2.1031  3.7203
 6255SOL     OW30400   4.125   1.046   5.335  0.9771  0.1780 -0.0089
 6255SOL    HW130401   4.035   1.064   5.361  0.9707  0.5336 -0.2748
 6255SOL    HW230402   4.116   0.951   5.325  0.2969  0.5520 -2.8247
 6256SOL     OW30403   3.985   1.823   2.867 -0.5132  0.3299 -0.8537
 6256SOL    HW130404   3.975   1.826   2.962 -0.0877 -2.7343 -0.7344
 6256SOL    HW230405   3.902   1.857   2.833 -1.8715 -0.1892  1.9565
 6257SOL     OW30406   2.353   0.331   1.884  0.1119 -0.3663  0.7064
 6257SOL    HW130407   2.266   0.371   1.887  0.5074  0.5732 -0.3764
 6257SOL    HW230408   2.409   0.400   1.921  1.3991 -0.0596 -1.7698
 6258SOL     OW30409   3.726   0.812   7.351  0.2092 -0.3853 -0.2943
 6258SOL    HW130410   3.742   0.898   7.312  0.0985  0.0129  0.5495
 6258SOL    HW230411   3.657   0.834   7.413 -0.2946  1.6054 -1.5722
 6259SOL     OW30412   3.850   3.988   7.351 -0.5452 -0.0192  0.1283
 6259SOL    HW130413   3.805   3.933   7.416  0.0024 -1.6817 -0.9029
 6259SOL    HW230414   3.774   4.021   7.302 -0.4454 -0.9245 -0.6301
 6260SOL     OW30415   0.041   1.123   3.383 -0.2946 -0.2150  0.0327
 6260SOL    HW130416   4.710   1.138   3.318  0.5213 -0.6278 -0.9197
 6260SOL    HW230417   0.027   1.034   3.415 -0.7571 -0.8531 -1.9986
 6261SOL     OW30418   2.387   1.568   6.908 -0.4183  0.3851  0.1277
 6261SOL    HW130419   2.369   1.493   6.964  0.4638  0.3042  0.3002
 6261SOL    HW230420   2.322   1.554   6.839 -0.1667 -0.4534  0.0618
 6262SOL     OW30421   0.696   2.297   8.711  0.3279 -0.3084 -0.6795
 6262SOL    HW130422   0.740   2.264   8.633  0.4089 -1.6889 -0.0628
 6262SOL    HW230423   0.612   2.255   8.689  0.6876 -1.3803 -0.0360
 6263SOL     OW30424   3.193   4.143   7.715  0.8293 -0.0246 -0.3869
 6263SOL    HW130425   3.109   4.185   7.733 -0.3937 -2.3110 -0.7456
 6263SOL    HW230426   3.244   4.216   7.680 -1.0818  1.0577 -0.9126
 6264SOL     OW30427   1.781   3.090   9.353 -0.0950  0.0703  0.6349
 6264SOL    HW130428   1.790   3.186   9.346  0.7844 -0.0548 -0.0458
 6264SOL    HW230429   1.691   3.076   9.382 -0.4518  1.6391  0.3226
 6265SOL     OW30430   1.438   0.390   6.905 -0.1185 -0.2439 -0.3077
 6265SOL    HW130431   1.376   0.419   6.972 -1.1511 -2.2522 -0.3821
 6265SOL    HW230432   1.442   0.296   6.927  1.0084  0.3990  2.2280
 6266SOL     OW30433   1.610   2.453   1.546  0.6420 -0.0364 -0.1545
 6266SOL    HW130434   1.642   2.388   1.608  0.5566 -1.9713 -2.1305
 6266SOL    HW230435   1.694   2.498   1.538 -1.0075  3.1444  0.4164
 6267SOL     OW30436   0.932   3.800  10.151 -0.0980 -0.5582 -0.0090
 6267SOL    HW130437   1.010   3.847  10.180  0.8806 -2.1798 -0.0492
 6267SOL    HW230438   0.862   3.821  10.212 -0.0157 -0.0579 -0.0869
 6268SOL     OW30439   2.948   2.079   4.914 -0.1111 -0.2295 -0.0599
 6268SOL    HW130440   2.976   1.997   4.955  0.9053 -0.1914 -0.7123
 6268SOL    HW230441   2.852   2.084   4.920  0.1177  3.5971  0.0281
 6269SOL     OW30442   0.157   0.874  12.128 -0.2480 -0.1230  0.1953
 6269SOL    HW130443   0.101   0.842  12.198 -0.6447  0.1767  0.0148
 6269SOL    HW230444   0.092   0.907  12.065  1.7840  0.3636 -1.6723
 6270SOL     OW30445   4.585   4.311   8.115 -0.3640 -0.0315  0.4774
 6270SOL    HW130446   4.590   4.381   8.180 -1.6384  0.9046 -0.4207
 6270SOL    HW230447   4.677   4.287   8.106 -0.4722 -0.7879  1.4827
 6271SOL     OW30448   3.450   1.413   6.890  0.5754 -0.4968 -0.2271
 6271SOL    HW130449   3.464   1.358   6.968  0.9249  1.4767  1.1091
 6271SOL    HW230450   3.530   1.396   6.841  0.9739  1.0848 -0.1338
 6272SOL     OW30451   4.073   0.772  13.819 -0.2080 -0.5203 -0.3109
 6272SOL    HW130452   4.163   0.779  13.788  0.3474 -1.1634  1.2214
 6272SOL    HW230453   4.024   0.819  13.751  0.9204 -1.2015 -1.5925
 6273SOL     OW30454   1.354   0.078   4.751 -0.6000  0.1312  0.2079
 6273SOL    HW130455   1.375   4.731   4.709  3.5127  1.0922  0.3105
 6273SOL    HW230456   1.327   0.136   4.680  1.4550  0.9388  0.0793
 6274SOL     OW30457   0.868   4.686   8.511 -0.6303 -0.8015  0.4456
 6274SOL    HW130458   0.894   4.677   8.419 -3.1832 -1.1811 -0.2540
 6274SOL    HW230459   0.827   4.600   8.518 -2.1843 -0.1360 -0.5594
 6275SOL     OW30460   2.634   2.733   2.313  0.2667 -0.7722 -0.3606
 6275SOL    HW130461   2.566   2.754   2.377  2.2757  0.6385  1.2787
 6275SOL    HW230462   2.694   2.673   2.358  1.6504  2.4463  2.0428
 6276SOL     OW30463   2.934   0.231   1.036  0.0331 -0.1482  0.1776
 6276SOL    HW130464   2.934   0.278   0.953  0.8452  0.7141  0.6716
 6276SOL    HW230465   2.977   0.154   0.997  1.6672  1.2515 -0.8046
 6277SOL     OW30466   2.398   1.362   6.426 -0.0485  0.1569  0.3388
 6277SOL    HW130467   2.446   1.333   6.349 -0.0380  0.5629  0.1916
 6277SOL    HW230468   2.463   1.351   6.496  1.2595  1.7054 -0.6256
 6278SOL     OW30469   1.532   2.405   4.451  0.1625  0.0872 -0.2642
 6278SOL    HW130470   1.624   2.384   4.431 -0.3038 -1.7444 -0.5022
 6278SOL    HW230471   1.527   2.341   4.521 -2.1122 -1.5091 -1.8801
 6279SOL     OW30472   0.983   2.943   7.968  0.4592  0.2925  0.2294
 6279SOL    HW130473   1.008   2.990   8.048 -0.2621  0.8412  0.1371
 6279SOL    HW230474   1.063   2.958   7.918  1.0250 -1.6702  0.5719
 6280SOL     OW30475   2.663   1.998   6.850 -0.1578 -0.1891  0.2943
 6280SOL    HW130476   2.710   1.952   6.919  0.3018  1.7904  1.3133
 6280SOL    HW230477   2.598   1.933   6.822  0.7664 -1.0965  0.2772
 6281SOL     OW30478   0.443   4.386   6.835  0.2563 -0.2926  0.2191
 6281SOL    HW130479   0.433   4.478   6.860 -0.3556 -0.4759  0.6248
 6281SOL    HW230480   0.398   4.389   6.750  0.3166 -2.3309  0.1054
 6282SOL     OW30481   2.449   2.050   1.024  0.1285 -0.2807  0.1328
 6282SOL    HW130482   2.360   2.083   1.008  0.9999  2.4493  0.9354
 6282SOL    HW230483   2.478   2.111   1.091 -2.4871  1.1755 -0.0648
 6283SOL     OW30484   2.611   4.476   8.489 -0.6422 -0.2802 -0.3805
 6283SOL    HW130485   2.659   4.508   8.565 -1.3469  0.3607 -0.2057
 6283SOL    HW230486   2.615   4.382   8.506 -1.0641 -0.2419 -0.0677
 6284SOL     OW30487   4.076   2.943   8.807  0.1006  0.2648  0.6922
 6284SOL    HW130488   4.155   2.889   8.804 -1.9983 -2.8702  1.5281
 6284SOL    HW230489   4.060   2.956   8.900 -2.2725  1.8055  0.0616
 6285SOL     OW30490   0.735   0.701  14.385 -0.0182 -0.2980 -0.3921
 6285SOL    HW130491   0.815   0.650  14.391 -0.9415 -1.7472 -0.3262
 6285SOL    HW230492   0.710   0.710  14.477  0.8347  0.2823 -0.2287
 6286SOL     OW30493   2.512   3.886   6.619  0.1427  0.2758  0.2219
 6286SOL    HW130494   2.497   3.864   6.711 -0.3779  1.1931  0.3545
 6286SOL    HW230495   2.507   3.802   6.574 -1.9618  0.4430  0.1646
 6287SOL     OW30496   2.968   2.653   4.508  0.2062  0.5397  0.0033
 6287SOL    HW130497   2.896   2.598   4.475 -0.1070  1.7214 -1.2744
 6287SOL    HW230498   2.995   2.702   4.431 -1.1083 -1.7519 -1.9339
 6288SOL     OW30499   1.001   3.934   3.742 -0.1629 -0.0522 -0.3126
 6288SOL    HW130500   0.939   3.972   3.804  0.1143 -1.3756  0.7721
 6288SOL    HW230501   1.036   3.863   3.796  0.0476  1.4876  1.5595
 6289SOL     OW30502   3.859   2.056   4.822  0.1874  0.0351  0.4775
 6289SOL    HW130503   3.768   2.032   4.839  0.4040 -2.3340 -1.7010
 6289SOL    HW230504   3.868   2.141   4.865  0.5996  0.5745 -0.6617
 6290SOL     OW30505   0.214   0.254   8.090 -1.0482 -0.7104 -0.0203
 6290SOL    HW130506   0.120   0.246   8.069 -0.9531 -1.4744 -0.1658
 6290SOL    HW230507   0.220   0.340   8.132 -0.6060 -1.6145  1.7440
 6291SOL     OW30508   3.517   2.236   3.242 -0.1607 -0.6895  0.5823
 6291SOL    HW130509   3.473   2.237   3.327 -0.9930  2.3583  0.1036
 6291SOL    HW230510   3.452   2.192   3.187 -0.5732  0.7911 -0.0980
 6292SOL     OW30511   1.062   2.601   3.514  0.9540  0.3763 -0.2018
 6292SOL    HW130512   1.142   2.592   3.461  0.1906 -2.4557 -0.8740
 6292SOL    HW230513   1.095   2.575   3.600 -1.1974 -1.0468  0.1840
 6293SOL     OW30514   4.723   0.713   8.141  0.0006 -0.1615  0.1218
 6293SOL    HW130515   0.006   0.776   8.211  2.3711 -0.4394 -0.3140
 6293SOL    HW230516   4.629   0.722   8.126 -0.1211 -0.1399  0.8997
 6294SOL     OW30517   0.366   2.372   8.620  0.0639  0.0497  0.2087
 6294SOL    HW130518   0.329   2.357   8.533 -0.6964  0.2419  0.4940
 6294SOL    HW230519   0.419   2.293   8.630 -0.0731 -0.2132 -1.2188
 6295SOL     OW30520   3.006   0.322   3.343 -0.0350  0.2417 -0.7025
 6295SOL    HW130521   3.019   0.347   3.434 -0.3986  0.2870 -0.6661
 6295SOL    HW230522   2.945   0.392   3.319 -0.5649 -0.6629 -1.9598
 6296SOL     OW30523   0.633   3.825   6.815  0.1023 -0.3913 -0.6742
 6296SOL    HW130524   0.700   3.816   6.884  0.3216 -1.3890 -1.0180
 6296SOL    HW230525   0.689   3.809   6.739 -0.5270 -1.7709 -0.8417
 6297SOL     OW30526   4.351   1.811  10.500  0.8963  0.3662 -0.3466
 6297SOL    HW130527   4.300   1.734  10.474 -0.4567  0.4591  2.0148
 6297SOL    HW230528   4.354   1.788  10.593 -0.6266  0.9330 -0.1529
 6298SOL     OW30529   1.911   1.074  11.238 -0.5276  0.4846 -0.6381
 6298SOL    HW130530   2.000   1.062  11.272 -1.2926 -0.0747  1.1681
 6298SOL    HW230531   1.870   1.103  11.319 -0.1970 -0.2892 -0.1881
 6299SOL     OW30532   0.084   2.338  16.881  0.2938 -0.4866  0.3078
 6299SOL    HW130533   4.736   2.379  16.864 -0.9180 -2.3433  1.8188
 6299SOL    HW230534   0.076   2.309  16.972 -1.5908 -0.0840  0.2734
 6300SOL     OW30535   4.152   1.435   4.429 -0.2829  0.4355  0.2101
 6300SOL    HW130536   4.151   1.530   4.426  0.0970  0.4597  0.7531
 6300SOL    HW230537   4.243   1.424   4.458  0.1778 -2.5062 -2.3191
 6301SOL     OW30538   2.388   2.191  11.142  0.1780  0.3974  0.1075
 6301SOL    HW130539   2.465   2.237  11.175  1.3639 -0.9418 -0.8433
 6301SOL    HW230540   2.318   2.228  11.197 -1.1552 -0.8813 -0.7288
 6302SOL     OW30541   2.238   2.309   9.891 -0.3757 -0.6487 -0.1142
 6302SOL    HW130542   2.212   2.309   9.799 -0.6077 -3.7072 -0.0503
 6302SOL    HW230543   2.199   2.228   9.923  0.1901 -0.9019 -0.0574
 6303SOL     OW30544   0.687   4.280   0.542 -0.4862  0.7312 -0.6325
 6303SOL    HW130545   0.624   4.232   0.488  0.7537 -1.1636 -0.3544
 6303SOL    HW230546   0.715   4.211   0.602  0.0210 -1.3270 -3.2718
 6304SOL     OW30547   1.039   1.498   2.985 -0.1958 -0.0310  0.6231
 6304SOL    HW130548   0.951   1.470   3.010  0.3723 -2.2259  0.1576
 6304SOL    HW230549   1.086   1.478   3.067 -0.7965  0.2820  1.0455
 6305SOL     OW30550   1.106   0.436   3.844 -0.9265 -0.5185 -0.0655
 6305SOL    HW130551   1.151   0.494   3.782 -1.8722  0.8110  0.4939
 6305SOL    HW230552   1.149   0.456   3.927 -1.7122 -1.7056  0.6263
 6306SOL     OW30553   0.977   2.727  16.337  0.1339 -0.1244  0.1915
 6306SOL    HW130554   1.011   2.815  16.347  0.2670  0.0600 -2.0245
 6306SOL    HW230555   1.050   2.670  16.360 -0.5278 -1.5576 -1.2200
 6307SOL     OW30556   1.761   2.538   7.295  0.4789 -0.1714  0.0767
 6307SOL    HW130557   1.675   2.523   7.334 -0.9332 -1.1234 -3.3298
 6307SOL    HW230558   1.796   2.594   7.364 -0.8688 -0.0792  0.6819
 6308SOL     OW30559   4.060   2.068   8.601 -0.0620 -0.3373  0.1270
 6308SOL    HW130560   4.009   1.989   8.619 -0.2008  0.0292  1.3385
 6308SOL    HW230561   4.025   2.122   8.673 -1.1566 -2.0026  0.8394
 6309SOL     OW30562   1.678   3.645   3.297  0.3837 -0.1737 -0.4572
 6309SOL    HW130563   1.704   3.731   3.264 -2.2024  1.3681  1.4850
 6309SOL    HW230564   1.658   3.598   3.216 -0.3711  0.0578 -0.4041
 6310SOL     OW30565   0.164   4.497   5.721  0.2053  0.1686  0.3288
 6310SOL    HW130566   0.149   4.424   5.660 -1.1762  0.9671 -0.3009
 6310SOL    HW230567   0.089   4.556   5.709 -0.6613 -1.2145 -1.2740
 6311SOL     OW30568   1.855   1.463   2.207  0.0577 -0.1717  0.2394
 6311SOL    HW130569   1.872   1.545   2.162  1.4023 -0.4676  0.2094
 6311SOL    HW230570   1.941   1.449   2.246 -0.1215  1.5091  1.2092
 6312SOL     OW30571   2.740   3.055  15.470 -0.3876  0.1632 -0.5995
 6312SOL    HW130572   2.649   3.049  15.441 -1.3722  1.6536  2.0819
 6312SOL    HW230573   2.727   3.086  15.560  0.4660 -2.0759  0.2899
 6313SOL     OW30574   0.420   3.482  14.191  0.1548  0.1592 -0.0693
 6313SOL    HW130575   0.468   3.419  14.245 -1.0969 -2.4162 -1.9589
 6313SOL    HW230576   0.493   3.543  14.179 -0.4111  0.7393 -0.5517
 6314SOL     OW30577   1.511   2.051   8.660 -0.2530  0.2670  0.3938
 6314SOL    HW130578   1.531   1.995   8.735  2.7814 -1.4024 -1.6505
 6314SOL    HW230579   1.495   2.136   8.701  1.2228  1.7986 -2.2215
 6315SOL     OW30580   3.113   0.582   6.998  0.6432  0.8642 -0.8596
 6315SOL    HW130581   3.137   0.607   7.087  0.8534  0.2051 -0.7297
 6315SOL    HW230582   3.148   0.494   6.985 -1.7203 -0.2017 -0.1294
 6316SOL     OW30583   2.178   2.135   2.803 -0.0832 -0.1422 -0.1351
 6316SOL    HW130584   2.164   2.169   2.891  0.4132  0.0169 -0.1194
 6316SOL    HW230585   2.193   2.042   2.820 -1.9590 -0.5108 -0.4485
 6317SOL     OW30586   4.422   0.342   7.612  0.4878  0.2476 -0.5331
 6317SOL    HW130587   4.454   0.355   7.523  1.0461  0.5260 -0.2915
 6317SOL    HW230588   4.331   0.319   7.592  0.9388 -0.9849 -1.1372
 6318SOL     OW30589   2.938   3.726  14.984  0.3320  0.0962 -0.2758
 6318SOL    HW130590   2.915   3.643  14.943 -0.2044  0.1799 -0.1445
 6318SOL    HW230591   3.003   3.690  15.045  1.2097  0.6230 -0.9028
 6319SOL     OW30592   1.810   2.659  11.202 -0.2221 -0.0002 -0.6072
 6319SOL    HW130593   1.884   2.706  11.164 -0.2320  2.2862  2.1818
 6319SOL    HW230594   1.734   2.717  11.197 -0.0561  0.1817 -0.9943
 6320SOL     OW30595   3.669   2.796   7.340 -0.0686 -0.4691 -0.0888
 6320SOL    HW130596   3.740   2.804   7.403 -0.4337  0.7509  0.1672
 6320SOL    HW230597   3.714   2.848   7.273 -0.9023  1.3997  0.7990
 6321SOL     OW30598   1.934   2.543  14.955  0.0962  0.2395  0.0350
 6321SOL    HW130599   1.922   2.535  14.860  0.6359  1.0233 -0.0950
 6321SOL    HW230600   1.992   2.619  14.952 -0.1676  0.4483  0.1838
 6322SOL     OW30601   3.922   3.627   7.024  0.1915 -0.2843  0.4488
 6322SOL    HW130602   3.977   3.679   7.082 -1.2294 -0.0768  1.6184
 6322SOL    HW230603   3.970   3.621   6.942  0.2239 -0.4178  0.4762
 6323SOL     OW30604   4.600   2.450  16.732 -0.1170 -0.1486  0.4771
 6323SOL    HW130605   4.580   2.370  16.682  1.0503 -1.3323  1.8909
 6323SOL    HW230606   4.508   2.471  16.747 -1.1710 -2.3472 -2.7218
 6324SOL     OW30607   2.194   0.592   7.240 -0.2689  0.5451  0.2726
 6324SOL    HW130608   2.262   0.526   7.232  0.2971  1.4616 -2.2404
 6324SOL    HW230609   2.180   0.579   7.334 -1.7129  0.2240  0.0201
 6325SOL     OW30610   0.043   4.103   3.729  0.0262  0.0859 -0.3603
 6325SOL    HW130611   4.692   4.075   3.753 -0.3448  2.0752  0.5583
 6325SOL    HW230612   0.075   4.128   3.816 -0.9548 -2.1477  0.6519
 6326SOL     OW30613   1.924   3.941   6.439  0.5513 -0.4150 -0.1535
 6326SOL    HW130614   1.900   3.884   6.366 -0.5831  2.5339 -2.0789
 6326SOL    HW230615   2.020   3.937   6.436  0.6173 -0.0931  1.4239
 6327SOL     OW30616   0.543   2.035  14.179 -0.7868  0.0210 -0.1476
 6327SOL    HW130617   0.597   1.967  14.220  1.6400  1.0062 -1.7137
 6327SOL    HW230618   0.582   2.037  14.092  2.1499 -1.3464  1.1542
 6328SOL     OW30619   4.204   1.155   4.653 -0.4526  0.1079 -0.0642
 6328SOL    HW130620   4.267   1.196   4.593  0.9185 -0.5364  0.9212
 6328SOL    HW230621   4.140   1.115   4.596 -1.3593  3.1493 -1.1882
 6329SOL     OW30622   3.796   1.656   7.085 -0.4917  0.0864 -0.8693
 6329SOL    HW130623   3.723   1.691   7.137 -1.1811 -0.6587 -1.3495
 6329SOL    HW230624   3.821   1.735   7.037  0.1972  0.0092 -0.6449
 6330SOL     OW30625   2.024   2.042  12.730 -0.4454  0.3479 -0.0199
 6330SOL    HW130626   1.980   1.993  12.660  0.1466  0.4257 -0.4421
 6330SOL    HW230627   2.100   1.990  12.755 -0.8519  0.3109  1.1140
 6331SOL     OW30628   4.358   3.235   5.882 -0.3172  0.2855 -0.1980
 6331SOL    HW130629   4.317   3.168   5.828  1.0099 -1.7621  1.3233
 6331SOL    HW230630   4.394   3.295   5.817  0.3692  0.3637  0.2641
 6332SOL     OW30631   0.315   2.646   7.881  0.0789  0.3126 -0.3676
 6332SOL    HW130632   0.396   2.645   7.932  0.7808  0.1078 -1.4963
 6332SOL    HW230633   0.256   2.625   7.954 -0.2491  0.8728 -0.4705
 6333SOL     OW30634   1.341   0.628  11.255  0.1044  0.3163  0.4215
 6333SOL    HW130635   1.349   0.632  11.160 -1.0600  0.2681  0.3193
 6333SOL    HW230636   1.387   0.545  11.268  0.4016 -0.0530 -2.9213
 6334SOL     OW30637   1.444   1.200   5.609  0.4661  0.0701 -0.1582
 6334SOL    HW130638   1.524   1.178   5.655  0.4119  1.5362  0.6533
 6334SOL    HW230639   1.381   1.173   5.676  0.9116 -1.4042 -0.3426
 6335SOL     OW30640   1.738   0.980   0.188 -1.0749  1.0335  0.2129
 6335SOL    HW130641   1.759   0.942   0.273 -1.1129  2.8587  1.0414
 6335SOL    HW230642   1.823   0.973   0.145 -2.1258 -1.0245 -1.5112
 6336SOL     OW30643   2.916   2.930   7.690  0.6056 -0.0785 -0.2956
 6336SOL    HW130644   2.937   2.847   7.731 -1.6674 -0.7660 -0.5324
 6336SOL    HW230645   2.885   2.898   7.605 -0.9897  2.9404 -0.8934
 6337SOL     OW30646   2.440   3.963   7.567 -0.1047 -0.4742  0.0034
 6337SOL    HW130647   2.379   4.019   7.615  0.2060 -0.3542  0.2533
 6337SOL    HW230648   2.524   4.000   7.593 -1.7603  0.8781  3.4454
 6338SOL     OW30649   0.404   2.687  15.363 -0.0207 -0.0185 -0.3436
 6338SOL    HW130650   0.446   2.773  15.360 -0.6816  0.3420  0.6934
 6338SOL    HW230651   0.375   2.669  15.273  0.3681 -3.2367  0.1599
 6339SOL     OW30652   0.460   3.084   3.331  0.2510 -0.6037 -0.2948
 6339SOL    HW130653   0.386   3.110   3.388 -1.1794 -3.2680 -0.9413
 6339SOL    HW230654   0.501   3.014   3.382  1.7244  0.1949 -0.3803
 6340SOL     OW30655   0.234   0.764   5.327  0.2107  0.9663  0.0853
 6340SOL    HW130656   0.318   0.809   5.337  1.4956 -1.6451  1.2927
 6340SOL    HW230657   0.256   0.674   5.353  2.6583  1.5950  0.2282
 6341SOL     OW30658   0.968   4.175  12.244 -0.5402 -0.3757 -0.6655
 6341SOL    HW130659   1.063   4.186  12.249 -0.5839 -0.6946  0.9361
 6341SOL    HW230660   0.954   4.203  12.154 -2.7164 -2.5725 -1.0061
 6342SOL     OW30661   0.511   0.516  12.977  0.7915 -0.3476 -0.4232
 6342SOL    HW130662   0.458   0.455  12.926  1.2091  0.1752 -1.4721
 6342SOL    HW230663   0.498   0.494  13.070  0.6498 -0.8760 -0.5697
 6343SOL     OW30664   2.353   0.149  16.491 -0.9505 -0.7487  0.2417
 6343SOL    HW130665   2.417   0.082  16.519 -1.2327 -2.4516 -3.0790
 6343SOL    HW230666   2.403   0.203  16.430 -2.6602  0.4375 -0.0982
 6344SOL     OW30667   3.673   0.182  15.320  0.2415  0.1112 -0.3935
 6344SOL    HW130668   3.755   0.143  15.349 -0.0603 -1.1794 -1.2995
 6344SOL    HW230669   3.647   0.231  15.398  0.5486 -1.0174  0.4130
 6345SOL     OW30670   0.044   2.402   3.854  0.5568 -0.0260  0.0506
 6345SOL    HW130671   0.035   2.356   3.937  0.4898  1.0250  0.6194
 6345SOL    HW230672   0.065   2.337   3.787 -0.0290  0.5416 -0.6869
 6346SOL     OW30673   0.610   4.107   5.494  0.9985 -0.4153  0.3675
 6346SOL    HW130674   0.661   4.034   5.530  1.4410 -0.4348 -0.3063
 6346SOL    HW230675   0.680   4.171   5.483 -0.8118  1.3091 -1.0477
 6347SOL     OW30676   2.945   2.027   7.908  0.4906 -0.1046  0.5044
 6347SOL    HW130677   3.023   2.074   7.878 -1.4746  2.1380 -1.0852
 6347SOL    HW230678   2.925   2.076   7.987  0.9724  0.9096  0.0126
 6348SOL     OW30679   2.339   0.222   7.025 -0.0304 -0.0685 -0.3709
 6348SOL    HW130680   2.249   0.191   7.025 -0.5811  1.5378  1.1788
 6348SOL    HW230681   2.336   0.294   7.088  0.4115  0.3207 -0.7878
 6349SOL     OW30682   3.003   2.310   4.456  0.1977  0.1602 -0.4578
 6349SOL    HW130683   3.009   2.300   4.361  0.0018  0.2587 -0.4794
 6349SOL    HW230684   3.047   2.230   4.484 -0.9980 -0.6919 -1.0123
 6350SOL     OW30685   4.353   1.032   9.295 -0.1168 -0.1194  0.0224
 6350SOL    HW130686   4.412   0.958   9.279  2.3841  1.6183  1.3025
 6350SOL    HW230687   4.271   0.985   9.313  0.1210 -1.1555 -1.6128
 6351SOL     OW30688   2.680   2.001   0.482 -0.3120 -0.5877  0.4842
 6351SOL    HW130689   2.694   2.095   0.496  1.2008 -0.7857  0.3447
 6351SOL    HW230690   2.610   2.011   0.418  0.0118 -1.4214  0.0065
 6352SOL     OW30691   1.230   2.900   5.162 -0.6264  0.1372  0.0629
 6352SOL    HW130692   1.207   2.986   5.127 -2.0960 -1.0331 -1.8122
 6352SOL    HW230693   1.213   2.917   5.255  2.0091 -0.3557  0.6490
 6353SOL     OW30694   0.983   0.447   8.188 -0.1178 -0.0148 -0.3259
 6353SOL    HW130695   0.997   0.542   8.180 -0.6812  0.1078  0.2131
 6353SOL    HW230696   0.957   0.438   8.279 -0.6434 -0.1822 -0.4926
 6354SOL     OW30697   4.401   2.722  15.203 -0.5224 -0.1917  0.2656
 6354SOL    HW130698   4.463   2.681  15.143 -2.3872 -0.0265 -1.8032
 6354SOL    HW230699   4.371   2.800  15.156  1.5342 -0.4073 -1.4143
 6355SOL     OW30700   1.271   2.565   8.361  0.4170  0.4555  0.1939
 6355SOL    HW130701   1.188   2.609   8.343  0.7986  1.9769  2.1850
 6355SOL    HW230702   1.237   2.480   8.390  0.3591 -0.1179 -1.5644
 6356SOL     OW30703   4.637   3.086   8.441  0.7558 -0.0283 -0.0643
 6356SOL    HW130704   4.577   3.014   8.422 -0.3137  1.2832 -1.6225
 6356SOL    HW230705   4.581   3.156   8.473  1.3450  0.2415  0.3766
 6357SOL     OW30706   3.385   1.146   4.131  0.1309 -0.2210  0.8873
 6357SOL    HW130707   3.352   1.221   4.081  1.2212  2.3121  3.8783
 6357SOL    HW230708   3.338   1.074   4.091  0.0173 -0.0784  0.7633
 6358SOL     OW30709   4.703   1.114  12.203 -0.6106 -0.0039 -0.3530
 6358SOL    HW130710   4.703   1.119  12.299 -1.4880  2.1785 -0.4798
 6358SOL    HW230711   4.623   1.063  12.190 -0.6675  0.2046 -0.7846
 6359SOL     OW30712   4.312   4.662   1.450 -0.5528 -0.8191  0.3470
 6359SOL    HW130713   4.316   0.017   1.477 -2.5044 -0.4763 -0.5235
 6359SOL    HW230714   4.293   4.675   1.357  0.4552  2.9226  0.6749
 6360SOL     OW30715   3.327   4.477   6.425 -0.4888 -0.5445 -0.6211
 6360SOL    HW130716   3.266   4.440   6.490  0.1390 -1.5633 -0.6139
 6360SOL    HW230717   3.265   4.494   6.354  0.2624  2.6281 -0.5121
 6361SOL     OW30718   3.503   0.578   7.798 -0.0404 -0.9590 -0.9946
 6361SOL    HW130719   3.454   0.626   7.864 -0.2414 -1.1015 -1.0404
 6361SOL    HW230720   3.555   0.647   7.757 -0.8358  0.0215 -0.3519
 6362SOL     OW30721   1.851   0.503   6.484 -0.5614  0.1084  0.4990
 6362SOL    HW130722   1.873   0.423   6.531 -2.2451 -1.2181 -1.0057
 6362SOL    HW230723   1.830   0.559   6.559  1.3457  0.5829  0.6997
 6363SOL     OW30724   0.409   0.806   3.366  0.5998  0.0292  0.1692
 6363SOL    HW130725   0.397   0.712   3.354  0.6376 -0.1046  1.2094
 6363SOL    HW230726   0.343   0.830   3.431 -2.0836  2.4501 -3.4100
 6364SOL     OW30727   0.185   0.345  10.522  0.4041 -0.7515 -0.5221
 6364SOL    HW130728   0.149   0.426  10.558  0.3036 -2.1106  2.3882
 6364SOL    HW230729   0.118   0.286  10.557 -0.4608  1.0318  0.7927
 6365SOL     OW30730   0.991   3.088   3.474 -0.3103  0.7724 -0.0299
 6365SOL    HW130731   0.929   3.058   3.407  0.5999 -0.1518 -0.4549
 6365SOL    HW230732   0.998   3.007   3.524  0.7750  0.7916 -0.1531
 6366SOL     OW30733   2.651   3.962   1.523 -0.4848 -0.2387 -0.4145
 6366SOL    HW130734   2.654   4.056   1.542 -0.2804 -0.4953  0.8237
 6366SOL    HW230735   2.743   3.938   1.538 -0.1681  0.8631 -0.5242
 6367SOL     OW30736   1.505   3.137  10.696  0.3596  0.9113  0.6128
 6367SOL    HW130737   1.574   3.082  10.734 -0.6405 -0.3866  0.5213
 6367SOL    HW230738   1.523   3.118  10.603 -0.9044  1.8576  0.1824
 6368SOL     OW30739   0.175   3.878   4.748 -0.3874 -0.1588  0.2773
 6368SOL    HW130740   0.222   3.943   4.695  0.2808 -2.1035 -1.5145
 6368SOL    HW230741   0.197   3.800   4.697  0.1962  0.0312  0.2339
 6369SOL     OW30742   3.364   1.584  11.653  0.6612  0.1092  0.2887
 6369SOL    HW130743   3.391   1.541  11.735  0.4565  2.9780  1.8878
 6369SOL    HW230744   3.343   1.510  11.596 -0.8738  0.6194  0.2021
 6370SOL     OW30745   0.073   1.165   4.627  0.4173  0.1577  0.1798
 6370SOL    HW130746   0.023   1.176   4.546  1.2342  3.1335  0.0598
 6370SOL    HW230747   0.010   1.189   4.694 -0.9473 -0.6000 -0.8393
 6371SOL     OW30748   1.425   2.210   3.628 -0.1376  0.1621 -0.0031
 6371SOL    HW130749   1.458   2.299   3.613 -1.1547  0.2573 -1.6704
 6371SOL    HW230750   1.455   2.189   3.717  0.1492 -1.1952 -0.4202
 6372SOL     OW30751   3.419   1.947   3.208  0.0210 -0.3288  0.0306
 6372SOL    HW130752   3.332   1.988   3.204 -0.6371 -1.5527  2.3943
 6372SOL    HW230753   3.406   1.883   3.277 -0.0925 -1.3242 -0.9059
 6373SOL     OW30754   1.969   4.452   3.102  0.0656  0.8948  0.1598
 6373SOL    HW130755   2.044   4.509   3.117  1.3751 -0.5377 -0.8866
 6373SOL    HW230756   1.915   4.476   3.177  0.5374  0.6076  0.5918
 6374SOL     OW30757   0.985   3.378   4.212  0.0990 -0.3413  0.8411
 6374SOL    HW130758   0.971   3.327   4.292  1.0100 -0.3658  0.9801
 6374SOL    HW230759   1.040   3.443   4.257  1.0002  0.3713 -1.3087
 6375SOL     OW30760   2.305   3.236   2.221  0.1330  0.2527  0.4984
 6375SOL    HW130761   2.372   3.182   2.180 -1.9180  0.4496 -3.0779
 6375SOL    HW230762   2.246   3.265   2.151  0.4308 -0.8187 -0.1971
 6376SOL     OW30763   0.804   0.358   7.434 -0.1424  0.4742  0.1539
 6376SOL    HW130764   0.899   0.359   7.446 -0.2828  0.1466  1.2677
 6376SOL    HW230765   0.795   0.314   7.349 -0.6369  0.9536 -0.0483
 6377SOL     OW30766   0.407   1.018  13.376 -0.2357  0.4803 -0.0634
 6377SOL    HW130767   0.471   1.083  13.402 -0.6207  0.9641 -0.3328
 6377SOL    HW230768   0.417   1.036  13.282  0.3449 -0.6141 -0.2130
 6378SOL     OW30769   4.406   1.279   3.877  0.1229  0.6208  0.0809
 6378SOL    HW130770   4.410   1.285   3.973  0.8797  1.9633 -0.0330
 6378SOL    HW230771   4.410   1.368   3.844 -2.1903  0.0716 -1.6454
 6379SOL     OW30772   0.860   1.093   0.761 -0.0382 -0.1645  0.0522
 6379SOL    HW130773   0.785   1.145   0.734 -0.0076  0.5544  1.3375
 6379SOL    HW230774   0.874   1.125   0.850  0.0954 -0.8148  0.2687
 6380SOL     OW30775   0.539   4.205   5.807 -0.4125 -0.8136  0.2011
 6380SOL    HW130776   0.474   4.265   5.843 -0.1784  0.0209 -0.7844
 6380SOL    HW230777   0.602   4.256   5.756 -1.5272 -0.5630 -0.9065
 6381SOL     OW30778   0.624   4.405  16.097 -0.3281  0.3449 -0.8891
 6381SOL    HW130779   0.535   4.409  16.062 -1.5615  1.2493  2.4254
 6381SOL    HW230780   0.653   4.492  16.068 -1.0059  1.3550  1.4676
 6382SOL     OW30781   4.196   2.839   5.212  0.2381 -0.3133  0.1065
 6382SOL    HW130782   4.129   2.772   5.226 -1.1515  1.1621  0.3476
 6382SOL    HW230783   4.172   2.913   5.267  1.6042  0.5951 -0.5056
 6383SOL     OW30784   0.092   4.561   8.614 -0.0523  0.2160 -0.1672
 6383SOL    HW130785   0.041   4.481   8.598  0.4142 -0.3407  1.1374
 6383SOL    HW230786   0.097   4.558   8.710 -0.0995  1.3614 -0.1326
 6384SOL     OW30787   1.297   1.076  13.486 -0.7625  0.3317  0.1044
 6384SOL    HW130788   1.377   1.041  13.446  0.2815  2.1353  0.6183
 6384SOL    HW230789   1.233   1.020  13.442  1.3579 -1.2066 -1.0495
 6385SOL     OW30790   2.836   3.733   2.043 -0.0197  0.0146  0.1066
 6385SOL    HW130791   2.820   3.698   2.130 -0.5875 -1.7511 -0.7116
 6385SOL    HW230792   2.932   3.732   2.047  0.0117 -0.0789 -0.6144
 6386SOL     OW30793   1.686   0.336   8.100 -0.3002  0.6690  0.0835
 6386SOL    HW130794   1.595   0.350   8.128 -0.7389 -0.6778 -0.6613
 6386SOL    HW230795   1.699   0.244   8.123 -0.6743  0.9333  1.3644
 6387SOL     OW30796   0.497   3.893   4.241  0.4517  0.0083 -0.6684
 6387SOL    HW130797   0.564   3.961   4.241 -0.2682  0.7278  0.5878
 6387SOL    HW230798   0.536   3.829   4.301  1.5586  0.8481 -0.5016
 6388SOL     OW30799   2.145   4.033   4.132 -0.0889 -0.2983 -0.3104
 6388SOL    HW130800   2.062   3.999   4.166  0.7765 -1.5545  0.5959
 6388SOL    HW230801   2.160   4.112   4.184 -2.2189 -0.3600  0.4202
 6389SOL     OW30802   1.282   0.173   3.360  0.3030 -0.0332  0.2177
 6389SOL    HW130803   1.233   0.239   3.410  0.2870 -0.1835  0.4010
 6389SOL    HW230804   1.213   0.108   3.349 -0.7232  1.1897 -0.5289
 6390SOL     OW30805   1.010   0.828  14.095 -0.0552  0.1662  0.5408
 6390SOL    HW130806   0.939   0.891  14.081  0.6359  1.1037  1.2828
 6390SOL    HW230807   1.037   0.863  14.180  1.2032  2.7016 -0.9057
 6391SOL     OW30808   1.544   4.434   3.281 -0.5000  0.1021 -0.2410
 6391SOL    HW130809   1.471   4.387   3.320  0.2352  0.3235  1.4017
 6391SOL    HW230810   1.510   4.463   3.196 -0.3985 -0.2751 -0.4104
 6392SOL     OW30811   3.184   1.834   8.446  0.4313  0.0209  0.4552
 6392SOL    HW130812   3.133   1.914   8.453  1.3236  0.5554  0.7921
 6392SOL    HW230813   3.129   1.798   8.376  0.5423 -0.4819  0.6271
 6393SOL     OW30814   2.702   1.075   8.633  0.4170 -0.3827 -0.2668
 6393SOL    HW130815   2.627   1.078   8.692 -0.0668 -1.3648 -0.8530
 6393SOL    HW230816   2.658   1.023   8.567 -1.0582 -0.1354  0.5192
 6394SOL     OW30817   1.728   4.572   1.816  0.8355  0.6442  0.3340
 6394SOL    HW130818   1.688   4.621   1.888 -2.8728 -0.1909 -1.1838
 6394SOL    HW230819   1.698   4.482   1.827 -0.2388  0.6920 -2.1264
 6395SOL     OW30820   4.091   0.562   3.632  1.2670  0.0041  0.3714
 6395SOL    HW130821   4.060   0.581   3.720  1.7560  0.7935  0.3646
 6395SOL    HW230822   4.113   0.653   3.612 -1.9673  0.3472 -1.8204
 6396SOL     OW30823   1.302   0.471   7.474  0.0643 -0.0002  0.1332
 6396SOL    HW130824   1.383   0.522   7.480  1.3330 -1.7878 -1.4574
 6396SOL    HW230825   1.241   0.543   7.487  0.7082  1.1479 -3.1103
 6397SOL     OW30826   0.343   0.760   7.048  0.4890  0.1565 -0.3346
 6397SOL    HW130827   0.379   0.691   6.991 -1.8126  2.2121 -4.2886
 6397SOL    HW230828   0.258   0.782   7.010 -0.0560  2.1159  2.0627
 6398SOL     OW30829   0.042   0.965   6.692 -0.5264 -0.5594 -0.0002
 6398SOL    HW130830   0.088   1.049   6.680 -1.1520 -0.2239 -0.0546
 6398SOL    HW230831   0.086   0.908   6.629 -0.6829 -2.2103  1.3881
 6399SOL     OW30832   3.097   3.424  13.904 -0.3438 -0.1860 -0.0227
 6399SOL    HW130833   3.180   3.471  13.899  0.1433 -1.1593 -0.9540
 6399SOL    HW230834   3.119   3.338  13.869  0.0399  0.0022 -0.2378
 6400SOL     OW30835   3.405   0.396  11.805 -0.0150  0.3603  0.4529
 6400SOL    HW130836   3.404   0.333  11.734  0.2251 -0.4663  1.1804
 6400SOL    HW230837   3.479   0.372  11.861  1.3273  0.4268 -1.3048
 6401SOL     OW30838   0.561   4.052   0.432 -0.1670  0.2719  0.0693
 6401SOL    HW130839   0.576   3.977   0.374  1.6142  0.0205  0.8329
 6401SOL    HW230840   0.468   4.042   0.452 -0.5016  3.3875 -0.0414
 6402SOL     OW30841   3.518   3.247   6.758  0.4612  0.4005 -0.1612
 6402SOL    HW130842   3.612   3.245   6.741  0.3468 -2.1696 -0.5755
 6402SOL    HW230843   3.502   3.248   6.852  2.1675 -0.7529  0.1428
 6403SOL     OW30844   1.542   4.379   5.466  0.0602 -0.1186 -0.5102
 6403SOL    HW130845   1.522   4.320   5.539 -1.4749 -0.3036 -1.0991
 6403SOL    HW230846   1.608   4.444   5.492 -0.3968  0.5901 -1.1325
 6404SOL     OW30847   3.922   1.506   8.195 -0.0021 -0.3228  0.3632
 6404SOL    HW130848   3.885   1.531   8.111  3.1127 -1.0287 -1.2218
 6404SOL    HW230849   3.846   1.491   8.251 -0.4757 -1.2050 -0.5212
 6405SOL     OW30850   4.296   3.299   2.769 -0.2927 -0.2275  0.0998
 6405SOL    HW130851   4.338   3.229   2.819 -1.4139 -0.7686  0.2708
 6405SOL    HW230852   4.243   3.339   2.839  0.9340  0.7678  0.4636
 6406SOL     OW30853   2.226   0.736   4.728  0.5820  0.6769  0.4153
 6406SOL    HW130854   2.193   0.742   4.638 -1.8335 -0.5780  1.2061
 6406SOL    HW230855   2.218   0.829   4.749  1.4763  0.8454 -0.0144
 6407SOL     OW30856   2.068   4.508  12.675 -0.5699  0.3462 -0.0940
 6407SOL    HW130857   2.099   4.431  12.628 -1.0981  1.5573 -2.4118
 6407SOL    HW230858   2.092   4.581  12.617 -1.5700 -0.0293 -0.9635
 6408SOL     OW30859   3.737   3.071  12.478  0.1797 -0.4728  0.3011
 6408SOL    HW130860   3.674   3.030  12.419  1.5636 -1.5094 -0.4580
 6408SOL    HW230861   3.804   3.069  12.409 -1.1878  0.6937 -1.0651
 6409SOL     OW30862   0.317   2.894   8.642  0.0276 -0.0893  0.2453
 6409SOL    HW130863   0.288   2.803   8.631 -0.3293 -0.0172  0.5838
 6409SOL    HW230864   0.274   2.923   8.722  1.5726  3.3216 -0.1820
 6410SOL     OW30865   4.115   0.462   7.618 -0.7816  0.4000 -0.3368
 6410SOL    HW130866   4.140   0.387   7.671 -2.0955  0.6026  0.5978
 6410SOL    HW230867   4.024   0.441   7.598 -1.0131  1.9593 -0.9775
 6411SOL     OW30868   2.766   3.493   4.333 -0.3970  0.2844 -0.0446
 6411SOL    HW130869   2.808   3.579   4.333 -0.6278  0.3957 -0.6746
 6411SOL    HW230870   2.741   3.484   4.425  0.7535  1.1497  0.3645
 6412SOL     OW30871   4.520   1.005   2.882  0.2400  0.3202 -0.3702
 6412SOL    HW130872   4.580   1.016   2.808  2.1817 -2.2153  0.8614
 6412SOL    HW230873   4.436   0.983   2.842 -0.0072  1.0114 -0.2316
 6413SOL     OW30874   0.278   1.194  13.545  0.3174  0.1928 -0.4496
 6413SOL    HW130875   0.229   1.113  13.552 -1.4791  1.3647  0.5772
 6413SOL    HW230876   0.325   1.181  13.463  1.8467  0.4005  0.3880
 6414SOL     OW30877   3.447   4.410   3.183 -0.9292  0.0466  0.1279
 6414SOL    HW130878   3.416   4.498   3.163 -0.3384  0.8890  2.8193
 6414SOL    HW230879   3.385   4.357   3.132  0.3141 -0.6110 -0.6873
 6415SOL     OW30880   0.573   2.980   4.831 -0.3823 -0.0535  0.2356
 6415SOL    HW130881   0.541   2.936   4.753  2.9921 -1.3522 -0.4061
 6415SOL    HW230882   0.587   2.901   4.884 -1.4675 -0.3034  0.1475
 6416SOL     OW30883   3.572   2.498   5.553  0.2557  0.2298 -0.2213
 6416SOL    HW130884   3.573   2.570   5.617 -4.1337 -0.2307  0.4055
 6416SOL    HW230885   3.559   2.546   5.471  1.2667 -0.2714 -0.6671
 6417SOL     OW30886   2.000   2.297   6.547 -0.1888  0.0812  0.4891
 6417SOL    HW130887   2.042   2.354   6.611 -0.8639 -1.6464  2.4786
 6417SOL    HW230888   2.052   2.299   6.467  1.5472  0.6781  1.6425
 6418SOL     OW30889   3.461   4.151   2.309 -0.4081 -0.1665 -0.0557
 6418SOL    HW130890   3.383   4.158   2.254  0.5303 -0.7820 -1.4557
 6418SOL    HW230891   3.507   4.231   2.285  0.1862 -0.2649  0.7586
 6419SOL     OW30892   4.490   2.766   4.875  0.2067  0.2701 -0.1692
 6419SOL    HW130893   4.451   2.808   4.952 -2.7444 -0.9057 -1.0367
 6419SOL    HW230894   4.576   2.809   4.872 -0.0389  0.7360 -0.3008
 6420SOL     OW30895   4.414   1.280   4.512 -0.0852 -0.8169  0.1611
 6420SOL    HW130896   4.446   1.363   4.476  2.5399 -1.9026 -0.0440
 6420SOL    HW230897   4.462   1.212   4.464  0.5497 -0.6340  0.5287
 6421SOL     OW30898   3.580   0.269   8.053  0.1327 -0.7873  0.9070
 6421SOL    HW130899   3.517   0.222   7.998 -0.6462 -0.8932  1.8897
 6421SOL    HW230900   3.524   0.285   8.129  1.0868 -1.0185  1.6479
 6422SOL     OW30901   2.895   0.962   1.398 -0.5583  0.3067  0.1034
 6422SOL    HW130902   2.838   1.023   1.445  1.4591  2.6123 -0.4677
 6422SOL    HW230903   2.835   0.928   1.332 -0.4917  1.1029 -0.3679
 6423SOL     OW30904   2.672   1.072   1.532 -0.5446 -1.0821  0.6080
 6423SOL    HW130905   2.581   1.103   1.527 -0.0395  0.7745  3.0505
 6423SOL    HW230906   2.697   1.123   1.608  1.6908 -0.2344 -0.6963
 6424SOL     OW30907   4.369   3.212   6.462  0.1402 -0.3816  0.1060
 6424SOL    HW130908   4.464   3.212   6.447  0.1941  0.0412  0.4837
 6424SOL    HW230909   4.343   3.285   6.406 -0.3067  0.2982  1.2208
 6425SOL     OW30910   3.294   3.558   4.876  0.2472 -0.4677 -0.9585
 6425SOL    HW130911   3.225   3.562   4.810  0.2040  0.7370 -0.8295
 6425SOL    HW230912   3.304   3.463   4.887 -1.7286 -0.7710 -1.8769
 6426SOL     OW30913   0.507   1.850  16.824  0.1758 -0.2946 -0.1584
 6426SOL    HW130914   0.572   1.920  16.823 -0.3914  0.2643  2.1768
 6426SOL    HW230915   0.565   1.777  16.800 -0.9889 -0.7449 -1.5918
 6427SOL     OW30916   4.367   1.730   7.796  0.6147  0.5083 -0.8296
 6427SOL    HW130917   4.385   1.690   7.711  0.4909  0.1618 -0.6938
 6427SOL    HW230918   4.272   1.739   7.798  0.4946 -1.4979  2.3124
 6428SOL     OW30919   2.844   3.166  16.653 -0.0313  0.0789  0.3150
 6428SOL    HW130920   2.886   3.128  16.730 -0.7971  3.3138  2.3251
 6428SOL    HW230921   2.815   3.255  16.674  0.6194  0.1254  1.0298
 6429SOL     OW30922   4.566   4.262   6.401  0.0110  0.2392 -0.7451
 6429SOL    HW130923   4.501   4.200   6.367 -1.4861  1.0826  0.5953
 6429SOL    HW230924   4.642   4.234   6.349  1.9252  0.6614  1.8371
 6430SOL     OW30925   0.560   4.574   7.204 -0.4576  0.1297 -0.3916
 6430SOL    HW130926   0.528   4.576   7.294  0.8529 -0.1925  0.0941
 6430SOL    HW230927   0.504   4.504   7.171  2.2868 -1.8490 -0.8638
 6431SOL     OW30928   0.583   1.847   3.127  0.5078  0.0094  0.0107
 6431SOL    HW130929   0.506   1.797   3.155 -1.6994  1.1660 -4.0866
 6431SOL    HW230930   0.561   1.940   3.136  2.1687  0.6145 -2.3086
 6432SOL     OW30931   2.710   0.836  10.025 -0.1344 -0.3203  0.0616
 6432SOL    HW130932   2.710   0.804  10.115 -2.4623  1.2963  0.6230
 6432SOL    HW230933   2.798   0.870  10.008 -0.3478 -0.0056 -0.4056
 6433SOL     OW30934   2.340   0.346   7.581  0.3586  0.4039  0.2831
 6433SOL    HW130935   2.347   0.253   7.559 -0.2370  0.1209  1.2695
 6433SOL    HW230936   2.247   0.354   7.603 -0.2150  0.2366 -2.0835
 6434SOL     OW30937   4.674   2.588   8.191 -0.2555  0.2185 -0.2569
 6434SOL    HW130938   0.019   2.573   8.240 -0.7500  0.2140  0.5709
 6434SOL    HW230939   4.622   2.511   8.217  2.8775 -1.5596  0.7877
 6435SOL     OW30940   1.267   1.220  13.195  0.1209 -0.2831 -0.4647
 6435SOL    HW130941   1.292   1.191  13.282 -0.2005 -0.8263 -0.5531
 6435SOL    HW230942   1.171   1.216  13.201  0.1939  1.5185  2.1070
 6436SOL     OW30943   4.519   3.387  14.456  0.2338  0.1809 -0.0079
 6436SOL    HW130944   4.473   3.440  14.392  0.4146  1.9170  1.3069
 6436SOL    HW230945   4.458   3.369  14.527 -1.8570  1.9863 -1.3556
 6437SOL     OW30946   3.970   2.155   1.767  0.4670  0.0351 -0.1258
 6437SOL    HW130947   4.046   2.102   1.742  1.4860  1.1379  0.6465
 6437SOL    HW230948   3.906   2.122   1.704  0.9817 -0.3619 -0.4451
 6438SOL     OW30949   2.090   4.139   9.242  0.2917  0.1796 -0.4182
 6438SOL    HW130950   2.124   4.228   9.234 -1.9615  0.9485 -1.3352
 6438SOL    HW230951   2.098   4.133   9.338 -1.1428 -0.4800 -0.3407
 6439SOL     OW30952   3.473   2.883  14.589  0.5896 -0.4265 -0.3017
 6439SOL    HW130953   3.560   2.910  14.619  0.9866 -1.9217 -0.1145
 6439SOL    HW230954   3.494   2.840  14.506  3.0491 -0.1429  0.1561
 6440SOL     OW30955   0.649   1.565   2.503 -0.1663 -0.7788 -0.3036
 6440SOL    HW130956   0.583   1.527   2.445 -1.2721  0.8839 -0.1635
 6440SOL    HW230957   0.705   1.589   2.429  0.1576  0.0152  0.1924
 6441SOL     OW30958   2.946   4.286   7.683 -0.4066  0.3734  0.0438
 6441SOL    HW130959   2.981   4.371   7.657  4.4796 -1.6434  0.0138
 6441SOL    HW230960   2.914   4.312   7.769 -0.0463  1.5380 -0.1717
 6442SOL     OW30961   1.293   3.440   2.679 -0.0573  0.3690  0.1394
 6442SOL    HW130962   1.198   3.439   2.666 -0.2022  0.3742  1.1969
 6442SOL    HW230963   1.324   3.456   2.590 -0.4093 -0.3378 -0.1107
 6443SOL     OW30964   0.810   3.787  14.791  0.6401  0.6312 -0.0482
 6443SOL    HW130965   0.776   3.762  14.705  1.4185  1.8412 -0.7097
 6443SOL    HW230966   0.769   3.715  14.838  3.2521  0.1363  1.4951
 6444SOL     OW30967   3.750   4.567   5.616  0.1877 -0.7222  0.3939
 6444SOL    HW130968   3.819   4.603   5.561  1.3033  1.8819  3.4932
 6444SOL    HW230969   3.775   4.475   5.618 -2.0482 -1.3659 -1.3287
 6445SOL     OW30970   4.207   2.837   4.231 -0.4606 -0.1502 -0.5391
 6445SOL    HW130971   4.228   2.761   4.177  0.7874 -0.0562 -0.1830
 6445SOL    HW230972   4.279   2.895   4.206 -0.0863 -1.3280 -2.1357
 6446SOL     OW30973   2.949   4.127   2.619  0.1783  0.5123 -0.3293
 6446SOL    HW130974   2.890   4.116   2.693  2.1055 -1.8229  0.8651
 6446SOL    HW230975   3.029   4.158   2.661 -0.2366  0.8452  0.2073
 6447SOL     OW30976   3.365   0.562   2.274  0.0536 -0.0322  0.1774
 6447SOL    HW130977   3.328   0.490   2.224 -1.2682  1.3916 -0.8806
 6447SOL    HW230978   3.458   0.544   2.261  0.0126 -1.4863  1.9237
 6448SOL     OW30979   4.186   4.627   3.109 -0.1073  0.2259 -0.0777
 6448SOL    HW130980   4.116   4.646   3.171  1.3138  0.6402  1.4155
 6448SOL    HW230981   4.264   4.654   3.157 -2.2760 -0.1402  3.6579
 6449SOL     OW30982   3.476   0.864   6.245  0.0944  0.3176  0.9291
 6449SOL    HW130983   3.496   0.772   6.233 -1.7309  0.2812 -1.8066
 6449SOL    HW230984   3.533   0.906   6.180 -0.8300 -1.1801 -0.8506
 6450SOL     OW30985   4.432   3.012  10.794 -0.0648  0.1506 -0.5457
 6450SOL    HW130986   4.379   2.985  10.869  2.4488  0.5813  1.3920
 6450SOL    HW230987   4.488   2.936  10.781 -1.5423 -1.1991  1.0334
 6451SOL     OW30988   3.606   1.209  17.092  0.2072  0.3982  0.5158
 6451SOL    HW130989   3.601   1.270  17.166 -2.6768 -0.1693  0.7810
 6451SOL    HW230990   3.558   1.246  17.017  0.6760  3.7058  1.8325
 6452SOL     OW30991   2.124   0.314   8.106 -0.0864  0.1660 -0.6075
 6452SOL    HW130992   2.160   0.403   8.102 -0.5051  0.2910 -1.4851
 6452SOL    HW230993   2.182   0.271   8.170 -1.9222 -1.4975 -0.0698
 6453SOL     OW30994   1.184   0.426   3.200  0.2016  0.0899  0.2363
 6453SOL    HW130995   1.257   0.487   3.195 -0.4638  0.7440 -1.4446
 6453SOL    HW230996   1.218   0.375   3.273 -0.5981 -0.3329  0.3198
 6454SOL     OW30997   2.092   2.967  10.612 -0.3799  0.4199  0.1922
 6454SOL    HW130998   2.089   3.048  10.663  0.2903  0.9282 -0.5963
 6454SOL    HW230999   2.004   2.934  10.630  0.9536 -2.6321  1.0478
 6455SOL     OW31000   3.739   4.041   3.933 -0.2951  0.0130  0.2463
 6455SOL    HW131001   3.722   3.948   3.915 -2.3377  0.5249 -0.4224
 6455SOL    HW231002   3.699   4.080   3.856 -2.2306  0.3707  1.4410
 6456SOL     OW31003   2.739   1.585   1.336 -1.0138  0.5485  0.0145
 6456SOL    HW131004   2.729   1.634   1.254  0.3629  0.5047 -0.1757
 6456SOL    HW231005   2.824   1.544   1.327 -0.8702  1.0736 -1.0192
 6457SOL     OW31006   3.890   0.765   2.580  0.2874  0.3311 -0.2419
 6457SOL    HW131007   3.929   0.804   2.502 -1.6803 -0.6066 -1.7094
 6457SOL    HW231008   3.795   0.770   2.570  0.2843 -0.8629 -0.8736
 6458SOL     OW31009   3.421   3.701   1.840 -0.0267 -0.1879 -0.3922
 6458SOL    HW131010   3.398   3.761   1.769  2.0257 -1.3243 -2.0000
 6458SOL    HW231011   3.470   3.758   1.900 -0.1760  0.3217 -0.7515
 6459SOL     OW31012   4.723   2.739   8.884 -0.2261 -0.3963  0.1235
 6459SOL    HW131013   4.715   2.682   8.961 -0.9149  0.2408  0.5158
 6459SOL    HW231014   0.017   2.674   8.820  1.2945 -0.2783  0.7304
 6460SOL     OW31015   1.240   4.222   7.953 -0.0320  0.8853  0.3613
 6460SOL    HW131016   1.159   4.196   7.910  0.6397  1.1948 -1.1040
 6460SOL    HW231017   1.262   4.305   7.912 -1.2849  0.3142 -1.4544
 6461SOL     OW31018   4.564   3.639   4.056  0.0554 -0.6362  0.4142
 6461SOL    HW131019   4.574   3.640   3.961  1.1440  0.8632  0.5452
 6461SOL    HW231020   4.501   3.711   4.052 -0.9906 -1.5629  0.1629
 6462SOL     OW31021   2.357   2.019  10.950  0.3478 -0.2749  0.0068
 6462SOL    HW131022   2.282   2.065  10.913  1.4677  1.6139  0.0774
 6462SOL    HW231023   2.381   2.077  11.023 -0.8413  2.3601 -1.6720
 6463SOL     OW31024   3.805   4.184  17.285 -0.4271 -0.1472  0.4538
 6463SOL    HW131025   3.790   4.279  17.278  1.3435  0.2366  1.8330
 6463SOL    HW231026   3.815   4.162  17.377 -0.5445 -1.4361  0.1541
 6464SOL     OW31027   2.465   0.971   8.761  0.2340 -0.2350 -0.4610
 6464SOL    HW131028   2.428   0.898   8.712 -1.2720  0.3329 -0.1856
 6464SOL    HW231029   2.386   1.026   8.768  1.1596  0.8299  1.7056
 6465SOL     OW31030   2.849   0.620   6.538  0.0595 -0.2048  0.0014
 6465SOL    HW131031   2.845   0.692   6.602  1.8121 -0.8855  0.8636
 6465SOL    HW231032   2.941   0.598   6.530  0.4943  1.1785  1.1696
 6466SOL     OW31033   0.230   1.653   8.076  0.1817  0.5202 -0.3102
 6466SOL    HW131034   0.299   1.587   8.074 -0.0673  0.1864  1.6945
 6466SOL    HW231035   0.154   1.598   8.093  1.3181 -1.1453 -0.5822
 6467SOL     OW31036   1.535   0.971  11.972 -0.2260  0.1615  0.1535
 6467SOL    HW131037   1.552   1.052  12.021  3.3289 -2.9165  3.9939
 6467SOL    HW231038   1.624   0.937  11.981 -0.8671 -2.1786 -2.6182
 6468SOL     OW31039   4.565   1.450   5.614 -0.3845 -0.0765  0.3822
 6468SOL    HW131040   4.481   1.466   5.571  0.2355  2.4369  0.1224
 6468SOL    HW231041   4.613   1.426   5.534 -0.8371 -1.0149  0.3825
 6469SOL     OW31042   0.322   2.410   7.590  0.0165 -0.3422  0.2179
 6469SOL    HW131043   0.397   2.397   7.649 -0.3251  1.5927  1.0731
 6469SOL    HW231044   0.272   2.332   7.613 -2.8075  1.2026 -0.7508
 6470SOL     OW31045   1.735   2.104   4.739 -0.3905 -0.0656 -0.1532
 6470SOL    HW131046   1.643   2.117   4.718  0.3797 -0.5036 -3.8330
 6470SOL    HW231047   1.735   2.021   4.787 -0.5374  0.1421  0.2025
 6471SOL     OW31048   3.050   0.838   7.670  0.0918 -0.8073 -0.2382
 6471SOL    HW131049   3.029   0.926   7.641 -0.0543 -0.6934  0.2060
 6471SOL    HW231050   3.106   0.856   7.746 -0.9891 -0.9144  0.5724
 6472SOL     OW31051   0.029   4.483   5.046 -0.3413 -0.2821 -0.1617
 6472SOL    HW131052   0.019   4.523   4.959 -0.1532 -0.9137 -0.4775
 6472SOL    HW231053   4.717   4.400   5.040  0.3109 -0.5346 -2.1113
 6473SOL     OW31054   3.789   2.185   3.155 -0.3652  0.2196 -0.1950
 6473SOL    HW131055   3.699   2.215   3.164 -0.1410  1.2159 -1.2364
 6473SOL    HW231056   3.787   2.158   3.063 -0.4616  2.6983 -0.9066
 6474SOL     OW31057   4.254   2.612  17.446  0.6542 -0.2203 -0.1850
 6474SOL    HW131058   4.292   2.698  17.425  0.4296 -0.1321 -0.2324
 6474SOL    HW231059   4.190   2.608  17.375  0.8315  1.8414 -0.4588
 6475SOL     OW31060   1.278   4.546  16.192  0.3982  0.2688  0.0396
 6475SOL    HW131061   1.243   4.480  16.251 -1.0011 -0.7784 -1.9679
 6475SOL    HW231062   1.336   4.502  16.129  1.7389 -0.2830  1.6499
 6476SOL     OW31063   0.764   4.274   8.942  0.5650 -1.0948  0.1760
 6476SOL    HW131064   0.814   4.354   8.958 -0.2797 -0.4519 -0.3172
 6476SOL    HW231065   0.836   4.212   8.944 -0.2300 -1.9141  3.3961
 6477SOL     OW31066   2.392   1.261   4.273 -0.3669  0.4404  0.1168
 6477SOL    HW131067   2.480   1.224   4.263 -0.9345 -0.6411 -0.8776
 6477SOL    HW231068   2.421   1.345   4.309  1.3808 -0.5296  0.9647
 6478SOL     OW31069   0.898   0.205  12.895  0.1098  0.2946  0.3899
 6478SOL    HW131070   0.831   0.202  12.964 -0.1710  1.5583  0.1654
 6478SOL    HW231071   0.930   0.115  12.900 -0.0783  0.1580 -0.8598
 6479SOL     OW31072   2.006   2.200  14.587 -0.3889  0.3633  0.0368
 6479SOL    HW131073   2.019   2.140  14.513 -1.7513  0.2465 -0.1014
 6479SOL    HW231074   1.950   2.267  14.549  1.2369  2.2962  1.0435
 6480SOL     OW31075   3.061   2.285   5.068 -0.3754  0.6356  0.1319
 6480SOL    HW131076   3.052   2.212   5.007  1.0047  0.5268  0.0487
 6480SOL    HW231077   2.977   2.269   5.110 -0.3621 -0.5558 -0.2828
 6481SOL     OW31078   1.957   1.883  12.477  0.0765 -0.1270  0.1209
 6481SOL    HW131079   1.997   1.912  12.394  2.0078 -0.8165  0.8067
 6481SOL    HW231080   2.002   1.799  12.481 -0.0750 -0.1316  1.5010
 6482SOL     OW31081   0.217   4.683   6.000 -0.4734 -0.5270  0.3490
 6482SOL    HW131082   0.129   4.682   6.035 -0.2310 -0.3014  0.9703
 6482SOL    HW231083   0.222   0.042   6.007  2.7918 -0.4911 -1.7703
 6483SOL     OW31084   0.376   3.376  13.026 -0.4497 -0.1753  0.1854
 6483SOL    HW131085   0.328   3.458  13.011  0.5441  0.5793  1.1895
 6483SOL    HW231086   0.435   3.373  12.951  0.2346 -3.1445  0.8293
 6484SOL     OW31087   4.433   0.957   9.956 -0.1673  0.2308 -0.2131
 6484SOL    HW131088   4.378   0.886   9.990 -0.6532 -0.6392 -2.8455
 6484SOL    HW231089   4.519   0.932   9.989  0.2153  0.5333 -1.0073
 6485SOL     OW31090   1.533   4.254   1.215 -0.4636  0.2411 -0.4983
 6485SOL    HW131091   1.538   4.323   1.149 -2.2812  0.7832 -0.0650
 6485SOL    HW231092   1.476   4.299   1.278 -4.2995 -1.5367 -2.7288
 6486SOL     OW31093   0.374   0.659   1.750  0.2371 -0.1860 -1.0572
 6486SOL    HW131094   0.331   0.705   1.678  0.0889  0.7612 -0.3769
 6486SOL    HW231095   0.334   0.692   1.831 -0.0144  2.6061 -2.3078
 6487SOL     OW31096   3.097   1.180  16.728 -0.8477  0.0824 -0.2862
 6487SOL    HW131097   3.049   1.201  16.648  0.8428  1.4992 -0.9192
 6487SOL    HW231098   3.043   1.232  16.788  2.7782 -0.2687  3.2205
 6488SOL     OW31099   2.822   1.766   0.121  0.1143 -0.1397  0.2410
 6488SOL    HW131100   2.836   1.672   0.125 -0.2425 -0.0606  3.3946
 6488SOL    HW231101   2.910   1.790   0.091  0.4679 -1.6766  0.0510
 6489SOL     OW31102   2.674   2.004   4.922 -0.2147  0.1609  0.2725
 6489SOL    HW131103   2.584   1.977   4.906 -0.0033 -0.5203  0.2551
 6489SOL    HW231104   2.652   2.057   4.999  1.9693  0.7289  0.5352
 6490SOL     OW31105   0.909   3.569  11.637  0.9133 -0.2512  1.0445
 6490SOL    HW131106   0.939   3.657  11.615 -0.5809 -0.1664 -0.6985
 6490SOL    HW231107   0.851   3.583  11.711  1.0150  2.3780  0.6219
 6491SOL     OW31108   0.818   4.257   5.457  0.2347  0.0252  0.1787
 6491SOL    HW131109   0.877   4.246   5.383  0.1108  0.1551  0.0588
 6491SOL    HW231110   0.862   4.203   5.522  0.5823  0.8367  0.6179
 6492SOL     OW31111   1.059   3.812   1.298 -0.7381  0.2768 -0.2987
 6492SOL    HW131112   1.016   3.854   1.223 -0.2796  2.8398  0.8950
 6492SOL    HW231113   1.006   3.843   1.371 -0.0857 -1.1122  0.7683
 6493SOL     OW31114   2.146   4.669   4.200 -1.1596  0.3001  0.3586
 6493SOL    HW131115   2.084   4.711   4.141 -2.1200 -0.2183  1.0095
 6493SOL    HW231116   2.137   4.712   4.284  0.8680  1.9978 -0.2873
 6494SOL     OW31117   0.934   3.285   0.780 -0.0997  0.2542 -0.4838
 6494SOL    HW131118   0.998   3.327   0.837  0.9604 -0.3432 -1.2197
 6494SOL    HW231119   0.991   3.218   0.741 -0.2981 -0.0072 -0.3215
 6495SOL     OW31120   4.310   3.721   8.960  0.0106 -1.1074  0.0775
 6495SOL    HW131121   4.215   3.705   8.965 -0.1363 -0.2662  0.0499
 6495SOL    HW231122   4.314   3.784   9.032 -0.0666  2.0358 -2.6735
 6496SOL     OW31123   3.309   2.769   9.194 -0.3334 -0.5111 -0.5103
 6496SOL    HW131124   3.266   2.755   9.109  0.2735 -1.8997 -0.5820
 6496SOL    HW231125   3.402   2.762   9.171 -0.4475 -2.6700 -0.2904
 6497SOL     OW31126   4.533   3.321   8.486  0.6137 -0.2664 -0.1344
 6497SOL    HW131127   4.463   3.378   8.455  1.1518  0.4075 -0.1099
 6497SOL    HW231128   4.575   3.375   8.553  0.8221  1.6042 -1.7558
 6498SOL     OW31129   2.645   3.021   0.928 -0.2897  0.3466  0.8384
 6498SOL    HW131130   2.709   3.091   0.933  1.5700 -1.2548 -0.5632
 6498SOL    HW231131   2.693   2.942   0.954  1.2715  0.4696 -1.6194
 6499SOL     OW31132   3.876   1.666  13.248 -0.2979 -0.4430 -0.2133
 6499SOL    HW131133   3.784   1.686  13.264  0.1032  0.4385  0.9965
 6499SOL    HW231134   3.910   1.755  13.240 -2.8869  0.6003  0.4356
 6500SOL     OW31135   0.524   1.479   9.537  0.0679 -0.1434 -0.5759
 6500SOL    HW131136   0.480   1.557   9.572 -0.2127 -0.2675 -0.6552
 6500SOL    HW231137   0.557   1.505   9.451  1.2617  3.4357  0.9469
 6501SOL     OW31138   2.003   4.302  15.798  0.3527  0.5207 -0.3834
 6501SOL    HW131139   1.908   4.297  15.810  0.7062 -1.6295  1.5564
 6501SOL    HW231140   2.002   4.338  15.709 -3.3973 -0.7431 -0.8409
 6502SOL     OW31141   3.660   1.774  10.340  0.0806 -0.8090  0.0718
 6502SOL    HW131142   3.670   1.723  10.421 -0.2584 -0.1109  0.5527
 6502SOL    HW231143   3.751   1.798  10.326 -0.1907  0.1661 -0.0113
 6503SOL     OW31144   4.398   3.005   6.765 -0.7075  0.4077  0.3340
 6503SOL    HW131145   4.324   3.017   6.706 -0.4440  1.1958  0.1616
 6503SOL    HW231146   4.368   3.050   6.843  2.4082 -1.4495  2.6347
 6504SOL     OW31147   3.004   1.976  15.067  0.0505  0.0527  0.0108
 6504SOL    HW131148   3.015   1.959  14.973  0.7082 -0.7010  0.2297
 6504SOL    HW231149   2.949   1.904  15.097  0.1088  0.0708  0.1586
 6505SOL     OW31150   4.354   4.195  11.409  0.1210  0.0321  0.0267
 6505SOL    HW131151   4.391   4.107  11.399  2.8897  1.1605  0.6328
 6505SOL    HW231152   4.341   4.215  11.316  0.9884 -2.1292 -0.5624
 6506SOL     OW31153   4.347   3.101   0.332  0.5441 -0.5264 -0.0604
 6506SOL    HW131154   4.292   3.164   0.286  1.3287 -0.3795 -0.7852
 6506SOL    HW231155   4.408   3.091   0.259 -0.9048 -0.6291 -1.2591
 6507SOL     OW31156   4.489   4.120   8.942 -0.1496 -0.1612 -0.5427
 6507SOL    HW131157   4.510   4.032   8.910  0.5275 -0.3294  0.3378
 6507SOL    HW231158   4.524   4.178   8.875  0.0172 -1.9341 -1.9710
 6508SOL     OW31159   3.475   0.514   6.827  0.0803  0.0996  0.4838
 6508SOL    HW131160   3.386   0.487   6.846 -0.2419  2.0861  1.8474
 6508SOL    HW231161   3.480   0.502   6.732 -0.6707  1.3163  0.2771
 6509SOL     OW31162   3.209   1.459   7.090 -0.4776 -0.0773  0.3607
 6509SOL    HW131163   3.273   1.399   7.129  0.0681 -0.7943 -1.6226
 6509SOL    HW231164   3.123   1.417   7.086 -1.7638  2.7026 -0.9299
 6510SOL     OW31165   0.815   3.676  10.660  0.5282  0.6213 -0.2337
 6510SOL    HW131166   0.859   3.751  10.620  0.8799  0.9213  0.7138
 6510SOL    HW231167   0.886   3.612  10.649  1.7305  2.0612 -0.7906
 6511SOL     OW31168   1.491   1.579   3.496  0.3971  0.1548  0.2298
 6511SOL    HW131169   1.517   1.609   3.583  0.4759  1.6826 -0.3172
 6511SOL    HW231170   1.403   1.616   3.498  0.3881  0.1907 -0.6601
 6512SOL     OW31171   3.725   4.157   3.505  0.1641 -0.4272  0.2441
 6512SOL    HW131172   3.658   4.172   3.438 -0.1819  1.2719  0.9774
 6512SOL    HW231173   3.795   4.122   3.451  0.8607  0.8206  0.3454
 6513SOL     OW31174   0.891   2.478   9.625 -0.0358  0.2009 -0.1962
 6513SOL    HW131175   0.876   2.384   9.635 -0.3782  0.2828  0.0882
 6513SOL    HW231176   0.965   2.487   9.685  0.5233 -2.0820 -0.5720
 6514SOL     OW31177   4.198   4.197  10.800  0.0361  0.4602  0.1504
 6514SOL    HW131178   4.207   4.166  10.891  1.1000 -2.0557 -0.7902
 6514SOL    HW231179   4.103   4.208  10.794  0.3062  1.8210 -1.5448
 6515SOL     OW31180   1.305   2.035  16.429  0.5379 -0.4086 -0.6499
 6515SOL    HW131181   1.269   2.119  16.399  0.0118 -0.0646  0.9076
 6515SOL    HW231182   1.281   1.972  16.361  1.9244 -0.9280 -0.6472
 6516SOL     OW31183   1.710   0.308   9.925  0.3696 -0.1672 -0.7881
 6516SOL    HW131184   1.628   0.347   9.896  0.3244  0.2138 -0.1194
 6516SOL    HW231185   1.758   0.382   9.960 -2.2939  0.5292  1.3424
 6517SOL     OW31186   1.849   1.954   4.488  0.1487  0.2620  0.1423
 6517SOL    HW131187   1.810   1.868   4.475 -0.4966  0.3024  1.7876
 6517SOL    HW231188   1.849   1.965   4.583  2.8942 -0.0236  0.1749
 6518SOL     OW31189   3.934   3.733  14.012 -0.1053  0.1690 -0.3635
 6518SOL    HW131190   3.881   3.711  13.935 -1.2479 -0.9822  0.7353
 6518SOL    HW231191   3.875   3.699  14.079  0.0556 -2.1524 -1.3845
 6519SOL     OW31192   0.606   3.928  17.400  0.1482  0.2904  0.0149
 6519SOL    HW131193   0.621   3.899  17.490  1.9794  2.5996  0.4268
 6519SOL    HW231194   0.523   3.976  17.405  1.2129  1.9817  1.3966
 6520SOL     OW31195   3.716   2.284  11.288 -0.2918 -0.4326 -0.0303
 6520SOL    HW131196   3.642   2.287  11.350 -0.5268  0.2088 -0.3417
 6520SOL    HW231197   3.789   2.256  11.343 -0.2263  1.3080  0.7679
 6521SOL     OW31198   2.749   3.915   8.740 -0.4692 -0.1928 -0.1806
 6521SOL    HW131199   2.738   3.992   8.796  2.4096  0.8819 -1.0789
 6521SOL    HW231200   2.845   3.915   8.742 -0.4736 -1.3264  0.0461
 6522SOL     OW31201   2.576   1.909   5.658  0.0111  0.1372 -0.5225
 6522SOL    HW131202   2.498   1.899   5.713 -0.9878 -0.5286 -2.0453
 6522SOL    HW231203   2.594   1.818   5.634 -0.4601 -0.2788  0.7009
 6523SOL     OW31204   3.224   4.514  11.219  0.0944 -0.2375 -0.4074
 6523SOL    HW131205   3.209   4.421  11.234 -0.4873 -0.1741 -0.6190
 6523SOL    HW231206   3.249   4.500  11.127 -1.2992  1.5111 -1.0493
 6524SOL     OW31207   4.534   4.448   2.320  0.7278  0.3574 -0.3441
 6524SOL    HW131208   4.513   4.471   2.229 -0.0446  0.1641 -0.2163
 6524SOL    HW231209   4.628   4.463   2.312  0.6346  0.8247 -0.5453
 6525SOL     OW31210   0.476   2.800   9.814  0.1336 -0.6173 -0.3027
 6525SOL    HW131211   0.536   2.868   9.784 -4.0959  2.4842 -1.6506
 6525SOL    HW231212   0.514   2.777   9.899  3.0513  3.8623 -0.3780
 6526SOL     OW31213   4.438   0.910   6.291  0.1380  0.5058  0.1232
 6526SOL    HW131214   4.395   0.991   6.264 -1.8566  0.0584  1.9668
 6526SOL    HW231215   4.394   0.830   6.261 -0.2759  0.3110  1.2251
 6527SOL     OW31216   4.595   1.641   0.281  0.4415 -0.5109  0.1723
 6527SOL    HW131217   4.509   1.603   0.298 -0.3504  1.5387  0.8338
 6527SOL    HW231218   4.566   1.719   0.234  2.6950 -0.1308 -0.5454
 6528SOL     OW31219   2.568   2.615   6.757  0.2634 -0.3063 -0.3438
 6528SOL    HW131220   2.530   2.645   6.675  1.4316  1.6247 -0.1801
 6528SOL    HW231221   2.600   2.530   6.726  0.1696 -0.3039 -0.4483
 6529SOL     OW31222   4.462   0.148   0.802 -0.6821 -0.4534 -1.0448
 6529SOL    HW131223   4.535   0.196   0.841 -0.3611 -1.7348 -0.0511
 6529SOL    HW231224   4.388   0.183   0.851  0.6846  1.5510 -0.4076
 6530SOL     OW31225   3.823   2.364   7.864  0.2633  0.0612  0.4995
 6530SOL    HW131226   3.773   2.336   7.941 -1.8197  1.1948 -0.4414
 6530SOL    HW231227   3.914   2.349   7.889  0.7397  0.8712 -0.7298
 6531SOL     OW31228   3.824   3.936  12.755 -0.0395 -0.3474 -0.1647
 6531SOL    HW131229   3.770   3.898  12.685  1.2860  0.7358 -1.7575
 6531SOL    HW231230   3.871   3.854  12.771  0.6297  0.0911  0.1158
 6532SOL     OW31231   1.329   2.853  15.599  0.3131 -0.5767  0.0068
 6532SOL    HW131232   1.303   2.878  15.510 -0.9887  0.4785  0.6961
 6532SOL    HW231233   1.245   2.868  15.642  0.3531 -0.1221 -0.0761
 6533SOL     OW31234   4.491   0.989   4.705  0.1785 -0.3157 -0.1798
 6533SOL    HW131235   4.525   1.078   4.712  0.6259 -0.6718  1.9351
 6533SOL    HW231236   4.549   0.938   4.761 -1.1302  1.1816  2.5037
 6534SOL     OW31237   1.278   0.627   7.879 -0.5032  0.7996 -0.4341
 6534SOL    HW131238   1.356   0.628   7.935 -0.1246 -0.3455 -0.9471
 6534SOL    HW231239   1.266   0.719   7.855 -1.1730  0.4399 -1.4764
 6535SOL     OW31240   4.632   1.143   9.142  0.7173  0.1825 -0.2246
 6535SOL    HW131241   4.720   1.181   9.143  1.0717 -0.6645  1.6455
 6535SOL    HW231242   4.596   1.163   9.228  0.0813 -0.9156 -0.2326
 6536SOL     OW31243   2.649   3.341   3.571  0.3987  0.7074  0.3729
 6536SOL    HW131244   2.646   3.247   3.589  1.6523  0.6604  0.3198
 6536SOL    HW231245   2.744   3.345   3.583  0.3860 -0.2740  0.7932
 6537SOL     OW31246   2.373   4.294   4.746  0.1244  0.0784 -0.3403
 6537SOL    HW131247   2.404   4.359   4.808 -0.0760 -1.7981  1.7429
 6537SOL    HW231248   2.414   4.331   4.668 -1.1442 -2.6322 -2.3397
 6538SOL     OW31249   4.294   2.569  17.027  0.3553 -0.4829 -0.0475
 6538SOL    HW131250   4.365   2.513  17.057  0.0199 -0.2594  1.1671
 6538SOL    HW231251   4.230   2.558  17.097 -1.0223  0.4147 -1.1737
 6539SOL     OW31252   0.020   1.937   0.386  0.0062  0.0264 -0.4601
 6539SOL    HW131253   4.726   1.929   0.476 -1.3083 -2.3809 -1.1287
 6539SOL    HW231254   0.102   1.888   0.388  0.5537  1.0528  2.8940
 6540SOL     OW31255   4.713   1.647   9.283  0.1402  0.1589 -0.2891
 6540SOL    HW131256   4.638   1.675   9.230  0.0768  2.6734  1.1283
 6540SOL    HW231257   4.706   1.712   9.352  3.8336  1.1716 -0.8606
 6541SOL     OW31258   3.160   3.133   9.605  0.2320  0.2089  0.2671
 6541SOL    HW131259   3.223   3.160   9.671  1.2210 -1.1265 -0.1240
 6541SOL    HW231260   3.112   3.057   9.640  0.0753 -0.4093 -1.2653
 6542SOL     OW31261   3.559   2.568  14.465  0.1014  0.4253 -0.0399
 6542SOL    HW131262   3.544   2.632  14.395  1.5100 -0.3057 -1.0058
 6542SOL    HW231263   3.650   2.538  14.459 -0.1705 -0.0428 -1.8929
 6543SOL     OW31264   2.973   2.000   4.167 -0.3405  0.0362  0.0464
 6543SOL    HW131265   2.940   2.040   4.247 -0.9807  0.5163 -0.4557
 6543SOL    HW231266   3.037   1.934   4.193  1.3106  1.3427 -0.6991
 6544SOL     OW31267   4.653   3.427   8.748  0.4308  0.1288  1.1911
 6544SOL    HW131268   4.694   3.477   8.818  1.3476  2.4556 -1.0313
 6544SOL    HW231269   4.563   3.453   8.768  0.9803  2.7656  0.1697
 6545SOL     OW31270   1.089   2.210   6.789 -0.2068 -0.4574 -0.5955
 6545SOL    HW131271   0.995   2.230   6.783 -0.7201 -2.3058  1.2336
 6545SOL    HW231272   1.125   2.255   6.713 -0.3071 -0.4423 -0.6335
 6546SOL     OW31273   3.887   3.104   2.153 -0.6560 -0.3433  0.0507
 6546SOL    HW131274   3.848   3.181   2.196  0.5879  1.0210 -1.2368
 6546SOL    HW231275   3.838   3.034   2.194  1.9542 -1.0286  1.9540
 6547SOL     OW31276   4.087   0.736  10.233  0.3166  0.3222 -0.0095
 6547SOL    HW131277   3.999   0.728  10.195  0.5652 -1.0718 -0.3136
 6547SOL    HW231278   4.075   0.661  10.292 -1.5696  0.1818 -0.5480
 6548SOL     OW31279   4.242   1.402   2.973 -0.2783  0.6778 -0.1238
 6548SOL    HW131280   4.328   1.363   2.954  0.5116  1.8380  1.0490
 6548SOL    HW231281   4.264   1.490   2.944 -0.3632  0.3355 -1.2215
 6549SOL     OW31282   3.422   1.433   4.360 -0.1017 -0.3607  0.0755
 6549SOL    HW131283   3.475   1.440   4.280  1.4149 -1.0060  1.0331
 6549SOL    HW231284   3.333   1.416   4.329 -0.9014  1.8195  1.1688
 6550SOL     OW31285   3.722   3.558  15.203  0.3083 -0.1009 -0.1030
 6550SOL    HW131286   3.814   3.560  15.229  0.4927 -0.2956 -0.7356
 6550SOL    HW231287   3.710   3.636  15.149 -0.0275 -0.2673 -0.2660
 6551SOL     OW31288   2.566   3.246   9.829  0.0057 -0.4276  0.0299
 6551SOL    HW131289   2.495   3.208   9.777 -1.9893  1.1873  1.5607
 6551SOL    HW231290   2.544   3.211   9.915  0.9260  1.7322  1.1605
 6552SOL     OW31291   2.568   2.989   1.840 -0.0990  0.4830  0.4412
 6552SOL    HW131292   2.636   3.056   1.841  1.8681 -1.4828 -0.2381
 6552SOL    HW231293   2.604   2.917   1.787  1.1003  0.5545  1.1566
 6553SOL     OW31294   4.474   3.144   0.104  0.0573  0.1918  0.0119
 6553SOL    HW131295   4.562   3.160   0.138 -0.8420  0.0655  2.3709
 6553SOL    HW231296   4.497   3.104   0.020 -0.9754 -0.1386 -0.1164
 6554SOL     OW31297   4.570   3.468   4.534  0.2305 -0.3618 -0.4216
 6554SOL    HW131298   4.593   3.383   4.497  1.9258  0.1811 -0.6049
 6554SOL    HW231299   4.652   3.514   4.515  0.6007 -0.5014  0.8758
 6555SOL     OW31300   3.499   0.055   6.368 -0.5717 -0.0873 -0.4335
 6555SOL    HW131301   3.432   0.052   6.437  2.2667  1.4766  2.4123
 6555SOL    HW231302   3.571   0.031   6.426 -0.6988  4.0824  1.4233
 6556SOL     OW31303   2.377   0.096  17.220 -0.2370  0.8541 -0.4995
 6556SOL    HW131304   2.342   0.123  17.304  1.7819  0.8712  0.3383
 6556SOL    HW231305   2.398   0.003  17.230  2.7372  1.6245  0.5200
 6557SOL     OW31306   3.743   0.369  15.076 -0.5018  0.0228  0.0546
 6557SOL    HW131307   3.735   0.338  14.985 -1.5123  3.4555 -1.0099
 6557SOL    HW231308   3.655   0.344  15.105 -1.1904  2.6069  0.1374
 6558SOL     OW31309   1.098   0.402   5.563  0.0163 -0.2700 -0.0943
 6558SOL    HW131310   1.162   0.396   5.493 -0.0639 -3.1288  0.0810
 6558SOL    HW231311   1.021   0.405   5.507  1.3246  2.4237 -1.7175
 6559SOL     OW31312   2.753   4.527   2.739  0.3508 -0.1828  0.5970
 6559SOL    HW131313   2.807   4.560   2.811  0.3195  0.4473  0.3274
 6559SOL    HW231314   2.667   4.526   2.780 -0.6379  0.3160 -1.5119
 6560SOL     OW31315   0.947   1.490   8.851  0.4868  0.1153 -0.7926
 6560SOL    HW131316   0.896   1.561   8.813 -0.9134 -0.0778  0.7479
 6560SOL    HW231317   0.929   1.421   8.788  0.1837  1.2476 -1.9318
 6561SOL     OW31318   1.040   3.445   1.709 -0.7060  0.2142  0.7209
 6561SOL    HW131319   1.117   3.388   1.715  1.1621  2.7456  0.8488
 6561SOL    HW231320   1.019   3.427   1.617 -0.2784 -0.3061  0.7226
 6562SOL     OW31321   1.832   3.119   2.789 -0.0178  0.4101 -0.4657
 6562SOL    HW131322   1.755   3.134   2.734 -1.9650  2.3968  2.8793
 6562SOL    HW231323   1.901   3.086   2.730  0.4249 -1.5635  1.1624
 6563SOL     OW31324   1.295   1.754   8.146 -0.2487  0.5137  0.2310
 6563SOL    HW131325   1.360   1.696   8.186  0.9391  0.5490 -1.6849
 6563SOL    HW231326   1.313   1.749   8.052  0.6114 -0.3307  0.4423
 6564SOL     OW31327   0.537   3.933  13.602 -0.3797 -0.2641  0.1633
 6564SOL    HW131328   0.534   4.023  13.635 -0.0303 -0.0227 -0.4568
 6564SOL    HW231329   0.517   3.950  13.510 -1.9827 -2.7517  0.0577
 6565SOL     OW31330   0.679   2.663   6.801 -0.2171 -0.1320 -0.1224
 6565SOL    HW131331   0.748   2.727   6.783  0.1019  0.5603  3.5958
 6565SOL    HW231332   0.687   2.611   6.721  1.1161 -0.0795 -0.0149
 6566SOL     OW31333   2.196   1.358   1.631 -0.0346  0.3088  0.3780
 6566SOL    HW131334   2.183   1.448   1.603  0.2101  0.2544  0.0867
 6566SOL    HW231335   2.259   1.329   1.565  1.8768  1.6667  1.5978
 6567SOL     OW31336   3.852   0.739   5.582  0.8244 -0.2296 -0.2507
 6567SOL    HW131337   3.828   0.739   5.675  1.0469 -0.1800 -0.1921
 6567SOL    HW231338   3.797   0.666   5.553  0.5976 -0.1595  0.0058
 6568SOL     OW31339   4.374   1.179   6.257 -0.3866  0.0051  0.0130
 6568SOL    HW131340   4.351   1.200   6.167  0.5295 -1.0672 -0.4702
 6568SOL    HW231341   4.469   1.187   6.253 -0.4150  1.8641  2.9753
 6569SOL     OW31342   4.272   0.236   1.930 -0.6942  0.0589  0.1951
 6569SOL    HW131343   4.315   0.233   2.015 -1.1150  0.1830  0.4099
 6569SOL    HW231344   4.288   0.324   1.898 -2.2664  0.3966  0.3284
 6570SOL     OW31345   4.043   1.501  13.441 -0.0589  0.3877  0.1143
 6570SOL    HW131346   4.127   1.539  13.414 -0.2028  1.1387  0.7150
 6570SOL    HW231347   3.979   1.555  13.394  1.0738  3.4073  2.0151
 6571SOL     OW31348   0.859   3.997   8.049 -0.7615  0.2286 -0.0933
 6571SOL    HW131349   0.807   3.917   8.050  0.4421 -0.5814 -2.7508
 6571SOL    HW231350   0.903   4.002   7.964 -2.9679  0.6920 -1.2206
 6572SOL     OW31351   3.477   0.316   7.704 -0.0954 -0.2327 -0.4224
 6572SOL    HW131352   3.565   0.283   7.725 -0.1908 -0.3523 -0.2114
 6572SOL    HW231353   3.480   0.411   7.718  2.1466 -0.4573  0.6175
 6573SOL     OW31354   4.078   4.191  14.912 -0.2819  0.2659  0.3688
 6573SOL    HW131355   4.109   4.111  14.870  0.7050 -0.4978  2.5631
 6573SOL    HW231356   3.990   4.192  14.874  0.2559  0.3007 -0.8431
 6574SOL     OW31357   3.537   1.740  17.401 -0.1418 -0.0075  0.0859
 6574SOL    HW131358   3.549   1.829  17.368 -0.0774 -0.2339 -0.5043
 6574SOL    HW231359   3.571   1.679  17.334 -0.3257 -0.2681  0.2313
 6575SOL     OW31360   1.410   4.726   5.290  0.0114 -0.3547  0.3833
 6575SOL    HW131361   1.412   4.736   5.195 -0.0908  2.1121  0.6287
 6575SOL    HW231362   1.373   4.640   5.304 -0.5636  0.0236  1.2003
 6576SOL     OW31363   3.277   0.004   2.290 -0.0028  0.3212  0.1613
 6576SOL    HW131364   3.370   0.006   2.269  0.2824  1.3083  1.4906
 6576SOL    HW231365   3.286   0.017   2.385  1.1034  1.3151 -0.0857
 6577SOL     OW31366   0.304   2.015   7.216 -0.1589  0.3458 -0.2455
 6577SOL    HW131367   0.396   2.042   7.217  0.2077 -0.9672  1.5730
 6577SOL    HW231368   0.302   1.920   7.211 -0.2978  0.2968  0.7534
 6578SOL     OW31369   0.020   3.109  15.921  0.3057  0.7548  0.1927
 6578SOL    HW131370   4.713   3.047  15.863  1.2221  1.0887 -0.8661
 6578SOL    HW231371   0.086   3.144  15.862  1.7178 -3.4584 -0.6892
 6579SOL     OW31372   1.848   4.484   4.895  0.1204  0.1473 -0.0423
 6579SOL    HW131373   1.808   4.550   4.953 -0.2596 -0.0048 -0.1299
 6579SOL    HW231374   1.778   4.419   4.893 -0.4744  0.6498  3.5512
 6580SOL     OW31375   2.591   0.142   4.269  0.4189 -0.3957  0.2399
 6580SOL    HW131376   2.570   0.102   4.185  0.7816 -2.0869  0.9391
 6580SOL    HW231377   2.512   0.194   4.279  0.7942  0.2390 -0.1172
 6581SOL     OW31378   1.958   1.909   5.711  0.2884  0.1711  0.1925
 6581SOL    HW131379   2.022   1.844   5.737 -0.6289  0.6510  3.6808
 6581SOL    HW231380   1.873   1.879   5.745  1.0594 -0.1146  1.8683
 6582SOL     OW31381   3.759   0.600   1.332  0.1340 -0.3027 -0.0297
 6582SOL    HW131382   3.817   0.554   1.271  0.7277 -0.6883  0.8332
 6582SOL    HW231383   3.684   0.611   1.273 -0.9136 -1.0544  1.1731
 6583SOL     OW31384   0.358   1.051   0.880 -0.3049 -0.2729 -0.0985
 6583SOL    HW131385   0.423   1.041   0.811  0.5829  0.9673  0.5441
 6583SOL    HW231386   0.336   1.144   0.883 -2.4832 -0.7231 -1.6277
 6584SOL     OW31387   1.624   3.049   0.453  0.6086 -0.2832 -0.7577
 6584SOL    HW131388   1.646   3.139   0.431  0.6039 -0.4648 -1.4918
 6584SOL    HW231389   1.635   3.053   0.548  0.2524  1.8392 -0.8007
 6585SOL     OW31390   3.109   3.001   8.657 -0.3251 -0.4542 -0.0938
 6585SOL    HW131391   3.193   2.960   8.636  0.1316 -0.3638  1.5781
 6585SOL    HW231392   3.087   3.041   8.572 -0.3782 -1.5166 -0.5829
 6586SOL     OW31393   2.131   0.571  10.358  0.2217  0.8238 -0.2195
 6586SOL    HW131394   2.128   0.490  10.409 -2.0282  0.0294 -1.6384
 6586SOL    HW231395   2.181   0.624  10.421 -0.2700 -1.1026  1.7963
 6587SOL     OW31396   1.874   2.566   8.773  0.3914 -0.1220 -0.1114
 6587SOL    HW131397   1.880   2.646   8.826  0.4626 -1.9446  2.6017
 6587SOL    HW231398   1.788   2.573   8.731  0.2477  1.7521  0.4933
 6588SOL     OW31399   0.051   4.704  15.308 -0.2171 -0.1887 -0.3592
 6588SOL    HW131400   4.737   0.029  15.256  0.1817  0.4841  0.0576
 6588SOL    HW231401   0.008   4.622  15.284 -0.6629 -0.4694  1.4607
 6589SOL     OW31402   3.735   2.238  16.389 -0.0205 -0.5820  0.2154
 6589SOL    HW131403   3.708   2.296  16.319 -1.1933 -0.5919  0.6672
 6589SOL    HW231404   3.821   2.270  16.417  0.6640 -1.2147 -1.2021
 6590SOL     OW31405   4.298   4.393  12.702  0.4209  0.3669  0.1017
 6590SOL    HW131406   4.391   4.416  12.704  0.6452 -0.4599 -0.7537
 6590SOL    HW231407   4.295   4.330  12.774  0.1173 -0.9933 -1.0955
 6591SOL     OW31408   4.695   0.821  10.111  0.0569 -0.5540 -0.1071
 6591SOL    HW131409   0.030   0.806  10.173 -0.4805 -0.8525  0.4418
 6591SOL    HW231410   0.017   0.831  10.036 -0.3140  1.0424 -0.1946
 6592SOL     OW31411   2.836   1.591   4.280  0.3168 -0.1269 -0.2672
 6592SOL    HW131412   2.806   1.615   4.367  2.1582 -1.2994  0.7058
 6592SOL    HW231413   2.838   1.497   4.300  0.9088 -0.0632 -0.0173
 6593SOL     OW31414   2.678   0.458  12.256 -0.3490 -0.4899  0.1822
 6593SOL    HW131415   2.765   0.493  12.241 -0.3095 -1.4711 -1.9164
 6593SOL    HW231416   2.637   0.526  12.310  0.7609  2.4828 -2.7800
 6594SOL     OW31417   4.086   2.540   3.110  0.3415  0.4043 -0.2751
 6594SOL    HW131418   4.077   2.517   3.017  1.1132 -1.5177  0.1311
 6594SOL    HW231419   4.177   2.569   3.115  0.7754 -0.9223 -0.3562
 6595SOL     OW31420   2.295   4.094   7.758  0.0743  0.1892 -0.2749
 6595SOL    HW131421   2.210   4.102   7.801  0.4804  0.0832  0.5658
 6595SOL    HW231422   2.355   4.160   7.795 -0.2956 -0.1227  0.9002
 6596SOL     OW31423   1.997   3.118   5.311  0.4503 -0.0929 -0.3810
 6596SOL    HW131424   2.005   3.070   5.229  1.9019  0.1114 -0.3597
 6596SOL    HW231425   2.040   3.200   5.285 -2.6505  1.8208  0.4444
 6597SOL     OW31426   0.653   0.165  11.939  0.2873 -0.1698 -0.2476
 6597SOL    HW131427   0.637   0.101  12.008 -0.1457 -0.7567 -0.9008
 6597SOL    HW231428   0.678   0.110  11.865  1.3343 -0.9576  0.6848
 6598SOL     OW31429   2.771   0.803  16.801 -0.0717  0.4331  0.3683
 6598SOL    HW131430   2.762   0.797  16.896 -0.9807 -3.2590  0.0146
 6598SOL    HW231431   2.862   0.832  16.798 -0.4578  1.5447 -0.4369
 6599SOL     OW31432   0.091   1.084   1.134 -0.3041 -0.2567 -0.3105
 6599SOL    HW131433   0.177   1.111   1.104  0.2129  0.0141  1.4163
 6599SOL    HW231434   0.046   1.073   1.050  0.8649  2.0136 -1.2270
 6600SOL     OW31435   4.647   3.183   6.463  0.5028 -0.3292  0.2440
 6600SOL    HW131436   4.647   3.127   6.385  1.6261  0.8462 -0.6119
 6600SOL    HW231437   4.655   3.124   6.538 -1.0522 -1.4199 -0.4483
 6601SOL     OW31438   4.219   4.639   6.475  0.1712 -0.3423  0.0158
 6601SOL    HW131439   4.293   4.582   6.497  1.5788  1.7878  0.8637
 6601SOL    HW231440   4.173   4.585   6.412  0.1538 -1.3313  0.8783
 6602SOL     OW31441   2.174   3.727   0.694 -0.3086 -0.3101  0.1531
 6602SOL    HW131442   2.152   3.788   0.765 -0.6369 -1.1588  0.7769
 6602SOL    HW231443   2.208   3.780   0.622  1.4623  0.0647  1.2779
 6603SOL     OW31444   0.899   2.125   3.773 -0.1632  0.0883 -0.0644
 6603SOL    HW131445   0.880   2.149   3.682  1.6402  1.2841 -0.1141
 6603SOL    HW231446   0.911   2.213   3.809  0.6465  0.6035 -1.5815
 6604SOL     OW31447   0.388   0.532   7.408  0.2282 -0.4188 -0.2777
 6604SOL    HW131448   0.398   0.437   7.412 -1.2767 -0.6140 -1.0973
 6604SOL    HW231449   0.480   0.558   7.409 -0.7111  3.0548 -3.0314
 6605SOL     OW31450   2.980   0.471  12.428  0.4004 -0.4688  0.5080
 6605SOL    HW131451   2.967   0.518  12.345 -0.6353 -0.2121  0.8114
 6605SOL    HW231452   3.061   0.423  12.412  1.1247  0.9298 -0.0355
 6606SOL     OW31453   4.642   3.669   4.744 -0.1003  0.0387  1.0071
 6606SOL    HW131454   4.670   3.659   4.653  0.5200  0.3908  1.1612
 6606SOL    HW231455   4.668   3.589   4.790 -0.9895 -0.4097  0.7302
 6607SOL     OW31456   2.055   1.740   3.039  0.4118  0.4061  0.1127
 6607SOL    HW131457   1.989   1.797   3.078 -0.3834 -1.1640  1.0625
 6607SOL    HW231458   2.083   1.692   3.117 -1.8917  0.4609  0.9505
 6608SOL     OW31459   0.448   1.927   5.987  0.4022  0.5228  0.3999
 6608SOL    HW131460   0.370   1.961   6.031 -0.8197 -1.3709 -0.2625
 6608SOL    HW231461   0.474   1.846   6.031  2.0689  1.2702  0.7808
 6609SOL     OW31462   3.638   1.174  17.533 -0.0600 -0.2266 -0.2439
 6609SOL    HW131463   3.723   1.135  17.514  0.0133 -0.3467  0.3365
 6609SOL    HW231464   3.652   1.242  17.599  0.2124 -0.8646  0.3537
 6610SOL     OW31465   3.854   2.307   4.970  0.1963 -0.7112 -0.1434
 6610SOL    HW131466   3.839   2.265   5.054  1.2838  0.4204  0.6105
 6610SOL    HW231467   3.762   2.331   4.961  0.2150 -1.0484 -1.2359
 6611SOL     OW31468   2.787   2.524   3.851  0.1018  0.1502 -0.2341
 6611SOL    HW131469   2.792   2.617   3.874 -0.5875  0.3654 -0.9579
 6611SOL    HW231470   2.833   2.498   3.931 -3.4287  0.9612  2.0651
 6612SOL     OW31471   1.906   2.791  16.748  0.0846 -0.0395 -0.0136
 6612SOL    HW131472   1.976   2.728  16.766 -0.5134 -0.7893 -0.3119
 6612SOL    HW231473   1.858   2.787  16.831 -0.9206  0.7089 -0.5544
 6613SOL     OW31474   0.950   1.832   2.505  0.2594 -0.3134  0.2669
 6613SOL    HW131475   0.911   1.870   2.584  0.6288 -1.2146  0.8844
 6613SOL    HW231476   0.879   1.807   2.445  0.2742  0.8885 -0.2499
 6614SOL     OW31477   1.011   1.074   6.048  0.5750  0.3572 -0.1028
 6614SOL    HW131478   1.007   1.127   5.968  1.8156 -1.4883 -1.3807
 6614SOL    HW231479   0.934   1.018   6.036  0.7119  0.0711  0.3792
 6615SOL     OW31480   2.510   0.911   6.350  0.2874  0.3234  0.1632
 6615SOL    HW131481   2.603   0.889   6.341  0.2227  0.0439  0.1589
 6615SOL    HW231482   2.489   0.880   6.438 -3.1447  0.5002 -0.5886
 6616SOL     OW31483   3.333   4.440   1.326  0.7594 -0.1639  0.1483
 6616SOL    HW131484   3.291   4.354   1.317  1.1709 -0.4845  1.3474
 6616SOL    HW231485   3.360   4.435   1.418  2.2424  1.5815 -0.1986
 6617SOL     OW31486   3.335   0.076  17.070  0.5552 -0.0973 -0.2256
 6617SOL    HW131487   3.269   0.007  17.071  1.5329 -0.9928  2.9141
 6617SOL    HW231488   3.330   0.107  17.160 -0.6935 -1.9627  0.3546
 6618SOL     OW31489   4.400   3.940   7.709  0.3134 -0.0845 -0.2744
 6618SOL    HW131490   4.425   4.012   7.651 -0.4755  0.7541  0.4088
 6618SOL    HW231491   4.438   3.873   7.652 -0.2034  0.5239 -1.3300
 6619SOL     OW31492   3.958   0.392   2.897  0.2494  0.3905  0.5503
 6619SOL    HW131493   3.984   0.407   2.988 -0.4676  1.6429  0.5425
 6619SOL    HW231494   3.903   0.314   2.907 -1.8102  1.6111 -1.3346
 6620SOL     OW31495   4.287   1.091  11.595 -0.6725  0.0342 -0.0072
 6620SOL    HW131496   4.275   1.186  11.593  1.2819  0.2831  0.0792
 6620SOL    HW231497   4.271   1.073  11.502 -1.1388 -0.7674  0.2272
 6621SOL     OW31498   1.738   0.331   1.491  0.0656 -0.4407  0.3669
 6621SOL    HW131499   1.745   0.392   1.564  2.0902 -0.2239 -0.0111
 6621SOL    HW231500   1.777   0.388   1.425  0.5673 -1.2299 -0.0169
 6622SOL     OW31501   2.680   3.803   6.953  0.1323 -0.3419  0.1674
 6622SOL    HW131502   2.694   3.732   7.015 -0.2369  0.4079  1.1098
 6622SOL    HW231503   2.736   3.866   6.998  0.0334 -1.2219  1.5194
 6623SOL     OW31504   1.177   3.004   5.418  0.0783 -0.7712  0.7329
 6623SOL    HW131505   1.186   2.957   5.502 -0.3945 -2.2119 -0.0245
 6623SOL    HW231506   1.239   3.073   5.440 -3.2728  1.9859  1.5773
 6624SOL     OW31507   1.313   3.212   8.631 -0.2947 -0.2610  0.2833
 6624SOL    HW131508   1.238   3.271   8.640  2.8910  3.6107  1.3968
 6624SOL    HW231509   1.287   3.153   8.702 -0.6073 -2.5675 -1.7478
 6625SOL     OW31510   1.964   1.387   5.087 -0.1606  0.2951 -0.6741
 6625SOL    HW131511   2.002   1.301   5.104  0.4864  0.3608 -1.7661
 6625SOL    HW231512   1.951   1.416   5.177 -1.0135 -0.2603 -0.6209
 6626SOL     OW31513   2.087   3.445  15.384 -0.1523 -0.2595 -0.4419
 6626SOL    HW131514   2.042   3.502  15.446 -1.1549 -0.5193 -0.9296
 6626SOL    HW231515   2.063   3.356  15.411  0.2799 -0.1776  0.1986
 6627SOL     OW31516   3.408   2.926   5.437 -0.3705  0.2013  0.4311
 6627SOL    HW131517   3.461   2.998   5.402 -1.4396 -0.2735 -2.1984
 6627SOL    HW231518   3.321   2.966   5.446  0.0095  1.4528 -1.3974
 6628SOL     OW31519   3.603   1.087   8.513 -0.1179  0.2852 -0.6600
 6628SOL    HW131520   3.674   1.122   8.459  1.7473  1.4790  2.5883
 6628SOL    HW231521   3.580   1.008   8.465 -1.8274 -0.6190  1.6414
 6629SOL     OW31522   3.114   1.336   0.971 -0.0362 -0.6924 -0.5103
 6629SOL    HW131523   3.070   1.258   0.937 -1.6468  1.2985 -2.9776
 6629SOL    HW231524   3.181   1.303   1.030 -0.5946 -0.8057  0.0630
 6630SOL     OW31525   3.939   3.352   7.031  0.4841  0.0317  0.4591
 6630SOL    HW131526   3.913   3.443   7.045 -0.2906 -0.0080 -0.7167
 6630SOL    HW231527   4.023   3.371   6.989  0.2254  1.8542  0.7859
 6631SOL     OW31528   0.031   3.740  13.795 -0.0216 -0.3867  0.0003
 6631SOL    HW131529   0.097   3.807  13.773 -0.6886 -0.0898 -1.0784
 6631SOL    HW231530   4.720   3.740  13.712  1.1669  0.7572 -0.6835
 6632SOL     OW31531   1.457   3.992  10.675  0.2300  0.1251  0.0745
 6632SOL    HW131532   1.481   3.939  10.751 -0.7940 -2.1138 -1.1798
 6632SOL    HW231533   1.410   3.926  10.625 -0.2003  0.2214  0.3500
 6633SOL     OW31534   2.036   3.299   5.605  0.0106  0.6316 -0.3668
 6633SOL    HW131535   2.124   3.333   5.624  0.5679 -0.0097 -1.7562
 6633SOL    HW231536   1.981   3.359   5.655  0.0661  0.3583  0.0215
 6634SOL     OW31537   0.092   0.972   1.762  0.0341 -0.0561 -0.1154
 6634SOL    HW131538   0.173   1.018   1.781  0.0355 -1.4589  3.1531
 6634SOL    HW231539   0.106   0.963   1.668  1.0329 -1.1017  0.1409
 6635SOL     OW31540   0.351   3.640   8.322 -0.7656 -0.2160 -0.0483
 6635SOL    HW131541   0.429   3.689   8.348 -0.3565 -0.3021 -1.0920
 6635SOL    HW231542   0.298   3.639   8.401  0.8198 -2.0330  0.9829
 6636SOL     OW31543   1.432   0.003   6.943 -0.2728 -0.4695  0.2883
 6636SOL    HW131544   1.356   0.050   6.909  0.9966  1.4299  0.1137
 6636SOL    HW231545   1.381   4.659   6.950  1.2205 -1.5865 -1.7867
 6637SOL     OW31546   0.558   2.922   1.851 -0.5649 -0.4037  0.9395
 6637SOL    HW131547   0.603   2.922   1.935 -1.7765  2.3195  1.5827
 6637SOL    HW231548   0.467   2.946   1.868  0.1998  0.4855  3.7335
 6638SOL     OW31549   3.209   4.388  16.900 -0.0301 -0.2060  0.0505
 6638SOL    HW131550   3.142   4.340  16.852 -0.0610 -0.8898  0.7684
 6638SOL    HW231551   3.247   4.435  16.826 -3.4710  0.1882 -1.4632
 6639SOL     OW31552   3.481   1.768  16.813 -0.0703 -0.6583 -0.0941
 6639SOL    HW131553   3.479   1.821  16.734 -0.8280 -0.3759  0.1118
 6639SOL    HW231554   3.411   1.703  16.809  1.3222 -2.2602  1.4390
 6640SOL     OW31555   0.051   0.186   9.255  0.4098 -0.4103 -0.2372
 6640SOL    HW131556   4.733   0.163   9.180 -1.9269  2.0088  0.7304
 6640SOL    HW231557   0.005   0.151   9.332  0.9745 -3.0183 -1.0933
 6641SOL     OW31558   0.088   0.158  13.007  0.3881  0.5810  0.1195
 6641SOL    HW131559   0.129   0.224  13.063 -0.9259  2.4275 -1.1098
 6641SOL    HW231560   4.734   0.174  13.031  0.4061 -0.0827  0.6140
 6642SOL     OW31561   3.963   3.021   8.256 -0.2735  0.0340  0.3747
 6642SOL    HW131562   3.984   2.987   8.170 -1.5312 -0.8823  0.4216
 6642SOL    HW231563   4.044   3.002   8.302 -0.3163 -0.2922  0.3157
 6643SOL     OW31564   3.392   2.456   3.560  0.2433 -0.4032  0.2564
 6643SOL    HW131565   3.418   2.428   3.648  0.6318 -2.6204 -0.5629
 6643SOL    HW231566   3.364   2.374   3.519 -1.0952 -0.4932  1.3494
 6644SOL     OW31567   4.345   3.752   3.473 -0.4205  0.2453 -0.5317
 6644SOL    HW131568   4.389   3.669   3.492  0.5298  1.2195  1.5707
 6644SOL    HW231569   4.411   3.810   3.513 -0.3144 -0.8801  0.9410
 6645SOL     OW31570   3.441   3.184   7.418  0.3447 -0.0641  0.5148
 6645SOL    HW131571   3.399   3.149   7.496 -0.5703 -2.2181 -0.9347
 6645SOL    HW231572   3.363   3.173   7.363  0.7488  1.0096 -0.2802
 6646SOL     OW31573   3.009   4.326   5.082 -0.3238  0.1923  0.0077
 6646SOL    HW131574   2.932   4.354   5.131 -0.0142  1.6959 -0.3717
 6646SOL    HW231575   3.021   4.394   5.016 -0.1536  0.1258 -0.0308
 6647SOL     OW31576   2.501   0.352   4.477 -0.0135  0.3700  0.3521
 6647SOL    HW131577   2.474   0.378   4.565 -0.8384  0.4239  0.0870
 6647SOL    HW231578   2.584   0.311   4.499 -1.0891 -0.1291  3.3708
 6648SOL     OW31579   3.349   1.414   2.529 -0.3193  0.0821  0.5135
 6648SOL    HW131580   3.374   1.493   2.577 -1.6974  0.8513 -0.0282
 6648SOL    HW231581   3.253   1.417   2.539 -0.5152 -1.7466 -0.7329
 6649SOL     OW31582   0.573   1.883   7.491 -0.0641 -0.1859 -0.0098
 6649SOL    HW131583   0.615   1.896   7.406  2.7827  0.9368  1.5700
 6649SOL    HW231584   0.507   1.822   7.456  0.2394 -0.9659  0.7709
 6650SOL     OW31585   1.479   4.365  14.560 -0.5722  0.5044 -0.2860
 6650SOL    HW131586   1.414   4.404  14.618  1.1746 -0.0559  2.0309
 6650SOL    HW231587   1.560   4.368  14.611  0.7989  2.8185 -2.5586
 6651SOL     OW31588   1.736   0.273   9.640 -0.2848  0.5834  0.9058
 6651SOL    HW131589   1.684   0.284   9.720  0.7183 -1.3915  1.8137
 6651SOL    HW231590   1.822   0.287   9.679  1.1971  0.5949 -2.3460
 6652SOL     OW31591   2.483   3.870   7.309 -0.3032 -0.0114  0.1376
 6652SOL    HW131592   2.566   3.917   7.311  0.2257 -0.9288 -0.2933
 6652SOL    HW231593   2.461   3.873   7.403  2.5667  0.0409  0.7891
 6653SOL     OW31594   1.243   3.020   2.651  0.3922  0.3071  0.7463
 6653SOL    HW131595   1.225   2.934   2.687 -0.7184  0.4217  0.4876
 6653SOL    HW231596   1.319   2.993   2.600 -0.0123 -1.5966  1.1639
 6654SOL     OW31597   0.752   2.349   5.737 -0.3870  0.2131 -0.0286
 6654SOL    HW131598   0.814   2.280   5.763 -2.4392 -1.7790 -0.3509
 6654SOL    HW231599   0.768   2.350   5.643  0.9589 -0.4687  0.1964
 6655SOL     OW31600   2.985   1.122   1.946  0.1386 -0.2573  0.5316
 6655SOL    HW131601   2.990   1.050   1.883 -0.5207 -0.9149  1.2241
 6655SOL    HW231602   3.064   1.096   1.993  0.3281 -0.7733 -0.0861
 6656SOL     OW31603   2.480   3.075   2.097  0.1206 -0.5456  0.4479
 6656SOL    HW131604   2.498   3.047   2.007 -1.3508 -1.1417  0.3342
 6656SOL    HW231605   2.569   3.091   2.127  0.5397 -1.2289 -0.4371
 6657SOL     OW31606   3.832   1.113   1.083  0.6269  0.3651  0.4292
 6657SOL    HW131607   3.782   1.163   1.019 -0.1784  0.8616  1.4308
 6657SOL    HW231608   3.886   1.184   1.118  0.3630 -0.0767  1.7461
 6658SOL     OW31609   1.128   0.867   6.249  0.1423  0.2909  0.0263
 6658SOL    HW131610   1.148   0.790   6.196 -0.1274  0.9596 -1.0525
 6658SOL    HW231611   1.158   0.932   6.185  0.8853 -0.1093 -0.0327
 6659SOL     OW31612   1.228   2.062   9.191 -0.6039  0.3570 -0.3214
 6659SOL    HW131613   1.290   1.989   9.190 -0.7593  0.2219 -0.1821
 6659SOL    HW231614   1.292   2.133   9.185  1.4310 -1.3539  1.1947
 6660SOL     OW31615   4.724   1.466  12.240  0.6527  0.5504  0.4510
 6660SOL    HW131616   0.015   1.403  12.173  0.4270 -0.1252  0.9904
 6660SOL    HW231617   0.062   1.525  12.250  1.7961 -0.9383  0.7717
 6661SOL     OW31618   2.613   4.545   0.653  0.4920  0.1020 -0.2226
 6661SOL    HW131619   2.653   4.537   0.739 -1.1804 -0.7249  0.4868
 6661SOL    HW231620   2.677   4.598   0.605 -0.5619  1.9219  0.3854
 6662SOL     OW31621   2.686   2.548   1.853  0.3269 -0.6234 -0.1856
 6662SOL    HW131622   2.761   2.603   1.830 -1.2417  0.7659 -1.9714
 6662SOL    HW231623   2.656   2.592   1.933  0.9174 -0.9741  0.2347
 6663SOL     OW31624   1.529   4.419   1.012  0.2509 -0.1261 -0.2391
 6663SOL    HW131625   1.610   4.427   0.962 -0.0014 -1.1154 -0.8207
 6663SOL    HW231626   1.503   4.511   1.015  2.6467  0.5271 -0.0607
 6664SOL     OW31627   2.787   4.531   4.742 -0.1597  0.0188  0.1870
 6664SOL    HW131628   2.798   4.451   4.691 -1.3915  0.4721 -0.7638
 6664SOL    HW231629   2.700   4.512   4.777  0.3222 -1.7110  0.4669
 6665SOL     OW31630   4.355   3.957   5.542 -0.1869  0.0763 -0.4049
 6665SOL    HW131631   4.351   3.945   5.637 -0.1668 -0.6139 -0.4870
 6665SOL    HW231632   4.411   4.035   5.546 -0.2489  0.1469 -0.9309
 6666SOL     OW31633   3.168   0.260  15.127 -0.2414 -0.1789 -0.5135
 6666SOL    HW131634   3.132   0.256  15.215  2.4041 -0.1782  0.5921
 6666SOL    HW231635   3.128   0.189  15.076 -2.5270  0.3406  0.5887
 6667SOL     OW31636   3.959   3.716   5.367 -0.1364 -0.2978 -0.1411
 6667SOL    HW131637   3.873   3.757   5.375  0.4992  0.8521  0.8301
 6667SOL    HW231638   4.022   3.788   5.376 -1.0041  0.0910  2.9524
 6668SOL     OW31639   2.633   0.748  16.148  0.5472  0.2848 -0.1781
 6668SOL    HW131640   2.541   0.724  16.138  0.9003 -1.6157  1.1030
 6668SOL    HW231641   2.616   0.817  16.213  0.0985  0.8335 -0.8857
 6669SOL     OW31642   2.583   4.077   5.821 -0.4762 -0.2175 -0.4326
 6669SOL    HW131643   2.525   4.009   5.787  0.4178 -1.3962  0.4113
 6669SOL    HW231644   2.594   4.051   5.913 -0.9482 -1.0969 -0.6210
 6670SOL     OW31645   4.028   3.884  12.053  0.1177  0.1017 -0.2861
 6670SOL    HW131646   4.112   3.858  12.092 -0.0201  0.5675  0.3225
 6670SOL    HW231647   4.016   3.977  12.072 -1.9366  0.3792 -3.0125
 6671SOL     OW31648   0.926   2.171   9.665  0.1579  0.0308  0.8863
 6671SOL    HW131649   1.006   2.147   9.618 -0.3398  0.5549 -0.2520
 6671SOL    HW231650   0.953   2.150   9.754 -0.8922 -0.6468  1.0390
 6672SOL     OW31651   0.958   1.936   7.981 -0.1222 -0.2613  0.7193
 6672SOL    HW131652   0.920   2.012   8.024  0.9857  1.2342 -0.9430
 6672SOL    HW231653   1.000   1.979   7.906  1.0769  2.3635  2.8921
 6673SOL     OW31654   4.055   0.943  11.624 -0.3697  0.0936 -0.6882
 6673SOL    HW131655   4.146   0.972  11.633 -0.0105 -2.0419  2.2801
 6673SOL    HW231656   4.032   0.977  11.537  3.9207  0.6530 -1.6097
 6674SOL     OW31657   3.172   3.859   6.980 -0.1277  0.0513 -0.2387
 6674SOL    HW131658   3.263   3.868   7.008 -0.1756 -0.6958  0.1673
 6674SOL    HW231659   3.129   3.895   7.058 -3.8894 -1.4802 -1.6080
 6675SOL     OW31660   0.727   4.654  16.036 -0.1325  0.1260  0.4554
 6675SOL    HW131661   0.814   4.692  16.050 -0.4595  0.3931  1.7634
 6675SOL    HW231662   0.684   4.722  15.984  0.1112 -0.2641 -0.2599
 6676SOL     OW31663   1.131   3.487   8.404  0.3632  0.6632  0.3541
 6676SOL    HW131664   1.216   3.523   8.376  0.3133  0.3321 -0.2202
 6676SOL    HW231665   1.133   3.409   8.349 -0.0385  0.6122  0.4145
 6677SOL     OW31666   2.734   3.557  10.622 -0.6333 -0.2449  0.6438
 6677SOL    HW131667   2.669   3.621  10.650 -0.1203  0.4505  0.2297
 6677SOL    HW231668   2.744   3.514  10.708 -0.2920 -1.4508  0.0084
 6678SOL     OW31669   0.679   0.420   0.145 -0.3632 -0.3402  0.4539
 6678SOL    HW131670   0.635   0.356   0.089  2.0567  0.2608 -2.1439
 6678SOL    HW231671   0.613   0.428   0.214  0.7409 -2.3113  1.7186
 6679SOL     OW31672   0.084   4.393   2.661  0.6342  0.1379 -0.2888
 6679SOL    HW131673   0.068   4.306   2.699 -1.0815 -0.6531 -2.8159
 6679SOL    HW231674   0.038   4.455   2.718  1.1836  0.5079 -0.2566
 6680SOL     OW31675   3.579   3.167  11.961  0.0653 -0.5534 -0.0056
 6680SOL    HW131676   3.673   3.178  11.980 -0.2390  0.1818  1.0673
 6680SOL    HW231677   3.565   3.253  11.922  0.2130 -1.0805 -1.2069
 6681SOL     OW31678   2.207   2.168   5.902 -0.1473 -0.0970 -0.2986
 6681SOL    HW131679   2.158   2.250   5.902  0.4255  0.2436 -1.1120
 6681SOL    HW231680   2.296   2.200   5.887 -0.2159  0.2678  0.0775
 6682SOL     OW31681   4.605   1.691   2.481  0.1090 -0.0327 -0.5169
 6682SOL    HW131682   4.689   1.714   2.521 -1.5319  1.8555  1.8060
 6682SOL    HW231683   4.588   1.603   2.514 -2.7893 -0.3226 -2.8475
 6683SOL     OW31684   3.962   1.814   4.888  0.3917  0.2935 -0.2254
 6683SOL    HW131685   3.934   1.900   4.855  1.0451  0.0820 -1.3438
 6683SOL    HW231686   3.911   1.756   4.832 -0.3020 -0.7764  1.5226
 6684SOL     OW31687   0.166   1.721   4.508 -0.0997  0.5413 -0.3565
 6684SOL    HW131688   0.074   1.740   4.493 -0.1180  2.2915  1.9472
 6684SOL    HW231689   0.176   1.643   4.453  1.2137 -0.4565  1.2679
 6685SOL     OW31690   0.344   1.627   8.850 -0.6494 -0.4987  0.0034
 6685SOL    HW131691   0.274   1.598   8.908  1.0553  1.1027  2.8283
 6685SOL    HW231692   0.340   1.565   8.777 -0.3991 -0.4450 -0.0553
 6686SOL     OW31693   3.706   0.452   8.213  0.0285 -0.3009 -0.3826
 6686SOL    HW131694   3.685   0.399   8.290  0.6193 -1.6383 -1.1418
 6686SOL    HW231695   3.680   0.399   8.138  0.9307  0.7802 -1.4534
 6687SOL     OW31696   3.670   1.313   0.137  0.5378  0.0595 -0.2341
 6687SOL    HW131697   3.666   1.217   0.144  0.7576 -0.0199 -1.2535
 6687SOL    HW231698   3.732   1.329   0.208  0.0102 -1.6848  0.6346
 6688SOL     OW31699   1.302   0.156   5.488 -0.4328  0.3336 -0.1450
 6688SOL    HW131700   1.298   0.230   5.428 -1.8944 -0.6537 -1.2968
 6688SOL    HW231701   1.360   0.100   5.436  0.0499  0.5143  0.1997
 6689SOL     OW31702   1.762   3.120   8.158  0.6008  0.3036 -0.0171
 6689SOL    HW131703   1.685   3.063   8.157  1.5601 -0.9246 -2.9027
 6689SOL    HW231704   1.834   3.064   8.129 -0.3173 -0.3917 -0.9528
 6690SOL     OW31705   3.527   0.758   4.287 -0.4571  0.0412  0.2406
 6690SOL    HW131706   3.619   0.737   4.271 -1.0085 -0.3270 -2.4470
 6690SOL    HW231707   3.548   0.845   4.319 -0.4702 -0.3438  1.2842
 6691SOL     OW31708   4.103   3.559  10.330  0.1577 -0.3021  0.5989
 6691SOL    HW131709   4.181   3.505  10.318  1.2163  1.1537  0.8866
 6691SOL    HW231710   4.084   3.539  10.422 -1.0139 -0.6263  0.2807
 6692SOL     OW31711   4.185   0.139  14.602 -0.1449  0.2298  0.5544
 6692SOL    HW131712   4.093   0.164  14.602 -0.0376  0.5756 -3.6861
 6692SOL    HW231713   4.193   0.125  14.508 -0.9742  0.5542  0.4323
 6693SOL     OW31714   3.594   1.180  12.781  0.1533  0.2557 -0.4611
 6693SOL    HW131715   3.653   1.162  12.708  1.1648  2.7267 -0.2563
 6693SOL    HW231716   3.637   1.260  12.812  2.1604 -0.7181 -0.6956
 6694SOL     OW31717   3.694   0.943   7.987 -0.0876 -0.1228  0.5707
 6694SOL    HW131718   3.710   0.853   8.016  1.3628 -0.3778 -1.0135
 6694SOL    HW231719   3.609   0.949   7.944  0.8423  0.2777 -1.1925
 6695SOL     OW31720   2.563   1.164   6.565  0.2198  0.3821 -0.7157
 6695SOL    HW131721   2.656   1.161   6.543 -0.1079  0.2776 -2.0397
 6695SOL    HW231722   2.540   1.079   6.528 -0.6180  0.4990 -0.4733
 6696SOL     OW31723   1.891   4.411  17.045  0.0386 -0.3780 -0.8082
 6696SOL    HW131724   1.874   4.503  17.028 -0.6304 -0.4695 -0.6373
 6696SOL    HW231725   1.909   4.407  17.139 -1.0672  1.1877 -0.5421
 6697SOL     OW31726   3.238   1.540   1.688 -0.0695 -0.1427  0.3077
 6697SOL    HW131727   3.309   1.476   1.688 -0.2758 -0.3836  1.5548
 6697SOL    HW231728   3.229   1.556   1.782 -0.0023 -1.4923  0.5409
 6698SOL     OW31729   0.621   0.794   7.614 -0.2274 -0.1272  0.3321
 6698SOL    HW131730   0.532   0.815   7.643 -0.1319  0.6190  0.0945
 6698SOL    HW231731   0.608   0.824   7.524  1.1757 -2.0541 -0.4970
 6699SOL     OW31732   0.070   0.355   7.302  0.1162  0.1785 -0.6038
 6699SOL    HW131733   0.133   0.387   7.238  1.6201  2.4764  2.0489
 6699SOL    HW231734   0.020   0.435   7.317 -0.2262 -0.5105  1.8389
 6700SOL     OW31735   4.116   2.170   1.336  0.0444 -0.2574  0.1191
 6700SOL    HW131736   4.115   2.263   1.359  0.0967 -0.7368  2.0390
 6700SOL    HW231737   4.140   2.160   1.244 -1.4487  1.0516 -0.4141
 6701SOL     OW31738   0.718   3.763   1.695 -0.3761 -0.1641 -0.1885
 6701SOL    HW131739   0.674   3.714   1.764  0.8324 -0.6733  0.2119
 6701SOL    HW231740   0.700   3.704   1.622 -0.9972  1.2087 -1.1486
 6702SOL     OW31741   3.894   1.704  13.687 -0.0712 -0.4449  0.1455
 6702SOL    HW131742   3.815   1.755  13.672  0.2357  0.7669  2.7429
 6702SOL    HW231743   3.889   1.651  13.607 -0.9043 -0.5319  0.2525
 6703SOL     OW31744   2.503   3.492   5.874  0.1935  0.2263  0.0230
 6703SOL    HW131745   2.599   3.491   5.880  0.2655  1.1131 -1.0025
 6703SOL    HW231746   2.488   3.540   5.955 -0.5993 -2.2150  1.3248
 6704SOL     OW31747   2.857   4.680   3.389  0.4406  0.0954 -0.3069
 6704SOL    HW131748   2.861   4.734   3.469 -1.2782 -0.6946  0.3144
 6704SOL    HW231749   2.890   0.011   3.330  0.1546 -0.8579 -1.5385
 6705SOL     OW31750   2.957   4.000   1.820  0.8338  0.2719 -0.0951
 6705SOL    HW131751   2.913   4.069   1.770  0.4476 -0.2775 -0.5143
 6705SOL    HW231752   2.952   4.036   1.909 -3.0493 -0.5522  0.0253
 6706SOL     OW31753   1.884   2.651   7.503 -0.0864 -0.2195  0.3575
 6706SOL    HW131754   1.971   2.610   7.507  0.5775  1.3962  1.8967
 6706SOL    HW231755   1.880   2.696   7.587  0.0952  0.1560  0.1643
 6707SOL     OW31756   0.506   1.866   6.828 -0.0094  0.5463  0.5192
 6707SOL    HW131757   0.527   1.809   6.902  0.6217  1.4747  1.0454
 6707SOL    HW231758   0.440   1.812   6.784 -0.1971  1.4077 -0.2635
 6708SOL     OW31759   2.639   4.655   3.118 -0.8977 -0.3883  0.0454
 6708SOL    HW131760   2.726   4.625   3.090 -0.1231  1.6611  0.2311
 6708SOL    HW231761   2.609   4.713   3.048 -1.0796 -0.2355  0.2508
 6709SOL     OW31762   2.162   0.978  10.534  0.3105 -0.2288 -0.2450
 6709SOL    HW131763   2.136   0.962  10.625 -1.0573  0.9360 -0.4296
 6709SOL    HW231764   2.202   0.894  10.510 -1.3417 -1.3949  1.1004
 6710SOL     OW31765   1.201   0.903   9.310  0.1467  0.4655 -0.1267
 6710SOL    HW131766   1.227   0.828   9.257  0.2353 -0.2975  0.9987
 6710SOL    HW231767   1.115   0.917   9.269 -0.3381  1.0546  1.1072
 6711SOL     OW31768   1.046   3.267   7.594  0.3689 -0.2432  0.5294
 6711SOL    HW131769   0.977   3.201   7.607  1.2736 -2.2116 -4.6287
 6711SOL    HW231770   1.023   3.342   7.648  0.0435  2.4018 -3.3072
 6712SOL     OW31771   1.782   2.554   3.100 -0.0664  0.3621  0.7165
 6712SOL    HW131772   1.838   2.621   3.139 -0.6402  0.0460  2.1047
 6712SOL    HW231773   1.708   2.613   3.088  0.2304  0.3162 -1.2530
 6713SOL     OW31774   4.239   2.886  10.960 -0.0268 -0.3459 -0.4539
 6713SOL    HW131775   4.174   2.920  11.022  0.8500  0.9711 -0.2558
 6713SOL    HW231776   4.215   2.797  10.986  1.3266 -0.8742 -1.0153
 6714SOL     OW31777   2.062   3.955   1.847 -0.4209 -0.2484  0.1770
 6714SOL    HW131778   2.016   4.039   1.845 -1.7916 -0.9838  0.6377
 6714SOL    HW231779   2.012   3.898   1.788  0.0023 -2.9072  2.3823
 6715SOL     OW31780   0.357   0.285  10.296  0.0955 -0.2094 -0.1044
 6715SOL    HW131781   0.308   0.263  10.375 -0.1670 -3.0751 -1.0624
 6715SOL    HW231782   0.440   0.239  10.305  1.0914  1.5231 -0.4177
 6716SOL     OW31783   1.812   3.853   3.716 -0.3227 -0.0297 -0.3096
 6716SOL    HW131784   1.766   3.880   3.636  1.0273  0.4852 -0.9037
 6716SOL    HW231785   1.889   3.805   3.685 -0.3824 -0.1202 -0.3200
 6717SOL     OW31786   3.301   4.103   2.514 -0.0980 -0.5730  0.2861
 6717SOL    HW131787   3.359   4.130   2.443 -3.0875  1.1131 -1.5187
 6717SOL    HW231788   3.249   4.183   2.520  0.7600  0.2352 -3.1848
 6718SOL     OW31789   3.504   4.221   3.373 -0.4372  0.2414 -0.0030
 6718SOL    HW131790   3.479   4.308   3.341  2.5801  0.4784 -1.6538
 6718SOL    HW231791   3.417   4.187   3.394 -0.8211 -0.1098 -2.1450
 6719SOL     OW31792   0.116   1.988  11.432 -0.0532  0.6255 -0.0881
 6719SOL    HW131793   0.119   1.900  11.392  1.6537  0.8749 -0.5061
 6719SOL    HW231794   0.061   1.969  11.508  2.0153 -2.4356  0.6726
 6720SOL     OW31795   2.156   0.990   8.272  0.3219  0.1804 -0.1668
 6720SOL    HW131796   2.081   0.931   8.275  0.1709  0.3079 -1.4525
 6720SOL    HW231797   2.124   1.049   8.341  0.6737  0.1709  0.0074
 6721SOL     OW31798   0.327   0.812   8.830 -0.4195  0.0213 -0.5058
 6721SOL    HW131799   0.268   0.872   8.876  0.0542  0.8924 -1.0425
 6721SOL    HW231800   0.331   0.738   8.892 -1.0638  2.2760  2.2437
 6722SOL     OW31801   4.689   3.624  13.542  0.0203 -0.3744  0.0764
 6722SOL    HW131802   4.652   3.535  13.542 -1.2894  0.1693  2.2602
 6722SOL    HW231803   0.014   3.618  13.470  0.7039  2.5310  0.4577
 6723SOL     OW31804   2.986   3.833   7.173 -0.7785  0.1766  0.0879
 6723SOL    HW131805   3.024   3.788   7.248  1.8859  3.3005  0.6073
 6723SOL    HW231806   2.919   3.767   7.156 -0.7529 -0.2267  1.5732
 6724SOL     OW31807   4.278   2.712   8.833 -0.6642 -0.2181 -0.1397
 6724SOL    HW131808   4.299   2.621   8.856 -1.2937 -0.2636  0.2569
 6724SOL    HW231809   4.343   2.754   8.890 -0.8682 -0.0111 -0.0594
 6725SOL     OW31810   3.598   1.955   4.811 -0.0593 -0.1683  0.1359
 6725SOL    HW131811   3.586   1.968   4.717  0.6914  0.2098  0.0866
 6725SOL    HW231812   3.582   1.861   4.817  2.9456 -0.6892  0.3164
 6726SOL     OW31813   4.090   1.937   7.694  0.7881 -0.3193 -0.1856
 6726SOL    HW131814   4.080   1.988   7.613  0.5009  0.4318  0.3281
 6726SOL    HW231815   4.146   1.986   7.753 -0.3625 -0.4106  0.9797
 6727SOL     OW31816   3.536   3.252   3.952  0.5026  0.0007 -0.3796
 6727SOL    HW131817   3.614   3.197   3.956  0.2428 -0.1228  3.1312
 6727SOL    HW231818   3.491   3.222   3.873 -0.5391  0.1085  0.1619
 6728SOL     OW31819   4.686   0.601   8.997 -0.1182 -0.0652  0.4952
 6728SOL    HW131820   4.654   0.524   8.950 -2.3095  1.1065  0.0448
 6728SOL    HW231821   4.648   0.588   9.084  0.8920 -1.1810  0.7725
 6729SOL     OW31822   2.102   1.453   2.350  0.2056  0.5326  0.7687
 6729SOL    HW131823   2.187   1.481   2.318 -0.2742 -0.1987 -1.1278
 6729SOL    HW231824   2.095   1.496   2.435 -0.7780  1.8512  0.0077
 6730SOL     OW31825   2.199   1.908   5.976  0.3468  0.2345 -0.3741
 6730SOL    HW131826   2.167   1.997   5.959  3.2653  1.3097 -0.3102
 6730SOL    HW231827   2.221   1.883   5.886  2.8397  1.6850 -0.1821
 6731SOL     OW31828   4.227   0.315  17.604  0.0923 -0.4049  0.3364
 6731SOL    HW131829   4.139   0.347  17.587  0.6127  0.7371 -0.2377
 6731SOL    HW231830   4.203   0.223  17.598 -0.1148 -0.3476  0.2998
 6732SOL     OW31831   2.978   2.602  12.716 -0.0179 -0.5051 -0.4620
 6732SOL    HW131832   2.967   2.648  12.799  0.5951 -2.4676  0.6962
 6732SOL    HW231833   2.985   2.677  12.657  1.5872  1.0374  1.7339
 6733SOL     OW31834   3.639   2.634   5.312 -0.4515  0.1158  0.3720
 6733SOL    HW131835   3.725   2.634   5.268 -1.2710  3.5785 -1.2334
 6733SOL    HW231836   3.584   2.590   5.246 -0.0955 -2.1136  1.5529
 6734SOL     OW31837   1.949   1.336   3.446  0.1731  0.3950 -0.0319
 6734SOL    HW131838   1.860   1.309   3.423 -0.1801  1.6652 -0.1024
 6734SOL    HW231839   1.936   1.428   3.425  0.9715  0.6853  0.7773
 6735SOL     OW31840   4.065   1.746   1.169 -0.0883 -0.0114  0.0845
 6735SOL    HW131841   4.157   1.771   1.170 -0.5456  1.5347  2.2050
 6735SOL    HW231842   4.075   1.675   1.105  1.1797 -0.0313  0.3101
 6736SOL     OW31843   2.809   1.215   2.839 -0.5792 -0.4855  0.0905
 6736SOL    HW131844   2.896   1.248   2.819 -0.4596 -0.4967  0.5960
 6736SOL    HW231845   2.768   1.243   2.758 -2.2206 -0.1050  1.0472
 6737SOL     OW31846   3.544   0.248  14.870 -0.3855 -0.8426  0.2185
 6737SOL    HW131847   3.491   0.265  14.948  0.2849 -3.6023  1.2748
 6737SOL    HW231848   3.551   0.153  14.872  1.5171 -0.7027 -0.5523
 6738SOL     OW31849   1.084   2.123   4.076 -0.1006 -0.3408 -0.2614
 6738SOL    HW131850   1.103   2.185   4.005  0.7816  0.2703  0.5209
 6738SOL    HW231851   1.094   2.176   4.154  1.1125 -0.3092 -0.4334
 6739SOL     OW31852   3.033   3.075  16.848  0.2120  0.3133  0.1924
 6739SOL    HW131853   2.998   2.997  16.893  2.3969 -0.9665 -0.3245
 6739SOL    HW231854   3.069   3.128  16.919  0.1260  0.9312 -0.2275
 6740SOL     OW31855   0.778   0.162   3.261 -0.0584 -0.0765 -0.6411
 6740SOL    HW131856   0.827   0.213   3.197 -1.7093  0.6407 -1.3366
 6740SOL    HW231857   0.790   0.071   3.235  0.7511 -0.2629  0.3941
 6741SOL     OW31858   2.820   1.281  11.322 -0.2890  0.3793  0.7151
 6741SOL    HW131859   2.857   1.343  11.259  1.6839  0.2287  1.7221
 6741SOL    HW231860   2.864   1.315  11.400 -0.2870  4.7048 -1.1863
 6742SOL     OW31861   3.008   1.067   0.948  0.0283 -0.0508 -0.9631
 6742SOL    HW131862   3.010   1.013   1.027 -2.7227  0.2064 -0.6989
 6742SOL    HW231863   2.921   1.049   0.912 -0.6042 -0.1176  0.6115
 6743SOL     OW31864   3.816   0.716  10.815  0.7197  0.8442 -0.3969
 6743SOL    HW131865   3.884   0.737  10.879  0.8243  0.0835 -0.2576
 6743SOL    HW231866   3.774   0.799  10.795 -1.3593 -0.4516 -1.3896
 6744SOL     OW31867   2.057   4.679   1.763  0.3364  0.7835 -0.0010
 6744SOL    HW131868   2.003   0.019   1.743  0.5003  1.0014  0.3983
 6744SOL    HW231869   2.039   4.670   1.856  0.3427 -0.3101 -0.1135
 6745SOL     OW31870   1.743   3.352   8.312 -0.1703 -0.9046  0.4556
 6745SOL    HW131871   1.753   3.269   8.264  1.1933 -1.0260  0.9598
 6745SOL    HW231872   1.651   3.377   8.301  0.5103  1.1362 -0.6472
 6746SOL     OW31873   1.776   3.239   0.330  0.3888 -0.1285 -0.1947
 6746SOL    HW131874   1.751   3.330   0.313  0.0839 -0.4327 -1.4080
 6746SOL    HW231875   1.832   3.255   0.406 -0.2085  0.5852  0.0959
 6747SOL     OW31876   0.356   0.057   1.060 -0.5076 -0.3399 -0.9613
 6747SOL    HW131877   0.298   0.113   1.112 -0.7009  0.0163 -1.5659
 6747SOL    HW231878   0.359   4.715   1.115 -0.1044 -0.2353 -0.8379
 6748SOL     OW31879   1.584   2.722  10.123 -0.1718 -0.8392  0.6201
 6748SOL    HW131880   1.632   2.668  10.186 -1.9860 -1.3159  1.5882
 6748SOL    HW231881   1.595   2.807  10.165  2.0028 -1.1447  0.6904
 6749SOL     OW31882   4.367   0.681   6.528 -0.2560 -0.1569  0.3878
 6749SOL    HW131883   4.421   0.760   6.536 -0.2204 -0.1985  0.5662
 6749SOL    HW231884   4.285   0.714   6.493 -1.4812 -1.4133  2.1170
 6750SOL     OW31885   1.876   1.400   7.822 -0.7852  0.5612 -0.1928
 6750SOL    HW131886   1.879   1.335   7.891  0.8147  1.8127  0.8983
 6750SOL    HW231887   1.786   1.434   7.824 -1.3051 -0.6337 -3.2201
 6751SOL     OW31888   3.849   0.598   8.663 -0.2813  0.5169  0.3353
 6751SOL    HW131889   3.883   0.589   8.574  0.4051  0.0095  0.6500
 6751SOL    HW231890   3.761   0.561   8.657 -0.6393  1.5842 -1.1935
 6752SOL     OW31891   1.779   1.949   8.302 -0.5878  0.6367  0.1614
 6752SOL    HW131892   1.779   2.043   8.320 -0.6993  0.5750  0.4758
 6752SOL    HW231893   1.690   1.926   8.330 -1.0478 -0.1028 -1.9270
 6753SOL     OW31894   1.663   0.038   9.479  0.0872 -0.0763 -0.5115
 6753SOL    HW131895   1.712   0.113   9.513  1.8153 -1.0959 -0.7120
 6753SOL    HW231896   1.574   0.070   9.472  0.5929  0.9634 -2.0912
 6754SOL     OW31897   3.946   1.894   9.000  0.0517 -0.1748  0.3282
 6754SOL    HW131898   3.890   1.820   8.978  0.2816  0.3490 -2.0923
 6754SOL    HW231899   3.895   1.939   9.067 -0.0081 -1.9083  1.4461
 6755SOL     OW31900   0.074   2.429  13.104 -0.8732 -0.0202  0.0315
 6755SOL    HW131901   0.153   2.436  13.156 -0.4680  1.2884 -0.7600
 6755SOL    HW231902   0.062   2.338  13.076  1.7512 -0.4864  0.4435
 6756SOL     OW31903   3.904   1.545   3.241  0.4154  0.1740 -0.1506
 6756SOL    HW131904   3.909   1.618   3.303  3.3851 -0.0579 -0.0954
 6756SOL    HW231905   3.854   1.586   3.170 -0.3982 -1.9703 -0.8160
 6757SOL     OW31906   1.224   3.368   9.319  0.3669 -0.0777 -0.4550
 6757SOL    HW131907   1.286   3.345   9.250  0.8308 -1.4968  0.4366
 6757SOL    HW231908   1.277   3.441   9.350  0.6050  0.4546 -2.0956
 6758SOL     OW31909   2.773   0.581   7.208  0.4163 -0.1741 -0.0250
 6758SOL    HW131910   2.688   0.548   7.239 -0.1239 -0.8253 -2.2417
 6758SOL    HW231911   2.829   0.550   7.280  0.3744 -1.6625 -0.6192
 6759SOL     OW31912   0.332   4.565   2.997  0.2979 -0.2694  0.5126
 6759SOL    HW131913   0.387   4.632   2.956  0.6930  0.3843  2.1087
 6759SOL    HW231914   0.251   4.598   2.959 -1.0218 -1.3219  2.4625
 6760SOL     OW31915   0.141   4.202   2.956  0.0923 -0.0854  1.2811
 6760SOL    HW131916   0.126   4.161   2.871  0.8041  1.4657  0.4254
 6760SOL    HW231917   0.227   4.243   2.955 -0.3423  0.7086 -1.1175
 6761SOL     OW31918   0.701   2.514   4.234  0.5422 -0.2674 -0.3966
 6761SOL    HW131919   0.678   2.507   4.327  0.1226  1.4073 -0.3786
 6761SOL    HW231920   0.700   2.422   4.209  0.8067 -1.0623  2.4447
 6762SOL     OW31921   0.993   1.506   5.341  0.4858 -0.1173  0.0531
 6762SOL    HW131922   0.988   1.453   5.261  0.7729 -0.5140  0.3026
 6762SOL    HW231923   0.903   1.497   5.373  0.8904  0.1220  1.2620
 6763SOL     OW31924   2.166   4.406   8.867  0.1895  0.1011 -0.2290
 6763SOL    HW131925   2.156   4.422   8.961 -0.8303 -1.4287 -0.0651
 6763SOL    HW231926   2.111   4.328   8.865 -1.8419  1.5724 -2.1384
 6764SOL     OW31927   2.657   0.791   1.913 -0.5653 -0.3676 -0.0353
 6764SOL    HW131928   2.696   0.863   1.962  0.1338 -1.1229  0.5177
 6764SOL    HW231929   2.712   0.787   1.834  0.9123 -1.0661  1.0293
 6765SOL     OW31930   0.068   1.630   1.337 -0.2054 -0.3227  0.2057
 6765SOL    HW131931   0.153   1.599   1.307 -0.5187 -0.8263 -0.1596
 6765SOL    HW231932   0.043   1.554   1.390 -0.1486  0.4181  1.2837
 6766SOL     OW31933   0.549   1.378  17.126  0.1278 -0.1995 -0.4804
 6766SOL    HW131934   0.516   1.310  17.066 -1.2188 -0.9261  1.0945
 6766SOL    HW231935   0.519   1.457  17.081  0.5249  0.2768  0.1015
 6767SOL     OW31936   3.310   3.549  14.200  0.0034  0.0740 -0.7303
 6767SOL    HW131937   3.256   3.611  14.151 -1.0552 -1.2488 -1.2538
 6767SOL    HW231938   3.383   3.608  14.215 -1.4879  1.5020  0.8501
 6768SOL     OW31939   0.552   1.326   3.744  0.3877 -0.4107 -0.2605
 6768SOL    HW131940   0.531   1.239   3.710 -0.2832  0.4462 -2.0647
 6768SOL    HW231941   0.574   1.306   3.835 -1.9344 -2.0784 -0.0518
 6769SOL     OW31942   2.849   2.184   1.133 -0.4399 -0.5048 -0.0778
 6769SOL    HW131943   2.941   2.179   1.109 -0.1571  0.6326  0.7501
 6769SOL    HW231944   2.851   2.256   1.197 -0.6604 -1.4877  1.0338
 6770SOL     OW31945   4.613   4.512   1.589  0.3274 -0.1357 -0.8736
 6770SOL    HW131946   4.635   4.588   1.535 -0.4506  0.3652 -0.4713
 6770SOL    HW231947   4.617   4.433   1.535 -0.5501 -0.6122 -0.2214
 6771SOL     OW31948   1.908   1.301   7.550  0.2046  0.3351  0.7549
 6771SOL    HW131949   1.816   1.277   7.550  0.4212 -0.5050  0.1925
 6771SOL    HW231950   1.918   1.353   7.629 -1.0075  0.0812  1.0643
 6772SOL     OW31951   3.321   0.952  13.754 -0.4611  0.0099  0.6622
 6772SOL    HW131952   3.405   0.992  13.775  0.3738 -0.7611 -1.1627
 6772SOL    HW231953   3.343   0.913  13.669  1.2828  1.5278  0.4247
 6773SOL     OW31954   3.129   2.855   8.866 -0.3892 -0.5430  0.1695
 6773SOL    HW131955   3.066   2.895   8.806  1.4475  0.2920 -1.2173
 6773SOL    HW231956   3.208   2.867   8.813 -0.8578  1.7906 -0.0191
 6774SOL     OW31957   1.734   1.943   7.920  0.1523 -0.3527  0.3003
 6774SOL    HW131958   1.711   2.006   7.988 -0.3481 -2.9251  2.5061
 6774SOL    HW231959   1.688   1.863   7.944 -0.1585 -0.2016  0.2188
 6775SOL     OW31960   4.704   2.203   9.629 -0.1805  0.2260 -0.2530
 6775SOL    HW131961   0.042   2.144   9.615  0.0260  0.9514 -2.2268
 6775SOL    HW231962   4.683   2.183   9.720  1.5033  1.4412  0.4150
 6776SOL     OW31963   4.506   4.566   0.156  0.2569 -0.4741  0.5632
 6776SOL    HW131964   4.580   4.593   0.210  0.6902 -0.0882 -0.2251
 6776SOL    HW231965   4.493   4.642   0.100  0.0399 -0.7380  0.2498
 6777SOL     OW31966   1.528   3.549   6.139 -0.3494 -0.3126 -0.0384
 6777SOL    HW131967   1.479   3.545   6.221  0.9278 -0.9225  0.7073
 6777SOL    HW231968   1.459   3.537   6.075 -1.2613  4.2370  0.0972
 6778SOL     OW31969   1.645   4.135   8.301  0.3805  0.1259 -0.2318
 6778SOL    HW131970   1.640   4.152   8.395 -1.2974  1.5981 -0.5796
 6778SOL    HW231971   1.669   4.043   8.312 -3.0134 -0.7233  0.0081
 6779SOL     OW31972   2.035   4.248   7.825 -0.4769 -0.2389 -0.0993
 6779SOL    HW131973   2.005   4.335   7.850 -2.1437 -1.0753  0.7785
 6779SOL    HW231974   2.018   4.242   7.731  3.1384  0.9308 -0.8218
 6780SOL     OW31975   1.492   3.383   0.338  0.2216 -0.3688  0.2349
 6780SOL    HW131976   1.565   3.395   0.277 -0.8220  0.0259 -0.9376
 6780SOL    HW231977   1.534   3.423   0.413 -0.0606  0.7904 -0.2369
 6781SOL     OW31978   3.137   0.168  10.010  0.0769  0.1286  0.4340
 6781SOL    HW131979   3.195   0.155   9.935  2.0685  0.4854  1.8966
 6781SOL    HW231980   3.191   0.147  10.087  0.0227 -1.6033 -0.0078
 6782SOL     OW31981   0.267   4.134  15.315 -0.9349 -0.3968  0.3378
 6782SOL    HW131982   0.315   4.053  15.335 -1.0709 -1.1169 -2.2326
 6782SOL    HW231983   0.291   4.154  15.225 -0.2327  0.5515  0.7385
 6783SOL     OW31984   1.897   3.401  11.554  0.1358 -0.0466 -0.0858
 6783SOL    HW131985   1.979   3.356  11.574 -0.4094 -0.7552  0.5420
 6783SOL    HW231986   1.928   3.449  11.477 -0.9975  0.3576 -0.2880
 6784SOL     OW31987   2.055   3.608   3.408  0.0897 -0.0983  0.1305
 6784SOL    HW131988   2.099   3.533   3.369  1.4018 -0.1550  1.6999
 6784SOL    HW231989   1.969   3.571   3.430  0.0864 -0.1859 -0.0294
 6785SOL     OW31990   1.875   4.465   4.617  0.2992 -0.0210  0.2760
 6785SOL    HW131991   1.816   4.483   4.690 -0.5784 -2.2769  0.1252
 6785SOL    HW231992   1.885   4.370   4.622 -0.8309 -0.1247  0.5441
 6786SOL     OW31993   3.325   0.806   5.143  0.0655  0.4703  0.4338
 6786SOL    HW131994   3.385   0.757   5.087 -0.0952 -1.7645  2.1838
 6786SOL    HW231995   3.387   0.844   5.206  0.9306  0.8377 -0.6402
 6787SOL     OW31996   1.791   0.197   2.330  0.4518  0.2384 -0.3368
 6787SOL    HW131997   1.753   0.187   2.417  0.8079 -1.8399 -0.4273
 6787SOL    HW231998   1.810   0.107   2.305 -0.5630  0.1070 -0.6488
 6788SOL     OW31999   2.331   0.048   1.923 -0.1098 -0.5633 -0.3208
 6788SOL    HW132000   2.306   0.139   1.906 -2.3341 -1.3938 -1.4813
 6788SOL    HW232001   2.279   0.006   1.855 -0.3858 -0.8943  0.0883
 6789SOL     OW32002   3.840   0.988   5.029 -0.0779  0.1127 -0.3691
 6789SOL    HW132003   3.896   1.035   4.967  0.0686 -1.1599 -1.2001
 6789SOL    HW232004   3.896   0.924   5.072  1.7004  2.0816  0.2318
 6790SOL     OW32005   0.168   3.540   9.208 -0.3167  0.4142 -0.2656
 6790SOL    HW132006   0.136   3.570   9.293  0.5729 -0.5444  0.4105
 6790SOL    HW232007   0.237   3.479   9.233 -1.5749 -0.2318  1.5960
 6791SOL     OW32008   2.517   1.569   1.810  0.0215  0.5752 -0.1145
 6791SOL    HW132009   2.586   1.598   1.750 -0.0679 -2.2493 -1.5601
 6791SOL    HW232010   2.478   1.655   1.829 -0.3997 -0.2507  2.6568
 6792SOL     OW32011   3.898   1.271  12.086  0.7713 -0.2454  0.0700
 6792SOL    HW132012   3.844   1.191  12.089  1.1144 -0.5845 -2.8729
 6792SOL    HW232013   3.959   1.262  12.159  1.1911 -2.6965 -0.5625
 6793SOL     OW32014   1.006   0.021   6.524 -0.0728  0.5533 -0.0120
 6793SOL    HW132015   1.020   4.708   6.443  0.6323  2.0340 -0.8020
 6793SOL    HW232016   1.027   0.107   6.488  2.5256 -0.9212 -1.9470
 6794SOL     OW32017   1.755   2.977  14.964  0.0096 -0.1278  0.4091
 6794SOL    HW132018   1.731   2.937  14.880  0.8486 -0.8141  0.4882
 6794SOL    HW232019   1.667   3.004  14.988 -1.1548 -0.0079 -3.9802
 6795SOL     OW32020   3.342   1.355   7.334  0.4316 -0.1252 -0.2041
 6795SOL    HW132021   3.360   1.448   7.332  1.6785 -0.3374  1.8702
 6795SOL    HW232022   3.307   1.348   7.423 -1.5840 -2.1266 -1.1464
 6796SOL     OW32023   2.807   4.253   4.692 -0.3243 -0.0946  0.2794
 6796SOL    HW132024   2.736   4.231   4.632  0.5410 -0.5689 -0.5595
 6796SOL    HW232025   2.786   4.190   4.761  1.7688  0.5936  1.5365
 6797SOL     OW32026   1.876   3.166   8.517 -0.2644 -0.2632  0.3856
 6797SOL    HW132027   1.914   3.082   8.490 -1.7392 -0.4624 -1.1090
 6797SOL    HW232028   1.896   3.228   8.446 -1.2854  1.0398  1.2472
 6798SOL     OW32029   4.280   4.536   1.931 -0.1886  0.6834 -0.3873
 6798SOL    HW132030   4.335   4.461   1.952 -1.1924  0.8127  2.6610
 6798SOL    HW232031   4.313   4.561   1.845  0.1224  0.8910 -0.2058
 6799SOL     OW32032   0.899   4.478   6.541 -0.4578  0.0071 -0.2672
 6799SOL    HW132033   0.899   4.390   6.579 -1.3145 -0.1257 -0.5774
 6799SOL    HW232034   0.825   4.522   6.584 -1.0723  0.9161 -2.2523
 6800SOL     OW32035   0.671   1.930   9.189 -0.2768  0.5434 -0.3563
 6800SOL    HW132036   0.684   2.025   9.189 -0.3588  0.5515 -1.6659
 6800SOL    HW232037   0.684   1.916   9.095 -3.4043 -0.1038 -0.6902
 6801SOL     OW32038   4.336   1.520   0.298  0.1932 -0.0947 -0.0354
 6801SOL    HW132039   4.257   1.570   0.278  1.0569  1.9684  1.7407
 6801SOL    HW232040   4.320   1.498   0.390 -1.6264 -2.4975 -0.9119
 6802SOL     OW32041   0.364   3.267  16.690 -0.1472  0.0050  0.0926
 6802SOL    HW132042   0.423   3.194  16.710 -0.5939  0.8058  4.2843
 6802SOL    HW232043   0.349   3.297  16.780 -1.9513  1.0813 -0.5570
 6803SOL     OW32044   1.936   0.093   6.347  0.3056 -0.2544 -0.3865
 6803SOL    HW132045   1.879   0.112   6.273  1.8191  2.7231 -0.8185
 6803SOL    HW232046   2.015   0.052   6.313  0.0091 -1.0976 -0.0534
 6804SOL     OW32047   2.071   3.576   8.077  0.0936  0.5107  0.2428
 6804SOL    HW132048   2.165   3.590   8.093  0.3644 -0.7045 -0.2508
 6804SOL    HW232049   2.058   3.484   8.099 -1.4881  0.6353 -0.1690
 6805SOL     OW32050   3.666   4.462  14.855  0.0556  0.2224  0.2380
 6805SOL    HW132051   3.751   4.431  14.822 -0.1967  0.5890 -0.7508
 6805SOL    HW232052   3.689   4.481  14.946 -2.0838  0.4606  0.7216
 6806SOL     OW32053   2.879   4.717  11.486  0.2823 -0.3876  0.5323
 6806SOL    HW132054   2.833   0.061  11.508 -0.6305 -0.7631  0.0080
 6806SOL    HW232055   2.912   4.694  11.573  0.9607 -0.2536  0.3144
 6807SOL     OW32056   1.554   2.657   1.177 -0.6495  0.2020 -0.1993
 6807SOL    HW132057   1.534   2.705   1.097  3.0985  0.9627 -0.6655
 6807SOL    HW232058   1.636   2.610   1.161 -0.7337  0.1134 -0.3599
 6808SOL     OW32059   4.603   4.188  10.497  0.1653 -0.1774 -0.2187
 6808SOL    HW132060   4.536   4.134  10.456 -0.6230 -0.1299  0.9691
 6808SOL    HW232061   4.541   4.229  10.558 -0.1822 -0.2348 -0.5356
 6809SOL     OW32062   0.276   2.677   7.614 -0.1319 -0.2580 -0.2886
 6809SOL    HW132063   0.285   2.676   7.709 -1.2971 -1.0162 -0.1843
 6809SOL    HW232064   0.309   2.587   7.611  2.1464  0.6427 -1.8041
 6810SOL     OW32065   3.335   0.144   4.878  0.0485  0.3614 -0.4928
 6810SOL    HW132066   3.324   0.144   4.973  1.0877 -2.2708 -0.3599
 6810SOL    HW232067   3.389   0.222   4.869  1.5865 -1.0593 -3.4381
 6811SOL     OW32068   1.340   0.114   5.031  0.1346 -0.4747 -0.1125
 6811SOL    HW132069   1.255   0.156   5.049 -0.1694 -0.8611 -0.6405
 6811SOL    HW232070   1.326   0.089   4.939 -1.9093 -1.0179  0.3471
 6812SOL     OW32071   3.772   3.269   2.533 -0.0946 -0.2251  0.1516
 6812SOL    HW132072   3.848   3.256   2.476  1.5079  0.2985  2.1613
 6812SOL    HW232073   3.739   3.182   2.554  1.0570 -0.9767 -1.2362
 6813SOL     OW32074   2.260   4.258   0.064  0.0912 -0.2699  0.3730
 6813SOL    HW132075   2.297   4.236   0.149 -0.2462 -0.7564  0.3957
 6813SOL    HW232076   2.332   4.302   0.019 -1.7429  1.5708 -0.7500
 6814SOL     OW32077   1.249   3.365   4.032  0.7935 -0.1585  0.5384
 6814SOL    HW132078   1.325   3.421   4.045  1.9049 -1.7750  0.9398
 6814SOL    HW232079   1.173   3.409   4.072 -1.2401 -1.1333 -2.2760
 6815SOL     OW32080   3.745   1.964   6.636  0.3557 -0.2598  0.2281
 6815SOL    HW132081   3.735   1.997   6.546 -3.4391  2.2135  1.5488
 6815SOL    HW232082   3.836   1.991   6.648  0.9054 -1.8496 -0.4173
 6816SOL     OW32083   4.120   0.382   7.948 -0.0554 -0.4516  0.0795
 6816SOL    HW132084   4.129   0.335   8.031  1.0421 -2.1207 -0.9965
 6816SOL    HW232085   4.034   0.423   7.953 -0.3792 -1.1716  0.4219
 6817SOL     OW32086   1.427   4.728  14.348 -0.6371  0.1514 -0.3241
 6817SOL    HW132087   1.433   0.014  14.441 -1.2815 -0.3938 -0.1487
 6817SOL    HW232088   1.339   4.691  14.351  0.8003 -3.3513 -2.2153
 6818SOL     OW32089   3.497   3.997  17.657 -0.4099 -0.4388  0.1600
 6818SOL    HW132090   3.578   3.989  17.708 -0.1688  2.4398  0.2255
 6818SOL    HW232091   3.432   3.974  17.724 -0.7048 -1.5208 -0.4970
 6819SOL     OW32092   3.065   0.447   4.753 -0.0617  0.4170  0.9389
 6819SOL    HW132093   2.988   0.504   4.758 -0.5213 -0.1839  0.7911
 6819SOL    HW232094   3.050   0.383   4.822  0.5586 -0.9998 -0.2189
 6820SOL     OW32095   4.312   4.490   7.725  0.0483 -0.4414  0.5742
 6820SOL    HW132096   4.224   4.492   7.689 -0.4305 -0.1137  1.7668
 6820SOL    HW232097   4.335   4.583   7.716 -1.4221 -0.0416  1.0021
 6821SOL     OW32098   1.524   0.228  12.162 -0.0627  0.0204  0.1558
 6821SOL    HW132099   1.587   0.160  12.140  1.9045  0.9436  2.8421
 6821SOL    HW232100   1.481   0.236  12.077 -0.1147  2.9145  0.4268
 6822SOL     OW32101   2.635   1.789  14.972 -0.1603 -0.3349  0.2561
 6822SOL    HW132102   2.704   1.722  14.968  0.4156  0.1585  2.2882
 6822SOL    HW232103   2.652   1.839  14.892  0.8864 -1.9049 -0.5279
 6823SOL     OW32104   1.434   3.569  12.073  0.3654 -0.4497 -0.0098
 6823SOL    HW132105   1.448   3.482  12.037 -0.3536 -0.1510 -1.0171
 6823SOL    HW232106   1.513   3.612  12.043  0.5071  1.3465  2.8755
 6824SOL     OW32107   2.288   2.421   5.091 -0.1269  0.0302  0.3050
 6824SOL    HW132108   2.344   2.376   5.155 -0.6351 -0.6323  0.2885
 6824SOL    HW232109   2.312   2.378   5.009  0.1515 -0.4389  0.6243
 6825SOL     OW32110   0.003   2.121   7.836  0.6721  0.2316  0.1167
 6825SOL    HW132111   4.654   2.080   7.826  0.6373  0.6431 -1.2020
 6825SOL    HW232112   0.038   2.042   7.878  1.8984  0.3802 -0.6274
 6826SOL     OW32113   4.670   1.319  16.940 -0.3650 -0.1051 -0.7069
 6826SOL    HW132114   4.636   1.257  16.875  0.6090  0.3380 -1.6374
 6826SOL    HW232115   4.692   1.265  17.016 -3.9057  0.5837  0.8248
 6827SOL     OW32116   2.720   0.488   5.366 -0.2222  0.1743 -0.4732
 6827SOL    HW132117   2.706   0.582   5.373 -0.9729  0.0608 -0.4311
 6827SOL    HW232118   2.806   0.473   5.326 -0.1598  0.7194 -0.5416
 6828SOL     OW32119   2.964   0.271   2.703 -0.6562 -0.6127 -0.1932
 6828SOL    HW132120   2.872   0.295   2.691 -0.6864 -0.0652  1.1224
 6828SOL    HW232121   2.953   0.211   2.778 -1.3099 -1.2554 -0.7976
 6829SOL     OW32122   0.215   0.235   1.195 -0.3858 -0.1106  0.2392
 6829SOL    HW132123   0.249   0.275   1.276  0.2969  0.1632 -0.1820
 6829SOL    HW232124   0.127   0.272   1.199 -0.3027  0.2041 -0.9792
 6830SOL     OW32125   3.075   0.661   5.108  1.0031 -0.2656  0.0963
 6830SOL    HW132126   3.101   0.677   5.017  2.6533 -1.6424  0.3206
 6830SOL    HW232127   3.154   0.694   5.152  1.3065  1.2097 -1.5850
 6831SOL     OW32128   3.884   0.269  15.533  0.0592 -0.2203 -0.3217
 6831SOL    HW132129   3.974   0.301  15.542  0.7977 -2.8965  1.7484
 6831SOL    HW232130   3.848   0.317  15.458  2.3966  4.2315  1.3436
 6832SOL     OW32131   4.237   2.976   7.790  0.0305  0.0762  0.4032
 6832SOL    HW132132   4.323   3.018   7.796 -0.6789  1.4723  0.8309
 6832SOL    HW232133   4.193   3.030   7.724 -0.3503 -2.0000 -1.0697
 6833SOL     OW32134   4.230   3.141  10.640  0.1197  0.1660  0.0725
 6833SOL    HW132135   4.319   3.126  10.671  0.1723  0.8912  0.2710
 6833SOL    HW232136   4.181   3.062  10.661  3.2702 -1.7167  0.2386
 6834SOL     OW32137   0.786   3.625   8.450  0.4981 -0.1359 -0.0256
 6834SOL    HW132138   0.701   3.669   8.447  0.6241  0.1830  1.1468
 6834SOL    HW232139   0.763   3.555   8.511  0.0434  0.1301  0.1047
 6835SOL     OW32140   2.455   2.892   8.019 -0.4048  0.7100  0.0468
 6835SOL    HW132141   2.493   2.806   8.002 -1.9687  0.1254 -0.5467
 6835SOL    HW232142   2.527   2.931   8.068  0.0472 -1.7999  1.3623
 6836SOL     OW32143   1.422   4.042  16.183 -0.5788  0.3778  0.2944
 6836SOL    HW132144   1.381   4.018  16.266  0.3541  0.3836  0.7591
 6836SOL    HW232145   1.471   3.963  16.162 -1.6367 -1.1698  3.5399
 6837SOL     OW32146   2.062   1.779   5.346 -0.2247 -0.3183 -0.0973
 6837SOL    HW132147   2.029   1.782   5.256 -0.8814 -1.1155  0.1193
 6837SOL    HW232148   2.104   1.865   5.344  0.3671 -0.5667  2.1107
 6838SOL     OW32149   3.677   4.722   6.932  0.1973  0.1587 -0.0664
 6838SOL    HW132150   3.710   4.657   6.870 -1.2717 -1.3230  0.7263
 6838SOL    HW232151   3.720   0.070   6.921  2.5008 -0.6463  2.9697
 6839SOL     OW32152   2.468   3.665   6.456 -0.2305 -0.0766 -0.4079
 6839SOL    HW132153   2.383   3.673   6.415 -0.8967 -1.0798  0.7861
 6839SOL    HW232154   2.469   3.575   6.489 -1.2498  1.1534  3.0267
 6840SOL     OW32155   3.825   1.826   1.842  0.4471 -0.0951 -0.0360
 6840SOL    HW132156   3.834   1.825   1.747  0.5144  0.0018 -0.0299
 6840SOL    HW232157   3.768   1.750   1.852  1.3343 -1.0161 -1.9949
 6841SOL     OW32158   0.794   2.507  17.566 -0.2069 -0.1602 -0.0637
 6841SOL    HW132159   0.885   2.501  17.595  0.2554  0.3007 -1.4299
 6841SOL    HW232160   0.784   2.414  17.547 -2.3977 -0.0703  0.6340
 6842SOL     OW32161   3.171   1.907   8.790 -0.2813 -0.1041  0.2005
 6842SOL    HW132162   3.245   1.857   8.755  0.0181  0.9811 -0.7376
 6842SOL    HW232163   3.163   1.889   8.884  2.2947 -2.8168 -0.0808
 6843SOL     OW32164   2.443   0.074   5.846  0.0156  0.4262 -0.1040
 6843SOL    HW132165   2.415   4.719   5.842 -0.6138  0.5775  0.6890
 6843SOL    HW232166   2.361   0.121   5.829 -0.0269  0.1698 -0.5980
 6844SOL     OW32167   1.190   3.948   5.276  0.3351 -0.3729 -0.5398
 6844SOL    HW132168   1.152   3.878   5.224 -1.3501  1.1877 -1.3995
 6844SOL    HW232169   1.264   3.969   5.220  1.9498  1.2121  2.2197
 6845SOL     OW32170   3.446   4.481   2.414  0.1768  0.0569  0.0126
 6845SOL    HW132171   3.491   4.430   2.482 -0.0340  2.0223  1.6102
 6845SOL    HW232172   3.358   4.444   2.427 -0.2516  1.5075  1.1740
 6846SOL     OW32173   2.093   2.465   3.585  0.4289 -0.2434  0.6182
 6846SOL    HW132174   2.154   2.394   3.570 -0.6670 -1.0768  0.0998
 6846SOL    HW232175   2.024   2.414   3.627 -0.3152  0.0611 -0.2297
 6847SOL     OW32176   4.354   1.248   2.069 -0.4533 -0.1992  0.0334
 6847SOL    HW132177   4.365   1.268   2.162  0.1559 -1.4942  0.2337
 6847SOL    HW232178   4.444   1.268   2.041  0.7297 -1.2422  3.0967
 6848SOL     OW32179   1.377   0.484   2.908  0.1298 -0.1386 -0.6492
 6848SOL    HW132180   1.400   0.496   3.001  1.3023 -2.2461 -0.6907
 6848SOL    HW232181   1.402   0.395   2.887 -1.1747 -0.7401  0.3212
 6849SOL     OW32182   1.700   2.369   3.931  0.0472 -0.5053  0.2416
 6849SOL    HW132183   1.638   2.296   3.921  0.3155 -0.6757 -0.1806
 6849SOL    HW232184   1.653   2.430   3.875  0.3759  0.9086  1.5025
 6850SOL     OW32185   3.409   4.537   6.977 -0.5418  0.7096 -0.2337
 6850SOL    HW132186   3.357   4.590   7.037 -1.0502  0.9517 -0.8799
 6850SOL    HW232187   3.498   4.548   7.009  0.3867 -1.9870 -1.8285
 6851SOL     OW32188   3.140   4.164   8.686  0.0426  0.2930  0.5235
 6851SOL    HW132189   3.081   4.234   8.713 -1.8339 -0.6049 -1.2856
 6851SOL    HW232190   3.149   4.114   8.767 -0.9949  0.6997  0.8898
 6852SOL     OW32191   2.689   1.979   7.816 -0.0055 -0.7477  0.3390
 6852SOL    HW132192   2.664   2.058   7.864  1.3602  0.7073 -1.3784
 6852SOL    HW232193   2.778   1.969   7.850 -0.2786 -2.6839  0.5090
 6853SOL     OW32194   3.831   1.835  10.618 -0.0183 -0.3272  0.6798
 6853SOL    HW132195   3.765   1.904  10.620 -0.6282 -0.8304 -2.8962
 6853SOL    HW232196   3.770   1.762  10.617 -2.4036  1.6818  0.2554
 6854SOL     OW32197   4.505   1.911   8.823 -0.5641  0.2852  0.0437
 6854SOL    HW132198   4.426   1.870   8.859  0.6051  0.3405  2.7159
 6854SOL    HW232199   4.467   1.980   8.771  0.0147  0.7037  0.1735
 6855SOL     OW32200   4.006   1.369   2.706  0.3874  0.2541 -0.0468
 6855SOL    HW132201   3.927   1.413   2.736  1.7580  2.0022  1.0429
 6855SOL    HW232202   4.055   1.353   2.787 -1.7593 -0.8747  1.0320
 6856SOL     OW32203   2.356   4.343   7.905 -0.3107  0.2583 -0.3717
 6856SOL    HW132204   2.430   4.345   7.965 -1.1354 -0.4578  0.6747
 6856SOL    HW232205   2.278   4.321   7.956 -1.2242  1.1146 -1.3937
 6857SOL     OW32206   3.988   4.209   2.262 -0.2538 -0.2197  0.8058
 6857SOL    HW132207   3.930   4.137   2.236 -1.2309  0.2835  1.5901
 6857SOL    HW232208   3.992   4.258   2.180  0.0420 -0.8564  0.4438
 6858SOL     OW32209   0.022   4.048  10.839  0.4536  0.0474 -0.3625
 6858SOL    HW132210   0.076   4.113  10.884 -1.0169  0.8792  0.2220
 6858SOL    HW232211   0.060   4.052  10.752 -1.4528 -2.6306 -1.3214
 6859SOL     OW32212   0.449   3.012   5.150 -0.1388 -0.4011 -0.6860
 6859SOL    HW132213   0.460   3.103   5.177  1.7565 -1.2142  1.2626
 6859SOL    HW232214   0.539   2.981   5.141 -0.3181 -0.7101 -1.4217
 6860SOL     OW32215   3.748   3.753   5.789  0.4608 -0.5288 -0.1777
 6860SOL    HW132216   3.762   3.680   5.728  0.9484  0.3548 -1.1302
 6860SOL    HW232217   3.654   3.740   5.794  0.2835  1.2372  0.9113
 6861SOL     OW32218   2.789   4.331   2.393 -0.0659  0.3749 -0.0527
 6861SOL    HW132219   2.777   4.245   2.433  1.6207 -0.2927 -0.9401
 6861SOL    HW232220   2.867   4.360   2.441 -0.6764 -2.5625  2.6642
 6862SOL     OW32221   4.219   1.591   2.523  0.2050  0.1001  0.3384
 6862SOL    HW132222   4.249   1.623   2.438  0.9761  0.1432  0.6317
 6862SOL    HW232223   4.155   1.660   2.538 -1.4899 -0.8241 -2.5186
 6863SOL     OW32224   4.081   2.013   9.466  0.3946 -0.1318 -0.5870
 6863SOL    HW132225   4.113   2.025   9.556 -3.3247 -3.4483  1.2171
 6863SOL    HW232226   4.085   2.100   9.427 -0.4484 -0.4161 -1.3194
 6864SOL     OW32227   0.165   0.126   4.117 -0.3351  0.0711  0.1943
 6864SOL    HW132228   0.185   0.217   4.140 -1.3443 -0.0075  1.3915
 6864SOL    HW232229   0.085   0.148   4.068 -0.1724  0.3900  0.0686
 6865SOL     OW32230   0.708   2.427   5.056  0.4097  0.3911 -0.7942
 6865SOL    HW132231   0.787   2.392   5.014  1.9937  2.3617  0.5424
 6865SOL    HW232232   0.747   2.500   5.105 -2.8859  1.9563 -0.5467
 6866SOL     OW32233   4.586   4.197   5.005  0.0469 -0.3947  0.1604
 6866SOL    HW132234   4.673   4.176   4.972 -0.5286 -0.8870 -1.0547
 6866SOL    HW232235   4.531   4.152   4.941  1.5862  0.4122 -1.7159
 6867SOL     OW32236   1.757   3.698   1.039 -0.4673  0.0175 -0.0778
 6867SOL    HW132237   1.843   3.662   1.059 -2.4656 -3.4720  2.2335
 6867SOL    HW232238   1.784   3.789   1.028 -0.9813  0.4017  1.9207
 6868SOL     OW32239   2.876   2.221   5.248 -0.2989  0.7739 -0.2198
 6868SOL    HW132240   2.832   2.138   5.230 -0.3072  0.9662 -1.0619
 6868SOL    HW232241   2.911   2.198   5.334  0.1692  3.6876  0.3795
 6869SOL     OW32242   4.369   0.408  13.354 -0.4403  0.7684  0.3479
 6869SOL    HW132243   4.439   0.430  13.293  0.6721 -3.8768  0.0006
 6869SOL    HW232244   4.417   0.435  13.433 -0.4755  0.7534  0.3745
 6870SOL     OW32245   0.587   4.564   8.281 -0.3760 -0.4678 -0.4903
 6870SOL    HW132246   0.554   4.646   8.243  0.9823 -0.0383 -0.7349
 6870SOL    HW232247   0.514   4.534   8.335  0.6139  0.6210  1.4179
 6871SOL     OW32248   3.215   0.203   1.346 -0.4262  0.0729  0.3296
 6871SOL    HW132249   3.135   0.157   1.321  0.8382 -0.7543 -2.1761
 6871SOL    HW232250   3.206   0.221   1.440  1.8125 -2.4222  1.0211
 6872SOL     OW32251   1.520   4.237  12.330  0.2093 -0.0151 -0.2298
 6872SOL    HW132252   1.546   4.319  12.372  1.8257 -1.1338  0.9895
 6872SOL    HW232253   1.591   4.211  12.272  1.1117 -0.7841  1.2051
 6873SOL     OW32254   3.115   0.249   0.083 -0.3592  0.9949 -0.1374
 6873SOL    HW132255   3.151   0.234  17.742 -1.7444  1.9376 -0.8790
 6873SOL    HW232256   3.173   0.314   0.124  2.7472 -0.2194 -2.6381
 6874SOL     OW32257   2.774   4.394   7.286  0.0452  0.4094  0.2787
 6874SOL    HW132258   2.848   4.336   7.268  0.8809  0.6464  2.9969
 6874SOL    HW232259   2.723   4.364   7.362  0.7208 -1.4657 -0.0039
 6875SOL     OW32260   3.886   0.904  17.545 -0.7597  0.5530  0.3412
 6875SOL    HW132261   3.934   0.983  17.522  2.4985 -2.1428 -2.2418
 6875SOL    HW232262   3.959   0.842  17.553 -0.8892  0.0086 -3.0068
 6876SOL     OW32263   4.358   2.387   5.755 -0.5536  0.2706  0.4166
 6876SOL    HW132264   4.274   2.434   5.754  1.1385  3.2205 -1.5128
 6876SOL    HW232265   4.394   2.384   5.667 -2.6224 -1.7107 -0.3428
 6877SOL     OW32266   2.484   1.067   5.576 -0.9833 -0.1760 -0.1147
 6877SOL    HW132267   2.477   1.074   5.481  0.3484  1.0577 -0.1268
 6877SOL    HW232268   2.405   1.020   5.601  0.3763 -1.4168  1.8679
 6878SOL     OW32269   2.508   2.954   7.724  0.1431 -0.8248  0.7908
 6878SOL    HW132270   2.492   2.937   7.817  2.1182 -0.7308  1.1371
 6878SOL    HW232271   2.425   2.989   7.693  0.4089 -1.0803 -0.2119
 6879SOL     OW32272   2.293   0.773   5.992 -0.3074  0.0194  0.4541
 6879SOL    HW132273   2.236   0.696   5.997  1.8804 -1.4902  1.9469
 6879SOL    HW232274   2.251   0.820   6.063  2.0111  2.8678 -0.0728
 6880SOL     OW32275   3.145   3.556   0.083  0.1746 -0.0551 -0.1495
 6880SOL    HW132276   3.110   3.602   0.007 -0.4484 -1.5820 -0.8014
 6880SOL    HW232277   3.234   3.591   0.075  0.1082  0.6877  2.4897
 6881SOL     OW32278   0.231   0.622  12.661  0.5894 -0.3136  0.1930
 6881SOL    HW132279   0.320   0.656  12.650  0.4368  1.3995  4.4923
 6881SOL    HW232280   0.254   0.529  12.658  0.1571 -0.5198  3.8758
 6882SOL     OW32281   0.444   1.795   5.273 -0.5739 -0.3596 -0.1403
 6882SOL    HW132282   0.523   1.752   5.240  0.8739  0.5915  2.0842
 6882SOL    HW232283   0.376   1.745   5.229  0.5114 -1.7487 -0.2413
 6883SOL     OW32284   2.258   1.365   2.038 -0.0377  0.2542  0.7527
 6883SOL    HW132285   2.310   1.331   1.965 -0.9245  0.0487  0.2118
 6883SOL    HW232286   2.181   1.309   2.040  0.9887 -1.1209  1.7975
 6884SOL     OW32287   2.267   2.901   7.453 -0.0022  0.2984  0.0460
 6884SOL    HW132288   2.180   2.868   7.431 -0.8864  0.3644  3.4937
 6884SOL    HW232289   2.308   2.901   7.366 -0.6369  2.0441 -0.2503
 6885SOL     OW32290   1.255   1.360  17.172 -0.2007  0.0214  0.1304
 6885SOL    HW132291   1.168   1.391  17.197 -0.5593 -1.0671  0.2426
 6885SOL    HW232292   1.251   1.267  17.195 -1.5926 -0.5602 -2.4598
 6886SOL     OW32293   2.709   0.773   5.397  0.4168 -0.1323 -0.4191
 6886SOL    HW132294   2.694   0.811   5.484 -1.7064 -0.0116 -0.8311
 6886SOL    HW232295   2.616   0.768   5.376  0.4052  0.0424 -0.4112
 6887SOL     OW32296   2.780   3.302   6.209 -0.5299 -0.1156 -1.0319
 6887SOL    HW132297   2.708   3.265   6.157  1.1849 -0.2565 -3.3043
 6887SOL    HW232298   2.763   3.388   6.171  0.0925  0.3327 -0.2809
 6888SOL     OW32299   3.279   2.625   7.364  0.2008 -0.3919 -0.4984
 6888SOL    HW132300   3.271   2.718   7.384 -3.2304 -1.1076  1.5452
 6888SOL    HW232301   3.353   2.598   7.418  0.1078  0.8502  0.2424
 6889SOL     OW32302   2.937   3.499   8.351 -0.1072 -0.5426 -0.1313
 6889SOL    HW132303   2.872   3.430   8.339  1.0901 -2.1218  2.4466
 6889SOL    HW232304   2.958   3.482   8.442  1.7961  1.3109 -0.2216
 6890SOL     OW32305   3.891   3.537   4.034 -0.2757 -0.4025 -0.4171
 6890SOL    HW132306   3.946   3.608   4.000  1.3398 -0.3042  2.3937
 6890SOL    HW232307   3.931   3.463   3.989 -1.9540 -1.9145  0.6190
 6891SOL     OW32308   0.906   1.384   4.268 -0.5015 -0.4776 -0.3076
 6891SOL    HW132309   0.944   1.297   4.263 -0.5846 -0.4887 -0.7928
 6891SOL    HW232310   0.815   1.367   4.292 -0.4457  0.7541  0.8131
 6892SOL     OW32311   1.566   1.039   6.241 -0.3442  0.3415  0.4487
 6892SOL    HW132312   1.569   0.976   6.169  1.2027  1.3303 -0.3419
 6892SOL    HW232313   1.573   0.978   6.314 -0.4770  0.7165  0.7697
 6893SOL     OW32314   2.586   1.783   6.034 -0.1549 -0.6885 -0.1765
 6893SOL    HW132315   2.590   1.748   5.945  2.5004  0.5871 -0.5325
 6893SOL    HW232316   2.636   1.863   6.020 -1.6349 -0.0303 -1.6580
 6894SOL     OW32317   2.756   0.541   4.074  0.1473  0.6973  0.9132
 6894SOL    HW132318   2.784   0.631   4.059 -0.4094  1.0626  2.0251
 6894SOL    HW232319   2.717   0.546   4.161  0.0322 -1.1315  0.9793
 6895SOL     OW32320   0.693   3.113   9.111  0.1073 -0.4305  0.1945
 6895SOL    HW132321   0.657   3.106   9.200  0.3803  4.0167  0.6469
 6895SOL    HW232322   0.615   3.094   9.060  0.1620 -1.4256  0.4872
 6896SOL     OW32323   0.302   3.508   2.341 -0.1305 -0.0411 -0.2270
 6896SOL    HW132324   0.303   3.550   2.427 -0.4713 -1.2398  0.3583
 6896SOL    HW232325   0.372   3.551   2.292  0.6628 -1.4519 -0.3244
 6897SOL     OW32326   1.012   1.152   4.373  0.2794 -0.5577 -0.3368
 6897SOL    HW132327   0.990   1.059   4.387  2.4764 -1.2903 -1.7302
 6897SOL    HW232328   0.981   1.189   4.456  0.8302 -1.7764  0.4168
 6898SOL     OW32329   2.839   3.946   6.736  0.1246 -0.0431  0.0359
 6898SOL    HW132330   2.770   3.911   6.791 -1.5249  0.1315 -1.9195
 6898SOL    HW232331   2.817   4.039   6.728  0.3593  0.0722  0.7484
 6899SOL     OW32332   4.060   1.339   3.671 -0.4908 -0.5329 -0.5662
 6899SOL    HW132333   4.086   1.271   3.733 -0.0861 -0.2307 -0.4045
 6899SOL    HW232334   3.965   1.335   3.678 -0.6688  1.5451 -1.8337
 6900SOL     OW32335   1.207   1.715   6.756  0.3985 -0.4612 -0.2990
 6900SOL    HW132336   1.265   1.776   6.803 -0.8282  1.2803 -1.0270
 6900SOL    HW232337   1.272   1.669   6.703 -1.4508 -0.1051 -2.8371
 6901SOL     OW32338   2.616   4.281  14.451  0.0784 -0.4360 -0.0591
 6901SOL    HW132339   2.673   4.350  14.417 -1.5178 -0.4378 -2.8025
 6901SOL    HW232340   2.682   4.222  14.486  1.7250 -0.1748 -2.7142
 6902SOL     OW32341   0.347   1.354   4.343 -0.0579 -0.0905  0.0824
 6902SOL    HW132342   0.359   1.336   4.436  0.2807  2.1000  0.4773
 6902SOL    HW232343   0.294   1.434   4.343  0.1118  0.0208  0.7230
 6903SOL     OW32344   3.443   0.328   3.903 -0.0404  0.3108 -0.1800
 6903SOL    HW132345   3.497   0.261   3.945 -1.4603 -0.7521 -0.0426
 6903SOL    HW232346   3.383   0.283   3.844 -1.6833  1.0152  0.9283
 6904SOL     OW32347   4.409   4.036   1.955  0.1193  0.0577 -0.0957
 6904SOL    HW132348   4.411   4.001   2.044  0.2538 -0.7455 -0.4139
 6904SOL    HW232349   4.354   3.979   1.901  0.9834  0.2752 -1.2023
 6905SOL     OW32350   2.066   2.844   7.193 -0.7591 -0.0989 -0.5131
 6905SOL    HW132351   2.070   2.762   7.144 -0.1042  0.6436 -1.6828
 6905SOL    HW232352   2.123   2.900   7.141  0.1186  0.3568  0.9460
 6906SOL     OW32353   2.798   4.203   6.038 -1.0284  0.0565 -0.3505
 6906SOL    HW132354   2.869   4.144   6.062 -1.6634  0.0980  1.6288
 6906SOL    HW232355   2.800   4.275   6.101  1.2029  0.2686 -0.6775
 6907SOL     OW32356   2.099   2.479  14.476  0.0900  0.2092 -0.0264
 6907SOL    HW132357   2.149   2.558  14.492  0.5894 -0.4609  1.7289
 6907SOL    HW232358   2.170   2.414  14.477  0.3555  0.5140  2.4109
 6908SOL     OW32359   0.926   2.541   1.482  0.5420  0.2742 -0.2826
 6908SOL    HW132360   0.947   2.454   1.516 -1.0952 -0.1354 -0.3268
 6908SOL    HW232361   0.912   2.527   1.388  2.1723  1.6829 -0.7345
 6909SOL     OW32362   1.632   3.139   6.892  0.5659  0.0404 -0.0953
 6909SOL    HW132363   1.611   3.212   6.950  0.3984 -0.5438  0.5793
 6909SOL    HW232364   1.641   3.066   6.953  0.0683  0.6522  0.7027
 6910SOL     OW32365   3.221   2.164  13.573  0.0512 -0.3874  0.2371
 6910SOL    HW132366   3.185   2.166  13.662  2.3941 -1.5460  1.1965
 6910SOL    HW232367   3.219   2.255  13.544 -1.0036  0.1483  1.9718
 6911SOL     OW32368   3.496   3.582   4.240 -0.3744 -0.3748 -0.3075
 6911SOL    HW132369   3.440   3.655   4.266 -0.4421 -0.3230 -0.5907
 6911SOL    HW232370   3.443   3.504   4.229 -1.6011  0.4703 -0.3635
 6912SOL     OW32371   0.278   3.169   3.954  0.2228  0.0408 -0.3340
 6912SOL    HW132372   0.371   3.171   3.933 -0.1680 -2.7048 -2.3292
 6912SOL    HW232373   0.259   3.075   3.949 -1.2137  0.2709  0.7053
 6913SOL     OW32374   3.447   1.016   4.381 -0.4299 -0.0906  0.2337
 6913SOL    HW132375   3.361   1.036   4.418  0.1081  1.6879  0.5131
 6913SOL    HW232376   3.458   1.050   4.292  1.2453 -0.5172  0.2775
 6914SOL     OW32377   0.395   2.358   6.865 -0.2956 -0.4433 -0.1972
 6914SOL    HW132378   0.452   2.409   6.923 -0.0874 -0.7141 -0.1681
 6914SOL    HW232379   0.450   2.288   6.830 -0.0272  0.4427 -1.5119
 6915SOL     OW32380   3.374   0.817   4.655 -0.1562 -0.3750  0.0912
 6915SOL    HW132381   3.340   0.730   4.677  2.0082 -1.1557  0.3142
 6915SOL    HW232382   3.366   0.823   4.560  2.6160  0.8764 -0.0591
 6916SOL     OW32383   0.695   4.697  12.109 -0.0337  0.2951  0.3624
 6916SOL    HW132384   0.649   4.726  12.188 -0.4944  2.9975 -0.8900
 6916SOL    HW232385   0.758   0.032  12.110  1.1507 -0.7169 -2.4450
 6917SOL     OW32386   2.950   4.034   4.604 -0.2673  0.6453  0.3149
 6917SOL    HW132387   2.924   4.117   4.645  1.0699  1.9787 -1.5221
 6917SOL    HW232388   2.925   3.965   4.665  0.3728 -0.7855 -1.0465
 6918SOL     OW32389   3.493   4.240   8.945  0.1230  0.5185  0.4806
 6918SOL    HW132390   3.459   4.183   9.014  0.5231 -0.3890 -0.0654
 6918SOL    HW232391   3.545   4.173   8.900 -1.4851  1.2944 -2.5535
 6919SOL     OW32392   1.414   4.715   3.622 -0.9872  0.4891  0.1521
 6919SOL    HW132393   1.509   4.708   3.611 -1.0381  0.3685 -0.1971
 6919SOL    HW232394   1.392   4.646   3.685 -2.2097 -0.9639 -1.8756
 6920SOL     OW32395   1.903   3.880   4.216 -0.0971  0.2878 -0.1397
 6920SOL    HW132396   1.908   3.938   4.292 -0.9684 -0.4592  0.4961
 6920SOL    HW232397   1.932   3.794   4.248 -1.9523 -0.8926 -1.6324
 6921SOL     OW32398   0.850   0.532   1.732 -0.2692  0.0501 -0.0870
 6921SOL    HW132399   0.909   0.520   1.806 -0.6779  1.0049  0.3884
 6921SOL    HW232400   0.763   0.506   1.761  0.2337  0.1198  1.4837
 6922SOL     OW32401   3.735   1.941   2.079  0.4902 -0.7232  0.8101
 6922SOL    HW132402   3.760   1.900   1.997 -1.1306  0.0694 -0.0843
 6922SOL    HW232403   3.808   1.935   2.140 -0.8662  1.5960  2.6960
 6923SOL     OW32404   2.123   3.282   6.416 -0.0275 -0.5711  0.0813
 6923SOL    HW132405   2.091   3.245   6.498  1.0655 -1.7839 -0.0561
 6923SOL    HW232406   2.076   3.366   6.413  1.7613  0.5697  3.1411
 6924SOL     OW32407   1.297   0.079   8.097  0.2736  0.4045 -0.3600
 6924SOL    HW132408   1.340   0.094   8.181 -0.0730 -1.3684  0.1382
 6924SOL    HW232409   1.216   0.124   8.122  0.9265  1.6352 -0.4834
 6925SOL     OW32410   2.193   4.506   2.811 -0.4914 -0.4844 -0.2257
 6925SOL    HW132411   2.240   4.569   2.757  1.7988 -2.1956 -0.2657
 6925SOL    HW232412   2.159   4.568   2.876 -3.1737 -0.3575 -1.7702
 6926SOL     OW32413   4.338   0.798   8.362  0.0139  0.7013 -0.0694
 6926SOL    HW132414   4.305   0.783   8.451 -1.5718 -0.3584 -0.8382
 6926SOL    HW232415   4.284   0.736   8.314 -2.1405  2.8427 -0.4278
 6927SOL     OW32416   2.091   0.956  14.268  0.5505 -0.0631  0.0648
 6927SOL    HW132417   2.149   0.965  14.192 -2.2218  2.4080 -1.7474
 6927SOL    HW232418   2.142   0.990  14.341  1.1219  2.4307 -1.4985
 6928SOL     OW32419   3.720   2.495   1.839 -0.3887  0.2755 -0.0012
 6928SOL    HW132420   3.737   2.582   1.877  2.1855  0.2994 -1.2001
 6928SOL    HW232421   3.716   2.519   1.747  2.9493  0.0849 -0.1963
 6929SOL     OW32422   4.001   2.271   3.734 -0.6000  0.0634  0.3181
 6929SOL    HW132423   3.954   2.324   3.671 -1.6452  0.0632  1.0955
 6929SOL    HW232424   3.995   2.183   3.697  0.6078 -0.2087  0.7792
 6930SOL     OW32425   4.559   0.615  13.453  0.8452  0.0585 -0.2283
 6930SOL    HW132426   4.504   0.612  13.532 -1.3064  1.5452 -1.6838
 6930SOL    HW232427   4.507   0.667  13.393  0.0831 -1.1442 -0.6225
 6931SOL     OW32428   4.074   0.282   3.394  0.3922 -0.2163  0.0316
 6931SOL    HW132429   4.024   0.230   3.456 -0.6397  1.8329  0.8937
 6931SOL    HW232430   4.007   0.347   3.377  1.5249  1.3817  1.6581
 6932SOL     OW32431   2.135   2.735   7.662  0.0708  0.6078 -0.0744
 6932SOL    HW132432   2.190   2.675   7.612  1.0717 -0.3271  2.1435
 6932SOL    HW232433   2.123   2.803   7.596 -0.3956 -0.2000 -0.8186
 6933SOL     OW32434   3.257   1.095   5.266 -0.1233 -0.5079  0.1062
 6933SOL    HW132435   3.262   1.015   5.214 -0.9833 -0.1037 -0.5915
 6933SOL    HW232436   3.324   1.153   5.228  1.0300 -1.3690  0.8190
 6934SOL     OW32437   0.308   3.490   1.918  0.0019 -0.5690  0.3319
 6934SOL    HW132438   0.321   3.584   1.905 -0.9085 -0.5444 -0.4705
 6934SOL    HW232439   0.257   3.473   1.839 -0.0848  2.2651 -0.2134
 6935SOL     OW32440   3.299   0.707  14.243  0.2095 -0.2641  0.0413
 6935SOL    HW132441   3.276   0.747  14.160 -1.2375 -2.2279 -0.5076
 6935SOL    HW232442   3.331   0.786  14.287 -0.8369  1.4548 -2.2800
 6936SOL     OW32443   3.487   1.827   7.882  0.3217 -0.2443 -0.0896
 6936SOL    HW132444   3.562   1.872   7.921  0.2486 -0.3508  0.1769
 6936SOL    HW232445   3.410   1.838   7.939 -1.4164  0.5311 -2.5717
 6937SOL     OW32446   2.617   2.031   3.145  0.0328 -0.4074 -0.5914
 6937SOL    HW132447   2.640   1.939   3.140  1.8360  0.0773 -1.4633
 6937SOL    HW232448   2.524   2.029   3.123  0.4374 -1.4787 -2.2541
 6938SOL     OW32449   3.126   4.018  15.320 -0.2344  0.0880 -0.5433
 6938SOL    HW132450   3.205   4.054  15.360  0.6111 -1.2657 -0.9657
 6938SOL    HW232451   3.162   3.983  15.238 -0.6103 -0.8133 -0.3201
 6939SOL     OW32452   1.323   0.326   1.085  0.2084 -0.0881  0.4022
 6939SOL    HW132453   1.246   0.322   1.142 -1.5580  2.0413 -1.8264
 6939SOL    HW232454   1.352   0.237   1.105 -0.7361 -0.4344  0.2530
 6940SOL     OW32455   1.623   3.843  16.285 -0.1562  0.1937 -0.2287
 6940SOL    HW132456   1.689   3.786  16.325 -2.7587 -3.1751 -0.7288
 6940SOL    HW232457   1.627   3.921  16.340  1.3523  1.3542 -2.0039
 6941SOL     OW32458   4.599   3.244   6.824  0.0388  0.2755  0.2126
 6941SOL    HW132459   4.595   3.152   6.799  0.4351  0.6534 -1.2415
 6941SOL    HW232460   4.621   3.238   6.917  4.1526 -0.1090 -0.8029
 6942SOL     OW32461   4.625   2.646  15.060  0.0347 -0.5941 -0.3688
 6942SOL    HW132462   4.572   2.680  14.988  0.6495 -1.6343 -1.3057
 6942SOL    HW232463   4.711   2.656  15.021 -0.3518 -0.7543 -1.2701
 6943SOL     OW32464   0.373   2.192   3.949  0.4982  0.1153  0.0328
 6943SOL    HW132465   0.313   2.147   3.890  1.5465  1.0585 -1.7702
 6943SOL    HW232466   0.431   2.122   3.976 -0.4742 -0.6293  0.1877
 6944SOL     OW32467   1.769   3.780  12.238  0.3710 -0.1372 -0.2443
 6944SOL    HW132468   1.699   3.762  12.300  1.2700  0.1191  0.8489
 6944SOL    HW232469   1.841   3.773  12.300  1.0019 -1.9887 -1.1909
 6945SOL     OW32470   0.732   3.437   3.749  0.2771  0.5318 -0.5076
 6945SOL    HW132471   0.715   3.524   3.713  1.8518  1.6219  1.3680
 6945SOL    HW232472   0.827   3.433   3.735  0.3682  0.5093  0.1279
 6946SOL     OW32473   2.130   0.550   5.956  0.1269  0.1408  0.6882
 6946SOL    HW132474   2.035   0.555   5.966  0.2048  0.2474  1.3909
 6946SOL    HW232475   2.155   0.480   6.017  1.1550 -0.1609 -0.0743
 6947SOL     OW32476   0.469   0.757  12.579  0.2650  0.5807  0.4868
 6947SOL    HW132477   0.483   0.684  12.519  0.9870  1.5683 -0.5497
 6947SOL    HW232478   0.564   0.766  12.588  0.6821 -1.8342 -1.8001
 6948SOL     OW32479   2.927   2.626   2.425  0.4078 -0.4393  0.2851
 6948SOL    HW132480   2.930   2.721   2.416 -3.3322 -0.2661  0.9622
 6948SOL    HW232481   2.910   2.612   2.518 -1.2928  1.3492  0.2358
 6949SOL     OW32482   1.671   2.520   8.192 -0.4661 -0.3418  0.1462
 6949SOL    HW132483   1.631   2.575   8.259 -2.2563  1.5404 -2.5211
 6949SOL    HW232484   1.699   2.586   8.129 -0.6542 -1.0254 -0.6640
 6950SOL     OW32485   3.605   2.784   3.039 -0.2068 -0.0099 -0.4006
 6950SOL    HW132486   3.578   2.749   3.124  1.2369 -1.4429 -0.5330
 6950SOL    HW232487   3.529   2.760   2.988  0.0697 -0.6213 -0.5228
 6951SOL     OW32488   1.324   1.325  11.490 -0.0440  0.0001 -0.5916
 6951SOL    HW132489   1.323   1.394  11.424  0.1466 -0.1886 -0.7902
 6951SOL    HW232490   1.271   1.264  11.439 -0.5135 -0.1399  0.0689
 6952SOL     OW32491   0.922   3.487   2.376  0.8031 -0.2672  0.1868
 6952SOL    HW132492   0.834   3.526   2.380  0.2786 -1.4985  0.7813
 6952SOL    HW232493   0.951   3.515   2.463 -0.9080  0.5173  0.5064
 6953SOL     OW32494   3.394   1.092   7.568  0.2333  0.1966 -0.6644
 6953SOL    HW132495   3.332   1.159   7.596  3.1719  2.0031  1.4765
 6953SOL    HW232496   3.463   1.128   7.624  0.1103 -0.3011 -0.1976
 6954SOL     OW32497   2.266   3.067   6.098  0.0238  0.1411  0.3728
 6954SOL    HW132498   2.271   3.045   6.005 -1.2388  2.8585 -0.3607
 6954SOL    HW232499   2.216   3.149   6.102  1.1330  0.8687 -0.7900
 6955SOL     OW32500   3.042   4.331   7.144  0.4274 -0.7023  0.4653
 6955SOL    HW132501   3.028   4.376   7.061 -2.3680 -1.5588  0.4646
 6955SOL    HW232502   3.090   4.255   7.110 -0.9059 -0.7725 -1.2452
 6956SOL     OW32503   2.763   4.488  16.947  0.1420 -0.6873  0.0372
 6956SOL    HW132504   2.687   4.429  16.948 -0.4630  0.1410  1.5561
 6956SOL    HW232505   2.828   4.421  16.925  0.7584  0.1401 -0.7073
 6957SOL     OW32506   4.085   3.647  15.967 -0.2296  0.8261  0.4757
 6957SOL    HW132507   4.028   3.720  15.991 -0.4640  0.8238 -0.0775
 6957SOL    HW232508   4.160   3.687  16.010 -0.5131 -0.7397  2.4061
 6958SOL     OW32509   0.445   4.471   5.402 -0.0568  0.1752  0.1486
 6958SOL    HW132510   0.429   4.386   5.362 -2.0366  1.0232 -0.8728
 6958SOL    HW232511   0.500   4.512   5.335 -0.3012  2.3213  1.2433
 6959SOL     OW32512   1.397   0.302   8.406 -1.0728  0.3562  0.3314
 6959SOL    HW132513   1.455   0.256   8.468 -0.4866  0.0473 -0.4407
 6959SOL    HW232514   1.309   0.267   8.417 -0.7118 -0.1409  1.6947
 6960SOL     OW32515   3.796   3.740   2.154  0.0343  0.1192  0.3732
 6960SOL    HW132516   3.811   3.690   2.234 -3.5406 -0.2984  0.7582
 6960SOL    HW232517   3.812   3.680   2.081  0.9012 -0.0970  0.7397
 6961SOL     OW32518   0.815   3.853   6.146 -0.1829 -0.3218  0.3725
 6961SOL    HW132519   0.820   3.948   6.148  1.2050 -0.4131  1.5769
 6961SOL    HW232520   0.721   3.836   6.137 -0.6927  2.6684  0.2435
 6962SOL     OW32521   1.828   0.528   8.292  0.2107  0.2238  0.4129
 6962SOL    HW132522   1.786   0.474   8.224  0.6867 -0.5087  0.7055
 6962SOL    HW232523   1.758   0.530   8.358 -1.1545  0.7845 -1.0519
 6963SOL     OW32524   2.627   1.435   3.002 -0.7227  0.4562 -0.5449
 6963SOL    HW132525   2.611   1.474   2.915  0.3051  0.9107 -0.5296
 6963SOL    HW232526   2.721   1.422   3.000 -0.4009  2.7421 -0.3592
 6964SOL     OW32527   1.323   2.749   5.624  0.7842 -0.9263  0.5631
 6964SOL    HW132528   1.313   2.842   5.643  0.9944 -0.5863 -0.9663
 6964SOL    HW232529   1.266   2.705   5.687 -2.4712 -0.1344 -1.8368
 6965SOL     OW32530   2.476   2.297  10.212 -0.1960  0.4935  0.1644
 6965SOL    HW132531   2.561   2.338  10.192  0.1161 -0.0294  0.4074
 6965SOL    HW232532   2.421   2.371  10.237  0.7078  1.6537 -1.2011
 6966SOL     OW32533   4.118   0.964  10.420  0.0760 -0.3020 -0.4911
 6966SOL    HW132534   4.092   0.903  10.351 -1.1431  0.7662 -0.9837
 6966SOL    HW232535   4.034   0.990  10.459  0.1655 -1.5811  0.5604
 6967SOL     OW32536   2.818   3.107   0.369 -0.6259  0.0889 -0.6772
 6967SOL    HW132537   2.732   3.148   0.353  0.0900  0.8997 -2.4761
 6967SOL    HW232538   2.792   3.083   0.457  0.7335  2.0247  0.2415
 6968SOL     OW32539   4.577   0.074   2.649  0.4631 -0.4930 -0.5608
 6968SOL    HW132540   4.666   0.096   2.620 -1.3045  3.1693 -3.1114
 6968SOL    HW232541   4.531   0.079   2.565 -0.6490  1.3596  0.1634
 6969SOL     OW32542   2.886   0.226   4.369 -0.2839 -0.0954  0.6229
 6969SOL    HW132543   2.827   0.243   4.443  0.5699  0.4649  1.1611
 6969SOL    HW232544   2.955   0.190   4.424  0.6505  1.0871  0.2222
 6970SOL     OW32545   2.858   0.454   6.921  0.0287  0.1713  0.4450
 6970SOL    HW132546   2.843   0.427   7.012  1.4229 -1.5271  0.1760
 6970SOL    HW232547   2.914   0.531   6.935  2.0321 -1.1832 -0.0540
 6971SOL     OW32548   4.416   1.843  16.203  0.3417  0.7802 -0.3056
 6971SOL    HW132549   4.391   1.865  16.114 -1.8736 -1.6456 -0.2784
 6971SOL    HW232550   4.384   1.925  16.240 -0.7528  0.8715 -1.4826
 6972SOL     OW32551   3.400   2.007   8.424  0.4852 -0.1269  0.0650
 6972SOL    HW132552   3.489   2.001   8.391  0.3794  3.8365 -0.9310
 6972SOL    HW232553   3.359   1.925   8.397  0.1603 -0.2725  1.0037
 6973SOL     OW32554   0.576   1.908  15.203 -0.1154  0.4988  0.5779
 6973SOL    HW132555   0.575   1.855  15.282  0.0156 -0.1064  0.1698
 6973SOL    HW232556   0.504   1.871  15.152  1.9975  2.0926 -3.6188
 6974SOL     OW32557   3.577   2.255   5.772 -0.6571 -0.1797 -0.0623
 6974SOL    HW132558   3.607   2.184   5.715 -1.5269  0.3329 -1.1661
 6974SOL    HW232559   3.503   2.298   5.730 -0.8581  1.1054  1.5867
 6975SOL     OW32560   4.603   1.247   8.009 -0.4559 -0.1952  0.3820
 6975SOL    HW132561   4.560   1.192   8.075 -1.7601 -0.4127 -0.6346
 6975SOL    HW232562   4.535   1.245   7.942 -1.1273  1.3763  1.0178
 6976SOL     OW32563   0.269   2.622   1.026 -0.5209  0.4653 -0.0083
 6976SOL    HW132564   0.242   2.626   0.935 -1.6684  2.3497  0.4228
 6976SOL    HW232565   0.202   2.565   1.065  0.0985  0.6596  1.3380
 6977SOL     OW32566   3.235   1.919   9.819  0.4772  0.5886  0.8898
 6977SOL    HW132567   3.314   1.871   9.796 -0.8799 -2.4350  2.5841
 6977SOL    HW232568   3.182   1.879   9.887 -1.1724 -1.7811 -1.7731
 6978SOL     OW32569   4.488   3.949   8.167 -0.2464  0.3062  0.4779
 6978SOL    HW132570   4.427   4.024   8.168 -0.3618  0.2330 -2.4255
 6978SOL    HW232571   4.465   3.918   8.080 -1.2095 -1.3717  1.3302
 6979SOL     OW32572   3.553   2.591   5.004  0.0709 -0.2609 -0.3220
 6979SOL    HW132573   3.469   2.584   4.959  0.0572  2.3929 -0.7123
 6979SOL    HW232574   3.582   2.677   4.973  0.1410 -0.6942 -1.4430
 6980SOL     OW32575   1.092   1.371   5.636  0.1078  0.1662 -0.1584
 6980SOL    HW132576   1.164   1.431   5.657 -0.4449 -0.2814  3.0639
 6980SOL    HW232577   1.125   1.337   5.553 -1.8862 -0.9267 -0.4927
 6981SOL     OW32578   0.190   2.443   5.960 -0.0717  0.3733 -0.1080
 6981SOL    HW132579   0.250   2.371   5.938 -0.8386  0.2051 -1.6396
 6981SOL    HW232580   0.230   2.472   6.042 -0.3454 -0.3717  0.2927
 6982SOL     OW32581   3.523   1.104   3.138  0.4965  0.2591  0.3279
 6982SOL    HW132582   3.611   1.110   3.176  1.5635 -1.3552 -1.8826
 6982SOL    HW232583   3.539   1.027   3.083  1.3909 -0.7862  2.0656
 6983SOL     OW32584   2.685   1.107   7.516 -0.2161  0.1952 -0.0864
 6983SOL    HW132585   2.593   1.095   7.493 -0.7295  2.2819  0.9206
 6983SOL    HW232586   2.727   1.112   7.430  0.3639 -1.3803  0.0971
 6984SOL     OW32587   4.630   4.299   5.975 -0.4354  0.1595 -0.1961
 6984SOL    HW132588   4.705   4.294   5.916 -1.7784  0.0059 -1.9041
 6984SOL    HW232589   4.565   4.265   5.913 -0.2427  2.3566 -1.6352
 6985SOL     OW32590   1.633   0.551  10.062  0.5524  0.4323  0.0196
 6985SOL    HW132591   1.708   0.608  10.043 -0.9699  2.0895 -0.9751
 6985SOL    HW232592   1.560   0.606  10.088 -0.0651 -0.3116 -0.1484
 6986SOL     OW32593   3.833   1.513  15.328 -0.1078 -0.4358 -0.0239
 6986SOL    HW132594   3.773   1.441  15.307 -1.9594  0.9770  0.4131
 6986SOL    HW232595   3.856   1.539  15.239  0.5477  0.9260  0.5439
 6987SOL     OW32596   4.191   3.252   8.227  0.4660  0.7491 -0.0566
 6987SOL    HW132597   4.219   3.262   8.319 -0.1002 -1.0436  0.3054
 6987SOL    HW232598   4.233   3.175   8.189 -1.4488  0.5985 -1.8076
 6988SOL     OW32599   4.019   2.195   7.362  0.2155  0.2181 -0.4354
 6988SOL    HW132600   3.984   2.240   7.284 -0.5390  0.7881  0.2316
 6988SOL    HW232601   4.012   2.264   7.428  1.5171 -0.6008  0.5400
 6989SOL     OW32602   0.911   3.054   8.448  0.3728 -0.6387 -0.0656
 6989SOL    HW132603   0.887   3.014   8.531  0.4470  0.4720  0.5016
 6989SOL    HW232604   0.825   3.039   8.410  1.0863  0.3111 -2.0609
 6990SOL     OW32605   2.013   2.602   9.601 -0.4665 -0.2893  0.3237
 6990SOL    HW132606   2.040   2.689   9.632 -1.1363  0.2496 -0.6135
 6990SOL    HW232607   1.975   2.626   9.516 -1.0604 -1.2287  0.3347
 6991SOL     OW32608   4.336   3.550  16.280  0.6868  0.0571  0.0706
 6991SOL    HW132609   4.404   3.504  16.229  1.2908  2.3514 -1.1748
 6991SOL    HW232610   4.327   3.626  16.223 -0.2845  0.3593  0.6208
 6992SOL     OW32611   3.643   2.147   8.649  0.1335  0.2309 -0.0265
 6992SOL    HW132612   3.694   2.075   8.687 -0.0441  0.9614  1.5721
 6992SOL    HW232613   3.553   2.115   8.650 -0.8540  2.9128 -1.5784
 6993SOL     OW32614   4.387   4.721   7.261 -0.2241 -0.1232  0.2151
 6993SOL    HW132615   4.314   0.038   7.292  0.5233  0.5443  0.8461
 6993SOL    HW232616   4.449   0.016   7.327 -0.5282  0.6670  0.1208
 6994SOL     OW32617   2.725   0.723   6.993 -0.0290  0.5301  0.3674
 6994SOL    HW132618   2.759   0.667   7.063 -1.4757  1.0192  1.4645
 6994SOL    HW232619   2.791   0.792   6.994  0.1565  0.3917 -1.3724
 6995SOL     OW32620   0.021   0.853   6.952 -0.2998  0.4902 -0.4265
 6995SOL    HW132621   0.001   0.889   6.865  0.8586  0.0698 -0.8756
 6995SOL    HW232622   0.078   0.926   6.976 -0.2706 -0.0630  1.1713
 6996SOL     OW32623   4.286   1.942   6.457  0.0461  0.1721  0.7232
 6996SOL    HW132624   4.374   1.917   6.486  0.1510  0.5878  0.7571
 6996SOL    HW232625   4.274   2.025   6.502 -0.1629  0.6213 -0.1705
 6997SOL     OW32626   0.263   0.191  15.750  0.8355 -0.5937  0.1565
 6997SOL    HW132627   0.352   0.158  15.759  1.0880  0.1417  0.3927
 6997SOL    HW232628   0.223   0.166  15.833 -2.5868  0.9230 -1.0141
 6998SOL     OW32629   0.060   3.924   0.592 -0.2530 -0.2450 -0.1856
 6998SOL    HW132630   0.029   3.834   0.582 -0.9244  0.0445 -0.6861
 6998SOL    HW232631   4.719   3.976   0.570 -0.7834 -0.8908  0.1564
 6999SOL     OW32632   4.308   1.408  12.337  0.9131  0.2119 -0.1848
 6999SOL    HW132633   4.316   1.498  12.369 -1.1369  0.6001 -0.7607
 6999SOL    HW232634   4.386   1.377  12.383 -0.0529  0.9309  1.9263
 7000SOL     OW32635   1.746   3.069  15.309 -0.1505 -0.1923 -0.0227
 7000SOL    HW132636   1.801   3.146  15.297 -1.4942  0.9104  0.8688
 7000SOL    HW232637   1.775   3.011  15.239 -0.6348 -1.9811  1.2389
 7001SOL     OW32638   2.134   1.250   3.632  0.4756 -0.0998  0.2195
 7001SOL    HW132639   2.052   1.271   3.587  0.5105  0.0241  0.2123
 7001SOL    HW232640   2.173   1.337   3.620  0.5195 -0.0909  0.4315
 7002SOL     OW32641   2.858   2.118   1.443  0.3748  0.2786  0.0646
 7002SOL    HW132642   2.867   2.205   1.482  0.3461  0.3156 -0.0110
 7002SOL    HW232643   2.931   2.120   1.380  0.3243 -0.8208 -0.0295
 7003SOL     OW32644   2.515   2.292   6.463  0.1734  0.2874  0.1361
 7003SOL    HW132645   2.511   2.350   6.540  3.0831  0.7523 -0.0402
 7003SOL    HW232646   2.554   2.210   6.495 -0.2074 -1.0118 -2.7422
 7004SOL     OW32647   2.966   2.723   3.308 -0.6411 -0.1048  0.0443
 7004SOL    HW132648   3.052   2.713   3.348 -0.1417  2.4761 -0.4107
 7004SOL    HW232649   2.922   2.653   3.356  2.4733 -0.5275  2.2790
 7005SOL     OW32650   2.359   4.375  11.773  0.2963 -0.6428 -0.2855
 7005SOL    HW132651   2.395   4.451  11.817 -0.2435  0.0807 -1.1053
 7005SOL    HW232652   2.272   4.370  11.814  0.5669  1.6720  0.5382
 7006SOL     OW32653   3.775   1.531   3.864 -0.0781 -0.6118 -0.3565
 7006SOL    HW132654   3.778   1.446   3.820 -1.0181 -1.7253  1.7357
 7006SOL    HW232655   3.694   1.526   3.914  0.3390  0.8396  0.4523
 7007SOL     OW32656   0.286   1.123   6.122 -0.2036  0.4331 -0.0940
 7007SOL    HW132657   0.253   1.212   6.134  0.2909  0.5805  0.1537
 7007SOL    HW232658   0.291   1.103   6.215  0.2291  1.2847  0.0650
 7008SOL     OW32659   2.225   0.062   5.093  0.5781 -0.2738 -0.2071
 7008SOL    HW132660   2.310   0.020   5.082  0.3837 -0.2375 -1.7660
 7008SOL    HW232661   2.187   0.069   5.006 -0.6718  1.3630  0.4774
 7009SOL     OW32662   1.259   0.591   4.876  0.6684 -0.6463  0.1034
 7009SOL    HW132663   1.337   0.551   4.914  1.6083 -1.1385 -2.2975
 7009SOL    HW232664   1.270   0.686   4.870 -1.2550 -0.4476 -0.5188
 7010SOL     OW32665   3.250   3.294   3.533 -0.2129 -0.5843 -0.0427
 7010SOL    HW132666   3.225   3.370   3.584 -0.4742 -1.0559  0.5326
 7010SOL    HW232667   3.326   3.258   3.578 -0.7014 -2.8311 -0.9831
 7011SOL     OW32668   4.653   2.359   7.334 -0.7788 -0.0107 -0.1432
 7011SOL    HW132669   4.716   2.293   7.303 -1.3284 -0.3194 -0.6248
 7011SOL    HW232670   4.705   2.439   7.331  0.2966 -0.7324 -0.7976
 7012SOL     OW32671   3.802   1.187   5.810  0.3389  0.0293 -0.0976
 7012SOL    HW132672   3.875   1.132   5.780  1.1899  1.1921 -0.1528
 7012SOL    HW232673   3.838   1.215   5.894 -0.1178 -0.6123  0.3083
 7013SOL     OW32674   3.935   4.712  17.358  0.0817 -0.7115 -0.5536
 7013SOL    HW132675   3.872   4.646  17.385 -0.2460  0.5721  1.8299
 7013SOL    HW232676   3.930   4.691  17.265 -1.9633  0.6632 -0.7383
 7014SOL     OW32677   1.695   3.974  13.681 -0.2121  0.3352  0.2554
 7014SOL    HW132678   1.703   4.067  13.703  0.0667  0.5106 -0.6069
 7014SOL    HW232679   1.736   3.934  13.758 -0.0481 -2.3458 -1.2382
 7015SOL     OW32680   1.153   0.303  12.046 -0.1130  0.1760  0.0701
 7015SOL    HW132681   1.172   0.378  11.990  0.2272 -1.0240 -1.4196
 7015SOL    HW232682   1.197   0.232  11.999 -0.4102 -0.2889  0.4904
 7016SOL     OW32683   2.166   1.138  14.475 -0.3308  0.1055  0.0507
 7016SOL    HW132684   2.178   1.212  14.415 -0.6329  1.3842  1.5550
 7016SOL    HW232685   2.240   1.143  14.535  1.1128  0.3229 -1.7627
 7017SOL     OW32686   3.129   0.471  12.023 -0.0053 -0.2415 -0.2157
 7017SOL    HW132687   3.164   0.542  11.969  0.0145  1.4039  1.9322
 7017SOL    HW232688   3.210   0.426  12.049  1.3236  1.6464 -1.0586
 7018SOL     OW32689   0.048   2.593  13.383 -0.0161  0.5468  0.5259
 7018SOL    HW132690   0.123   2.631  13.338  0.3645 -1.2468 -0.3924
 7018SOL    HW232691   0.035   2.648  13.460 -0.0492  0.4093  0.6200
 7019SOL     OW32692   2.790   2.472   4.444  0.1206 -0.3428  0.5555
 7019SOL    HW132693   2.860   2.407   4.453  1.1804  0.9280  1.4464
 7019SOL    HW232694   2.740   2.462   4.525 -2.5090 -0.8536 -1.1433
 7020SOL     OW32695   0.096   3.405  15.732  0.2748  0.0398 -0.5278
 7020SOL    HW132696   0.179   3.436  15.768 -0.4102  1.6294 -0.2832
 7020SOL    HW232697   0.130   3.321  15.702  1.6116  0.8279 -1.2111
 7021SOL     OW32698   4.609   0.620   6.369 -0.1286  0.3182 -0.6064
 7021SOL    HW132699   4.575   0.634   6.280 -1.2432  0.8912 -0.0825
 7021SOL    HW232700   4.530   0.622   6.423  0.7927  3.4023  0.6059
 7022SOL     OW32701   2.930   1.127  16.519  0.5975  0.0160 -0.2044
 7022SOL    HW132702   2.881   1.181  16.457  1.4961  2.3840  1.1345
 7022SOL    HW232703   2.868   1.075  16.570  1.8056 -1.7563 -0.5416
 7023SOL     OW32704   1.233   4.641   4.256  0.2908  0.0880 -0.4175
 7023SOL    HW132705   1.151   4.652   4.208  0.1397  0.4106 -0.0813
 7023SOL    HW232706   1.293   4.684   4.195 -0.3065  2.6020  0.7557
 7024SOL     OW32707   2.278   0.799  16.850 -0.4299 -0.2038  0.0022
 7024SOL    HW132708   2.231   0.744  16.786 -1.8646 -0.2399  1.0828
 7024SOL    HW232709   2.334   0.737  16.895 -0.6682 -1.8563 -1.9587
 7025SOL     OW32710   0.726   1.863   9.461  0.1565 -0.0097 -0.5054
 7025SOL    HW132711   0.776   1.788   9.427 -0.6455  0.8082 -3.4810
 7025SOL    HW232712   0.694   1.892   9.375 -1.0653  2.2564  0.7257
 7026SOL     OW32713   4.662   0.295   6.002  0.2174  0.1629  0.0182
 7026SOL    HW132714   4.711   0.378   5.998  0.6565 -0.1210 -0.5073
 7026SOL    HW232715   4.579   0.337   6.026  0.1807 -0.6613  1.2798
 7027SOL     OW32716   0.494   0.767   1.277  0.1970 -0.2044 -0.4018
 7027SOL    HW132717   0.487   0.689   1.222 -0.9185  1.0370 -2.0042
 7027SOL    HW232718   0.434   0.834   1.244 -0.0125  0.2416  0.8631
 7028SOL     OW32719   2.185   1.740  16.991 -0.5799 -0.1107  0.5220
 7028SOL    HW132720   2.223   1.781  16.913 -0.6578  0.6221  0.8703
 7028SOL    HW232721   2.257   1.682  17.015  1.7795  1.8655 -1.7646
 7029SOL     OW32722   4.397   0.544  14.564 -0.0854 -0.3715 -0.6034
 7029SOL    HW132723   4.368   0.503  14.483 -0.1102 -2.2102  0.3171
 7029SOL    HW232724   4.388   0.475  14.631  1.5344 -0.8779 -0.9207
 7030SOL     OW32725   0.679   0.081   4.379 -0.3358  0.0916  0.1694
 7030SOL    HW132726   0.721   0.163   4.405 -1.2282  0.0236  1.8060
 7030SOL    HW232727   0.594   0.114   4.410 -0.4184 -0.0764  0.1190
 7031SOL     OW32728   1.768   0.110   6.090  0.2622  0.2719  0.2952
 7031SOL    HW132729   1.746   0.080   6.002  2.0218  0.5407 -0.2311
 7031SOL    HW232730   1.863   0.097   6.085  0.0910 -1.1397  0.5522
 7032SOL     OW32731   2.053   1.570  11.308  0.4598 -0.1622 -0.6364
 7032SOL    HW132732   2.124   1.508  11.325  0.4389  0.1655  0.6647
 7032SOL    HW232733   2.034   1.611  11.393 -0.2917  0.4878 -1.1152
 7033SOL     OW32734   2.726   0.224   4.591 -0.0021  0.0382 -0.1942
 7033SOL    HW132735   2.748   0.261   4.676 -1.4094  0.9763 -0.2389
 7033SOL    HW232736   2.775   0.142   4.598 -0.4374 -0.5579 -4.1511
 7034SOL     OW32737   1.639   3.700  11.958  0.0683 -0.1014 -0.1508
 7034SOL    HW132738   1.698   3.740  12.022 -0.1967  0.6832 -0.4049
 7034SOL    HW232739   1.702   3.664  11.896 -0.5436 -3.8943  1.4172
 7035SOL     OW32740   2.194   2.465   6.728 -0.3866 -0.6079  0.1132
 7035SOL    HW132741   2.250   2.388   6.717  1.1965  0.7299 -1.2522
 7035SOL    HW232742   2.183   2.466   6.823  1.1412  0.2379  0.2789
 7036SOL     OW32743   2.334   1.895   8.245 -0.4678  0.3737 -0.2580
 7036SOL    HW132744   2.381   1.819   8.211  2.4338  2.8409 -1.7262
 7036SOL    HW232745   2.321   1.872   8.337 -0.1011  1.1412 -0.0182
 7037SOL     OW32746   0.586   3.166  10.459 -0.0399 -0.2323  0.3240
 7037SOL    HW132747   0.537   3.085  10.467 -0.2832 -0.3097 -2.1836
 7037SOL    HW232748   0.602   3.188  10.367 -1.2550 -0.3457  0.0962
 7038SOL     OW32749   3.469   3.057  17.109 -0.0803  0.2812 -0.2110
 7038SOL    HW132750   3.531   3.052  17.182 -0.1131  0.2567 -0.1851
 7038SOL    HW232751   3.391   3.093  17.150  1.1666 -0.4871  2.8371
 7039SOL     OW32752   4.143   0.974   8.140  0.6051  0.0691  0.0855
 7039SOL    HW132753   4.222   1.028   8.136  0.5497  0.1473  0.0497
 7039SOL    HW232754   4.087   1.034   8.189  0.1373 -2.0191  2.1494
 7040SOL     OW32755   1.511   3.367   8.742 -0.1020 -0.1801  0.2742
 7040SOL    HW132756   1.454   3.303   8.700  0.7875 -2.1722  2.0680
 7040SOL    HW232757   1.542   3.294   8.796  2.9487  2.0563  1.5781
 7041SOL     OW32758   0.779   4.681   1.810 -0.5116 -0.2352  0.5329
 7041SOL    HW132759   0.864   4.709   1.844 -0.0966 -1.5035  0.5173
 7041SOL    HW232760   0.741   0.027   1.781  1.5496  0.5821  0.1657
 7042SOL     OW32761   0.220   0.546   5.778 -0.1938  0.2045 -0.7430
 7042SOL    HW132762   0.209   0.514   5.868 -1.5544  0.9670 -0.6329
 7042SOL    HW232763   0.133   0.527   5.744 -0.7489  1.3876  0.0231
 7043SOL     OW32764   2.824   2.804  15.969  0.2534  0.5879 -0.1566
 7043SOL    HW132765   2.802   2.893  15.997  0.3521  0.3463  0.6909
 7043SOL    HW232766   2.840   2.815  15.875 -1.9803 -0.9419 -0.7128
 7044SOL     OW32767   0.163   0.415  16.414  0.9600  0.0872  0.3500
 7044SOL    HW132768   0.090   0.459  16.457 -1.2846 -2.5781 -0.7265
 7044SOL    HW232769   0.169   0.334  16.464  2.1127  0.1113  0.2662
 7045SOL     OW32770   3.077   0.728   5.926  0.1475 -0.4159 -0.3033
 7045SOL    HW132771   2.990   0.698   5.900  0.0762  0.7979 -1.4630
 7045SOL    HW232772   3.111   0.639   5.943 -0.0580 -0.2461  1.0496
 7046SOL     OW32773   2.631   1.519   6.632 -0.4327 -0.5376 -0.7375
 7046SOL    HW132774   2.562   1.580   6.609  0.3445  0.6760  0.1276
 7046SOL    HW232775   2.703   1.577   6.658 -0.0905 -1.1734 -0.2642
 7047SOL     OW32776   3.114   1.832   1.855 -0.4298 -0.5187 -0.1753
 7047SOL    HW132777   3.119   1.747   1.899  1.9639 -0.2498  0.0744
 7047SOL    HW232778   3.036   1.822   1.800 -0.4385 -0.2514 -0.2097
 7048SOL     OW32779   3.325   3.571   6.881  0.8323 -1.0158  0.2701
 7048SOL    HW132780   3.234   3.566   6.910  1.2128 -2.2783  1.2491
 7048SOL    HW232781   3.368   3.613   6.956  1.4630 -0.5313 -0.3679
 7049SOL     OW32782   2.283   0.485  15.732 -0.2919 -0.2246 -0.7476
 7049SOL    HW132783   2.340   0.559  15.712  0.2411 -0.2365  0.7021
 7049SOL    HW232784   2.301   0.471  15.825  0.6499 -0.1197 -0.9079
 7050SOL     OW32785   4.714   4.138   6.192  0.4277 -0.2573 -0.1111
 7050SOL    HW132786   4.669   4.177   6.117  0.2012 -2.0767 -0.9170
 7050SOL    HW232787   0.062   4.183   6.200  0.8738 -0.6222 -2.7242
 7051SOL     OW32788   1.818   3.215   3.246  0.0465 -0.7272 -0.5455
 7051SOL    HW132789   1.745   3.224   3.308  1.9558  2.2493  1.2409
 7051SOL    HW232790   1.773   3.201   3.162 -1.0080  2.2102 -0.4827
 7052SOL     OW32791   1.839   4.077  12.748  0.1259 -0.5521 -0.1473
 7052SOL    HW132792   1.763   4.020  12.754 -1.0041  0.8772 -0.7628
 7052SOL    HW232793   1.819   4.146  12.811 -1.2526 -0.3442 -0.8229
 7053SOL     OW32794   4.196   2.094   5.829  0.0670 -0.0181  0.2794
 7053SOL    HW132795   4.146   2.173   5.853 -1.0584 -0.2780 -1.1809
 7053SOL    HW232796   4.119   2.044   5.802 -1.1386  1.4244  1.0313
 7054SOL     OW32797   4.433   4.111   9.216  0.1549  0.1203 -0.3889
 7054SOL    HW132798   4.383   4.192   9.229 -1.2716 -0.7642 -0.3077
 7054SOL    HW232799   4.452   4.114   9.122 -0.2013  0.1773 -0.4590
 7055SOL     OW32800   3.581   4.436   6.305  0.3742  0.4649 -0.1961
 7055SOL    HW132801   3.572   4.494   6.230  2.1970 -1.3952 -1.8380
 7055SOL    HW232802   3.496   4.437   6.350  1.3399  3.7160  1.5681
 7056SOL     OW32803   0.712   3.028  14.625  0.3053 -0.3796 -0.1661
 7056SOL    HW132804   0.737   2.943  14.660 -2.6168 -0.6236  1.3196
 7056SOL    HW232805   0.769   3.085  14.676  1.1149 -1.8469  0.5806
 7057SOL     OW32806   2.077   0.334   7.646 -0.1946  0.0410 -0.0200
 7057SOL    HW132807   2.049   0.322   7.736  0.9533 -0.2852  0.2912
 7057SOL    HW232808   2.068   0.243   7.618  0.7576  0.3779 -1.4463
 7058SOL     OW32809   3.320   0.183  17.363  0.2011  0.0240  0.2988
 7058SOL    HW132810   3.355   0.271  17.348 -0.2099 -0.3121 -2.7090
 7058SOL    HW232811   3.231   0.207  17.389  1.0911  2.1687  1.3926
 7059SOL     OW32812   0.820   0.686  16.132 -0.4133 -0.1530  0.3311
 7059SOL    HW132813   0.858   0.660  16.216  2.0037 -0.7971 -0.9557
 7059SOL    HW232814   0.751   0.746  16.160 -0.2240  0.9838 -1.5974
 7060SOL     OW32815   3.425   4.311   8.684 -0.3377  0.2582  0.4908
 7060SOL    HW132816   3.453   4.274   8.768 -0.0064 -0.2691  0.1480
 7060SOL    HW232817   3.352   4.256   8.658  0.7008  0.2055 -2.2443
 7061SOL     OW32818   4.211   4.525  11.922 -0.4884  0.2806  0.1488
 7061SOL    HW132819   4.299   4.528  11.960 -0.9752 -3.3765  1.5908
 7061SOL    HW232820   4.191   4.616  11.941 -2.8310 -0.7255  2.4784
 7062SOL     OW32821   2.480   1.191   9.012 -0.1538 -0.2189  0.1934
 7062SOL    HW132822   2.459   1.224   9.099 -0.2070  0.4190 -0.0574
 7062SOL    HW232823   2.492   1.098   9.029  2.9948  0.3367  0.9541
 7063SOL     OW32824   0.257   1.314   5.395 -0.2062 -0.4744 -0.2344
 7063SOL    HW132825   0.286   1.381   5.333  0.0697 -1.9265 -1.6612
 7063SOL    HW232826   0.333   1.302   5.452  0.2523  1.4353 -0.4588
 7064SOL     OW32827   2.642   1.571  16.958 -0.0278  0.2341 -0.1212
 7064SOL    HW132828   2.630   1.582  17.052  3.6753 -1.6658  0.5668
 7064SOL    HW232829   2.736   1.582  16.947 -0.3408  0.5737 -2.5438
 7065SOL     OW32830   2.590   3.150   5.952  0.4041 -0.0771 -0.0469
 7065SOL    HW132831   2.539   3.226   5.923  2.2386  0.8592 -0.8221
 7065SOL    HW232832   2.626   3.117   5.870  0.2097 -0.2182 -0.0752
 7066SOL     OW32833   2.207   3.591  10.573 -0.2613  0.1947  0.2039
 7066SOL    HW132834   2.294   3.558  10.550 -0.0063 -0.8395  2.5945
 7066SOL    HW232835   2.234   3.668  10.624 -2.7478  0.4058  1.2241
 7067SOL     OW32836   1.982   0.390  11.428  0.0960  0.4051  0.0940
 7067SOL    HW132837   2.001   0.453  11.497  1.0937  0.3192 -0.0991
 7067SOL    HW232838   1.925   0.324  11.468  0.7383  0.4365  1.0550
 7068SOL     OW32839   1.929   3.769   6.667  0.2129  0.4246 -0.0450
 7068SOL    HW132840   2.014   3.777   6.711  0.6233  1.1020 -0.9811
 7068SOL    HW232841   1.940   3.817   6.585 -1.5835 -1.2221 -1.2512
 7069SOL     OW32842   0.705   1.855   6.374 -0.3341  0.3716 -0.9781
 7069SOL    HW132843   0.768   1.918   6.339  3.0500 -0.5964  3.3642
 7069SOL    HW232844   0.689   1.889   6.462  0.4573  0.4913 -0.8885
 7070SOL     OW32845   4.031   2.332   6.735 -0.1744  0.1918  0.2132
 7070SOL    HW132846   3.986   2.326   6.651  0.0916  1.8191 -0.0360
 7070SOL    HW232847   4.121   2.339   6.704 -1.0434 -0.5190 -2.4348
 7071SOL     OW32848   4.093   4.361  16.356 -0.3430 -0.3334 -0.1524
 7071SOL    HW132849   4.135   4.447  16.360  0.2363 -0.5013 -2.5691
 7071SOL    HW232850   4.053   4.361  16.268 -0.1487 -3.1940 -0.2636
 7072SOL     OW32851   1.588   3.805   2.988 -0.2459  0.1658  0.7247
 7072SOL    HW132852   1.563   3.745   2.918  1.9426 -0.3898  0.4070
 7072SOL    HW232853   1.517   3.781   3.047 -0.4463  2.6895  1.5171
 7073SOL     OW32854   3.481   0.104   3.671  0.3996 -0.2868 -0.1707
 7073SOL    HW132855   3.510   0.059   3.750  0.8635  0.1523 -0.0884
 7073SOL    HW232856   3.559   0.115   3.617  1.0089 -0.6879  0.6372
 7074SOL     OW32857   3.051   1.131   6.089  0.5214 -0.2753  0.0559
 7074SOL    HW132858   3.131   1.123   6.141 -1.1303  2.4598  3.0064
 7074SOL    HW232859   3.046   1.226   6.081  0.6044 -0.1302  1.8995
 7075SOL     OW32860   4.715   2.334   5.045  0.3329 -0.2952  0.1141
 7075SOL    HW132861   0.007   2.267   5.107  2.5537  1.0575  0.5633
 7075SOL    HW232862   4.655   2.283   4.991  0.7049  1.2794 -1.7706
 7076SOL     OW32863   0.129   0.207   6.874  0.0986 -0.0384  0.0607
 7076SOL    HW132864   0.141   0.143   6.803 -1.0934  0.6221 -0.7305
 7076SOL    HW232865   0.218   0.212   6.910 -0.0230  0.1459  0.3257
 7077SOL     OW32866   2.751   4.439  11.594 -0.4149 -0.3668 -0.1280
 7077SOL    HW132867   2.836   4.396  11.594 -0.7909 -1.1019 -2.0009
 7077SOL    HW232868   2.774   4.531  11.602  0.7758 -0.5900 -0.9840
 7078SOL     OW32869   0.149   2.103   0.657  0.1462 -0.5777 -0.2457
 7078SOL    HW132870   0.127   2.184   0.701 -1.5013 -0.9835 -0.3429
 7078SOL    HW232871   0.071   2.049   0.665 -0.1828  0.2821  2.2558
 7079SOL     OW32872   1.658   0.140  11.330 -0.1661 -0.3514  0.6590
 7079SOL    HW132873   1.710   0.067  11.297 -0.2412  0.2145 -0.6766
 7079SOL    HW232874   1.681   0.202  11.261 -1.8202 -0.8923 -0.3751
 7080SOL     OW32875   1.058   0.999   2.303  0.6329 -0.4225 -0.4426
 7080SOL    HW132876   1.120   0.984   2.374 -0.4782 -0.9724  0.4158
 7080SOL    HW232877   1.012   1.081   2.323  1.5561  0.1084 -0.5004
 7081SOL     OW32878   1.644   1.658   2.356  0.0287 -0.6600 -0.0849
 7081SOL    HW132879   1.594   1.736   2.333 -1.4969 -2.3158 -2.4002
 7081SOL    HW232880   1.719   1.673   2.299 -0.6782  0.1345 -0.8176
 7082SOL     OW32881   4.177   0.900   3.360  0.1185  0.0327 -0.4542
 7082SOL    HW132882   4.088   0.873   3.339 -0.1929  3.3749 -3.4878
 7082SOL    HW232883   4.202   0.821   3.407  1.7667 -0.4438 -2.1118
 7083SOL     OW32884   1.801   0.782  10.386 -0.0411  0.1949  0.9306
 7083SOL    HW132885   1.875   0.758  10.331 -0.2722  1.3022  0.1310
 7083SOL    HW232886   1.767   0.693  10.397 -1.9124  0.5541 -1.8778
 7084SOL     OW32887   2.712   2.372   1.654 -0.7203  0.1608  0.5893
 7084SOL    HW132888   2.804   2.351   1.665 -0.6221  1.5406  2.3798
 7084SOL    HW232889   2.693   2.443   1.716 -2.4639 -0.9543  1.3431
 7085SOL     OW32890   0.546   0.883   5.036  0.2574 -0.5047 -0.2995
 7085SOL    HW132891   0.506   0.915   4.955 -0.5574  0.0274  0.3124
 7085SOL    HW232892   0.591   0.805   5.002  0.6144  0.1630 -1.3699
 7086SOL     OW32893   2.550   1.600  14.678 -0.1797  0.7768 -0.7567
 7086SOL    HW132894   2.507   1.568  14.599 -0.8850  0.0119 -0.0520
 7086SOL    HW232895   2.507   1.552  14.748  0.0086  1.5583 -0.1005
 7087SOL     OW32896   1.364   2.805   4.834 -0.0166 -0.3590 -0.1498
 7087SOL    HW132897   1.339   2.740   4.899  3.4896 -0.5574  0.9868
 7087SOL    HW232898   1.448   2.827   4.875  0.2266  0.4998 -1.0911
 7088SOL     OW32899   3.645   3.485  13.453  0.3551 -1.2231  0.8668
 7088SOL    HW132900   3.616   3.395  13.439  0.3838 -0.8446 -1.4847
 7088SOL    HW232901   3.571   3.532  13.491  2.0642  1.4635  0.9144
 7089SOL     OW32902   4.423   4.242   5.755  0.3159 -0.1845 -0.3242
 7089SOL    HW132903   4.403   4.232   5.662 -2.7282  0.3327  0.2877
 7089SOL    HW232904   4.341   4.219   5.799  0.2442  0.1689 -0.2674
 7090SOL     OW32905   1.628   4.313   1.862 -0.4459 -0.3384  0.2087
 7090SOL    HW132906   1.567   4.274   1.924  0.2133 -1.3239  0.2312
 7090SOL    HW232907   1.570   4.319   1.785 -0.0338  1.5656  0.0459
 7091SOL     OW32908   4.130   3.714   6.397 -0.0659 -0.0364  0.2261
 7091SOL    HW132909   4.163   3.788   6.448 -0.9292  1.0121 -0.7563
 7091SOL    HW232910   4.098   3.655   6.466 -0.3574  0.8830  0.8697
 7092SOL     OW32911   2.721   3.490   4.951 -0.1250 -0.3336 -0.0771
 7092SOL    HW132912   2.761   3.415   4.907 -0.4940 -0.6294  0.0980
 7092SOL    HW232913   2.746   3.481   5.042  0.8207  2.4999 -0.0498
 7093SOL     OW32914   2.552   3.356  12.829 -0.5047  0.6827  0.1746
 7093SOL    HW132915   2.550   3.273  12.781  1.6171 -0.2939  1.8050
 7093SOL    HW232916   2.540   3.330  12.920 -0.1302 -1.3405 -0.3576
 7094SOL     OW32917   2.174   3.351   3.797 -0.0210  0.2642  0.4133
 7094SOL    HW132918   2.199   3.441   3.775  1.2687 -0.3152 -0.4201
 7094SOL    HW232919   2.240   3.324   3.861 -1.5705 -0.0180  1.9020
 7095SOL     OW32920   0.868   2.236  14.057 -0.3313  0.1801  0.1259
 7095SOL    HW132921   0.888   2.328  14.043 -0.0725  0.2523  0.9936
 7095SOL    HW232922   0.790   2.224  14.002 -1.4193 -0.5381  1.8125
 7096SOL     OW32923   0.556   2.699   4.693 -0.3594  0.4481 -0.3846
 7096SOL    HW132924   0.517   2.666   4.774  1.8442 -2.8446 -0.6600
 7096SOL    HW232925   0.618   2.627   4.681 -1.8865 -1.0166  0.5430
 7097SOL     OW32926   1.757   4.003   6.049  0.1712  0.1096  0.2335
 7097SOL    HW132927   1.840   4.022   6.092 -0.1893 -1.1972  1.4968
 7097SOL    HW232928   1.752   3.908   6.058 -0.4616  0.4179  3.1406
 7098SOL     OW32929   0.228   0.085   7.294 -0.0382  0.6955  0.1944
 7098SOL    HW132930   0.138   0.112   7.312  0.6592  3.4875 -0.5379
 7098SOL    HW232931   0.213   4.729   7.310 -0.1683  0.4087 -1.6329
 7099SOL     OW32932   1.578   0.234  15.670 -0.5001 -0.3955  0.1341
 7099SOL    HW132933   1.596   0.328  15.669 -1.0411 -0.2895  0.5436
 7099SOL    HW232934   1.568   0.211  15.577  1.1263  0.9512 -0.3671
 7100SOL     OW32935   1.202   0.092  16.279 -0.1471 -0.1515 -0.6344
 7100SOL    HW132936   1.291   0.074  16.249 -0.1111 -2.0271  0.5607
 7100SOL    HW232937   1.186   0.174  16.234 -1.7101 -0.2475 -0.2832
 7101SOL     OW32938   2.624   3.961   2.613 -0.0031  0.0187 -0.1521
 7101SOL    HW132939   2.676   3.981   2.535 -1.1854  1.5227 -0.5444
 7101SOL    HW232940   2.541   4.004   2.592  0.7292  1.3170 -0.3698
 7102SOL     OW32941   3.113   0.329   0.405 -0.0992 -0.2874 -0.3218
 7102SOL    HW132942   3.052   0.265   0.442 -0.4911 -0.3764 -1.1269
 7102SOL    HW232943   3.175   0.332   0.478 -0.3703  1.9532 -0.1859
 7103SOL     OW32944   3.609   4.062   6.569  0.3325 -0.4584  0.0700
 7103SOL    HW132945   3.691   4.108   6.555  0.9434 -1.9835 -1.3949
 7103SOL    HW232946   3.591   4.092   6.658 -1.3299 -0.2811 -0.3113
 7104SOL     OW32947   1.896   3.870   9.304 -0.0498 -0.0231 -0.1782
 7104SOL    HW132948   1.866   3.942   9.360  0.1978 -0.6272  0.7205
 7104SOL    HW232949   1.991   3.878   9.294 -0.4197  1.1645 -2.8305
 7105SOL     OW32950   4.341   0.087   4.332 -1.0118 -0.2927  0.0986
 7105SOL    HW132951   4.304   0.052   4.251  2.2959 -0.3715 -1.3875
 7105SOL    HW232952   4.261   0.083   4.384 -0.9702  0.3526  0.2132
 7106SOL     OW32953   0.655   2.300   6.385 -0.3528 -0.7489 -0.0398
 7106SOL    HW132954   0.633   2.296   6.292 -2.0634  1.7890  0.2504
 7106SOL    HW232955   0.566   2.291   6.421  0.9992 -0.7705  3.3152
 7107SOL     OW32956   0.776   0.847   4.455  0.0983  0.1918 -0.2797
 7107SOL    HW132957   0.756   0.823   4.545 -1.1536  2.4087  0.0298
 7107SOL    HW232958   0.707   0.910   4.435  1.5318  0.9387 -2.8926
 7108SOL     OW32959   3.958   2.123   0.193  0.3546 -0.0156  0.6916
 7108SOL    HW132960   3.983   2.031   0.180  0.3109 -0.0795  1.0588
 7108SOL    HW232961   3.864   2.114   0.179  0.5716  1.9689 -2.0261
 7109SOL     OW32962   4.194   0.716   7.654 -0.5360  0.1648 -0.4890
 7109SOL    HW132963   4.181   0.621   7.647  1.1225  0.0143 -1.6560
 7109SOL    HW232964   4.109   0.749   7.626 -0.0395 -0.1361 -2.3271
 7110SOL     OW32965   1.161   2.661  13.759 -0.2197 -0.0459 -0.0764
 7110SOL    HW132966   1.211   2.727  13.807 -1.1687 -0.6694  1.7747
 7110SOL    HW232967   1.074   2.663  13.800  0.6610 -0.6779  1.8093
 7111SOL     OW32968   2.842   4.437   6.225  0.1783  0.5827 -0.6183
 7111SOL    HW132969   2.795   4.428   6.308 -0.3117  2.7392 -0.6824
 7111SOL    HW232970   2.765   4.464   6.176 -1.2848 -2.2135  0.0993
 7112SOL     OW32971   2.841   4.018   2.076  0.0496 -0.1517  0.3886
 7112SOL    HW132972   2.750   4.029   2.103 -0.0194  0.1846  0.0118
 7112SOL    HW232973   2.835   3.923   2.068 -0.9725 -0.0093 -0.4989
 7113SOL     OW32974   0.098   2.345   3.146  0.2694 -0.0737  0.3889
 7113SOL    HW132975   0.011   2.361   3.110  1.2436  2.7720 -0.6944
 7113SOL    HW232976   0.162   2.393   3.094 -0.5216  1.3528  0.7370
 7114SOL     OW32977   1.710   0.290  10.462  0.0949  0.1259 -0.3458
 7114SOL    HW132978   1.732   0.273  10.554 -0.5238 -1.5823 -0.5142
 7114SOL    HW232979   1.741   0.211  10.417 -2.0634 -0.2182 -1.2793
 7115SOL     OW32980   1.976   4.724   4.597 -0.4372 -0.3638 -0.0430
 7115SOL    HW132981   1.947   4.635   4.576 -0.0834 -0.4673 -0.0869
 7115SOL    HW232982   2.038   0.006   4.526 -0.6234 -0.6652 -0.2859
 7116SOL     OW32983   1.394   0.387   5.072  0.4021  0.1911 -1.0361
 7116SOL    HW132984   1.378   0.293   5.079 -1.4585  0.6038  0.3380
 7116SOL    HW232985   1.457   0.384   5.001  1.8034  0.8838  0.1756
 7117SOL     OW32986   3.179   0.176   3.808 -0.1023  0.1927  0.1886
 7117SOL    HW132987   3.197   0.089   3.772 -0.9358 -0.3718  1.1159
 7117SOL    HW232988   3.129   0.165   3.889 -0.9974  1.4321 -0.1916
 7118SOL     OW32989   3.702   3.838   0.919 -0.2373  0.2168  0.2197
 7118SOL    HW132990   3.767   3.850   0.850  2.0906 -2.5289  1.9079
 7118SOL    HW232991   3.625   3.817   0.867 -0.6920  2.7867 -0.1305
 7119SOL     OW32992   0.511   0.948  11.943 -0.6153 -0.1562 -0.2425
 7119SOL    HW132993   0.560   0.961  11.861  0.7901 -2.1149  0.2868
 7119SOL    HW232994   0.472   0.864  11.921 -1.9632  0.4099  0.0026
 7120SOL     OW32995   1.922   4.372   2.402 -0.4021 -0.2444 -0.6206
 7120SOL    HW132996   1.950   4.448   2.451  0.5947 -0.4433 -0.8714
 7120SOL    HW232997   1.827   4.384   2.400 -0.2511  0.9098 -0.8158
 7121SOL     OW32998   1.044   3.444   6.196 -0.1917  0.5595 -0.4564
 7121SOL    HW132999   0.994   3.516   6.235  0.4226  0.3000  0.8211
 7121SOL    HW233000   1.125   3.439   6.247 -0.2749 -0.3000 -0.4162
 7122SOL     OW33001   1.913   3.758   1.719 -0.3327  0.0978  0.5109
 7122SOL    HW133002   1.943   3.674   1.753  2.1675  0.8997  0.3143
 7122SOL    HW233003   1.845   3.731   1.658  1.7955  1.1681 -2.2967
 7123SOL     OW33004   4.222   1.219   6.481 -0.2273 -0.1262  0.0781
 7123SOL    HW133005   4.278   1.187   6.410  0.6951 -0.2135  0.8400
 7123SOL    HW233006   4.173   1.140   6.506  0.7107 -1.0298 -0.9303
 7124SOL     OW33007   3.290   1.649  17.456 -0.5819  0.2590  0.6525
 7124SOL    HW133008   3.283   1.598  17.375 -0.4386  0.5236  0.4725
 7124SOL    HW233009   3.378   1.686  17.447 -0.2525  0.0045  2.8217
 7125SOL     OW33010   3.534   0.267   2.709 -0.2360 -0.5933  0.2793
 7125SOL    HW133011   3.608   0.252   2.650  0.8152 -0.1817  1.5104
 7125SOL    HW233012   3.492   0.181   2.714  0.2637 -0.8895 -0.6866
 7126SOL     OW33013   1.689   2.621   4.719  0.1724 -0.5606  0.3126
 7126SOL    HW133014   1.687   2.696   4.779  0.9123 -0.9638  0.8355
 7126SOL    HW233015   1.689   2.545   4.776 -2.4887  0.0622  1.1512
 7127SOL     OW33016   2.402   3.755   2.140 -0.0224 -0.3128 -0.2596
 7127SOL    HW133017   2.364   3.781   2.056 -1.0097  0.1604  0.3280
 7127SOL    HW233018   2.329   3.722   2.193 -0.4204 -1.7248 -1.6898
 7128SOL     OW33019   1.729   0.938   7.012  0.0099  0.5424  0.1805
 7128SOL    HW133020   1.662   0.939   6.944  1.2587  0.8099 -1.0534
 7128SOL    HW233021   1.771   0.855   6.989 -2.1049 -0.5312  0.2610
 7129SOL     OW33022   4.356   1.581  14.983 -0.1440  0.2254  0.5695
 7129SOL    HW133023   4.448   1.561  14.967 -0.6757  0.6834 -2.9419
 7129SOL    HW233024   4.316   1.559  14.899  0.1369  1.4589  0.1235
 7130SOL     OW33025   0.416   2.008   8.991  0.2761  0.0964 -0.3449
 7130SOL    HW133026   0.323   2.030   8.990  0.0644 -0.8780 -2.6374
 7130SOL    HW233027   0.457   2.033   9.073 -0.1133 -1.9318  0.4606
 7131SOL     OW33028   4.296   3.142   7.498  0.2429 -0.8224  0.0887
 7131SOL    HW133029   4.311   3.053   7.466  0.0192 -0.9600  0.3647
 7131SOL    HW233030   4.287   3.193   7.417 -0.9693  1.5865  1.7113
 7132SOL     OW33031   3.481   0.184   8.779 -0.3558  0.4750 -0.2380
 7132SOL    HW133032   3.540   0.157   8.850  1.3829  0.1307 -1.8116
 7132SOL    HW233033   3.506   0.110   8.724  0.3808  0.0945  0.5963
 7133SOL     OW33034   1.765   2.742  14.759  0.7536 -0.2759 -0.3034
 7133SOL    HW133035   1.799   2.655  14.735  3.5533  0.2800  1.5903
 7133SOL    HW233036   1.821   2.794  14.701  0.1595 -0.0352 -0.6575
 7134SOL     OW33037   0.704   4.689   5.303 -0.5817 -0.1051 -0.4131
 7134SOL    HW133038   0.691   4.606   5.258 -0.1253  0.6538 -1.9254
 7134SOL    HW233039   0.798   4.706   5.294 -0.2136 -1.7439  0.4953
 7135SOL     OW33040   0.827   3.246   8.857  0.3144 -0.0525  0.6548
 7135SOL    HW133041   0.779   3.225   8.937  1.5037  1.9925  1.9083
 7135SOL    HW233042   0.882   3.170   8.839  1.9544  0.7659  2.2275
 7136SOL     OW33043   4.696   2.701   1.084 -0.3139 -0.1813  0.3044
 7136SOL    HW133044   4.704   2.781   1.033 -1.1591  0.4333  1.1260
 7136SOL    HW233045   4.615   2.665   1.047 -0.2013  0.0389 -0.1474
 7137SOL     OW33046   2.613   0.134   1.605  0.0834 -0.2109 -0.4562
 7137SOL    HW133047   2.566   0.205   1.563  0.1212  1.0515  1.6188
 7137SOL    HW233048   2.590   0.149   1.697  1.1378 -2.4501  0.1725
 7138SOL     OW33049   2.725   3.938  12.339  0.4999 -0.0540  0.1187
 7138SOL    HW133050   2.815   3.957  12.364  0.4282  1.4358 -0.7415
 7138SOL    HW233051   2.680   4.022  12.349 -1.9413 -1.0350 -2.6988
 7139SOL     OW33052   3.588   2.776  12.961 -0.4766  0.6041  0.4479
 7139SOL    HW133053   3.597   2.830  12.882  0.6927 -1.5370 -0.8786
 7139SOL    HW233054   3.676   2.738  12.960 -0.2194  1.1907  0.2725
 7140SOL     OW33055   1.514   2.055   0.744 -0.3389 -0.0816 -0.6933
 7140SOL    HW133056   1.422   2.060   0.717 -0.4121 -0.0326 -0.4365
 7140SOL    HW233057   1.526   1.960   0.741 -0.4169 -0.1004 -0.4300
 7141SOL     OW33058   0.533   3.460   3.106 -0.6660 -0.1039 -0.2716
 7141SOL    HW133059   0.574   3.406   3.173  0.2647  2.5447  1.2851
 7141SOL    HW233060   0.471   3.391   3.083 -0.5020 -1.1047  2.2688
 7142SOL     OW33061   3.893   3.670  15.008  0.1666 -0.0972  0.2006
 7142SOL    HW133062   3.977   3.714  15.010 -0.6144  1.4114 -0.3499
 7142SOL    HW233063   3.917   3.580  14.986 -0.6941 -0.4265  0.6078
 7143SOL     OW33064   4.400   0.677   0.573  0.4253 -0.2696 -0.4245
 7143SOL    HW133065   4.365   0.637   0.493 -0.3809  0.0958 -0.2500
 7143SOL    HW233066   4.314   0.678   0.615  0.3397  0.9081 -0.6186
 7144SOL     OW33067   0.749   1.478   3.606  0.2180 -0.3509  0.3415
 7144SOL    HW133068   0.667   1.496   3.560  1.7089 -0.9385 -2.5612
 7144SOL    HW233069   0.718   1.463   3.695  0.1970 -0.7155  0.2701
 7145SOL     OW33070   1.581   0.551  13.046 -0.8159  0.3272 -0.1216
 7145SOL    HW133071   1.529   0.570  12.968  1.5382  1.2802 -1.4624
 7145SOL    HW233072   1.560   0.460  13.066  0.4552 -0.2127 -1.2106
 7146SOL     OW33073   4.147   3.909   5.365  0.3567 -0.1211  0.1422
 7146SOL    HW133074   4.089   3.984   5.379 -2.3174 -1.8890 -1.6300
 7146SOL    HW233075   4.220   3.934   5.421  1.4083 -0.8841 -0.8997
 7147SOL     OW33076   4.525   0.708  12.172  0.2493 -0.1291 -0.1144
 7147SOL    HW133077   4.609   0.742  12.203  0.5619 -1.9243  0.9639
 7147SOL    HW233078   4.467   0.784  12.167 -0.7723 -0.9392 -0.7075
 7148SOL     OW33079   0.603   1.724   8.902  0.2798  0.3087  0.8095
 7148SOL    HW133080   0.604   1.649   8.961  0.8511 -0.0274  0.3745
 7148SOL    HW233081   0.513   1.717   8.870  1.3580 -0.4853 -2.0985
 7149SOL     OW33082   3.464   0.978   7.854  0.3484  0.1245 -0.0551
 7149SOL    HW133083   3.374   0.949   7.850  0.4460 -0.1851  0.0433
 7149SOL    HW233084   3.458   1.073   7.838 -0.9687  0.2533  1.2458
 7150SOL     OW33085   4.139   1.588   7.647  0.5345  0.1944  0.2282
 7150SOL    HW133086   4.078   1.534   7.596  0.2911  0.2441  0.4726
 7150SOL    HW233087   4.106   1.676   7.627  2.9700  0.9175 -0.6518
 7151SOL     OW33088   4.053   0.025  10.584  0.2876  0.2538 -0.1093
 7151SOL    HW133089   4.033   0.114  10.612 -0.2887 -0.2904  1.2415
 7151SOL    HW233090   3.996   4.715  10.645 -1.5261  0.8282 -1.3659
 7152SOL     OW33091   1.029   4.403   1.101 -0.0463 -0.1652  0.5842
 7152SOL    HW133092   1.097   4.409   1.034 -0.6846  0.5584 -0.0060
 7152SOL    HW233093   0.957   4.355   1.062 -1.4244  1.1888  1.4571
 7153SOL     OW33094   4.149   1.100   3.029 -0.2980  0.5452  0.5998
 7153SOL    HW133095   4.058   1.129   3.037 -0.6105 -0.4213  0.5558
 7153SOL    HW233096   4.197   1.176   2.995  1.0619 -1.2711 -1.5411
 7154SOL     OW33097   3.785   2.746   1.918  0.2660 -0.4665  1.0795
 7154SOL    HW133098   3.696   2.765   1.889  1.0361  0.0655 -0.8879
 7154SOL    HW233099   3.841   2.807   1.871 -1.2136 -0.0111 -0.0832
 7155SOL     OW33100   3.780   0.948   4.714  0.0534 -0.0985 -1.0035
 7155SOL    HW133101   3.721   0.965   4.641  1.1373  0.7942 -1.6715
 7155SOL    HW233102   3.817   1.037   4.723 -2.2594  0.8691 -1.2229
 7156SOL     OW33103   0.254   2.772  13.293  0.1442  0.1043  0.7275
 7156SOL    HW133104   0.264   2.847  13.351 -2.7350  0.6727  0.4669
 7156SOL    HW233105   0.333   2.780  13.238 -0.1467  1.0504  0.4463
 7157SOL     OW33106   2.125   1.188   7.255 -0.1750  0.2521  0.0244
 7157SOL    HW133107   2.047   1.144   7.220 -0.5824  1.0508 -0.0669
 7157SOL    HW233108   2.121   1.172   7.349  1.2337 -1.0311 -0.1370
 7158SOL     OW33109   4.658   1.919  11.614 -0.3375  0.0856 -1.0265
 7158SOL    HW133110   4.581   1.863  11.616  0.6854 -1.4226 -3.6766
 7158SOL    HW233111   4.648   1.967  11.696 -0.8500  0.3646 -1.2563
 7159SOL     OW33112   0.487   1.486   2.856 -0.1873 -0.7592  0.0112
 7159SOL    HW133113   0.449   1.402   2.829  0.0037 -0.5092 -1.0139
 7159SOL    HW233114   0.563   1.457   2.906 -0.0764  0.1783  0.3896
 7160SOL     OW33115   3.382   0.960  14.335 -0.0183  0.0265 -0.0190
 7160SOL    HW133116   3.411   1.031  14.393  0.4948  0.7157 -1.1248
 7160SOL    HW233117   3.444   0.975  14.264 -1.0215  0.0418 -0.8927
 7161SOL     OW33118   3.060   2.542   0.408 -0.1427 -0.5330 -0.3489
 7161SOL    HW133119   3.088   2.538   0.317 -1.8972 -0.3693 -0.8903
 7161SOL    HW233120   2.968   2.520   0.393 -0.5894  0.6714  0.6085
 7162SOL     OW33121   3.259   0.901   2.733  0.1618 -0.4431  0.5772
 7162SOL    HW133122   3.261   0.826   2.792 -0.0020 -0.0067  1.1388
 7162SOL    HW233123   3.341   0.944   2.755 -0.0288  0.2432 -0.0337
 7163SOL     OW33124   0.681   3.423   2.081  0.1484 -0.1707 -0.1630
 7163SOL    HW133125   0.693   3.332   2.054  1.7514  0.4509 -1.5671
 7163SOL    HW233126   0.771   3.444   2.106  0.1171  0.7588 -0.8625
 7164SOL     OW33127   0.662   3.340   7.688 -0.1590 -0.6503 -0.3839
 7164SOL    HW133128   0.570   3.321   7.673 -0.2114 -0.9605  0.3123
 7164SOL    HW233129   0.692   3.358   7.599 -1.4561 -0.5194 -0.7803
 7165SOL     OW33130   3.889   3.329   2.796  0.3975  0.2140 -0.1322
 7165SOL    HW133131   3.852   3.290   2.717  1.1438 -1.4586  0.3407
 7165SOL    HW233132   3.946   3.266   2.839  1.6826  0.5023 -1.4039
 7166SOL     OW33133   0.445   3.971   2.679  0.3211 -0.2756 -0.2364
 7166SOL    HW133134   0.477   4.058   2.703  0.1807 -0.0113 -1.0003
 7166SOL    HW233135   0.355   3.968   2.712 -0.3846  1.5633 -1.9766
 7167SOL     OW33136   4.318   4.662   0.962  0.2002 -0.1498  0.3144
 7167SOL    HW133137   4.380   4.704   0.902  0.7974  0.3640  1.2862
 7167SOL    HW233138   4.254   4.629   0.898  0.0396  1.7142 -0.4811
 7168SOL     OW33139   3.292   4.262   2.122 -0.2659  0.7514  0.3162
 7168SOL    HW133140   3.216   4.206   2.136  1.8634 -1.4609  3.2541
 7168SOL    HW233141   3.257   4.306   2.045  0.3209  0.7125  0.0280
 7169SOL     OW33142   0.908   0.598  12.955  0.2601  0.0635 -0.2258
 7169SOL    HW133143   0.844   0.574  13.022  1.7986  0.9503  1.5568
 7169SOL    HW233144   0.937   0.687  12.976 -0.5516  0.1794  0.4072
 7170SOL     OW33145   3.298   4.257   6.187  0.4585 -0.0448  0.2074
 7170SOL    HW133146   3.377   4.213   6.219 -0.4809 -1.6958  0.2630
 7170SOL    HW233147   3.235   4.233   6.255  1.7191  0.8942  1.7166
 7171SOL     OW33148   1.069   3.114  14.948  0.1152  0.6612 -0.2931
 7171SOL    HW133149   1.162   3.140  14.948  0.1144  0.6638 -0.8342
 7171SOL    HW233150   1.072   3.022  14.921 -0.4538  1.1711 -2.0651
 7172SOL     OW33151   3.545   3.733  13.948 -0.1404  0.5998  0.4220
 7172SOL    HW133152   3.625   3.701  13.906 -0.0601 -1.3826  2.1145
 7172SOL    HW233153   3.556   3.737  14.042 -0.5570  1.0767  0.4572
 7173SOL     OW33154   0.691   0.089   6.854 -0.3852  0.0280  0.0737
 7173SOL    HW133155   0.720   0.006   6.817  0.9415 -0.1153  1.4502
 7173SOL    HW233156   0.750   0.158   6.822  0.7123 -1.0526 -0.2314
 7174SOL     OW33157   1.557   2.863   4.213  0.5443  0.1926 -0.1426
 7174SOL    HW133158   1.647   2.896   4.218  0.8809 -0.5141 -1.6029
 7174SOL    HW233159   1.556   2.796   4.282  0.2679  2.0595  1.6469
 7175SOL     OW33160   2.067   2.190   5.656  0.4687 -0.0925 -0.1102
 7175SOL    HW133161   2.087   2.131   5.729 -0.5000  2.2290  2.0513
 7175SOL    HW233162   2.131   2.169   5.589 -0.5113  0.1379 -1.1088
 7176SOL     OW33163   1.528   0.155   7.123 -0.6450  0.3852  0.0918
 7176SOL    HW133164   1.491   0.095   7.059  2.1604 -3.4515  2.0635
 7176SOL    HW233165   1.447   0.176   7.169  0.1423  1.0038  1.1976
 7177SOL     OW33166   1.743   1.450   4.087  0.1207 -0.2140 -0.1362
 7177SOL    HW133167   1.726   1.484   3.999 -0.2657 -2.0777 -0.7680
 7177SOL    HW233168   1.664   1.400   4.109  0.3589 -1.4906 -2.1793
 7178SOL     OW33169   2.784   2.301   7.050  0.3395 -0.2427  0.5032
 7178SOL    HW133170   2.762   2.294   7.142 -2.0109 -2.5382 -0.2467
 7178SOL    HW233171   2.694   2.291   7.018  1.3373  0.9077 -2.7056
 7179SOL     OW33172   4.579   1.933  16.415  0.2975 -0.0597 -0.1905
 7179SOL    HW133173   4.636   1.861  16.443 -2.1086 -1.7585  0.3420
 7179SOL    HW233174   4.523   1.895  16.347  0.8130 -0.9836 -0.1045
 7180SOL     OW33175   4.294   4.619  17.691 -0.7487 -0.1456 -0.5735
 7180SOL    HW133176   4.252   4.536  17.715  1.3791 -0.4823  1.9769
 7180SOL    HW233177   4.257   4.666   0.020  0.1463 -1.0024  0.4061
 7181SOL     OW33178   2.661   0.742   7.702 -0.4294  0.4870  0.1192
 7181SOL    HW133179   2.624   0.823   7.737 -0.8756  0.0826  0.5871
 7181SOL    HW233180   2.693   0.775   7.618 -1.2269 -0.2755 -0.4850
 7182SOL     OW33181   0.182   3.969   0.845  0.0967 -0.3952 -0.2905
 7182SOL    HW133182   0.122   3.909   0.889 -0.8395  0.4894 -0.3746
 7182SOL    HW233183   0.143   3.978   0.758 -0.5789 -1.5414 -0.1123
 7183SOL     OW33184   0.699   0.587   2.345 -0.0220 -0.1470 -0.2170
 7183SOL    HW133185   0.781   0.555   2.384  1.3380  1.2442 -1.9285
 7183SOL    HW233186   0.735   0.671   2.317 -0.1433 -0.5647 -1.6175
 7184SOL     OW33187   4.180   0.299   4.742  0.1465 -0.3279  0.4930
 7184SOL    HW133188   4.259   0.250   4.718 -0.4204 -0.1779 -1.6601
 7184SOL    HW233189   4.122   0.279   4.669  1.3160 -1.6807 -0.0729
 7185SOL     OW33190   1.024   3.179   7.137 -0.2306 -0.1567 -0.1679
 7185SOL    HW133191   1.077   3.197   7.215 -0.3491  2.5049 -0.7149
 7185SOL    HW233192   1.008   3.265   7.098 -0.3018 -0.6697 -1.2687
 7186SOL     OW33193   3.772   1.568  14.950  0.2937 -0.0686  0.2297
 7186SOL    HW133194   3.718   1.515  15.010 -0.5750 -0.7154 -1.1331
 7186SOL    HW233195   3.855   1.563  14.998  0.8863  0.3446 -0.7629
 7187SOL     OW33196   3.137   1.108   4.949 -0.0805  0.0961  0.1168
 7187SOL    HW133197   3.193   1.037   4.981  2.2717  1.0421 -1.9584
 7187SOL    HW233198   3.192   1.183   4.971 -2.1260  1.8584 -0.8619
 7188SOL     OW33199   0.744   1.426   1.969  0.3331 -0.1148 -0.3842
 7188SOL    HW133200   0.717   1.512   1.936  0.5791  0.9295  2.1224
 7188SOL    HW233201   0.794   1.449   2.048 -0.2688  0.1356 -0.0754
 7189SOL     OW33202   4.664   4.481  15.223 -0.1693 -0.0986  0.0585
 7189SOL    HW133203   4.634   4.391  15.235  0.8520 -0.4798 -0.2461
 7189SOL    HW233204   4.585   4.505  15.174 -0.1367 -0.4728 -0.1785
 7190SOL     OW33205   3.836   3.652   7.995 -0.7639 -0.1582  0.1918
 7190SOL    HW133206   3.889   3.577   8.024  1.8325  2.2382  1.6468
 7190SOL    HW233207   3.769   3.651   8.063 -1.9982 -0.2781 -1.0278
 7191SOL     OW33208   0.649   4.386   1.143 -0.1014  0.7889 -0.6570
 7191SOL    HW133209   0.649   4.477   1.171  0.7764  0.5201  0.2397
 7191SOL    HW233210   0.712   4.379   1.072  0.4336 -0.1097 -0.0953
 7192SOL     OW33211   1.388   2.069   3.295  0.5027 -0.4023  0.3575
 7192SOL    HW133212   1.388   1.981   3.333  0.8714  0.1088  1.5324
 7192SOL    HW233213   1.379   2.128   3.369 -0.6919 -0.2962  0.1323
 7193SOL     OW33214   4.177   2.741   3.484 -0.0580 -0.3074  0.1306
 7193SOL    HW133215   4.203   2.696   3.564  1.1471  0.7127  0.3057
 7193SOL    HW233216   4.227   2.678   3.433 -0.3263 -0.9722  0.6857
 7194SOL     OW33217   4.488   2.796  17.253 -0.7629 -0.9665  0.6012
 7194SOL    HW133218   4.570   2.795  17.301 -0.4243  0.2108  0.0526
 7194SOL    HW233219   4.520   2.756  17.172 -1.6908 -1.1524  0.3205
 7195SOL     OW33220   1.935   0.197   6.933  0.2587  0.2197  0.3587
 7195SOL    HW133221   1.992   0.266   6.966  0.4778 -0.9360  2.3512
 7195SOL    HW233222   1.881   0.185   7.010 -2.0512 -0.3521 -1.3522
 7196SOL     OW33223   1.002   4.299  14.161  0.4198  0.3174 -0.6319
 7196SOL    HW133224   1.080   4.312  14.107  1.4988 -0.0935  0.8064
 7196SOL    HW233225   1.035   4.217  14.199 -0.7385  0.0704 -0.1679
 7197SOL     OW33226   1.134   4.391   2.582  0.1379 -0.0137 -0.5526
 7197SOL    HW133227   1.049   4.365   2.617  0.1326 -0.5675 -0.9765
 7197SOL    HW233228   1.185   4.379   2.663  1.8894 -1.3260 -1.8592
 7198SOL     OW33229   2.728   4.201  11.746  0.3461 -0.2859 -0.2029
 7198SOL    HW133230   2.801   4.180  11.688  0.6046 -1.3730  0.5014
 7198SOL    HW233231   2.716   4.292  11.719 -0.4737 -0.4402 -0.3480
 7199SOL     OW33232   2.903   4.131   7.456  0.1809 -0.5727 -0.6528
 7199SOL    HW133233   2.885   4.186   7.533  1.3917  0.1610 -0.8992
 7199SOL    HW233234   2.998   4.140   7.450  0.2926 -0.3578  1.3207
 7200SOL     OW33235   2.822   2.430  11.338  0.4139  0.4481 -0.2674
 7200SOL    HW133236   2.827   2.334  11.339 -3.1829  0.2144 -3.0081
 7200SOL    HW233237   2.825   2.441  11.433  1.7640 -1.4920 -0.0915
 7201SOL     OW33238   4.710   0.950  17.173  0.1291  0.0626  0.2520
 7201SOL    HW133239   4.734   1.042  17.167  1.6433 -0.2863  0.8483
 7201SOL    HW233240   0.059   0.913  17.190  0.0757  0.6808  1.8051
 7202SOL     OW33241   4.237   1.535  14.750 -0.5502 -0.0291  0.0724
 7202SOL    HW133242   4.209   1.541  14.659  0.3423  1.7385 -0.0792
 7202SOL    HW233243   4.197   1.455  14.784 -1.5348  1.1077  1.6270
 7203SOL     OW33244   3.786   0.747   1.543  0.2062 -0.2514  0.3343
 7203SOL    HW133245   3.866   0.790   1.512 -0.1706  1.0533  1.1367
 7203SOL    HW233246   3.772   0.683   1.474  0.8351 -1.3878  1.2526
 7204SOL     OW33247   3.479   3.224   4.712 -0.3805 -1.0435 -0.6088
 7204SOL    HW133248   3.573   3.205   4.720 -0.2611 -0.2319 -0.0649
 7204SOL    HW233249   3.479   3.319   4.722  0.1328 -1.0184 -0.8703
 7205SOL     OW33250   3.856   0.852   4.328  0.2333 -0.2970 -0.4335
 7205SOL    HW133251   3.933   0.866   4.383  0.4175 -1.4005 -0.4060
 7205SOL    HW233252   3.873   0.904   4.249  0.6006  1.7145  0.9912
 7206SOL     OW33253   1.193   2.364   0.263  0.4206 -0.2171 -0.2006
 7206SOL    HW133254   1.099   2.350   0.255  0.0161  3.3873 -1.9190
 7206SOL    HW233255   1.204   2.332   0.352 -0.8471  0.7590  0.3124
 7207SOL     OW33256   0.623   3.756   6.416 -0.3417  0.1028 -0.1147
 7207SOL    HW133257   0.595   3.768   6.325  1.0928  0.5547 -0.4908
 7207SOL    HW233258   0.538   3.751   6.461 -0.4362 -0.5903 -0.3712
 7208SOL     OW33259   3.201   1.342  17.471 -0.3893  0.0078  0.3447
 7208SOL    HW133260   3.181   1.258  17.513  1.5300 -1.1291 -0.9878
 7208SOL    HW233261   3.181   1.315  17.382 -0.2793 -0.5614  0.4880
 7209SOL     OW33262   1.626   2.434   6.196 -0.0372 -0.1207 -0.0375
 7209SOL    HW133263   1.604   2.341   6.202 -2.3667  0.4115 -0.4885
 7209SOL    HW233264   1.548   2.474   6.158 -0.4301  0.3438  1.2649
 7210SOL     OW33265   3.247   3.304   5.819 -0.0869 -0.4435  0.2124
 7210SOL    HW133266   3.243   3.385   5.769  1.1223 -1.7385 -2.0103
 7210SOL    HW233267   3.233   3.336   5.908  1.0735  0.8783 -0.0879
 7211SOL     OW33268   3.166   2.340   6.984  0.2339 -0.3604 -0.0240
 7211SOL    HW133269   3.226   2.337   6.909 -1.1832 -1.7162 -1.0888
 7211SOL    HW233270   3.225   2.394   7.038 -1.6107 -0.9393  2.5753
 7212SOL     OW33271   0.449   1.026   4.158 -0.5054 -0.0108 -1.0732
 7212SOL    HW133272   0.437   0.939   4.119  1.7373 -0.7711 -0.0314
 7212SOL    HW233273   0.521   1.005   4.217 -0.4472  0.1563 -1.0845
 7213SOL     OW33274   1.538   1.206  11.642 -0.6190 -0.0152  0.1082
 7213SOL    HW133275   1.514   1.267  11.712  1.1441  1.8722 -0.9251
 7213SOL    HW233276   1.478   1.244  11.577 -3.1344 -2.5844  0.9555
 7214SOL     OW33277   1.246   1.473   0.332  0.2219 -1.1624  0.0978
 7214SOL    HW133278   1.230   1.553   0.384 -2.6467 -1.1684 -0.7681
 7214SOL    HW233279   1.313   1.500   0.269  0.9470  1.0550  1.7772
 7215SOL     OW33280   1.364   0.177   2.389 -0.4128  0.4948 -0.5667
 7215SOL    HW133281   1.435   0.229   2.352  0.5382 -1.4670 -1.4724
 7215SOL    HW233282   1.347   0.121   2.313 -1.1249  0.4685 -0.3883
 7216SOL     OW33283   2.621   1.153   4.948  0.0342 -0.1214  0.1517
 7216SOL    HW133284   2.532   1.186   4.961  0.7506  1.1618  1.8300
 7216SOL    HW233285   2.623   1.074   5.001 -0.0809  0.3144  0.8133
 7217SOL     OW33286   3.128   2.227  17.019 -0.2452  0.4680 -0.0217
 7217SOL    HW133287   3.073   2.220  16.941  0.3625  0.7140 -0.4829
 7217SOL    HW233288   3.105   2.308  17.064 -1.0430  0.0770  0.2563
 7218SOL     OW33289   3.067   1.818   4.594 -0.2937 -0.2236 -0.3657
 7218SOL    HW133290   2.980   1.823   4.633  1.1419  1.0752  2.6222
 7218SOL    HW233291   3.108   1.780   4.671 -0.6150 -0.8422 -0.4973
 7219SOL     OW33292   2.461   3.261   7.930  0.3181 -0.2175  0.7938
 7219SOL    HW133293   2.435   3.347   7.897  0.4923 -0.4042  0.1740
 7219SOL    HW233294   2.556   3.268   7.940  0.1737  1.5894  0.8946
 7220SOL     OW33295   4.223   0.474   5.889  0.2121  0.4197  0.0287
 7220SOL    HW133296   4.153   0.417   5.920  1.1732 -1.1326 -0.6658
 7220SOL    HW233297   4.244   0.425   5.810  1.3437  2.1074 -0.7356
 7221SOL     OW33298   3.523   1.619   3.970 -0.9790  0.0937  0.7904
 7221SOL    HW133299   3.438   1.578   3.979 -0.4539 -1.0079  0.6563
 7221SOL    HW233300   3.497   1.705   4.003 -1.6240  0.5216 -0.8114
 7222SOL     OW33301   1.390   4.167   0.461  0.0038  0.0569 -0.3121
 7222SOL    HW133302   1.414   4.100   0.525  1.8023 -0.8322 -1.9028
 7222SOL    HW233303   1.307   4.200   0.495  0.2593  1.8067 -1.4218
 7223SOL     OW33304   0.556   1.464   6.578  0.0839  0.2663 -0.3970
 7223SOL    HW133305   0.581   1.513   6.656 -0.8664  0.4434 -0.1943
 7223SOL    HW233306   0.620   1.493   6.513  1.1692 -0.3802  0.3865
 7224SOL     OW33307   1.552   1.510  11.103  0.1276 -0.3082  0.0330
 7224SOL    HW133308   1.561   1.434  11.045  4.3173  0.4305 -0.2953
 7224SOL    HW233309   1.644   1.510  11.130  0.3545 -0.6150 -0.7329
 7225SOL     OW33310   4.016   3.837   2.416  0.0407  0.2185  0.1323
 7225SOL    HW133311   4.019   3.908   2.481  1.9879 -0.8516  1.2081
 7225SOL    HW233312   4.025   3.760   2.472  0.6420  0.3559  0.2259
 7226SOL     OW33313   3.911   0.898   6.114  0.1611  0.2180  0.5432
 7226SOL    HW133314   3.858   0.908   6.193 -0.9273 -3.3839  0.2551
 7226SOL    HW233315   3.960   0.817   6.128  0.6250  0.5256  0.7065
 7227SOL     OW33316   3.704   0.780   6.524 -0.1812 -0.8336 -0.1860
 7227SOL    HW133317   3.666   0.692   6.521 -1.3035 -0.2842 -2.2134
 7227SOL    HW233318   3.661   0.819   6.600 -1.1586  0.1505 -1.2465
 7228SOL     OW33319   1.284   2.791   5.958  0.1282  0.7200  0.4617
 7228SOL    HW133320   1.303   2.836   5.875  0.0927  1.0773  0.6457
 7228SOL    HW233321   1.189   2.783   5.964 -0.1249  2.8699 -0.4486
 7229SOL     OW33322   1.793   2.952   3.547  0.1363  0.5167 -0.0826
 7229SOL    HW133323   1.734   2.923   3.616  1.2582 -1.1173  0.1950
 7229SOL    HW233324   1.784   2.876   3.490  1.9134 -0.5090  1.0086
 7230SOL     OW33325   1.688   1.185  15.545 -0.1202 -0.3428 -0.5702
 7230SOL    HW133326   1.614   1.245  15.549  0.8685  0.8797 -0.6425
 7230SOL    HW233327   1.671   1.142  15.461 -2.5511 -2.0603  0.8264
 7231SOL     OW33328   1.300   2.647   2.568  0.3970 -0.1068  0.1113
 7231SOL    HW133329   1.308   2.635   2.474 -1.0959  1.0087 -0.1521
 7231SOL    HW233330   1.393   2.654   2.590  0.8471 -1.0334 -1.5444
 7232SOL     OW33331   2.633   1.721   6.300  0.0427  0.2386 -0.2577
 7232SOL    HW133332   2.709   1.778   6.303  0.9505 -0.9165 -1.0703
 7232SOL    HW233333   2.580   1.763   6.232  0.2723  0.6795 -0.1615
 7233SOL     OW33334   0.406   4.726  16.293  0.0721 -0.1021 -0.1312
 7233SOL    HW133335   0.377   0.005  16.383 -0.2076  0.2905 -0.2938
 7233SOL    HW233336   0.500   4.715  16.311  0.3984 -0.0801 -1.8473
 7234SOL     OW33337   0.108   0.346  16.137  0.4319 -0.1131  0.0762
 7234SOL    HW133338   0.119   0.253  16.121 -2.8041 -0.4056 -0.3280
 7234SOL    HW233339   0.125   0.364  16.230  1.0572 -0.7758  0.0885
 7235SOL     OW33340   3.034   0.890   3.452  0.0593  0.1406  0.3928
 7235SOL    HW133341   3.053   0.797   3.438 -0.9540  0.0143 -0.1932
 7235SOL    HW233342   3.122   0.925   3.443  0.0208  0.0476 -0.3248
 7236SOL     OW33343   0.868   1.694   9.316 -0.5100 -0.0858 -0.0287
 7236SOL    HW133344   0.897   1.779   9.283  0.2087 -0.6253 -0.7878
 7236SOL    HW233345   0.885   1.636   9.241 -0.3017  1.8274 -1.4565
 7237SOL     OW33346   0.337   4.403   3.668  0.1306  0.0737  0.0457
 7237SOL    HW133347   0.359   4.314   3.696 -0.8556  0.2681  1.3980
 7237SOL    HW233348   0.307   4.394   3.577 -1.2249 -0.3417  0.5403
 7238SOL     OW33349   3.310   2.562  14.622  0.1281  0.0243 -0.3385
 7238SOL    HW133350   3.378   2.572  14.555  0.9302 -1.3825  0.2719
 7238SOL    HW233351   3.359   2.527  14.696 -1.2110  0.9482  1.0011
 7239SOL     OW33352   1.733   0.114   2.568  0.4751  0.3338 -0.0293
 7239SOL    HW133353   1.682   0.033   2.558 -1.2119  1.4267 -0.1787
 7239SOL    HW233354   1.760   0.107   2.660  0.8512 -1.9731 -0.2992
 7240SOL     OW33355   1.339   3.437   4.535 -0.1877 -0.0323 -0.6287
 7240SOL    HW133356   1.413   3.396   4.580  0.2097  1.6915  0.2953
 7240SOL    HW233357   1.296   3.355   4.511  0.4878  0.0277 -2.0778
 7241SOL     OW33358   1.545   2.866   7.359  0.0208  0.0760  0.1411
 7241SOL    HW133359   1.580   2.799   7.419 -0.5417  0.7030  1.1782
 7241SOL    HW233360   1.612   2.875   7.292  0.8537  1.1759  1.1202
 7242SOL     OW33361   2.297   3.149   8.838  0.3947  0.5723  0.0161
 7242SOL    HW133362   2.220   3.204   8.828 -1.1626 -1.2265  2.2191
 7242SOL    HW233363   2.368   3.194   8.792  0.2809 -0.5327 -1.2341
 7243SOL     OW33364   1.980   1.065   5.814  0.3243 -0.1962 -0.1249
 7243SOL    HW133365   2.005   1.156   5.829  0.0836 -0.1570  0.0493
 7243SOL    HW233366   1.894   1.090   5.780 -0.0310 -0.3299  0.6824
 7244SOL     OW33367   1.930   0.561   3.616  0.1437 -0.0907  0.8006
 7244SOL    HW133368   1.974   0.586   3.697  1.6311  2.3385 -0.7791
 7244SOL    HW233369   2.003   0.562   3.554 -1.7747 -0.9667 -1.4894
 7245SOL     OW33370   1.253   3.263   1.777  0.5087  0.2665  0.0591
 7245SOL    HW133371   1.324   3.216   1.734 -0.7974  0.0221 -1.8503
 7245SOL    HW233372   1.188   3.194   1.792  0.8182  0.1695  0.9592
 7246SOL     OW33373   4.063   4.611   5.272 -0.1559 -0.3040 -0.0732
 7246SOL    HW133374   4.107   4.681   5.222  1.7392 -1.1575  0.4050
 7246SOL    HW233375   4.008   4.663   5.330 -1.0408 -0.3549 -0.8794
 7247SOL     OW33376   2.960   2.801  13.492  0.1755 -0.1884 -1.0215
 7247SOL    HW133377   2.944   2.715  13.530  0.4979  0.1877 -0.0261
 7247SOL    HW233378   3.038   2.779  13.441  0.7535 -0.0704 -0.1964
 7248SOL     OW33379   1.427   1.068   9.157  0.0278  0.5946 -0.3694
 7248SOL    HW133380   1.367   1.107   9.221 -0.6526  0.9824 -1.2501
 7248SOL    HW233381   1.515   1.091   9.188 -0.4062  0.8854  0.6605
 7249SOL     OW33382   3.203   4.213   3.636 -0.8188 -0.0236  0.0111
 7249SOL    HW133383   3.161   4.164   3.707 -1.8577 -0.0406 -0.6112
 7249SOL    HW233384   3.262   4.273   3.680  0.1553 -0.5504 -0.5677
 7250SOL     OW33385   3.140   3.130   6.805  0.0391  0.3548 -0.2693
 7250SOL    HW133386   3.197   3.149   6.731 -0.3527  0.2806 -0.5941
 7250SOL    HW233387   3.051   3.128   6.770 -0.2310 -0.8834  0.4756
 7251SOL     OW33388   3.034   3.674  16.224 -0.7160 -0.6168  0.5476
 7251SOL    HW133389   3.057   3.667  16.317  0.9979  0.2449  0.1945
 7251SOL    HW233390   3.103   3.730  16.189 -0.9182 -0.4168  0.4610
 7252SOL     OW33391   3.337   2.340   6.776  0.6567  0.3259  0.2391
 7252SOL    HW133392   3.371   2.402   6.711 -3.0387 -1.2339 -3.2060
 7252SOL    HW233393   3.392   2.264   6.761 -0.4302 -0.4734  0.3264
 7253SOL     OW33394   0.085   2.200  16.567  0.3762  1.1635 -0.1603
 7253SOL    HW133395   0.145   2.240  16.504  0.3282  1.0128 -0.3024
 7253SOL    HW233396   0.140   2.126  16.592 -1.5219 -0.2766 -0.2376
 7254SOL     OW33397   4.641   0.111   9.026 -0.0053 -0.3449 -0.6962
 7254SOL    HW133398   4.630   0.167   8.949  3.8705  0.2732 -0.7770
 7254SOL    HW233399   4.712   0.054   9.000  0.1749 -1.3804  2.0824
 7255SOL     OW33400   2.589   0.065  11.062  0.4685  0.3723 -0.2013
 7255SOL    HW133401   2.599   0.041  10.969  1.0538  0.0210 -0.0509
 7255SOL    HW233402   2.656   0.010  11.101  0.2415 -1.0327 -1.7773
 7256SOL     OW33403   1.014   3.534  11.351 -0.4991 -0.1991 -0.1091
 7256SOL    HW133404   1.020   3.550  11.445  0.8723 -0.7694 -0.1018
 7256SOL    HW233405   0.922   3.556  11.332 -0.0587  0.0910 -1.9693
 7257SOL     OW33406   4.692   2.596   5.911  0.2077  0.5592 -0.0020
 7257SOL    HW133407   4.698   2.557   5.998  2.1015  2.0823  0.5647
 7257SOL    HW233408   0.036   2.559   5.877  0.2538  0.9457 -0.3229
 7258SOL     OW33409   0.540   3.068   2.238 -0.2133 -0.6491 -0.0909
 7258SOL    HW133410   0.497   3.139   2.190 -1.2461 -0.4381  1.1452
 7258SOL    HW233411   0.583   3.014   2.172 -0.6264 -0.5845 -0.4181
 7259SOL     OW33412   2.886   2.290   6.410  0.1754 -0.5245  0.7139
 7259SOL    HW133413   2.912   2.227   6.342 -0.2704 -1.1660  1.1387
 7259SOL    HW233414   2.816   2.242   6.454  0.8093 -0.7836  1.4272
 7260SOL     OW33415   3.998   3.766   5.959 -0.1292  0.4818 -0.6954
 7260SOL    HW133416   3.954   3.829   6.017  1.1632  1.3597 -0.6732
 7260SOL    HW233417   3.929   3.751   5.895 -1.4757 -1.5778  1.2230
 7261SOL     OW33418   1.158   2.646   6.281  0.5472 -0.1437 -0.6890
 7261SOL    HW133419   1.107   2.620   6.358  0.2347  0.4213 -0.7046
 7261SOL    HW233420   1.109   2.599   6.213 -2.5252 -2.7928  3.3906
 7262SOL     OW33421   1.376   1.398   5.423 -0.0085 -0.6389  0.4178
 7262SOL    HW133422   1.358   1.327   5.362  0.3670 -0.0202 -0.4147
 7262SOL    HW233423   1.402   1.346   5.498  2.8360  2.9336  1.9450
 7263SOL     OW33424   1.834   1.597   6.716  0.4411 -0.4202 -0.6728
 7263SOL    HW133425   1.790   1.554   6.789 -0.9930 -2.2469 -2.6353
 7263SOL    HW233426   1.890   1.664   6.757  3.2103 -2.7721 -0.6366
 7264SOL     OW33427   0.178   1.862  14.585 -0.2398 -0.2436 -0.8860
 7264SOL    HW133428   0.208   1.935  14.531 -1.5273  0.4626 -0.6363
 7264SOL    HW233429   0.121   1.915  14.641 -1.7723  0.6514 -3.2507
 7265SOL     OW33430   0.506   3.338   6.728 -0.5782  0.0700 -0.3663
 7265SOL    HW133431   0.593   3.376   6.716  0.0213 -0.5125  2.1873
 7265SOL    HW233432   0.459   3.358   6.647 -1.4182  0.7053  0.2754
 7266SOL     OW33433   3.841   4.323   1.622  0.2214 -0.7443 -0.0768
 7266SOL    HW133434   3.892   4.242   1.616 -1.7829 -1.9772 -0.4507
 7266SOL    HW233435   3.911   4.373   1.664 -2.0245 -0.2634  3.0747
 7267SOL     OW33436   0.018   3.775  15.336  0.1931  0.4789  0.3530
 7267SOL    HW133437   0.073   3.733  15.270  1.2171  1.6746  0.4465
 7267SOL    HW233438   0.020   3.713  15.410  0.0430 -1.8286 -1.5867
 7268SOL     OW33439   0.690   1.379   8.392 -0.1437  0.1520  0.3046
 7268SOL    HW133440   0.653   1.370   8.303 -2.0891  0.9476  1.0252
 7268SOL    HW233441   0.626   1.334   8.448 -0.2178  1.1125  0.9721
 7269SOL     OW33442   4.318   3.872   2.803  0.0193 -0.1037  0.0870
 7269SOL    HW133443   4.299   3.863   2.896 -2.7631 -2.7811 -0.7717
 7269SOL    HW233444   4.276   3.952   2.769  3.0834  1.0421 -1.0298
 7270SOL     OW33445   4.372   2.704   2.063  0.4133 -0.3487 -0.0743
 7270SOL    HW133446   4.413   2.617   2.065 -0.3616 -0.7263 -0.3354
 7270SOL    HW233447   4.431   2.751   2.121 -2.4182  0.7394  1.8882
 7271SOL     OW33448   3.811   1.793   1.555  0.7172  0.2674 -0.2162
 7271SOL    HW133449   3.772   1.880   1.552  0.8215  0.3595  1.1631
 7271SOL    HW233450   3.737   1.737   1.531 -0.0274  0.0450  2.5109
 7272SOL     OW33451   0.569   0.138   5.164  0.3033 -0.1339 -0.0528
 7272SOL    HW133452   0.604   0.064   5.213  1.2171 -1.0166 -2.0329
 7272SOL    HW233453   0.601   0.210   5.219 -2.3898  0.4267  0.7927
 7273SOL     OW33454   4.099   4.159   0.281 -0.4249 -0.8215  0.1497
 7273SOL    HW133455   4.191   4.169   0.307 -0.1861 -0.2620 -0.8968
 7273SOL    HW233456   4.108   4.120   0.194 -0.1207  1.6034 -0.9106
 7274SOL     OW33457   4.651   0.368   4.655 -0.0779 -0.4590  0.0246
 7274SOL    HW133458   4.677   0.350   4.565 -1.5492 -1.4142 -0.2068
 7274SOL    HW233459   4.584   0.300   4.661 -0.8087  0.5562  3.6597
 7275SOL     OW33460   0.352   1.285   2.690  0.0666  0.0241 -0.7511
 7275SOL    HW133461   0.273   1.231   2.694  0.0254  0.2750  1.9169
 7275SOL    HW233462   0.314   1.364   2.652  1.4153  0.3533 -1.4373
 7276SOL     OW33463   1.022   0.427  12.263  0.0907  0.7775 -0.0942
 7276SOL    HW133464   1.083   0.410  12.192  1.0674  0.9115  0.7060
 7276SOL    HW233465   1.087   0.448  12.330 -0.1642  0.3744  0.2763
 7277SOL     OW33466   1.447   0.769   5.685  0.1216 -0.4580  0.1744
 7277SOL    HW133467   1.495   0.800   5.607  1.5674  1.1445  1.7030
 7277SOL    HW233468   1.458   0.674   5.675 -1.7985 -0.7573  1.1061
 7278SOL     OW33469   2.564   1.022   0.127 -1.2417 -0.7111 -0.1172
 7278SOL    HW133470   2.556   0.927   0.117  0.5593 -0.9558  0.7979
 7278SOL    HW233471   2.549   1.039   0.034  1.3861 -1.7826 -0.7267
 7279SOL     OW33472   0.412   2.623  15.074  0.0836 -0.2092 -0.3258
 7279SOL    HW133473   0.383   2.543  15.031 -1.1156  0.9457 -1.6793
 7279SOL    HW233474   0.507   2.615  15.073  0.2281  1.5284 -1.0899
 7280SOL     OW33475   2.530   3.852   7.887  0.1092  0.6702  0.1503
 7280SOL    HW133476   2.518   3.777   7.828  0.6208  1.4335 -0.9202
 7280SOL    HW233477   2.570   3.804   7.961  0.5801 -1.4363 -1.4572
 7281SOL     OW33478   2.958   1.378   1.640 -0.0523 -0.3175  0.2896
 7281SOL    HW133479   2.966   1.357   1.547  1.1966  0.6008  0.1854
 7281SOL    HW233480   3.021   1.309   1.662  2.3103  2.1365  1.2137
 7282SOL     OW33481   2.340   2.566   2.505 -0.1584  0.6002  0.4099
 7282SOL    HW133482   2.432   2.541   2.517 -0.1882 -0.1529 -0.9671
 7282SOL    HW233483   2.302   2.516   2.576 -0.0130 -1.9801 -1.3419
 7283SOL     OW33484   1.204   1.067   0.829 -0.1729 -0.0503 -0.3309
 7283SOL    HW133485   1.227   1.146   0.780  2.5298  0.1194  1.1943
 7283SOL    HW233486   1.250   1.002   0.776  0.9020  1.1023 -0.8033
 7284SOL     OW33487   0.358   4.459   2.724  0.0921 -0.2404 -0.1170
 7284SOL    HW133488   0.361   4.530   2.660  1.9314  0.4257  0.7207
 7284SOL    HW233489   0.265   4.437   2.723  0.0381  0.0119 -0.6017
 7285SOL     OW33490   0.595   1.880   4.600  0.2255  0.3178 -0.3604
 7285SOL    HW133491   0.506   1.909   4.577 -0.4429 -1.1318  0.3745
 7285SOL    HW233492   0.634   1.958   4.639 -0.1166  1.4744 -2.3238
 7286SOL     OW33493   1.005   2.490   9.138  0.4100  0.2704 -0.3950
 7286SOL    HW133494   0.946   2.434   9.189 -1.3309  0.6518 -2.0332
 7286SOL    HW233495   0.992   2.571   9.188  2.2976  0.1710  0.2929
 7287SOL     OW33496   0.037   1.521  11.906 -0.0211 -0.1205  0.1845
 7287SOL    HW133497   4.681   1.535  11.892 -0.1743  1.2503  2.4903
 7287SOL    HW233498   0.052   1.443  11.959 -0.7574 -1.5485 -1.7089
 7288SOL     OW33499   0.198   3.064  10.770 -0.1994 -0.7922  0.0134
 7288SOL    HW133500   0.285   3.104  10.766 -0.3181 -0.4416  0.9210
 7288SOL    HW233501   0.183   3.045  10.677 -1.1278 -0.2522  0.0502
 7289SOL     OW33502   1.256   3.591  12.273  0.4874  0.3353  0.3600
 7289SOL    HW133503   1.307   3.609  12.194  1.0234  1.1185  0.8870
 7289SOL    HW233504   1.242   3.678  12.310  1.8143  0.7680 -0.1582
 7290SOL     OW33505   2.853   2.464   6.727  0.3463 -1.1125  0.4741
 7290SOL    HW133506   2.825   2.469   6.819  0.7608 -0.1148  0.5482
 7290SOL    HW233507   2.903   2.383   6.724 -0.8253 -1.7991 -0.5156
 7291SOL     OW33508   4.105   3.368   8.996  0.0260 -0.1783  0.0442
 7291SOL    HW133509   4.021   3.323   8.993  0.9993 -1.9479 -0.5190
 7291SOL    HW233510   4.154   3.315   8.933 -0.5826  0.5871 -1.0515
 7292SOL     OW33511   4.095   3.456   7.818 -0.2361  0.6196 -0.2119
 7292SOL    HW133512   4.156   3.416   7.755 -0.7681 -2.0404  0.9671
 7292SOL    HW233513   4.151   3.445   7.895 -0.0186  0.2208 -0.4255
 7293SOL     OW33514   1.548   1.938  14.876  0.3319  0.3116 -0.2858
 7293SOL    HW133515   1.601   1.869  14.914 -1.5510 -1.0580 -0.1497
 7293SOL    HW233516   1.517   1.973  14.960 -1.3645 -0.1913 -0.6977
 7294SOL     OW33517   3.897   2.832   2.978 -0.2771 -0.0001 -0.6768
 7294SOL    HW133518   3.801   2.838   2.978 -0.1423  2.0635  0.2338
 7294SOL    HW233519   3.911   2.748   2.934 -0.5807 -0.3371 -0.1277
 7295SOL     OW33520   0.514   2.458   3.919  0.3025 -0.1080 -0.2568
 7295SOL    HW133521   0.478   2.418   3.840 -1.6394  0.5718  0.2832
 7295SOL    HW233522   0.488   2.388   3.979 -2.2221  2.1892  1.3639
 7296SOL     OW33523   3.857   0.285   5.478  0.0992 -0.0874  0.1770
 7296SOL    HW133524   3.935   0.330   5.512 -0.0860 -1.8745  2.9726
 7296SOL    HW233525   3.860   0.329   5.393 -0.8233  1.6586  1.0386
 7297SOL     OW33526   0.382   3.982   6.687  0.0632  0.4447 -0.3211
 7297SOL    HW133527   0.444   3.920   6.727 -0.6364 -0.3309 -0.4274
 7297SOL    HW233528   0.305   3.925   6.692 -0.4503  1.1950  0.3735
 7298SOL     OW33529   2.041   4.051   3.581 -0.0202 -0.4262  0.1573
 7298SOL    HW133530   2.089   4.073   3.661 -0.8285 -0.5905  0.6879
 7298SOL    HW233531   2.026   3.956   3.586  0.8508 -0.6606 -1.6543
 7299SOL     OW33532   3.568   1.014   3.431 -0.1166  0.0041  0.2262
 7299SOL    HW133533   3.570   0.919   3.422 -1.0855  0.1386 -1.5226
 7299SOL    HW233534   3.630   1.039   3.362  1.2861 -0.0746  1.4499
 7300SOL     OW33535   0.640   4.437   5.168  0.1052 -0.0585 -0.8049
 7300SOL    HW133536   0.730   4.407   5.158  0.1277 -0.8520  1.9572
 7300SOL    HW233537   0.594   4.356   5.148  0.2902 -0.3326 -0.0976
 7301SOL     OW33538   3.311   4.460   9.000  0.8222 -0.2089 -0.0081
 7301SOL    HW133539   3.377   4.392   8.986  0.7054  0.2461 -2.9571
 7301SOL    HW233540   3.256   4.407   9.057 -1.1845 -0.8363 -2.4910
 7302SOL     OW33541   3.603   3.699  10.944 -0.1843  0.1441  0.1693
 7302SOL    HW133542   3.575   3.744  11.023  2.9087  2.8096 -0.2448
 7302SOL    HW233543   3.693   3.682  10.973 -0.9195 -2.6200  0.8563
 7303SOL     OW33544   1.214   3.213   4.451 -0.2061  0.4564 -0.1184
 7303SOL    HW133545   1.244   3.157   4.380 -0.5139 -0.6811  0.6441
 7303SOL    HW233546   1.120   3.196   4.446  0.0144 -0.4853 -0.8730
 7304SOL     OW33547   4.349   0.952   6.826  0.4828 -0.3652 -0.3472
 7304SOL    HW133548   4.374   0.941   6.734 -2.6155  1.8193 -1.4580
 7304SOL    HW233549   4.406   1.028   6.844  0.3019 -0.3972  0.3532
 7305SOL     OW33550   2.282   3.810   1.925 -0.0885 -0.1269 -0.3001
 7305SOL    HW133551   2.317   3.785   1.840 -2.6730 -0.1666 -1.3254
 7305SOL    HW233552   2.203   3.857   1.899 -0.5332 -1.3332 -1.1180
 7306SOL     OW33553   2.389   0.046   3.743  0.0425  0.2805 -0.0483
 7306SOL    HW133554   2.375   0.138   3.722  0.4815  0.5424  0.8082
 7306SOL    HW233555   2.367   0.027   3.835  0.9773  1.3598  0.3914
 7307SOL     OW33556   2.942   1.803  12.897  0.0742 -0.3849 -0.3217
 7307SOL    HW133557   3.019   1.852  12.927  0.0363  0.5651 -1.7677
 7307SOL    HW233558   2.888   1.797  12.976  0.2403 -2.2738 -0.3587
 7308SOL     OW33559   3.357   1.294   5.480 -0.0506  0.4969  0.3994
 7308SOL    HW133560   3.334   1.344   5.402  0.6052  1.1997  0.6517
 7308SOL    HW233561   3.273   1.255   5.505 -0.7955  1.4331 -0.6476
 7309SOL     OW33562   4.486   0.035  12.524 -0.9289  0.7989  0.3554
 7309SOL    HW133563   4.501   0.027  12.430  1.9354  1.2149  0.7772
 7309SOL    HW233564   4.444   4.688  12.539  1.6366 -0.5558 -0.1287
 7310SOL     OW33565   4.640   0.298  10.303 -0.0733  0.3054 -0.6304
 7310SOL    HW133566   4.699   0.222  10.300 -1.8431 -1.1320  1.2665
 7310SOL    HW233567   4.704   0.358  10.264 -0.3166  0.9365 -0.0514
 7311SOL     OW33568   2.769   1.219   6.198  0.4537 -0.0790  0.4862
 7311SOL    HW133569   2.745   1.286   6.262  0.6155  1.2121 -0.8155
 7311SOL    HW233570   2.863   1.224   6.179  0.3530  1.1591  0.3437
 7312SOL     OW33571   4.166   2.082   9.714 -0.0015  0.1750 -0.2070
 7312SOL    HW133572   4.157   2.168   9.755 -0.7877  0.6714 -1.4040
 7312SOL    HW233573   4.260   2.081   9.697 -0.2458  0.4151 -1.5756
 7313SOL     OW33574   3.158   3.553   9.213  0.5397 -0.1592  0.1996
 7313SOL    HW133575   3.066   3.544   9.189 -0.3245  4.5270  1.7672
 7313SOL    HW233576   3.196   3.485   9.157 -0.6660 -0.0542 -0.7342
 7314SOL     OW33577   1.783   3.478   2.679  0.1720  0.1388  0.2762
 7314SOL    HW133578   1.708   3.459   2.736  0.2689 -1.3101 -0.0973
 7314SOL    HW233579   1.800   3.567   2.711 -1.1509 -0.3666  2.4500
 7315SOL     OW33580   3.316   1.302   3.153  0.0822  0.0889  0.5572
 7315SOL    HW133581   3.251   1.239   3.122  1.6983 -1.1455 -0.3577
 7315SOL    HW233582   3.393   1.249   3.132 -0.3467 -1.5425  3.0966
 7316SOL     OW33583   2.712   3.127   5.701  0.0203 -0.3757  0.4641
 7316SOL    HW133584   2.791   3.099   5.747 -0.2497  0.3795  1.4033
 7316SOL    HW233585   2.708   3.047   5.650  1.3663  0.1021 -0.4133
 7317SOL     OW33586   0.964   0.907   7.903 -0.1801  0.6141 -0.1238
 7317SOL    HW133587   0.952   0.852   7.826 -1.6696  1.7250 -0.6778
 7317SOL    HW233588   1.059   0.893   7.904  0.1334  2.6784 -1.7236
 7318SOL     OW33589   4.426   3.900   3.265 -0.8030 -0.5389 -0.0431
 7318SOL    HW133590   4.388   3.845   3.334 -0.6216  1.0620  1.3221
 7318SOL    HW233591   4.374   3.866   3.192 -3.1182  0.5392  1.1094
 7319SOL     OW33592   0.953   3.853   6.797  0.2075  0.0886  0.1918
 7319SOL    HW133593   1.032   3.897   6.764  0.6135  0.0427  1.1017
 7319SOL    HW233594   0.956   3.776   6.741  0.2409 -0.8698  1.5067
 7320SOL     OW33595   0.626   1.055   3.539 -0.2621 -0.6216 -0.8747
 7320SOL    HW133596   0.685   1.082   3.469 -0.0719 -0.4440 -0.6461
 7320SOL    HW233597   0.551   1.025   3.488 -1.7314 -0.6281  1.2482
 7321SOL     OW33598   4.279   0.748  10.036  0.7051 -0.4167  0.2572
 7321SOL    HW133599   4.352   0.730  10.095  0.6084 -0.0074  0.5019
 7321SOL    HW233600   4.204   0.760  10.094 -0.1986  1.4273 -1.2765
 7322SOL     OW33601   2.308   0.393   2.178  0.0980  0.0627  0.3817
 7322SOL    HW133602   2.302   0.298   2.192 -0.1147 -0.4099 -2.8086
 7322SOL    HW233603   2.219   0.418   2.151  0.4923  0.7468 -0.2799
 7323SOL     OW33604   0.027   2.410   1.434  0.3718 -0.0223  0.1097
 7323SOL    HW133605   4.712   2.395   1.512  1.3893  1.6270  1.1006
 7323SOL    HW233606   0.065   2.494   1.457  1.5000 -0.7375  0.7944
 7324SOL     OW33607   1.087   3.713   9.358  0.0932  0.3493 -0.0224
 7324SOL    HW133608   1.162   3.657   9.377 -0.1229  0.3094  0.7001
 7324SOL    HW233609   1.009   3.660   9.378  0.3761 -0.6794 -1.6664
 7325SOL     OW33610   4.562   4.138  16.725  0.0941 -0.5134 -0.5642
 7325SOL    HW133611   4.568   4.092  16.641 -2.1302 -0.6530 -0.6340
 7325SOL    HW233612   4.647   4.109  16.759  0.3245 -0.6008 -1.2259
 7326SOL     OW33613   4.452   0.913  15.315 -0.1707 -0.3620  0.2655
 7326SOL    HW133614   4.486   0.887  15.400 -1.7635 -0.2993  0.9161
 7326SOL    HW233615   4.361   0.930  15.338  0.0156  2.0643 -0.8395
 7327SOL     OW33616   4.618   2.608   3.688  0.3701  0.0397  0.1881
 7327SOL    HW133617   4.643   2.525   3.729  3.1756 -0.4289 -2.5033
 7327SOL    HW233618   4.702   2.632   3.649 -0.9883  3.2998 -0.7332
 7328SOL     OW33619   1.128   2.146   4.749 -0.2624  0.3515  0.8394
 7328SOL    HW133620   1.205   2.089   4.746 -2.4437 -2.4984 -0.6893
 7328SOL    HW233621   1.062   2.090   4.790 -0.3964  1.2184  1.7994
 7329SOL     OW33622   2.379   3.576   1.345 -0.2742 -0.5753 -0.6543
 7329SOL    HW133623   2.372   3.660   1.392 -0.0291 -3.7803  5.1330
 7329SOL    HW233624   2.352   3.510   1.409  1.2320 -0.5130  0.0633
 7330SOL     OW33625   3.743   4.484  10.023  0.5946 -0.2255  0.3149
 7330SOL    HW133626   3.771   4.411  10.079 -0.8662 -0.9258  0.1216
 7330SOL    HW233627   3.652   4.459  10.040  0.5270  0.4721  0.9552
 7331SOL     OW33628   4.318   2.376   2.246  0.5028 -0.2613 -0.2964
 7331SOL    HW133629   4.285   2.286   2.239 -0.5483  0.1075 -0.1321
 7331SOL    HW233630   4.374   2.391   2.170  2.5022 -1.5954  0.9224
 7332SOL     OW33631   1.985   1.681   5.021 -0.7625 -0.2040  0.4206
 7332SOL    HW133632   1.891   1.696   5.034 -1.1889 -0.9412 -1.7938
 7332SOL    HW233633   1.990   1.586   5.026 -0.7137 -0.1690  1.0160
 7333SOL     OW33634   3.585   1.683   1.839 -0.1598 -0.1482 -0.0396
 7333SOL    HW133635   3.527   1.706   1.767 -0.4575 -0.8362 -0.0170
 7333SOL    HW233636   3.530   1.741   1.892  0.9730  0.6167  0.2922
 7334SOL     OW33637   3.265   4.155   4.486  0.0455  0.5617  0.0444
 7334SOL    HW133638   3.294   4.156   4.577  1.0052  3.1674 -0.2994
 7334SOL    HW233639   3.234   4.067   4.464 -2.2791  1.1735  0.8888
 7335SOL     OW33640   2.240   3.357  12.211 -0.9399  0.2203 -0.1475
 7335SOL    HW133641   2.215   3.367  12.119  1.0383  0.5858 -0.6626
 7335SOL    HW233642   2.297   3.434  12.216 -0.2318 -0.1397 -2.5808
 7336SOL     OW33643   2.939   2.834  14.521  0.0935  0.5782  0.1103
 7336SOL    HW133644   3.032   2.835  14.543  0.5697  1.4735 -2.0043
 7336SOL    HW233645   2.913   2.780  14.596  0.7155  0.6121  0.3494
 7337SOL     OW33646   0.237   3.277   7.282  0.1185  0.1379 -0.6684
 7337SOL    HW133647   0.273   3.331   7.212 -0.8427 -2.6242 -3.2668
 7337SOL    HW233648   0.156   3.325   7.296 -0.0159 -0.9540  2.4273
 7338SOL     OW33649   2.816   2.138   8.381 -0.4211 -0.4024  0.5377
 7338SOL    HW133650   2.737   2.083   8.379 -1.8598  1.6539  0.4452
 7338SOL    HW233651   2.784   2.220   8.343  0.0180 -0.9883 -1.0972
 7339SOL     OW33652   0.791   1.017   5.163 -0.1258  0.1464 -0.2465
 7339SOL    HW133653   0.720   0.960   5.134  0.4328 -0.8377  0.3538
 7339SOL    HW233654   0.762   1.033   5.253 -1.0933 -2.6122 -0.0880
 7340SOL     OW33655   1.983   2.858   4.108  0.0156 -0.0879 -0.0574
 7340SOL    HW133656   1.994   2.803   4.031  1.0899 -1.8462  1.3322
 7340SOL    HW233657   1.916   2.919   4.079  0.0303  0.0197  0.1331
 7341SOL     OW33658   0.002   3.751   6.358 -0.1588 -0.3102  0.0242
 7341SOL    HW133659   0.073   3.797   6.312  1.2548 -1.2660  1.2614
 7341SOL    HW233660   4.731   3.669   6.310  1.5405  0.9160 -2.3496
 7342SOL     OW33661   1.741   4.166   0.833  0.1261 -0.3496 -0.1232
 7342SOL    HW133662   1.731   4.252   0.873  1.2212 -0.2697 -0.0284
 7342SOL    HW233663   1.824   4.184   0.789 -1.5514  1.3504 -2.5776
 7343SOL     OW33664   1.397   3.420   7.970  0.0867 -0.7333 -0.1791
 7343SOL    HW133665   1.318   3.475   7.963 -0.6820 -1.8292 -0.1021
 7343SOL    HW233666   1.438   3.470   8.041 -1.0273 -1.2567  0.8327
 7344SOL     OW33667   0.038   0.674  11.744 -0.1125 -0.5759 -0.3504
 7344SOL    HW133668   0.116   0.631  11.710 -0.4125 -0.2363 -1.4993
 7344SOL    HW233669   0.035   0.748  11.683  2.0677  0.3048  0.6258
 7345SOL     OW33670   3.651   2.616   3.756 -0.2250 -0.1092 -0.1658
 7345SOL    HW133671   3.736   2.647   3.727 -1.0099  1.0412 -1.2317
 7345SOL    HW233672   3.588   2.657   3.697 -0.9524 -1.5105 -0.3693
 7346SOL     OW33673   1.651   2.854   3.825  0.5209 -0.7493  0.8259
 7346SOL    HW133674   1.580   2.820   3.879 -1.3001  0.7132 -0.6439
 7346SOL    HW233675   1.701   2.915   3.879  1.9388 -0.7445 -0.4929
 7347SOL     OW33676   3.656   0.202   4.034 -0.4528  0.0223 -0.6547
 7347SOL    HW133677   3.603   0.165   4.105  0.3478 -0.4535 -0.3109
 7347SOL    HW233678   3.710   0.127   4.008  0.7129  0.1876  1.2838
 7348SOL     OW33679   2.647   3.857   1.887  0.6649  0.2146  0.3910
 7348SOL    HW133680   2.604   3.902   1.960  0.7468 -0.4474  0.8511
 7348SOL    HW233681   2.725   3.819   1.928  1.2785 -2.3431 -3.1863
 7349SOL     OW33682   0.746   1.619   5.831 -0.2741 -0.1734 -0.7156
 7349SOL    HW133683   0.806   1.586   5.898 -0.0176 -1.3646 -1.5280
 7349SOL    HW233684   0.792   1.628   5.748  1.1413  0.9391  0.1944
 7350SOL     OW33685   2.966   2.729   2.787  0.1235  0.5363 -0.5477
 7350SOL    HW133686   2.906   2.802   2.773  0.2588  1.1983  2.2630
 7350SOL    HW233687   2.947   2.704   2.878  3.1427  0.5567  0.0990
 7351SOL     OW33688   0.128   0.846   8.634 -0.1685 -0.0508  0.0841
 7351SOL    HW133689   0.162   0.929   8.668  0.3833 -0.2371 -0.0098
 7351SOL    HW233690   0.098   0.803   8.714 -2.1324  1.7745  0.3444
 7352SOL     OW33691   2.507   1.051   1.943  0.5164 -0.1389 -0.0183
 7352SOL    HW133692   2.585   1.049   1.998  0.2199  2.0001  0.4672
 7352SOL    HW233693   2.523   1.119   1.877 -1.7385  1.3828  1.0309
 7353SOL     OW33694   2.163   1.572   2.566 -0.4567  0.0862  0.0944
 7353SOL    HW133695   2.191   1.655   2.526  1.2124  0.4913  2.1083
 7353SOL    HW233696   2.099   1.607   2.628 -0.2725 -0.6603  0.7045
 7354SOL     OW33697   0.972   1.540   9.117  0.4442  0.3068 -0.4393
 7354SOL    HW133698   1.022   1.458   9.110 -0.1742  0.1385 -3.0832
 7354SOL    HW233699   0.937   1.540   9.028 -0.7645 -2.2050  0.0183
 7355SOL     OW33700   0.483   0.495   9.199 -0.2909 -0.3695  0.0091
 7355SOL    HW133701   0.535   0.572   9.217  1.6099 -1.5283 -0.5284
 7355SOL    HW233702   0.412   0.527   9.144  1.0483 -0.4330 -1.7725
 7356SOL     OW33703   3.520   4.421   4.676 -0.0069 -0.0471  0.1933
 7356SOL    HW133704   3.513   4.470   4.594  0.6223  3.2293  2.0987
 7356SOL    HW233705   3.563   4.344   4.641  0.4935  0.7767 -1.0142
 7357SOL     OW33706   1.713   1.226   9.545  0.1342  0.4226 -0.2546
 7357SOL    HW133707   1.701   1.252   9.637 -3.9986 -0.9558 -0.4102
 7357SOL    HW233708   1.663   1.292   9.496  0.2084 -1.1869 -2.4613
 7358SOL     OW33709   3.426   0.160   6.857  0.2592  0.6212  0.6437
 7358SOL    HW133710   3.511   0.185   6.823  0.8191 -0.8979  0.8929
 7358SOL    HW233711   3.473   0.095   6.910  0.1366  2.6378  3.2379
 7359SOL     OW33712   4.472   0.826   8.126  0.1070 -0.2189 -0.4926
 7359SOL    HW133713   4.442   0.817   8.216  1.1868 -1.9042 -0.2793
 7359SOL    HW233714   4.388   0.831   8.082 -1.9826 -1.8551  3.3487
 7360SOL     OW33715   4.204   4.682  13.837 -0.4025 -0.1681  0.1577
 7360SOL    HW133716   4.231   0.010  13.772  0.9030  0.1377  1.0104
 7360SOL    HW233717   4.290   4.663  13.873  0.0174  2.2375  0.4488
 7361SOL     OW33718   0.414   1.714   9.702  0.5976 -0.3214 -0.2022
 7361SOL    HW133719   0.424   1.800   9.742  0.3133  0.3109 -1.4685
 7361SOL    HW233720   0.328   1.681   9.726  1.1779  0.3403  2.7030
 7362SOL     OW33721   0.753   1.882   0.360 -0.0993  0.3859 -0.0100
 7362SOL    HW133722   0.704   1.854   0.437 -0.3577  0.1675 -0.2532
 7362SOL    HW233723   0.797   1.797   0.355  1.3870  1.1443  0.1471
 7363SOL     OW33724   2.719   1.107  10.394  0.3858 -0.4206 -0.7779
 7363SOL    HW133725   2.747   1.167  10.325 -1.0448  0.3440 -0.6905
 7363SOL    HW233726   2.702   1.028  10.341 -0.7099 -1.3436  0.9247
 7364SOL     OW33727   4.206   2.849   7.060  0.2175 -0.0716 -0.2417
 7364SOL    HW133728   4.179   2.935   7.028 -0.0772 -1.8307 -4.7254
 7364SOL    HW233729   4.134   2.797   7.025 -1.3141  2.0552 -0.2551
 7365SOL     OW33730   0.976   2.474   8.876 -0.1953  0.1077  0.2960
 7365SOL    HW133731   0.997   2.486   8.969 -1.0258 -2.2179  0.7928
 7365SOL    HW233732   0.946   2.383   8.878  1.7336 -0.5531 -2.3906
 7366SOL     OW33733   3.670   0.120  14.532 -0.3010 -0.0670  1.0674
 7366SOL    HW133734   3.628   0.086  14.611  0.1229 -2.5598  0.2439
 7366SOL    HW233735   3.702   0.041  14.489  2.5821  1.4133  0.4843
 7367SOL     OW33736   0.431   1.552  10.639  0.1096  0.3508  0.0004
 7367SOL    HW133737   0.480   1.632  10.658 -0.5775  1.1829 -1.7324
 7367SOL    HW233738   0.460   1.533  10.550  0.7744 -1.2088  0.5523
 7368SOL     OW33739   3.884   1.069   8.632  0.5599  0.3679  0.6812
 7368SOL    HW133740   3.900   1.160   8.607 -0.2234 -0.1721 -1.7555
 7368SOL    HW233741   3.789   1.064   8.635  0.6343 -2.8246 -1.6297
 7369SOL     OW33742   3.124   1.005   7.408 -0.7228  0.3562 -0.0686
 7369SOL    HW133743   3.074   1.063   7.465  0.6180  0.7025  0.7544
 7369SOL    HW233744   3.194   0.982   7.470 -0.4098  0.8540 -0.2359
 7370SOL     OW33745   3.669   1.875  17.002 -0.1803 -0.1542  0.2528
 7370SOL    HW133746   3.635   1.816  16.934 -0.0263  0.5695 -0.4632
 7370SOL    HW233747   3.650   1.957  16.955  0.6012  0.0465  0.2852
 7371SOL     OW33748   1.953   3.650   4.348 -0.5737  0.0431  0.4742
 7371SOL    HW133749   1.917   3.562   4.363  2.3019 -1.5975 -2.4827
 7371SOL    HW233750   1.985   3.665   4.437  2.1843  1.1062 -0.7242
 7372SOL     OW33751   2.704   1.225   5.286 -0.6357 -0.0495 -0.4577
 7372SOL    HW133752   2.751   1.145   5.261 -0.9577 -0.1855 -0.6252
 7372SOL    HW233753   2.764   1.264   5.349  0.8908 -0.9196 -1.3736
 7373SOL     OW33754   0.663   2.050  11.434 -0.1411 -0.1982 -0.1055
 7373SOL    HW133755   0.600   1.997  11.481 -1.0743  0.7698 -0.2650
 7373SOL    HW233756   0.702   2.098  11.507 -0.4765 -0.9721  0.5692
 7374SOL     OW33757   1.266   3.329   6.774  0.5509  0.5777  0.4033
 7374SOL    HW133758   1.294   3.335   6.866  0.9543  1.1548  0.2422
 7374SOL    HW233759   1.347   3.289   6.744 -0.1668 -1.2961  0.9959
 7375SOL     OW33760   3.238   4.049  11.050 -0.1146  0.6236  0.1975
 7375SOL    HW133761   3.151   4.087  11.058  0.0836  0.9695  0.7296
 7375SOL    HW233762   3.291   4.125  11.073  2.2116 -0.4462 -1.6953
 7376SOL     OW33763   3.709   0.867   2.139 -0.2329  0.3368  0.1249
 7376SOL    HW133764   3.679   0.786   2.098 -0.9216  1.1652 -1.0006
 7376SOL    HW233765   3.657   0.934   2.095 -1.5581 -0.6613  0.1683
 7377SOL     OW33766   3.088   1.461   5.882 -0.1916  0.0999  0.3790
 7377SOL    HW133767   3.167   1.515   5.884  0.2133 -0.4815  0.2715
 7377SOL    HW233768   3.061   1.445   5.972  1.4968 -1.2326  0.6493
 7378SOL     OW33769   1.397   3.052  10.209  0.5183 -0.1321 -0.1905
 7378SOL    HW133770   1.408   3.100  10.290 -2.4091 -0.2271  0.2563
 7378SOL    HW233771   1.488   3.039  10.182  0.6915  2.2323 -0.7791
 7379SOL     OW33772   3.197   3.897   7.866 -0.1654  0.4429  0.0624
 7379SOL    HW133773   3.195   3.985   7.827  1.2106  0.1616 -0.6230
 7379SOL    HW233774   3.192   3.841   7.789  3.0256 -0.7718  0.7675
 7380SOL     OW33775   4.057   2.986   3.935 -0.3352 -0.0535 -0.0842
 7380SOL    HW133776   4.140   3.014   3.896 -1.0377  0.9522 -0.8591
 7380SOL    HW233777   4.031   2.917   3.873  0.7488 -1.3818  0.9431
 7381SOL     OW33778   0.412   4.024   1.839 -0.1173 -0.3519  0.4041
 7381SOL    HW133779   0.467   4.069   1.775 -1.5638  0.4189 -0.2990
 7381SOL    HW233780   0.463   3.958   1.885  1.3970  0.9483  0.6189
 7382SOL     OW33781   0.078   4.579  15.870  0.4743  0.1744 -0.0475
 7382SOL    HW133782   4.728   4.537  15.876  1.0525 -0.4502  3.8671
 7382SOL    HW233783   0.098   4.560  15.778 -0.7845  0.9738 -0.4847
 7383SOL     OW33784   2.702   1.014  16.646  0.3475 -0.0216 -0.1860
 7383SOL    HW133785   2.709   0.932  16.695 -0.3633  0.0205 -0.0043
 7383SOL    HW233786   2.637   1.063  16.698 -0.6036 -2.0927  0.5898
 7384SOL     OW33787   4.639   2.849   3.329  0.6269  0.2172 -0.1484
 7384SOL    HW133788   4.733   2.856   3.340  0.3441  1.0763  1.8543
 7384SOL    HW233789   4.633   2.778   3.265 -0.7829 -0.3589  0.6025
 7385SOL     OW33790   0.861   0.006  15.695  0.7240  0.1573 -0.0781
 7385SOL    HW133791   0.837   4.657  15.731 -0.7320 -1.0659 -4.0681
 7385SOL    HW233792   0.955   0.001  15.715  0.5418 -1.7485  0.3221
 7386SOL     OW33793   1.082   4.721   5.546  0.2160  0.7031 -0.0501
 7386SOL    HW133794   1.071   4.704   5.640 -0.8761 -1.8352 -0.6517
 7386SOL    HW233795   1.130   0.067   5.540  1.6580 -0.0584  0.8793
 7387SOL     OW33796   2.025   4.329   5.212 -0.3583  0.0436  0.4445
 7387SOL    HW133797   1.998   4.389   5.281 -0.8542  2.0908 -1.5246
 7387SOL    HW233798   1.937   4.305   5.182 -0.0053 -0.9330  0.1977
 7388SOL     OW33799   0.456   2.595  12.384 -0.3608 -0.0331  0.1171
 7388SOL    HW133800   0.367   2.571  12.358 -0.4920 -1.4796  1.8941
 7388SOL    HW233801   0.450   2.685  12.416  0.7303 -0.2777  1.0169
 7389SOL     OW33802   4.072   2.876   7.307  0.1519 -0.4733  0.2642
 7389SOL    HW133803   4.062   2.971   7.306 -1.1771 -0.5970  0.9544
 7389SOL    HW233804   4.097   2.858   7.217 -1.3478 -3.3462  0.4316
 7390SOL     OW33805   1.799   3.679   8.000 -0.5793 -0.0216  0.1397
 7390SOL    HW133806   1.878   3.661   8.051  1.3296 -2.8530 -3.8703
 7390SOL    HW233807   1.737   3.716   8.063 -0.0925  0.6443  0.2245
 7391SOL     OW33808   2.734   2.099   5.977  0.4374  0.6121 -0.0294
 7391SOL    HW133809   2.778   2.183   5.988  3.5860 -1.3815  2.7030
 7391SOL    HW233810   2.645   2.135   5.974  0.3398  0.1355 -2.3262
 7392SOL     OW33811   3.764   3.149   8.099 -0.4718 -0.2262 -0.1372
 7392SOL    HW133812   3.808   3.085   8.155  1.2066  0.1751 -0.9959
 7392SOL    HW233813   3.736   3.091   8.029 -0.1185  0.0981 -0.5433
 7393SOL     OW33814   3.493   4.096  17.012  0.7818  0.3425  0.0719
 7393SOL    HW133815   3.437   4.171  17.034  1.7674  0.6894  1.3858
 7393SOL    HW233816   3.414   4.042  17.021  1.3195 -0.1306  1.9292
 7394SOL     OW33817   3.389   2.214   2.793 -0.3797 -0.3409 -0.1872
 7394SOL    HW133818   3.462   2.169   2.750 -1.1563 -2.6594  0.9283
 7394SOL    HW233819   3.428   2.300   2.806  0.3780 -0.4219 -1.8720
 7395SOL     OW33820   3.468   3.189  14.903  0.1205 -0.0080  0.1505
 7395SOL    HW133821   3.481   3.209  14.996 -0.2267  2.2990 -0.2961
 7395SOL    HW233822   3.372   3.189  14.895  0.0499  0.4833  0.9505
 7396SOL     OW33823   2.325   4.063   1.765 -0.1161 -0.0679  0.5061
 7396SOL    HW133824   2.371   4.097   1.842  0.5295 -0.8547  0.4655
 7396SOL    HW233825   2.259   4.004   1.802 -0.4981  1.1999  1.8552
 7397SOL     OW33826   1.690   4.142  17.552  1.1337  0.0775 -0.2167
 7397SOL    HW133827   1.665   4.155  17.643  0.2619  1.5749 -0.6607
 7397SOL    HW233828   1.777   4.105  17.557  0.8934 -0.6297 -1.1933
 7398SOL     OW33829   1.269   1.595   4.396  0.3434 -0.2021 -0.1907
 7398SOL    HW133830   1.331   1.667   4.412 -1.6009  1.3292  0.4560
 7398SOL    HW233831   1.186   1.643   4.401 -0.0507 -1.1072  1.5471
 7399SOL     OW33832   2.784   0.244   4.868 -0.7233  0.0210 -0.1731
 7399SOL    HW133833   2.871   0.239   4.830 -0.6369 -1.6531  0.2424
 7399SOL    HW233834   2.798   0.263   4.961  1.0876  2.2518 -0.8926
 7400SOL     OW33835   3.561   0.605   6.215  0.2020  0.0962  0.1742
 7400SOL    HW133836   3.595   0.562   6.136 -0.6376 -1.3653  0.6312
 7400SOL    HW233837   3.630   0.586   6.278 -0.5864 -1.1540  0.6654
 7401SOL     OW33838   1.417   4.181   7.076  0.3517  0.2331  0.6053
 7401SOL    HW133839   1.503   4.179   7.035 -0.0968 -1.2177 -0.2491
 7401SOL    HW233840   1.382   4.100   7.041 -1.2436  0.0102  2.6917
 7402SOL     OW33841   0.284   2.410  13.241  0.6190  0.5654 -0.1342
 7402SOL    HW133842   0.365   2.454  13.215  0.4868  1.5346  1.1010
 7402SOL    HW233843   0.303   2.391  13.333 -0.2680 -0.0004 -0.0712
 7403SOL     OW33844   2.123   3.061   1.709 -0.2858  0.1892 -0.1228
 7403SOL    HW133845   2.151   3.049   1.800  1.6515 -0.1207 -0.7748
 7403SOL    HW233846   2.028   3.063   1.721 -0.0199  3.5968  1.3839
 7404SOL     OW33847   2.181   2.688   4.207  0.8532 -0.2397 -0.3714
 7404SOL    HW133848   2.192   2.738   4.288  0.0562  0.6293 -0.7959
 7404SOL    HW233849   2.109   2.742   4.174 -0.2203 -1.8993 -0.7364
 7405SOL     OW33850   3.718   0.213   2.489  0.6525 -0.0679 -0.4491
 7405SOL    HW133851   3.762   0.212   2.403 -1.4701  2.3609 -1.5576
 7405SOL    HW233852   3.646   0.154   2.467  1.0292 -0.4064 -0.7872
 7406SOL     OW33853   2.018   3.015  15.195 -0.1178  0.0976 -0.1340
 7406SOL    HW133854   1.998   2.995  15.286 -1.1909 -2.0785 -0.8358
 7406SOL    HW233855   2.110   3.043  15.197 -0.6003  1.6486 -0.0001
 7407SOL     OW33856   4.544   4.644   1.245  0.4805  0.9747 -0.6794
 7407SOL    HW133857   4.512   4.651   1.335  0.0308 -1.3078 -0.6791
 7407SOL    HW233858   4.470   4.690   1.206 -1.9374 -2.4343 -0.0437
 7408SOL     OW33859   2.127   2.243   6.209  0.6765 -0.2529  0.1755
 7408SOL    HW133860   2.079   2.322   6.235  0.9366 -0.3675  1.0218
 7408SOL    HW233861   2.130   2.254   6.114 -0.9004 -3.6162 -0.2654
 7409SOL     OW33862   1.850   4.430  12.303  0.5810 -0.7832  0.0423
 7409SOL    HW133863   1.768   4.439  12.351  0.9324 -2.2214  0.9397
 7409SOL    HW233864   1.879   4.348  12.344  1.1847  0.9462  3.0649
 7410SOL     OW33865   1.260   2.823  13.202 -0.2567  0.0848  0.2782
 7410SOL    HW133866   1.352   2.806  13.179  0.1769  2.5222  0.2393
 7410SOL    HW233867   1.270   2.793  13.292  1.5568 -1.0808 -0.2999
 7411SOL     OW33868   1.644   2.236   7.339  0.0368 -0.1924  0.3498
 7411SOL    HW133869   1.628   2.330   7.347  0.5025 -0.0573 -0.2769
 7411SOL    HW233870   1.736   2.227   7.363  0.5564  1.8322 -0.8568
 7412SOL     OW33871   3.668   4.082   7.809  0.1885  0.6686  0.2968
 7412SOL    HW133872   3.587   4.048   7.846  0.0680  1.0147  0.3505
 7412SOL    HW233873   3.658   4.076   7.714 -2.0963  0.0560  0.5966
 7413SOL     OW33874   3.760   4.127   4.950 -0.1806 -0.3889  0.3721
 7413SOL    HW133875   3.713   4.073   4.886  0.3121 -0.3434 -0.0269
 7413SOL    HW233876   3.840   4.077   4.969 -0.1718 -0.8975 -1.0285
 7414SOL     OW33877   0.450   3.995   3.346 -0.3699 -0.1754  0.0280
 7414SOL    HW133878   0.526   4.050   3.364  0.6973 -1.6090 -0.0279
 7414SOL    HW233879   0.387   4.020   3.414 -0.2695 -2.5974  1.0537
 7415SOL     OW33880   4.606   1.449   3.837 -0.8989  0.5197  0.0005
 7415SOL    HW133881   4.650   1.409   3.762 -0.1783  0.9228  0.2007
 7415SOL    HW233882   4.600   1.375   3.897 -2.3574  0.7851  0.1921
 7416SOL     OW33883   3.480   3.031   1.439  0.1337 -0.3119  0.2812
 7416SOL    HW133884   3.456   3.098   1.376  0.7511  0.0543  0.4333
 7416SOL    HW233885   3.508   3.082   1.515  2.5074 -0.4962 -0.4570
 7417SOL     OW33886   2.045   1.632   5.723 -0.5973 -0.1928 -0.2335
 7417SOL    HW133887   2.093   1.585   5.792 -1.3822  1.0925  1.1952
 7417SOL    HW233888   2.118   1.639   5.662 -1.0333  3.3568 -0.3472
 7418SOL     OW33889   1.925   0.341   9.045 -0.0648  0.0460  0.2595
 7418SOL    HW133890   1.901   0.432   9.027 -2.8625 -1.0302 -1.5299
 7418SOL    HW233891   1.973   0.347   9.128 -1.5459 -1.1874  1.2001
 7419SOL     OW33892   1.700   2.341  13.824  0.0836 -0.3228  0.2096
 7419SOL    HW133893   1.779   2.334  13.876  0.5132  1.6895 -0.1801
 7419SOL    HW233894   1.721   2.287  13.748 -0.8142 -0.1036 -0.2035
 7420SOL     OW33895   4.040   3.915   3.234  0.4619  0.0534 -0.0107
 7420SOL    HW133896   4.065   3.837   3.283  0.9382  0.7730  0.8829
 7420SOL    HW233897   3.998   3.968   3.302  0.3060 -1.0592  0.7614
 7421SOL     OW33898   3.307   3.302  11.387  0.5555 -0.2272 -0.1125
 7421SOL    HW133899   3.358   3.358  11.445 -0.5950  0.9862 -0.2783
 7421SOL    HW233900   3.362   3.295  11.309  0.1879  0.9575 -0.4757
 7422SOL     OW33901   4.302   3.506   8.402  0.4619  1.0351  0.4354
 7422SOL    HW133902   4.234   3.519   8.336  1.7880  1.0070 -0.9300
 7422SOL    HW233903   4.364   3.573   8.371 -0.0697  0.9301 -0.8471
 7423SOL     OW33904   4.585   3.207   2.085  0.6553  0.3855  0.8941
 7423SOL    HW133905   4.622   3.126   2.049 -1.3801 -0.4892  0.7411
 7423SOL    HW233906   4.575   3.265   2.009  0.1495  0.5808  1.1105
 7424SOL     OW33907   2.675   1.313   5.585  0.3661 -0.0808  0.2973
 7424SOL    HW133908   2.640   1.239   5.634  0.6639 -2.3543 -2.9691
 7424SOL    HW233909   2.592   1.325   5.539  1.6684  3.5493 -1.1381
 7425SOL     OW33910   1.068   3.777  14.926 -0.6466 -0.5890  0.4813
 7425SOL    HW133911   0.997   3.755  14.865  0.2833  0.9895 -1.1779
 7425SOL    HW233912   1.134   3.803  14.862 -0.7362 -2.4684 -0.3642
 7426SOL     OW33913   3.019   2.245   6.714  0.2293  0.5803  0.0241
 7426SOL    HW133914   3.016   2.228   6.808 -3.8245 -0.1455 -0.2053
 7426SOL    HW233915   3.112   2.262   6.700  0.2172  0.7025  0.0875
 7427SOL     OW33916   3.985   4.368   9.215  0.7155  0.2722  0.3187
 7427SOL    HW133917   3.975   4.284   9.259  0.4346  0.0964 -0.0865
 7427SOL    HW233918   3.911   4.374   9.156 -1.9314 -0.3823  3.5700
 7428SOL     OW33919   1.081   1.764   7.651 -0.2555  0.0843 -0.1601
 7428SOL    HW133920   1.158   1.806   7.690 -1.5987  0.8170  1.7202
 7428SOL    HW233921   1.068   1.691   7.711 -0.1220 -0.8616 -1.2771
 7429SOL     OW33922   3.531   4.551  17.023  0.7478 -0.0131 -0.0306
 7429SOL    HW133923   3.542   4.552  16.928 -1.7118 -0.9629 -0.3416
 7429SOL    HW233924   3.504   4.643  17.032 -0.0596 -0.3460  1.0052
 7430SOL     OW33925   3.280   2.734   8.279 -0.0332  0.3075 -0.4104
 7430SOL    HW133926   3.370   2.757   8.256 -0.0197  0.4324 -0.2367
 7430SOL    HW233927   3.271   2.779   8.363  1.4186  1.3803 -0.8324
 7431SOL     OW33928   0.094   3.324   4.436 -0.6120 -0.6717  0.3445
 7431SOL    HW133929   0.122   3.308   4.526  2.0755  1.7688 -0.0544
 7431SOL    HW233930   0.113   3.250   4.379  0.0215 -0.9388  0.9078
 7432SOL     OW33931   0.887   4.078   4.927 -0.2285  0.0822 -0.3734
 7432SOL    HW133932   0.972   4.033   4.925 -1.0963 -1.6414  1.1833
 7432SOL    HW233933   0.829   4.002   4.932 -0.2369  0.0511 -0.9650
 7433SOL     OW33934   2.027   1.047   3.424  0.1883 -0.0128  0.1600
 7433SOL    HW133935   1.973   1.025   3.499  2.5066 -1.1129  1.4951
 7433SOL    HW233936   2.033   1.142   3.436 -1.1499  0.0003  0.7560
 7434SOL     OW33937   4.107   1.770  17.634  0.0682 -0.3855  0.3880
 7434SOL    HW133938   4.149   1.855  17.619  0.0620 -0.3352  0.6670
 7434SOL    HW233939   4.027   1.811  17.667 -0.1323 -0.0171 -0.5393
 7435SOL     OW33940   1.522   1.268  10.220 -0.9955  0.0063  0.6018
 7435SOL    HW133941   1.550   1.357  10.196 -1.5103 -0.5643 -2.1093
 7435SOL    HW233942   1.503   1.291  10.311 -0.3075  0.4039  0.6485
 7436SOL     OW33943   3.371   1.497   0.576  0.2943 -0.1985 -0.0068
 7436SOL    HW133944   3.446   1.443   0.601 -0.0143 -0.5921  0.0731
 7436SOL    HW233945   3.400   1.582   0.607 -0.6634 -0.0821  0.5934
 7437SOL     OW33946   2.129   1.185   8.508  0.2677  0.0201  0.2538
 7437SOL    HW133947   2.090   1.248   8.569  2.4461  0.0743  1.5700
 7437SOL    HW233948   2.220   1.213   8.508  0.1129  0.5222 -0.3468
 7438SOL     OW33949   1.009   1.987   6.998 -0.6501  0.1072  0.2188
 7438SOL    HW133950   1.070   2.020   6.932  0.2133 -0.1981  0.8566
 7438SOL    HW233951   1.020   2.044   7.075  2.8058 -0.1167 -0.0863
 7439SOL     OW33952   1.984   3.086   3.426  0.1435 -0.0984  0.9073
 7439SOL    HW133953   1.919   3.037   3.476 -1.1393  0.7277  0.0303
 7439SOL    HW233954   1.928   3.131   3.363  0.8810  0.5989  0.7518
 7440SOL     OW33955   4.298   0.903   3.739  0.0261  0.3606 -0.1004
 7440SOL    HW133956   4.324   0.893   3.830  1.7714 -1.6498 -0.8285
 7440SOL    HW233957   4.257   0.989   3.750 -1.6427 -0.2795 -1.3380
 7441SOL     OW33958   3.159   4.311   9.163 -0.0859 -0.3162  0.1308
 7441SOL    HW133959   3.134   4.342   9.250 -2.4123 -0.2565 -0.5543
 7441SOL    HW233960   3.123   4.223   9.173 -0.7879  0.1969  2.2340
 7442SOL     OW33961   2.187   1.725   2.341  0.2331  0.2197 -0.1813
 7442SOL    HW133962   2.249   1.681   2.284  0.7653  0.0685  0.5137
 7442SOL    HW233963   2.138   1.779   2.279 -0.6543 -0.7298 -0.3072
 7443SOL     OW33964   2.136   1.254  10.205 -0.7792  0.3458  0.5209
 7443SOL    HW133965   2.194   1.281  10.276 -0.9090  2.3317 -0.1419
 7443SOL    HW233966   2.068   1.216  10.261  0.2115 -2.9295 -0.4942
 7444SOL     OW33967   0.755   1.640   3.303 -0.6145  0.0990  0.6513
 7444SOL    HW133968   0.734   1.650   3.395  3.1489 -2.0990  1.7625
 7444SOL    HW233969   0.715   1.713   3.257 -0.4224  0.9050  1.7750
 7445SOL     OW33970   0.968   0.559  14.357 -0.4125 -0.2685  0.1016
 7445SOL    HW133971   1.063   0.572  14.346 -0.3852  0.8059  1.5443
 7445SOL    HW233972   0.954   0.502  14.282  0.1707 -0.7205  0.3354
 7446SOL     OW33973   4.720   2.899   2.631  0.1640  0.6341  0.5551
 7446SOL    HW133974   4.638   2.882   2.584 -0.4370  2.4245  0.9589
 7446SOL    HW233975   4.693   2.974   2.684 -0.4204  0.0946  1.0173
 7447SOL     OW33976   1.975   2.231  14.846  0.4788 -0.2885 -0.7143
 7447SOL    HW133977   2.027   2.222  14.766  0.9013 -0.4062 -0.4233
 7447SOL    HW233978   1.940   2.142  14.854  2.0757 -0.8272  0.1621
 7448SOL     OW33979   0.283   1.274   4.751  0.7954  0.2336  0.3687
 7448SOL    HW133980   0.225   1.348   4.769 -2.2824 -1.0094 -4.2894
 7448SOL    HW233981   0.227   1.223   4.692 -0.8353 -0.3528  2.4253
 7449SOL     OW33982   1.081   1.096   1.248 -0.0728 -0.1247 -0.0824
 7449SOL    HW133983   1.156   1.156   1.237 -0.6013  0.3919 -0.8933
 7449SOL    HW233984   1.130   1.026   1.291 -1.4794 -1.0984 -0.0822
 7450SOL     OW33985   0.568   0.769  16.262 -0.1338 -0.0624  0.5279
 7450SOL    HW133986   0.579   0.853  16.307  1.7773  1.4797 -2.7900
 7450SOL    HW233987   0.557   0.705  16.332 -1.5567  0.5285  0.8397
 7451SOL     OW33988   2.373   0.981   4.283  0.0411 -0.0454 -0.0816
 7451SOL    HW133989   2.370   1.059   4.229  1.2793  0.8537  1.1505
 7451SOL    HW233990   2.280   0.958   4.282  0.3033 -1.1352  0.1797
 7452SOL     OW33991   4.354   2.409   8.561 -0.1666 -0.1938  0.1314
 7452SOL    HW133992   4.275   2.396   8.614  0.0026  0.5563  0.5645
 7452SOL    HW233993   4.412   2.410   8.637  0.4977  1.3847 -0.3951
 7453SOL     OW33994   1.652   0.503   2.584  0.1150  0.2533 -0.4373
 7453SOL    HW133995   1.735   0.518   2.539  1.2008 -1.3912  0.9709
 7453SOL    HW233996   1.695   0.490   2.669 -0.0619  1.6693 -0.1325
 7454SOL     OW33997   4.269   4.244   7.866 -0.2519 -0.4269  0.5261
 7454SOL    HW133998   4.332   4.274   7.802  0.5607 -0.3466  1.3666
 7454SOL    HW233999   4.183   4.237   7.823 -0.8424 -0.7897  1.7499
 7455SOL     OW34000   0.592   1.617   9.310 -0.6860 -0.2173  0.0631
 7455SOL    HW134001   0.675   1.664   9.311  0.1491 -1.7295  0.6956
 7455SOL    HW234002   0.523   1.666   9.264  0.7386  1.5090 -0.2234
 7456SOL     OW34003   2.814   1.002   4.325  0.6146  0.5095  0.2147
 7456SOL    HW134004   2.844   0.949   4.398  1.3103  0.8421  0.1656
 7456SOL    HW234005   2.821   0.937   4.256  1.1946  0.7237  0.0786
 7457SOL     OW34006   3.629   0.406   2.244  0.5090  0.4047 -0.0459
 7457SOL    HW134007   3.636   0.449   2.329  1.6903  0.2310 -0.0499
 7457SOL    HW234008   3.699   0.341   2.233 -1.0345 -1.2201 -0.2274
 7458SOL     OW34009   4.561   2.168   6.533  0.2002 -0.5286 -0.4258
 7458SOL    HW134010   4.531   2.145   6.621 -0.3153 -0.2898 -0.5399
 7458SOL    HW234011   4.615   2.094   6.505 -1.5088 -1.3635 -1.5758
 7459SOL     OW34012   2.268   3.445   5.708 -0.1511  0.0184 -0.5252
 7459SOL    HW134013   2.340   3.501   5.738  1.5937 -2.3260 -0.3188
 7459SOL    HW234014   2.324   3.371   5.683 -1.0019 -0.7944 -0.0218
 7460SOL     OW34015   2.885   1.150  13.671 -0.6140  0.3540  0.8485
 7460SOL    HW134016   2.868   1.156  13.765 -2.2431 -4.3990  0.8445
 7460SOL    HW234017   2.802   1.134  13.627 -1.0715 -0.2601  1.9150
 7461SOL     OW34018   3.975   3.376   8.542 -0.2306  0.2309  0.4853
 7461SOL    HW134019   3.913   3.305   8.526 -0.4767  0.2511  1.4022
 7461SOL    HW234020   3.920   3.451   8.520 -0.0532 -0.2691 -1.7206
 7462SOL     OW34021   1.445   2.579   5.032  0.8789 -0.1318 -0.2679
 7462SOL    HW134022   1.466   2.627   5.112  0.1159  0.7250 -0.5888
 7462SOL    HW234023   1.529   2.576   4.987 -0.0896 -0.0995 -2.0724
 7463SOL     OW34024   3.052   3.605   3.166 -0.0156 -0.3350  0.1670
 7463SOL    HW134025   2.997   3.654   3.228 -0.9043  0.2151 -1.0393
 7463SOL    HW234026   3.050   3.676   3.101  0.5475 -0.7411 -0.2895
 7464SOL     OW34027   1.056   0.411  10.033  0.2018  0.0338 -0.4013
 7464SOL    HW134028   0.999   0.481  10.002 -1.4903 -0.8132  0.8050
 7464SOL    HW234029   1.139   0.437   9.994  0.7517 -0.1001  0.6761
 7465SOL     OW34030   0.019   2.852   4.863 -0.1745 -0.1995 -0.0229
 7465SOL    HW134031   0.101   2.869   4.817  0.5418 -0.7634  1.0444
 7465SOL    HW234032   0.040   2.867   4.956  0.9537  1.5643 -0.5723
 7466SOL     OW34033   0.131   1.633   3.101 -0.2695 -0.3165  0.4087
 7466SOL    HW134034   0.057   1.693   3.111 -0.4156 -0.2950 -0.8146
 7466SOL    HW234035   0.081   1.554   3.078  2.3006 -1.4136 -1.3329
 7467SOL     OW34036   2.605   1.967   8.354 -0.3439 -0.8878  0.1700
 7467SOL    HW134037   2.519   1.944   8.318 -0.5850 -2.3840  1.6546
 7467SOL    HW234038   2.594   2.000   8.444 -0.2157 -1.3608  0.3603
 7468SOL     OW34039   4.051   1.820   3.926 -0.1161 -0.0369  0.2113
 7468SOL    HW134040   3.966   1.864   3.929  0.1628  0.4532  0.8282
 7468SOL    HW234041   4.053   1.768   3.845  2.5480  0.0985  0.2046
 7469SOL     OW34042   2.005   2.552   4.921 -0.8637  0.1358 -0.1805
 7469SOL    HW134043   2.089   2.588   4.950 -1.0500  2.2811 -2.3253
 7469SOL    HW234044   2.030   2.481   4.861 -0.9939 -0.0464 -0.0175
 7470SOL     OW34045   1.349   2.122  16.681  0.1308 -0.1793  0.2658
 7470SOL    HW134046   1.312   2.091  16.598  0.2808 -1.0877  0.5311
 7470SOL    HW234047   1.424   2.062  16.678  0.2268 -0.1419  2.0728
 7471SOL     OW34048   3.399   1.389  16.535 -0.2858 -0.1646  0.8401
 7471SOL    HW134049   3.396   1.293  16.536  0.0796 -0.1529  4.8804
 7471SOL    HW234050   3.428   1.407  16.446  0.9262  0.0368  1.2748
 7472SOL     OW34051   4.421   3.681  15.872  0.2723  0.1995  0.6442
 7472SOL    HW134052   4.356   3.638  15.815 -1.1412  0.9754  1.6521
 7472SOL    HW234053   4.499   3.628  15.854 -0.4203 -1.6289  3.0810
 7473SOL     OW34054   2.835   1.264  15.793  0.9488 -0.2843  0.3057
 7473SOL    HW134055   2.895   1.220  15.854 -0.1325 -0.1104  1.4953
 7473SOL    HW234056   2.777   1.200  15.751 -0.3498 -0.3125  2.1707
 7474SOL     OW34057   0.627   4.052  15.365  0.5879 -0.3159  0.4783
 7474SOL    HW134058   0.642   4.084  15.276  3.0027  1.0247  1.3762
 7474SOL    HW234059   0.718   4.059  15.393  1.3309 -0.2609 -1.9701
 7475SOL     OW34060   3.330   0.150   3.446  0.4910 -0.0490 -0.3165
 7475SOL    HW134061   3.371   0.110   3.523 -2.1958  1.4122  1.8893
 7475SOL    HW234062   3.249   0.100   3.434  1.0068 -0.7343 -0.9913
 7476SOL     OW34063   2.223   2.982   3.692  0.0134  0.8562  0.5473
 7476SOL    HW134064   2.238   2.937   3.609 -1.0305  2.7716 -0.6935
 7476SOL    HW234065   2.309   3.015   3.719  0.2003 -2.1730  3.6308
 7477SOL     OW34066   0.643   0.290   5.367  0.4421 -0.0787 -0.1710
 7477SOL    HW134067   0.614   0.379   5.391  0.1488  0.2046 -1.5708
 7477SOL    HW234068   0.631   0.245   5.451  2.6696 -0.1752  0.0810
 7478SOL     OW34069   0.313   0.394   4.552 -0.1335 -0.1528  0.6925
 7478SOL    HW134070   0.283   0.479   4.521 -1.7891 -0.0045  2.6827
 7478SOL    HW234071   0.260   0.386   4.632 -0.7038 -1.1175  0.2113
 7479SOL     OW34072   4.504   2.839   2.269  0.0819 -0.0226  0.0234
 7479SOL    HW134073   4.502   2.849   2.364 -0.3090 -0.4525  0.0627
 7479SOL    HW234074   4.591   2.805   2.247 -0.0106  0.6034 -1.3054
 7480SOL     OW34075   2.780   4.429  16.078 -0.3218 -0.0104 -0.2247
 7480SOL    HW134076   2.871   4.412  16.052 -0.9610  0.0007 -2.4534
 7480SOL    HW234077   2.735   4.446  15.995  0.9146 -0.9286 -1.0878
 7481SOL     OW34078   0.548   0.220   4.656 -0.3308  0.1929 -0.1412
 7481SOL    HW134079   0.475   0.276   4.633 -0.2674 -0.0135 -0.8560
 7481SOL    HW234080   0.498   0.153   4.703  1.4443 -0.3779  0.9617
 7482SOL     OW34081   0.081   4.130   2.153  0.2026 -0.3081 -0.0745
 7482SOL    HW134082   0.113   4.060   2.096  0.8730 -0.6527  0.7253
 7482SOL    HW234083   0.000   4.090   2.184  2.5588 -4.2514  0.9850
 7483SOL     OW34084   4.354   3.180   9.600 -0.6381  0.2528 -0.6690
 7483SOL    HW134085   4.374   3.151   9.689 -2.2253 -0.7682 -0.6407
 7483SOL    HW234086   4.337   3.094   9.563 -0.6421  0.2250 -0.6038
 7484SOL     OW34087   1.749   1.659   8.201 -0.0001  0.0218  0.2497
 7484SOL    HW134088   1.815   1.727   8.214  3.9156 -3.7713  0.0573
 7484SOL    HW234089   1.799   1.579   8.218 -0.2083 -0.2043 -0.2082
 7485SOL     OW34090   2.246   1.868   0.627 -0.1804  0.4352  0.0940
 7485SOL    HW134091   2.258   1.934   0.559 -0.4849  3.0992  2.6309
 7485SOL    HW234092   2.180   1.904   0.686 -1.4201 -1.2441 -0.2524
 7486SOL     OW34093   0.338   0.670   4.738 -0.4640  0.7041  0.1486
 7486SOL    HW134094   0.266   0.728   4.712 -1.4534 -0.3300  0.5846
 7486SOL    HW234095   0.336   0.610   4.664  0.4441 -2.2532  2.5396
 7487SOL     OW34096   2.691   0.289   2.700  0.5071 -0.1020 -0.1981
 7487SOL    HW134097   2.672   0.383   2.696  1.3776  0.0335 -1.1760
 7487SOL    HW234098   2.628   0.261   2.632  0.4717 -2.5746  0.8461
 7488SOL     OW34099   1.011   0.257   4.308  0.5993 -0.2194  0.8028
 7488SOL    HW134100   1.021   0.348   4.335  1.4803 -0.5309  1.4976
 7488SOL    HW234101   1.039   0.224   4.393  2.0211  2.6240  1.4494
 7489SOL     OW34102   4.100   4.043  15.153  0.5708 -0.4815  0.0803
 7489SOL    HW134103   4.008   4.026  15.172 -0.2370  2.1691 -1.4290
 7489SOL    HW234104   4.087   4.120  15.097 -0.6483 -0.7285  0.0232
 7490SOL     OW34105   2.336   4.030   3.751 -0.1066 -0.5742 -0.0041
 7490SOL    HW134106   2.394   4.106   3.747 -0.9823  0.1143  0.0886
 7490SOL    HW234107   2.365   3.987   3.671  1.6673  0.8972 -0.1290
 7491SOL     OW34108   1.610   0.625   6.851 -0.1684  0.1125 -0.3847
 7491SOL    HW134109   1.560   0.544   6.845 -1.4070  0.9092 -0.7738
 7491SOL    HW234110   1.583   0.665   6.934  0.3941 -2.2047  0.9058
 7492SOL     OW34111   1.964   4.666   2.323 -0.1841 -0.3622  0.1196
 7492SOL    HW134112   2.033   4.608   2.290 -0.5237 -0.6197 -0.1401
 7492SOL    HW234113   1.885   4.648   2.273 -0.1431  0.0066 -0.0785
 7493SOL     OW34114   0.416   0.506   4.189 -0.2702 -0.4292 -0.1152
 7493SOL    HW134115   0.428   0.555   4.107 -1.8028  1.6257  0.8945
 7493SOL    HW234116   0.493   0.538   4.236 -2.0726  1.3232  1.6193
 7494SOL     OW34117   0.963   1.820   5.223 -0.6770 -0.5422  0.2249
 7494SOL    HW134118   1.029   1.774   5.276 -1.1870 -0.5432  0.8571
 7494SOL    HW234119   1.007   1.811   5.139 -2.3934 -1.4817 -0.5643
 7495SOL     OW34120   0.215   3.307   6.955 -0.1420 -0.0593  0.2285
 7495SOL    HW134121   0.189   3.399   6.953  1.2952  0.3890  1.8351
 7495SOL    HW234122   0.186   3.283   6.868  1.1746 -1.6409  0.2347
 7496SOL     OW34123   3.900   0.640   9.689 -0.2041 -0.4727  0.1883
 7496SOL    HW134124   3.982   0.639   9.737 -0.2841  0.2527  0.3410
 7496SOL    HW234125   3.872   0.731   9.700  0.9509  0.1063 -1.7082
 7497SOL     OW34126   1.470   3.986   4.389  0.2610  0.0645  0.5264
 7497SOL    HW134127   1.489   4.051   4.457  0.2832  1.9522 -1.2830
 7497SOL    HW234128   1.550   3.995   4.336 -0.9856 -0.9186 -1.5189
 7498SOL     OW34129   2.628   3.725   8.111  0.1902  0.0415  0.7760
 7498SOL    HW134130   2.642   3.721   8.206 -1.0473 -1.7658  0.8723
 7498SOL    HW234131   2.718   3.716   8.082 -0.8362 -0.3877 -2.2980
 7499SOL     OW34132   4.520   3.521  12.942 -0.2086 -0.0149  0.6748
 7499SOL    HW134133   4.517   3.549  13.034  0.8942  1.9853  0.0854
 7499SOL    HW234134   4.537   3.608  12.908 -1.7149 -0.6509 -1.7055
 7500SOL     OW34135   0.968   0.018   4.749 -0.0919  0.4324  0.1512
 7500SOL    HW134136   1.003   4.666   4.761 -0.4790  0.3070  0.3316
 7500SOL    HW234137   0.880   4.732   4.779  0.3043 -0.0990  0.9080
 7501SOL     OW34138   3.492   2.495  16.274 -0.2977 -0.0216 -0.1057
 7501SOL    HW134139   3.411   2.542  16.253 -0.9579 -0.6607  0.9764
 7501SOL    HW234140   3.460   2.446  16.350 -1.2404  0.8677  0.0798
 7502SOL     OW34141   1.171   3.827  12.408  0.3652  0.2516  0.1261
 7502SOL    HW134142   1.077   3.833  12.423  0.3664 -0.6535  0.4417
 7502SOL    HW234143   1.181   3.858  12.317  0.6767  0.9913  0.4100
 7503SOL     OW34144   0.786   1.652  10.267 -0.3301  0.8403  0.2181
 7503SOL    HW134145   0.824   1.566  10.250  0.4796  1.5164 -1.3297
 7503SOL    HW234146   0.847   1.682  10.335  1.8603  0.1767 -1.4519
 7504SOL     OW34147   1.538   1.920   3.601 -0.0525  0.7950  0.2285
 7504SOL    HW134148   1.458   1.970   3.585 -0.9570 -0.7832 -0.2037
 7504SOL    HW234149   1.501   1.862   3.667  0.0987  0.0814 -0.3104
 7505SOL     OW34150   1.808   1.956   0.714  0.6134  0.3122 -0.5123
 7505SOL    HW134151   1.756   2.014   0.768  0.4937 -2.1931  2.0262
 7505SOL    HW234152   1.773   1.976   0.627  0.9192  1.5837 -0.3552
 7506SOL     OW34153   3.665   1.842  13.660  0.0905 -0.9037 -0.4333
 7506SOL    HW134154   3.595   1.782  13.688 -1.2355  1.3366  1.1109
 7506SOL    HW234155   3.615   1.922  13.643  1.6467  0.0644 -0.4107
 7507SOL     OW34156   4.265   0.213   7.375 -0.0744 -0.1300  0.5952
 7507SOL    HW134157   4.192   0.268   7.349 -1.7291 -2.4718  0.2950
 7507SOL    HW234158   4.334   0.259   7.327  1.1606 -2.3761  0.2011
 7508SOL     OW34159   4.281   4.419  11.534  0.6137 -0.2199 -0.0264
 7508SOL    HW134160   4.299   4.338  11.486  1.3427  0.3929 -0.7767
 7508SOL    HW234161   4.205   4.460  11.493  0.2008 -1.3101 -0.3505
 7509SOL     OW34162   4.255   2.569  13.565  0.0307 -0.5193 -0.0080
 7509SOL    HW134163   4.280   2.616  13.485 -3.5134  0.1759 -0.7357
 7509SOL    HW234164   4.161   2.562  13.546 -0.5174  0.5201  2.3196
 7510SOL     OW34165   2.818   0.573   8.286 -0.2703 -0.2153  0.2385
 7510SOL    HW134166   2.856   0.490   8.313  2.0957  0.8640  0.2781
 7510SOL    HW234167   2.814   0.617   8.371  5.1634  2.0616 -0.6904
 7511SOL     OW34168   0.764   0.687   6.990 -0.0296  0.4256  0.0919
 7511SOL    HW134169   0.726   0.759   7.040  0.5813 -0.2217  1.4863
 7511SOL    HW234170   0.827   0.732   6.934 -0.6704  3.2495  1.6899
 7512SOL     OW34171   1.209   2.815   9.092  0.1361  0.0556  0.1266
 7512SOL    HW134172   1.251   2.749   9.037  0.4849  0.0040  0.4538
 7512SOL    HW234173   1.117   2.802   9.072  0.5474 -2.3070 -0.2673
 7513SOL     OW34174   3.327   0.816   8.456  0.4063 -0.0479 -0.1466
 7513SOL    HW134175   3.287   0.732   8.478 -0.2341  0.6995  1.6169
 7513SOL    HW234176   3.344   0.838   8.548  0.6417 -0.6155 -0.0513
 7514SOL     OW34177   2.446   1.444  14.444  0.1050  0.2349  0.1528
 7514SOL    HW134178   2.362   1.418  14.406  0.9048 -0.2403 -1.3094
 7514SOL    HW234179   2.486   1.432  14.358 -0.2059 -1.8523  0.2932
 7515SOL     OW34180   3.409   2.576   6.500 -0.8577 -0.1205  0.4229
 7515SOL    HW134181   3.407   2.627   6.419  0.2860 -1.4802 -0.4790
 7515SOL    HW234182   3.331   2.529   6.472  0.7772 -0.9944 -2.7402
 7516SOL     OW34183   0.772   2.180  13.468  0.2559  0.0830 -0.1420
 7516SOL    HW134184   0.714   2.221  13.404 -1.3617 -0.2013  1.1313
 7516SOL    HW234185   0.799   2.263  13.509 -2.6631  1.0348 -0.1427
 7517SOL     OW34186   0.381   1.549  16.956  0.0345 -0.0515 -0.1753
 7517SOL    HW134187   0.399   1.624  16.899 -0.2328  0.4318  0.3746
 7517SOL    HW234188   0.286   1.552  16.962  0.0729 -3.6007  1.8536
 7518SOL     OW34189   4.617   0.053  13.597 -0.0227  0.4262 -0.4560
 7518SOL    HW134190   4.618   0.015  13.686  3.3781  0.5060 -0.4584
 7518SOL    HW234191   4.644   0.144  13.607  1.7675  0.0650 -1.9434
 7519SOL     OW34192   3.106   0.884   5.461  0.3370  0.9474  0.0082
 7519SOL    HW134193   3.042   0.885   5.390 -0.3017 -1.5466  0.5425
 7519SOL    HW234194   3.179   0.920   5.410  2.1491 -1.2185  1.0452
 7520SOL     OW34195   4.268   3.996  11.809  0.6314  0.7076 -0.6630
 7520SOL    HW134196   4.284   4.086  11.836 -0.6038  0.9233 -0.6310
 7520SOL    HW234197   4.309   3.940  11.876 -0.3598 -1.8878 -2.2046
 7521SOL     OW34198   4.405   2.969   5.065  0.3437  0.3866  0.6573
 7521SOL    HW134199   4.445   3.010   5.142  2.2361 -0.9543  0.3899
 7521SOL    HW234200   4.317   2.945   5.094 -0.6815  1.6243 -1.4636
 7522SOL     OW34201   1.475   4.019   6.296 -0.2761 -0.6824 -0.1670
 7522SOL    HW134202   1.517   3.939   6.325  0.8094 -0.5653 -1.4205
 7522SOL    HW234203   1.416   4.036   6.370  0.4435  0.9482  0.0505
 7523SOL     OW34204   4.127   2.434  13.093  0.2135  0.0352 -0.5699
 7523SOL    HW134205   4.124   2.339  13.094 -0.0980  0.0386 -0.8649
 7523SOL    HW234206   4.204   2.452  13.146 -0.5289  1.8833 -0.1196
 7524SOL     OW34207   3.588   1.691   5.555 -0.1749 -0.0064  0.3557
 7524SOL    HW134208   3.504   1.728   5.530  0.7189  2.0653  0.4354
 7524SOL    HW234209   3.588   1.614   5.498 -0.8307  2.0983 -2.4279
 7525SOL     OW34210   3.600   1.396   5.542 -0.3456  0.6906  0.0554
 7525SOL    HW134211   3.514   1.357   5.528 -0.1487  0.2997 -0.0634
 7525SOL    HW234212   3.614   1.376   5.635  0.8664 -1.1862 -0.5259
 7526SOL     OW34213   4.247   1.458   0.547 -0.2071  0.2949  0.3824
 7526SOL    HW134214   4.303   1.424   0.616  0.5179 -0.6996 -0.6885
 7526SOL    HW234215   4.233   1.546   0.581  0.1802  0.2276  0.7133
 7527SOL     OW34216   2.859   1.198   3.436 -0.1257 -0.0973 -0.6391
 7527SOL    HW134217   2.875   1.177   3.344  1.2832 -0.5452 -0.2839
 7527SOL    HW234218   2.941   1.218   3.480  0.6579 -2.2558 -1.1184
 7528SOL     OW34219   0.266   4.121   7.863  0.2345 -0.3641 -0.2855
 7528SOL    HW134220   0.222   4.189   7.812  1.5241 -0.8220 -1.9826
 7528SOL    HW234221   0.278   4.174   7.942  2.7278  0.6525 -1.3864
 7529SOL     OW34222   2.562   2.377  11.233  0.4228 -0.0442 -0.3256
 7529SOL    HW134223   2.645   2.405  11.270 -0.1179  0.6651  0.3744
 7529SOL    HW234224   2.499   2.435  11.276  0.4875  1.9909 -2.9691
 7530SOL     OW34225   2.507   1.079   3.992  0.4067 -0.0601  0.1599
 7530SOL    HW134226   2.505   0.985   3.972 -0.0225  0.0557 -0.3399
 7530SOL    HW234227   2.440   1.108   3.931  0.3284  0.6899  0.5962
 7531SOL     OW34228   1.822   1.429   5.994  0.0240 -0.1098 -0.5159
 7531SOL    HW134229   1.776   1.349   6.020  1.4475 -0.1661  1.8337
 7531SOL    HW234230   1.763   1.463   5.927 -0.2254 -1.2213 -0.8612
 7532SOL     OW34231   2.443   0.312  12.507  0.6372 -0.3663  0.6127
 7532SOL    HW134232   2.364   0.359  12.534  1.1464  0.5859  0.4411
 7532SOL    HW234233   2.492   0.389  12.477 -1.2131  0.3835 -0.4637
 7533SOL     OW34234   0.136   3.402   2.965  0.0934 -0.9032  0.3771
 7533SOL    HW134235   0.178   3.472   3.016 -2.5463  0.1842  1.0984
 7533SOL    HW234236   0.203   3.388   2.899  0.3852  0.6566  0.3259
 7534SOL     OW34237   4.048   3.067   7.016 -0.6506 -0.2755  0.2542
 7534SOL    HW134238   4.009   3.052   6.930  0.5633  0.4620 -0.4292
 7534SOL    HW234239   3.988   3.129   7.059 -1.4403 -1.1738  0.4502
 7535SOL     OW34240   0.901   0.041   3.542  0.1019  0.0199 -0.3969
 7535SOL    HW134241   0.845   0.107   3.503  0.4688  0.0965 -0.7895
 7535SOL    HW234242   0.934   0.081   3.622  1.7354 -2.3078  0.1247
 7536SOL     OW34243   2.924   3.002   1.802 -0.3187 -0.2202  0.3088
 7536SOL    HW134244   3.005   3.034   1.762 -0.5438 -0.8350 -0.6254
 7536SOL    HW234245   2.895   3.082   1.846  0.8593 -0.6773  1.9331
 7537SOL     OW34246   1.725   1.020   7.469 -0.5107 -0.0543  0.0407
 7537SOL    HW134247   1.751   0.976   7.550  2.3126 -0.2684 -0.9571
 7537SOL    HW234248   1.793   0.982   7.414 -0.0067  0.4449  0.3128
 7538SOL     OW34249   0.208   3.255   2.421 -0.1356  1.1023  0.2788
 7538SOL    HW134250   0.222   3.343   2.388 -3.0569  1.2287 -0.6455
 7538SOL    HW234251   0.299   3.226   2.424  0.1923  2.0919 -0.3632
 7539SOL     OW34252   0.726   3.430   4.131  0.1139 -0.3774 -0.1078
 7539SOL    HW134253   0.728   3.507   4.075  2.0677 -0.7002 -0.4858
 7539SOL    HW234254   0.811   3.392   4.152  0.5925 -0.5488 -2.3007
 7540SOL     OW34255   0.135   2.655   3.833  0.3302  0.0536  0.7107
 7540SOL    HW134256   0.193   2.625   3.763  0.1503  0.6373  0.3091
 7540SOL    HW234257   0.092   2.575   3.862 -1.5526  0.7566 -0.1881
 7541SOL     OW34258   0.727   2.854  10.381  0.1523  0.1604 -0.1723
 7541SOL    HW134259   0.773   2.770  10.380  0.1791  0.1709  0.0723
 7541SOL    HW234260   0.642   2.835  10.420 -0.3898 -1.6224 -2.2086
 7542SOL     OW34261   2.675   1.719   8.225 -0.0470 -0.4098  0.2152
 7542SOL    HW134262   2.591   1.718   8.180 -0.1773 -4.3056  0.6124
 7542SOL    HW234263   2.658   1.790   8.287 -2.8751 -0.1352 -0.8851
 7543SOL     OW34264   0.797   3.154  13.348  0.0995  0.0512  0.0954
 7543SOL    HW134265   0.842   3.220  13.295 -2.2330  0.7431 -1.0180
 7543SOL    HW234266   0.863   3.086  13.363  0.9856  0.8419 -0.1419
 7544SOL     OW34267   1.168   4.606   9.922  0.0481 -0.2428 -0.3716
 7544SOL    HW134268   1.167   4.690   9.967 -0.6862 -0.5387  0.1814
 7544SOL    HW234269   1.232   4.624   9.853  0.3378 -0.1352 -0.0735
 7545SOL     OW34270   1.836   3.855   1.360 -0.3446  0.4437  0.0099
 7545SOL    HW134271   1.765   3.917   1.343  1.3952  2.3805 -0.2268
 7545SOL    HW234272   1.792   3.801   1.426 -0.7206 -0.2708 -0.8283
 7546SOL     OW34273   4.067   2.159   4.660 -0.0985  0.7015 -0.5232
 7546SOL    HW134274   3.992   2.132   4.713  0.2546  0.6550 -0.0492
 7546SOL    HW234275   4.037   2.138   4.571  0.5954 -0.1327 -0.5671
 7547SOL     OW34276   3.580   4.046   5.163 -0.2412  0.4248  0.4755
 7547SOL    HW134277   3.513   3.992   5.121  0.0416  1.8568 -1.8125
 7547SOL    HW234278   3.638   4.075   5.093 -1.2738 -0.7839 -0.8670
 7548SOL     OW34279   4.080   3.743   7.897  0.6273 -0.2855 -0.3550
 7548SOL    HW134280   4.122   3.669   7.853  0.6001 -0.4758 -0.0637
 7548SOL    HW234281   3.988   3.719   7.881  0.6670 -1.1538  0.6942
 7549SOL     OW34282   2.070   3.316   7.926  0.2577 -0.4469  0.1834
 7549SOL    HW134283   2.121   3.243   7.891  0.8294 -0.1960  0.4984
 7549SOL    HW234284   2.028   3.277   8.002 -1.9995  1.3471 -0.1422
 7550SOL     OW34285   0.476   2.244   4.590  0.0685  0.8248  0.8024
 7550SOL    HW134286   0.386   2.212   4.595  1.2121 -2.6238 -0.4470
 7550SOL    HW234287   0.502   2.270   4.678  0.1672  0.8094  0.7779
 7551SOL     OW34288   1.386   3.185   5.386  0.5514 -0.0409 -0.1477
 7551SOL    HW134289   1.457   3.227   5.435  0.4115  1.3547 -1.1656
 7551SOL    HW234290   1.436   3.116   5.342 -0.1453 -1.7635  1.7508
 7552SOL     OW34291   2.010   3.756  13.351 -1.0105  0.0305  0.0249
 7552SOL    HW134292   1.975   3.770  13.263 -0.1117  2.8772  0.1163
 7552SOL    HW234293   1.927   3.748  13.397  0.1569 -0.5594  2.0124
 7553SOL     OW34294   3.659   4.487   8.708  0.3974 -0.5195 -0.2494
 7553SOL    HW134295   3.713   4.514   8.634  0.1627  1.0329  0.1479
 7553SOL    HW234296   3.611   4.408   8.683 -1.6957  0.3995  0.8173
 7554SOL     OW34297   4.200   3.337   3.044 -0.0509  0.1021  0.3252
 7554SOL    HW134298   4.202   3.390   3.123 -2.2253 -0.0165  0.4699
 7554SOL    HW234299   4.193   3.253   3.090  1.0378 -0.5860 -0.7657
 7555SOL     OW34300   0.061   3.162   8.663  0.1113 -0.0758  0.3819
 7555SOL    HW134301   0.027   3.241   8.704  1.1126  1.4284 -1.7038
 7555SOL    HW234302   0.018   3.164   8.578 -0.7882 -0.0792  0.8390
 7556SOL     OW34303   0.399   4.245   2.046 -0.0204 -0.1708 -0.1887
 7556SOL    HW134304   0.443   4.171   2.004 -0.1577 -0.0970 -0.4611
 7556SOL    HW234305   0.310   4.229   2.016  0.7284 -0.0895 -2.4255
 7557SOL     OW34306   0.141   1.294   4.033  0.6695 -0.7140 -0.1305
 7557SOL    HW134307   0.152   1.205   4.067  0.1061  0.1239  2.2472
 7557SOL    HW234308   0.233   1.319   4.045  0.9490 -1.6004 -0.3478
 7558SOL     OW34309   1.653   4.388  17.434 -0.2811  0.9340 -0.1934
 7558SOL    HW134310   1.679   4.303  17.468 -0.6298  1.1323  0.5799
 7558SOL    HW234311   1.577   4.397  17.492 -0.3375 -0.0597 -0.1213
 7559SOL     OW34312   0.532   3.592   2.249  0.6844  0.6675 -0.3272
 7559SOL    HW134313   0.576   3.536   2.185  0.7586 -0.6453  0.8837
 7559SOL    HW234314   0.614   3.628   2.284  1.1077  1.7377 -2.3904
 7560SOL     OW34315   1.317   4.386   8.988 -0.4928  0.1418  0.5245
 7560SOL    HW134316   1.371   4.456   9.026 -1.0341  0.5477  0.5447
 7560SOL    HW234317   1.306   4.321   9.058  0.3462 -1.1668 -0.5638
 7561SOL     OW34318   0.743   3.755   8.011 -0.5386 -0.1963  0.1110
 7561SOL    HW134319   0.687   3.689   7.970 -0.7104  1.5138 -2.3830
 7561SOL    HW234320   0.758   3.719   8.099  1.6134  0.6966  0.1101
 7562SOL     OW34321   2.003   3.545   6.130  0.1272 -0.3748  0.3815
 7562SOL    HW134322   1.931   3.534   6.068 -1.4405 -2.0948  2.5069
 7562SOL    HW234323   2.006   3.455   6.161 -1.5174  0.5232  3.0991
 7563SOL     OW34324   4.355   4.340   9.725  1.2002 -0.1358 -0.0499
 7563SOL    HW134325   4.267   4.321   9.695  0.0915  1.0943  2.4281
 7563SOL    HW234326   4.330   4.379   9.809  0.1230 -0.1221 -0.3807
 7564SOL     OW34327   1.897   3.214   0.549 -0.6667 -0.3404  0.2593
 7564SOL    HW134328   1.849   3.251   0.623 -0.1933 -0.8828  0.8371
 7564SOL    HW234329   1.985   3.210   0.586 -0.0585 -1.6772 -1.3530
 7565SOL     OW34330   1.548   2.705   8.404 -0.5126  0.4138  0.3149
 7565SOL    HW134331   1.557   2.800   8.395  2.9189  0.2696  2.4686
 7565SOL    HW234332   1.472   2.693   8.347 -0.3640 -0.7754  0.3730
 7566SOL     OW34333   1.858   2.937   5.761  0.0725  0.5330  0.1053
 7566SOL    HW134334   1.896   3.009   5.811 -1.3591  1.0779  0.3991
 7566SOL    HW234335   1.797   2.976   5.698  2.5895  1.7299 -1.6114
 7567SOL     OW34336   3.515   0.758   3.335 -0.3225 -0.4947  0.3030
 7567SOL    HW134337   3.548   0.703   3.264  0.3928  0.2738  0.0439
 7567SOL    HW234338   3.506   0.694   3.405  4.3771 -1.0214  0.4090
 7568SOL     OW34339   1.174   3.269   7.358 -0.3773  0.2102 -0.0074
 7568SOL    HW134340   1.264   3.290   7.380 -0.8229  1.4665  0.5895
 7568SOL    HW234341   1.128   3.267   7.442  1.9273  1.4346  1.2678
 7569SOL     OW34342   0.606   2.360   8.109  0.0250 -0.1807 -0.0303
 7569SOL    HW134343   0.647   2.406   8.183 -0.6928 -1.0036  0.8934
 7569SOL    HW234344   0.631   2.425   8.044 -1.2278  0.7190  0.3818
 7570SOL     OW34345   3.222   3.712   9.935  0.7015 -0.0607 -0.4129
 7570SOL    HW134346   3.233   3.765   9.855  3.0465  0.7681  0.4690
 7570SOL    HW234347   3.129   3.723   9.956  0.3173 -0.5128 -1.8114
 7571SOL     OW34348   0.106   0.962   7.364  0.6164 -0.1087 -0.4253
 7571SOL    HW134349   0.139   0.873   7.353  0.5161 -0.0601 -1.1119
 7571SOL    HW234350   0.056   0.951   7.445  0.7040  0.4731 -0.2931
 7572SOL     OW34351   0.338   4.356   8.004 -0.1931 -0.2950 -0.0469
 7572SOL    HW134352   0.350   4.424   8.070  1.1869  0.0014 -0.5966
 7572SOL    HW234353   0.390   4.392   7.932 -0.4407 -0.8709 -0.5072
 7573SOL     OW34354   2.454   2.154   5.647  0.1058  0.0790  0.3783
 7573SOL    HW134355   2.523   2.090   5.627  0.0950  0.6190 -1.3878
 7573SOL    HW234356   2.480   2.190   5.732 -1.1934 -1.7131  1.5320
 7574SOL     OW34357   4.470   2.311   6.006 -0.1240  0.4076  0.4857
 7574SOL    HW134358   4.434   2.328   5.919 -2.1713 -2.5392  0.7575
 7574SOL    HW234359   4.448   2.219   6.017 -2.6734  1.1062  1.3950
 7575SOL     OW34360   3.135   2.430   6.511  0.1147  0.0961  0.3529
 7575SOL    HW134361   3.046   2.411   6.482  0.5718  1.7338 -2.1092
 7575SOL    HW234362   3.187   2.378   6.449  2.3242  2.8795 -0.1753
 7576SOL     OW34363   2.236   1.813   4.186 -0.5462  0.0988  0.5968
 7576SOL    HW134364   2.279   1.790   4.104  2.7254 -0.4824  2.4988
 7576SOL    HW234365   2.275   1.900   4.194 -0.5301  0.0202  1.3449
 7577SOL     OW34366   1.789   0.809   0.677 -0.5872  0.1808  0.9634
 7577SOL    HW134367   1.836   0.871   0.733 -0.3659  1.9127 -1.1481
 7577SOL    HW234368   1.724   0.776   0.739  1.2781 -0.9314  2.3584
 7578SOL     OW34369   4.069   0.283  13.032 -0.5656  0.2141  0.2211
 7578SOL    HW134370   4.062   0.249  13.121 -0.7783 -2.3362 -0.7728
 7578SOL    HW234371   4.016   0.362  13.033  0.7289  1.0950 -0.5389
 7579SOL     OW34372   0.825   3.414   7.472 -0.3824 -0.1543 -0.0854
 7579SOL    HW134373   0.916   3.434   7.452 -0.8074  0.2932 -1.5654
 7579SOL    HW234374   0.782   3.424   7.387 -0.7889  1.7119  0.3346
 7580SOL     OW34375   4.438   2.246  12.942 -0.5663 -0.1610  0.0721
 7580SOL    HW134376   4.423   2.271  13.034 -1.8404 -2.7448  0.5675
 7580SOL    HW234377   4.419   2.153  12.952  1.2821 -0.4041  1.3295
 7581SOL     OW34378   0.452   4.087   6.247 -0.3550 -0.8460 -0.0953
 7581SOL    HW134379   0.431   4.174   6.211  0.3648 -0.4415  0.4590
 7581SOL    HW234380   0.497   4.052   6.170 -1.0643 -2.8245  0.4100
 7582SOL     OW34381   3.214   0.522   0.902  0.1712  0.0124 -0.2600
 7582SOL    HW134382   3.245   0.466   0.974 -1.0914 -2.4103 -1.5875
 7582SOL    HW234383   3.146   0.464   0.868 -0.3575  1.6742 -2.0170
 7583SOL     OW34384   2.069   0.632   9.692  0.7000 -0.4352  0.2967
 7583SOL    HW134385   2.137   0.690   9.657  0.2463 -0.4028 -0.5176
 7583SOL    HW234386   2.055   0.680   9.774  1.1119 -0.4862  0.3993
 7584SOL     OW34387   1.836   4.393   6.324 -0.7016  0.0817  0.1628
 7584SOL    HW134388   1.819   4.322   6.385  1.9644 -0.5933  0.0773
 7584SOL    HW234389   1.824   4.467   6.383  1.7476  1.1856 -0.7443
 7585SOL     OW34390   2.991   1.475   6.875 -0.4402  0.1510  0.2529
 7585SOL    HW134391   2.940   1.428   6.942  0.1344  0.1415  0.6789
 7585SOL    HW234392   2.986   1.419   6.798  1.7527  0.2854  0.0247
 7586SOL     OW34393   2.339   0.847   9.389 -0.0624  0.2756  0.4181
 7586SOL    HW134394   2.293   0.844   9.304 -0.0640 -2.8318  0.5294
 7586SOL    HW234395   2.428   0.849   9.354  0.2703 -2.4140  1.1591
 7587SOL     OW34396   4.730   2.364   8.431  0.0827  0.1930  0.3005
 7587SOL    HW134397   0.085   2.377   8.409 -0.3202 -0.6636 -1.8632
 7587SOL    HW234398   4.732   2.271   8.455  1.8886 -0.1285 -1.1318
 7588SOL     OW34399   3.292   3.438   8.602  0.3672  0.9759 -0.1253
 7588SOL    HW134400   3.328   3.363   8.555 -0.1875  0.7294 -0.1552
 7588SOL    HW234401   3.361   3.500   8.578  2.2411  0.2047  3.2230
 7589SOL     OW34402   0.723   2.806   3.828 -0.3574 -0.1911  0.4205
 7589SOL    HW134403   0.638   2.802   3.873 -2.2791  0.0306 -3.1856
 7589SOL    HW234404   0.720   2.732   3.768 -0.5551  0.8093 -0.8055
 7590SOL     OW34405   0.740   0.162  15.064 -0.2812  0.5813 -0.4278
 7590SOL    HW134406   0.750   0.210  14.982  2.1034 -0.2709 -0.6492
 7590SOL    HW234407   0.769   0.224  15.131 -0.6609  0.4708 -0.1564
 7591SOL     OW34408   1.975   0.395   9.768 -0.0415  0.2644  0.2211
 7591SOL    HW134409   1.959   0.408   9.862  1.6769 -0.1109  0.5730
 7591SOL    HW234410   2.022   0.477   9.749  0.3470 -0.1311 -0.5003
 7592SOL     OW34411   3.091   3.235   4.671  0.2157  0.5063 -0.0208
 7592SOL    HW134412   3.155   3.224   4.601  0.4463  0.5715  0.1815
 7592SOL    HW234413   3.080   3.142   4.693  2.2803  0.3450  0.3132
 7593SOL     OW34414   2.856   4.204   6.598  0.8951 -0.1658 -0.1894
 7593SOL    HW134415   2.928   4.267   6.601  0.4735  0.2721  0.6963
 7593SOL    HW234416   2.879   4.144   6.527 -0.4552 -0.1517 -0.6546
 7594SOL     OW34417   4.449   0.347   7.198 -0.1298  0.1344  0.1358
 7594SOL    HW134418   4.506   0.310   7.131 -0.3067  0.0091  0.0541
 7594SOL    HW234419   4.474   0.439   7.202 -0.2826  0.2357 -1.2397
 7595SOL     OW34420   3.926   4.101   5.365  0.1266  0.0909  0.1046
 7595SOL    HW134421   3.986   4.142   5.303  1.1138  0.1128  1.0730
 7595SOL    HW234422   3.879   4.042   5.306 -0.8037  2.6197 -1.6585
 7596SOL     OW34423   4.301   4.150  16.807 -0.3503  0.9464  0.7136
 7596SOL    HW134424   4.394   4.138  16.792 -0.9183 -0.4022 -1.7548
 7596SOL    HW234425   4.297   4.176  16.899 -0.7926  0.7176  0.7601
 7597SOL     OW34426   0.491   3.183  11.520 -0.0041  0.3411  0.0391
 7597SOL    HW134427   0.406   3.140  11.503 -0.1394  1.3932 -1.9697
 7597SOL    HW234428   0.475   3.266  11.476 -0.3024 -0.2812 -1.0516
 7598SOL     OW34429   2.682   3.555   3.133 -0.3568 -0.0345 -0.2810
 7598SOL    HW134430   2.686   3.636   3.083  0.3363 -0.9757 -1.7455
 7598SOL    HW234431   2.615   3.509   3.083  0.1230  1.0579 -1.9368
 7599SOL     OW34432   1.861   3.272  10.590  0.2152  0.3320  0.0324
 7599SOL    HW134433   1.953   3.298  10.586  0.7435 -1.5678  0.0606
 7599SOL    HW234434   1.859   3.192  10.538  0.2674  1.6089 -1.9092
 7600SOL     OW34435   3.629   4.688   7.232  0.2134 -0.3966  0.5687
 7600SOL    HW134436   3.724   4.696   7.228 -0.0481  2.6317 -0.1438
 7600SOL    HW234437   3.597   4.727   7.150 -0.9113 -0.6387  0.8930
 7601SOL     OW34438   3.664   4.675   5.238 -0.3399  0.8382 -0.6217
 7601SOL    HW134439   3.707   4.596   5.271  1.4266  2.4045  0.8339
 7601SOL    HW234440   3.581   4.643   5.204 -0.3041  0.6463 -0.5259
 7602SOL     OW34441   1.293   1.808   1.219  0.0931  0.2839 -0.2671
 7602SOL    HW134442   1.265   1.797   1.128  0.3406 -0.4270 -0.2543
 7602SOL    HW234443   1.332   1.723   1.238 -2.3045 -0.6217  0.5775
 7603SOL     OW34444   4.383   4.711   8.168  0.4944  0.5361  0.1557
 7603SOL    HW134445   4.434   4.728   8.247  1.9927  0.0913 -0.7221
 7603SOL    HW234446   4.455   4.720   8.106 -0.8949  0.4111 -1.4839
 7604SOL     OW34447   0.808   2.675   5.184 -0.0740 -0.1273  0.7421
 7604SOL    HW134448   0.899   2.678   5.215 -0.1697 -0.7493  1.0731
 7604SOL    HW234449   0.763   2.674   5.268 -0.9044 -0.0469  0.2922
 7605SOL     OW34450   1.315   4.517  11.475  0.3972  0.0201 -0.3073
 7605SOL    HW134451   1.362   4.576  11.416 -1.0889  0.5397 -0.9735
 7605SOL    HW234452   1.291   4.449  11.412  0.5852 -1.2277  0.9755
 7606SOL     OW34453   4.564   4.251   4.101 -0.5022 -0.5387 -0.1594
 7606SOL    HW134454   4.609   4.167   4.102  0.3698 -0.0642  0.2058
 7606SOL    HW234455   4.561   4.270   4.195  0.6744 -0.2538 -0.1787
 7607SOL     OW34456   1.105   0.402  10.298  0.1875  0.4962  0.2081
 7607SOL    HW134457   1.073   0.396  10.208 -1.2747  0.1622  0.7470
 7607SOL    HW234458   1.176   0.465  10.286 -0.3494  1.3464  1.4054
 7608SOL     OW34459   2.413   3.211   5.628 -0.2077 -0.0774  0.2054
 7608SOL    HW134460   2.362   3.153   5.572 -0.6196  1.1011 -0.6292
 7608SOL    HW234461   2.459   3.153   5.690 -0.9802  0.8094  1.6031
 7609SOL     OW34462   4.706   2.594   0.731  0.1305 -0.0561 -0.2274
 7609SOL    HW134463   0.056   2.635   0.738  0.3499 -0.5109 -0.3201
 7609SOL    HW234464   4.682   2.610   0.639 -0.0564  0.3814 -0.1020
 7610SOL     OW34465   3.098   4.588  13.203  0.3191 -0.2307 -0.2593
 7610SOL    HW134466   3.124   4.502  13.169 -3.8181 -2.2788  1.7951
 7610SOL    HW234467   3.102   4.573  13.297  0.5122 -2.4722 -0.6251
 7611SOL     OW34468   2.308   2.863   5.590 -0.1060  0.2376 -0.3849
 7611SOL    HW134469   2.286   2.774   5.561 -2.1695  0.8151 -0.6050
 7611SOL    HW234470   2.307   2.917   5.512 -1.4850 -0.7764 -1.0840
 7612SOL     OW34471   4.140   0.116   1.729  0.1775  0.5886 -0.4208
 7612SOL    HW134472   4.199   0.146   1.798  1.5090  0.5591 -1.5267
 7612SOL    HW234473   4.091   0.045   1.770  0.4416 -0.2926 -1.6117
 7613SOL     OW34474   1.480   3.722   5.753 -0.2492 -0.7582 -0.4184
 7613SOL    HW134475   1.437   3.700   5.836  1.1043  1.4437  0.8752
 7613SOL    HW234476   1.460   3.815   5.738  0.4987 -0.6515 -0.7495
 7614SOL     OW34477   4.307   0.824  13.717 -0.0426 -0.4810 -0.0488
 7614SOL    HW134478   4.327   0.913  13.745  1.4262 -0.8261 -0.0418
 7614SOL    HW234479   4.357   0.782  13.786 -2.3121 -0.6600  1.4903
 7615SOL     OW34480   1.282   0.550   8.520 -0.3830 -0.4458 -0.4860
 7615SOL    HW134481   1.290   0.485   8.451  2.4802 -0.8711  0.2533
 7615SOL    HW234482   1.350   0.512   8.576 -1.4940  0.8676  1.7697
 7616SOL     OW34483   2.104   0.288   8.444  0.3335  0.1885  0.6226
 7616SOL    HW134484   2.090   0.265   8.536  0.4292 -0.5086  0.4577
 7616SOL    HW234485   2.095   0.384   8.449  1.4860  0.2633  1.1847
 7617SOL     OW34486   0.718   1.070   3.271  0.3469  0.5300 -0.3089
 7617SOL    HW134487   0.688   0.991   3.227 -0.2574 -0.1328  1.2878
 7617SOL    HW234488   0.670   1.129   3.212  2.7339  2.1072 -0.6525
 7618SOL     OW34489   0.552   3.779   6.081 -0.1825 -0.0505  0.1152
 7618SOL    HW134490   0.532   3.804   5.991 -1.7041  0.1273  0.5015
 7618SOL    HW234491   0.546   3.683   6.090  0.4654 -0.0680  0.3317
 7619SOL     OW34492   0.795   1.704   2.308 -0.5999 -0.0533  0.0290
 7619SOL    HW134493   0.843   1.631   2.268  0.1897 -0.9982  2.7023
 7619SOL    HW234494   0.740   1.724   2.232  1.7337 -1.5887 -2.0732
 7620SOL     OW34495   0.011   3.776  10.939 -0.4931 -0.1880 -0.0592
 7620SOL    HW134496   0.021   3.868  10.916  1.7431 -0.2823  0.4643
 7620SOL    HW234497   4.688   3.740  10.873 -1.4779  1.2490  0.0544
 7621SOL     OW34498   4.193   1.425   4.766 -0.1492 -0.0165  0.0252
 7621SOL    HW134499   4.101   1.422   4.739 -0.5544  0.6132  1.3612
 7621SOL    HW234500   4.214   1.333   4.750  1.4115  1.2140 -5.1010
 7622SOL     OW34501   3.794   0.222   7.077 -0.0206  0.3039 -0.1484
 7622SOL    HW134502   3.712   0.248   7.119 -0.0837 -0.7729  0.4045
 7622SOL    HW234503   3.827   0.174   7.153 -1.9574  0.8133  1.0282
 7623SOL     OW34504   0.721   4.023   5.919 -0.9620  1.0836 -0.5654
 7623SOL    HW134505   0.753   4.054   6.003 -1.6620  1.2525 -0.3568
 7623SOL    HW234506   0.641   4.072   5.898 -2.1360 -0.8177 -0.6077
 7624SOL     OW34507   0.444   0.836   3.964  0.4011  0.3227  0.7295
 7624SOL    HW134508   0.501   0.870   3.894 -0.9205 -0.9744 -0.9756
 7624SOL    HW234509   0.514   0.799   4.018  0.9546  0.0533 -0.1693
 7625SOL     OW34510   4.193   3.789  16.177 -0.1209 -0.0598  0.1124
 7625SOL    HW134511   4.154   3.805  16.263 -0.7452 -1.7183  0.1304
 7625SOL    HW234512   4.276   3.836  16.184 -0.1098  0.0166 -0.5366
 7626SOL     OW34513   2.390   0.414  16.004  0.4367  0.0075 -0.1918
 7626SOL    HW134514   2.400   0.483  16.069  0.4651  0.1845 -0.3830
 7626SOL    HW234515   2.477   0.414  15.965  0.9243  1.3837  0.8929
 7627SOL     OW34516   1.863   2.352   8.946  0.0355  0.0885 -0.4061
 7627SOL    HW134517   1.940   2.305   8.915 -1.7509 -3.8533  1.1916
 7627SOL    HW234518   1.846   2.421   8.882 -0.5358 -0.8980 -1.3127
 7628SOL     OW34519   2.489   4.696   8.023  0.2666  0.0026 -0.9839
 7628SOL    HW134520   2.409   4.647   8.042 -0.9766  2.7627  1.0372
 7628SOL    HW234521   2.522   4.696   8.113 -2.1392  2.6097 -0.1116
 7629SOL     OW34522   0.146   4.718   1.266  0.3028  0.1492  0.5152
 7629SOL    HW134523   0.085   4.723   1.339  0.5722  1.1255  0.6725
 7629SOL    HW234524   0.166   0.075   1.262 -0.0367  0.1989 -0.0810
 7630SOL     OW34525   1.804   3.648   4.629  0.0817  0.1226  0.2819
 7630SOL    HW134526   1.748   3.648   4.551  3.1023 -0.4482 -1.8791
 7630SOL    HW234527   1.878   3.702   4.603 -0.3899  0.0088 -1.3448
 7631SOL     OW34528   1.783   3.228   7.735 -0.0665  0.3197 -0.2712
 7631SOL    HW134529   1.693   3.231   7.767 -0.1248 -0.2120 -0.3847
 7631SOL    HW234530   1.816   3.302   7.785  0.7240  0.6800 -1.3172
 7632SOL     OW34531   1.310   1.463   1.502 -0.5375  0.6461 -0.1402
 7632SOL    HW134532   1.253   1.497   1.570  2.0928  1.3212  1.7299
 7632SOL    HW234533   1.245   1.475   1.433  0.3788  0.5399 -1.0349
 7633SOL     OW34534   0.113   2.873   9.728  0.3850  0.7112 -0.7279
 7633SOL    HW134535   0.160   2.861   9.810  1.4108 -0.2315 -1.4531
 7633SOL    HW234536   0.175   2.829   9.670 -1.5116 -1.6200 -0.9950
 7634SOL     OW34537   3.763   4.127   8.410  0.7374  1.1330 -0.6171
 7634SOL    HW134538   3.826   4.116   8.481  0.6605 -1.6629 -1.0031
 7634SOL    HW234539   3.795   4.212   8.378  0.7078  0.8538 -1.3928
 7635SOL     OW34540   1.487   3.144  15.400  0.3407  0.2608 -0.3259
 7635SOL    HW134541   1.576   3.131  15.368  0.3487  1.0773 -0.6500
 7635SOL    HW234542   1.440   3.075  15.355 -1.1670  0.0066  1.6033
 7636SOL     OW34543   2.926   3.822  14.109 -0.0277 -0.2444 -0.0205
 7636SOL    HW134544   2.866   3.800  14.038  0.0862 -0.1526 -0.1444
 7636SOL    HW234545   2.874   3.813  14.189  0.9451  1.0011  0.7543
 7637SOL     OW34546   3.433   0.481   4.291 -0.3255 -0.1409 -0.8608
 7637SOL    HW134547   3.476   0.512   4.212  0.2681  0.2084 -0.4014
 7637SOL    HW234548   3.402   0.558   4.339  1.7529 -1.7316  3.0601
 7638SOL     OW34549   1.971   1.191   1.741  0.2925  0.1427  0.2812
 7638SOL    HW134550   1.956   1.215   1.832 -2.3318 -0.5755  0.0333
 7638SOL    HW234551   2.061   1.221   1.727  0.4529 -1.3104 -1.9155
 7639SOL     OW34552   1.944   3.665   3.971  0.2902  0.0915 -0.0879
 7639SOL    HW134553   2.032   3.680   3.937  1.6150 -0.1556  3.2646
 7639SOL    HW234554   1.954   3.632   4.060 -0.7568 -0.8178 -0.3051
 7640SOL     OW34555   3.822   4.705   6.262  0.3705 -0.5363 -0.0309
 7640SOL    HW134556   3.852   4.720   6.352  0.3261 -0.6067 -0.0044
 7640SOL    HW234557   3.818   4.609   6.258 -1.7326 -0.3839 -1.2004
 7641SOL     OW34558   3.404   3.543   3.878  0.4295 -0.4933  0.1830
 7641SOL    HW134559   3.467   3.471   3.885  1.7617  0.6276 -0.2486
 7641SOL    HW234560   3.415   3.541   3.783 -0.1121  1.9901  0.0558
 7642SOL     OW34561   3.250   3.488   9.451 -0.7941  0.1611 -0.4263
 7642SOL    HW134562   3.180   3.464   9.511 -0.3204 -1.0094 -0.3299
 7642SOL    HW234563   3.212   3.495   9.364 -0.7770 -2.5361 -0.6455
 7643SOL     OW34564   2.495   3.726   8.427  0.6152  0.6560 -0.7745
 7643SOL    HW134565   2.401   3.732   8.412  0.7974  0.4448 -2.0121
 7643SOL    HW234566   2.501   3.739   8.521  2.0418 -0.0050 -0.7659
 7644SOL     OW34567   2.107   0.926   7.039  0.0861  0.2272 -0.1347
 7644SOL    HW134568   2.111   1.021   7.022  0.7962  0.2276  0.0184
 7644SOL    HW234569   2.077   0.884   6.959 -0.2812  1.5934 -0.7101
 7645SOL     OW34570   2.159   0.891   0.216 -0.7418 -0.4178  0.4729
 7645SOL    HW134571   2.086   0.876   0.157 -1.5565 -0.6575  1.5328
 7645SOL    HW234572   2.187   0.963   0.160 -0.0618 -1.5436 -0.6110
 7646SOL     OW34573   3.233   1.324   6.697  0.1016  0.1936  0.0371
 7646SOL    HW134574   3.302   1.350   6.758 -0.8974  0.0127  1.2485
 7646SOL    HW234575   3.178   1.273   6.756  0.5447 -0.2046  0.1022
 7647SOL     OW34576   0.777   3.463  12.968  0.0905  0.5381  0.1977
 7647SOL    HW134577   0.717   3.444  12.896 -0.2529  3.0174 -0.1722
 7647SOL    HW234578   0.761   3.558  12.967 -3.0927 -0.0057 -0.7595
 7648SOL     OW34579   2.096   0.431   8.829 -0.0173 -0.3874 -0.2659
 7648SOL    HW134580   2.149   0.355   8.851 -1.1757 -1.1386 -0.0522
 7648SOL    HW234581   2.066   0.451   8.918  3.4179  1.4192  0.4830
 7649SOL     OW34582   3.118   2.373   8.457 -0.2456 -0.3725  0.1311
 7649SOL    HW134583   3.200   2.401   8.498 -1.3413  1.3479  1.1485
 7649SOL    HW234584   3.069   2.455   8.468  3.6117  2.1828 -1.7504
 7650SOL     OW34585   0.397   4.271   2.331 -0.2366  0.3061  0.1595
 7650SOL    HW134586   0.324   4.215   2.355  0.0824 -0.2996 -0.2685
 7650SOL    HW234587   0.402   4.256   2.236  0.5396 -2.9842  0.7555
 7651SOL     OW34588   0.720   3.384   8.596 -0.2987  0.3333  0.2931
 7651SOL    HW134589   0.752   3.349   8.679 -1.2993  1.4377  1.1555
 7651SOL    HW234590   0.633   3.347   8.592 -0.1660 -0.0348  0.7502
 7652SOL     OW34591   1.621   4.506   8.759 -0.8202  0.0020  0.2601
 7652SOL    HW134592   1.581   4.521   8.845 -0.7377 -1.4695  0.5431
 7652SOL    HW234593   1.560   4.563   8.712 -0.9365 -0.9748 -0.7564
 7653SOL     OW34594   0.743   0.737  12.535 -0.3487  0.1550 -0.3974
 7653SOL    HW134595   0.734   0.771  12.446 -0.3247 -0.2772 -0.5645
 7653SOL    HW234596   0.834   0.707  12.537  0.0828  1.6780  2.5121
 7654SOL     OW34597   2.521   2.914   4.953 -0.0060  0.2365 -0.5360
 7654SOL    HW134598   2.588   2.972   4.916  1.2344  0.0748  1.4327
 7654SOL    HW234599   2.450   2.960   4.908 -1.1634 -0.5874  0.4395
 7655SOL     OW34600   0.877   4.221   8.209  0.1700  0.1518 -0.3470
 7655SOL    HW134601   0.879   4.193   8.300 -0.3103  0.5866 -0.2075
 7655SOL    HW234602   0.881   4.142   8.156 -0.1018 -0.3330  0.3643
 7656SOL     OW34603   0.974   2.294   4.986  0.8589 -0.3733 -0.4332
 7656SOL    HW134604   1.054   2.342   4.963  0.4255  1.4253  1.7436
 7656SOL    HW234605   1.000   2.220   5.040 -0.8250 -0.3740  0.3772
 7657SOL     OW34606   0.334   1.461  14.629 -0.3566 -0.5545 -0.1346
 7657SOL    HW134607   0.289   1.379  14.606  0.8591 -0.9642 -1.0319
 7657SOL    HW234608   0.409   1.419  14.671  0.4021 -0.3435 -1.2878
 7658SOL     OW34609   2.263   2.316   6.997 -0.3236  0.3870  0.0542
 7658SOL    HW134610   2.306   2.372   7.062  0.8412 -0.9600  0.4477
 7658SOL    HW234611   2.338   2.265   6.968 -0.8468  0.4496 -1.4321
 7659SOL     OW34612   0.965   2.984   8.861  0.6079 -0.4376  0.5857
 7659SOL    HW134613   0.917   2.958   8.783  0.9260 -1.8092  0.8411
 7659SOL    HW234614   0.959   2.909   8.920 -2.1663  0.2692  1.2073
 7660SOL     OW34615   1.208   0.554  12.437  0.2065 -0.1414  0.6319
 7660SOL    HW134616   1.287   0.516  12.400  0.3001  1.3756 -0.7724
 7660SOL    HW234617   1.234   0.546  12.529  0.3962 -0.9708  0.5000
 7661SOL     OW34618   2.577   0.639   3.519  0.2467  0.7964 -0.3415
 7661SOL    HW134619   2.542   0.610   3.435  0.8545  1.4140 -0.8030
 7661SOL    HW234620   2.514   0.608   3.585  1.0919  1.0962  0.6143
 7662SOL     OW34621   3.414   3.048   2.815 -1.0100  0.3609  0.2998
 7662SOL    HW134622   3.500   3.028   2.852 -0.9719 -1.8323 -0.9933
 7662SOL    HW234623   3.372   3.099   2.885 -1.6566  1.8648 -1.1586
 7663SOL     OW34624   3.414   3.513   2.923  0.5001  0.6539  0.0534
 7663SOL    HW134625   3.449   3.446   2.866  1.4129  0.7533  0.5019
 7663SOL    HW234626   3.482   3.572   2.954  0.4289 -0.5886  2.6113
 7664SOL     OW34627   0.197   3.803   8.134 -0.2616  0.3699  0.2708
 7664SOL    HW134628   0.261   3.732   8.128 -0.3014  0.2707  1.0824
 7664SOL    HW234629   0.141   3.765   8.201  0.2904 -2.1210 -0.7004
 7665SOL     OW34630   2.011   2.816   7.920  0.5467 -0.3686  0.1423
 7665SOL    HW134631   2.049   2.776   7.841 -2.6806 -1.0105 -1.0941
 7665SOL    HW234632   1.934   2.761   7.935 -0.8119  1.4788 -0.0371
 7666SOL     OW34633   0.461   1.153  11.274 -0.1561 -0.4476  0.8399
 7666SOL    HW134634   0.390   1.096  11.245  1.1264 -1.4077 -0.4258
 7666SOL    HW234635   0.467   1.127  11.366 -0.9935  0.6536  1.2088
 7667SOL     OW34636   1.828   4.608  17.534  0.3488  0.5172 -0.6170
 7667SOL    HW134637   1.811   4.669  17.463  1.0207 -0.9739 -2.0631
 7667SOL    HW234638   1.765   4.541  17.506  0.8049 -0.4088  0.5611
 7668SOL     OW34639   2.455   3.488   2.977 -0.2901  0.2717  0.0762
 7668SOL    HW134640   2.427   3.559   2.919 -0.7775  0.6962  0.8325
 7668SOL    HW234641   2.404   3.416   2.940  0.7735 -1.0703  1.2416
 7669SOL     OW34642   0.249   1.730   7.165 -0.2831  0.0788 -0.5489
 7669SOL    HW134643   0.166   1.778   7.162 -0.6565 -0.4967  0.4143
 7669SOL    HW234644   0.225   1.662   7.229 -1.2666 -0.1025 -1.1072
 7670SOL     OW34645   1.620   1.925  11.431 -0.3044  0.1455  0.5215
 7670SOL    HW134646   1.702   1.877  11.440 -1.4423 -1.9240 -0.1634
 7670SOL    HW234647   1.597   1.942  11.523  0.9240 -3.2911  1.4943
 7671SOL     OW34648   1.163   1.431   3.218  0.3599 -0.6344  0.2095
 7671SOL    HW134649   1.143   1.378   3.295  1.6200 -4.2151 -1.9422
 7671SOL    HW234650   1.233   1.375   3.182  1.0475  0.0537  0.4744
 7672SOL     OW34651   0.657   2.863  14.878  0.5232 -0.1197 -0.0309
 7672SOL    HW134652   0.632   2.903  14.962 -1.1790  1.9789 -1.5320
 7672SOL    HW234653   0.745   2.832  14.899  0.5401  0.9207  1.4244
 7673SOL     OW34654   3.266   2.829   1.825  0.5327 -0.4657  0.2397
 7673SOL    HW134655   3.275   2.906   1.882  2.1722  0.1847 -0.8968
 7673SOL    HW234656   3.216   2.864   1.751  0.2871 -2.5625 -0.5752
 7674SOL     OW34657   1.959   3.783  12.686 -0.7445  0.3023 -0.1511
 7674SOL    HW134658   1.926   3.868  12.716  2.2178  0.4923  2.6347
 7674SOL    HW234659   1.969   3.736  12.769 -0.1629 -0.0142 -0.3953
 7675SOL     OW34660   3.960   2.863   1.745  0.0897  0.0230 -0.1317
 7675SOL    HW134661   4.014   2.907   1.680  0.8528 -0.1010  0.4211
 7675SOL    HW234662   3.980   2.771   1.728  1.3790  0.4514 -0.9305
 7676SOL     OW34663   2.228   2.029   3.336 -0.1983  0.2926 -0.2007
 7676SOL    HW134664   2.187   2.062   3.256 -0.1112 -1.9610 -1.1846
 7676SOL    HW234665   2.151   2.011   3.390 -0.1884 -0.4483 -0.4354
 7677SOL     OW34666   0.047   0.300   2.824 -0.4792 -0.0345  0.1417
 7677SOL    HW134667   0.052   0.362   2.752  1.8026  0.1611  0.4535
 7677SOL    HW234668   4.704   0.328   2.869 -0.4125 -0.0871  0.2923
 7678SOL     OW34669   2.029   2.393   8.294 -0.2034 -0.0414 -0.5037
 7678SOL    HW134670   2.043   2.467   8.235  0.0486  0.7145  0.5004
 7678SOL    HW234671   2.044   2.429   8.381  1.7406 -0.6072 -0.6076
 7679SOL     OW34672   2.148   1.075   9.270  0.9037  0.2004 -0.3824
 7679SOL    HW134673   2.190   1.036   9.347 -2.7100  0.3409  1.6541
 7679SOL    HW234674   2.058   1.071   9.302  1.0266  0.3910 -0.0022
 7680SOL     OW34675   1.818   0.192  11.541 -0.0350  0.1851  0.5098
 7680SOL    HW134676   1.773   0.129  11.598  0.6013  0.8893  1.7694
 7680SOL    HW234677   1.762   0.161  11.469 -1.7089 -0.0700  1.9203
 7681SOL     OW34678   4.091   0.484   7.055  0.3029 -0.0308  0.8324
 7681SOL    HW134679   4.129   0.404   7.020  3.0931  1.1153  1.2903
 7681SOL    HW234680   4.150   0.548   7.016 -0.8636 -0.2330 -1.2807
 7682SOL     OW34681   3.060   0.107   4.028 -0.1847  0.2922 -0.1022
 7682SOL    HW134682   2.995   0.157   4.077 -0.6822 -1.0327  0.5794
 7682SOL    HW234683   3.049   0.026   4.076 -2.7915 -1.3070 -3.3432
 7683SOL     OW34684   0.996   1.425   0.590 -0.2013 -0.1486  0.0206
 7683SOL    HW134685   0.904   1.403   0.605 -0.2715  0.7702  0.9724
 7683SOL    HW234686   1.032   1.339   0.570  0.9591 -0.5057  3.5023
 7684SOL     OW34687   0.957   1.110   3.398 -0.3432 -0.4723  0.0236
 7684SOL    HW134688   0.999   1.025   3.410  0.4205 -0.4873 -2.8410
 7684SOL    HW234689   0.882   1.087   3.344  0.6855 -1.6883 -0.8960
 7685SOL     OW34690   0.299   2.940  13.520  0.0087  0.2769  0.5031
 7685SOL    HW134691   0.305   2.889  13.601 -1.2589 -0.7440 -0.0549
 7685SOL    HW234692   0.373   3.001  13.526 -0.5288  0.9772 -0.0440
 7686SOL     OW34693   2.131   2.847   9.081 -0.1501  0.2564 -0.1595
 7686SOL    HW134694   2.223   2.825   9.067  0.1799  0.8820  1.0252
 7686SOL    HW234695   2.107   2.852   8.989 -0.9938 -0.1922  0.0258
 7687SOL     OW34696   1.658   1.840   1.217 -0.2057  0.5973  0.0145
 7687SOL    HW134697   1.594   1.770   1.216 -0.2259  0.6312 -1.4012
 7687SOL    HW234698   1.603   1.909   1.181 -0.4576 -0.8744 -2.4057
 7688SOL     OW34699   1.707   0.796   8.006 -0.1421  0.0700 -0.0648
 7688SOL    HW134700   1.670   0.868   8.058  1.4107  0.5328  0.4111
 7688SOL    HW234701   1.797   0.829   7.996 -0.0459  0.1804  1.1873
 7689SOL     OW34702   2.177   4.258   4.275  0.3336  0.0407  0.1460
 7689SOL    HW134703   2.156   4.260   4.368 -0.1435  0.5491  0.0298
 7689SOL    HW234704   2.254   4.313   4.264  1.4750 -1.2953  1.4634
 7690SOL     OW34705   2.209   3.408   3.283 -0.3573  0.2142  0.2784
 7690SOL    HW134706   2.278   3.342   3.296 -0.8403 -0.6659 -1.6979
 7690SOL    HW234707   2.139   3.350   3.254 -0.2125 -0.1446  0.6370
 7691SOL     OW34708   0.448   0.362  10.640 -0.1153 -0.0870 -0.1029
 7691SOL    HW134709   0.375   0.337  10.584 -0.1119 -0.4367  0.0431
 7691SOL    HW234710   0.428   0.449  10.673 -3.2593 -0.5408 -0.8121
 7692SOL     OW34711   2.618   0.319   8.027 -0.1907  0.0332  0.3154
 7692SOL    HW134712   2.607   0.409   8.057 -1.6803 -0.6249  1.7331
 7692SOL    HW234713   2.559   0.280   8.092  1.4705 -0.1985  1.6642
 7693SOL     OW34714   1.180   3.525  17.322 -0.3798  0.0928 -0.6401
 7693SOL    HW134715   1.142   3.480  17.398  2.2813  3.4381  2.7069
 7693SOL    HW234716   1.268   3.488  17.316 -0.5206 -0.0550 -1.7180
 7694SOL     OW34717   0.602   1.963   0.922  0.5587  0.3205 -0.4772
 7694SOL    HW134718   0.542   1.935   0.852  0.1183 -0.4041  0.1901
 7694SOL    HW234719   0.542   2.012   0.979  1.9614  1.3114  0.1461
 7695SOL     OW34720   1.045   1.846   3.993 -0.3407 -0.3851  0.4461
 7695SOL    HW134721   1.046   1.939   4.014 -2.1930 -0.1984 -0.2993
 7695SOL    HW234722   1.032   1.852   3.899 -0.9856  0.9737  0.6234
 7696SOL     OW34723   3.524   0.912  12.140  0.0654 -0.6812 -0.7574
 7696SOL    HW134724   3.432   0.928  12.116 -0.3144 -1.0635  0.4535
 7696SOL    HW234725   3.533   0.941  12.230  3.0378 -1.5461 -0.7956
 7697SOL     OW34726   2.109   0.809   5.349 -0.5757 -0.1464  0.1926
 7697SOL    HW134727   2.075   0.798   5.438  0.5105 -2.0405  0.3815
 7697SOL    HW234728   2.031   0.770   5.310 -0.7708 -0.0619  0.5024
 7698SOL     OW34729   0.524   1.325   8.839  0.1619 -0.2014 -0.1894
 7698SOL    HW134730   0.443   1.350   8.793  0.3321  2.4609  0.9778
 7698SOL    HW234731   0.541   1.389   8.908  1.7776 -0.2347 -0.5615
 7699SOL     OW34732   2.769   1.236  12.904  0.6586  0.3513  0.0746
 7699SOL    HW134733   2.805   1.264  12.988 -0.8513 -0.2319  0.9270
 7699SOL    HW234734   2.752   1.143  12.921  0.0171  0.3098 -0.8264
 7700SOL     OW34735   3.839   3.938  15.126 -0.0858  0.2447 -0.0176
 7700SOL    HW134736   3.858   3.864  15.069 -1.7426 -0.8622  0.8492
 7700SOL    HW234737   3.814   3.886  15.203  0.2684  0.6331  0.3606
 7701SOL     OW34738   1.931   3.413   2.990 -0.2199  0.6814  0.0733
 7701SOL    HW134739   1.979   3.368   3.060  0.3879  0.5544 -0.4252
 7701SOL    HW234740   1.841   3.407   3.020 -0.1447  2.0422  0.5696
 7702SOL     OW34741   2.000   2.916   9.395 -0.1701 -0.3569 -0.0778
 7702SOL    HW134742   1.921   2.970   9.398  1.4923  2.1293 -1.0328
 7702SOL    HW234743   2.032   2.935   9.483 -2.5741  0.1503  0.6944
 7703SOL     OW34744   3.476   1.311  13.403  0.5645  1.0106  0.0050
 7703SOL    HW134745   3.452   1.275  13.489  0.0247 -0.2402 -0.6690
 7703SOL    HW234746   3.401   1.353  13.361  1.4284  0.2131 -2.2828
 7704SOL     OW34747   1.981   3.193   1.026 -0.4855  0.5502 -0.4047
 7704SOL    HW134748   2.012   3.256   1.091  3.1999 -0.2704 -1.3204
 7704SOL    HW234749   2.060   3.140   1.016  0.0131  0.9303  1.6597
 7705SOL     OW34750   4.715   3.078   4.623 -0.5192  0.2839 -0.3307
 7705SOL    HW134751   0.067   3.084   4.587  0.2375 -1.6977  1.2015
 7705SOL    HW234752   4.728   3.048   4.713  0.7849 -1.5127 -1.1261
 7706SOL     OW34753   0.111   3.004  17.563 -0.1388  0.2574 -0.6358
 7706SOL    HW134754   0.160   2.932  17.603 -0.6490 -1.0669 -2.4256
 7706SOL    HW234755   0.180   3.062  17.533  1.2053 -0.6718  0.6581
 7707SOL     OW34756   2.666   2.564   3.332 -0.5359  0.1742 -0.0815
 7707SOL    HW134757   2.609   2.620   3.385 -0.3301 -0.8722  1.2548
 7707SOL    HW234758   2.658   2.610   3.249 -1.2638  1.4343  0.6771
 7708SOL     OW34759   2.276   0.707  17.591 -0.1742 -0.1086 -0.2843
 7708SOL    HW134760   2.185   0.704  17.563 -0.5629  0.5088  0.9245
 7708SOL    HW234761   2.286   0.801  17.607 -0.5550  0.0779 -1.1554
 7709SOL     OW34762   1.491   4.345   8.189  0.0262 -0.4531  0.6457
 7709SOL    HW134763   1.537   4.271   8.228  1.3370 -0.1903 -0.3896
 7709SOL    HW234764   1.516   4.330   8.098 -0.1560  0.6807  0.4113
 7710SOL     OW34765   2.979   2.002  17.636 -0.8389 -0.2213  0.0942
 7710SOL    HW134766   3.002   1.909  17.628 -0.9420 -0.3699  1.5102
 7710SOL    HW234767   3.004   2.019  17.726  3.1333  2.6727 -1.5806
 7711SOL     OW34768   1.939   2.021   2.669  0.3947 -0.4374  0.4676
 7711SOL    HW134769   1.988   2.071   2.734 -0.7613  0.2478  0.8105
 7711SOL    HW234770   2.012   1.985   2.619  1.7501  1.5759  0.9902
 7712SOL     OW34771   3.221   2.887  12.373 -0.2656 -0.2736  0.2444
 7712SOL    HW134772   3.286   2.955  12.391  2.3051 -2.7767  0.2740
 7712SOL    HW234773   3.212   2.897  12.278  0.1367 -0.3231  0.2034
 7713SOL     OW34774   2.400   0.731   1.649  0.0947  0.2586 -0.1829
 7713SOL    HW134775   2.389   0.813   1.698 -1.2006 -1.5725  2.5766
 7713SOL    HW234776   2.491   0.734   1.617  0.5758 -1.4516  1.0338
 7714SOL     OW34777   3.497   0.616   5.858  0.5966  0.0370  0.3762
 7714SOL    HW134778   3.584   0.654   5.866  1.8496 -2.5583 -1.0427
 7714SOL    HW234779   3.436   0.683   5.890 -0.0648  0.2917 -1.4347
 7715SOL     OW34780   4.292   0.933   5.712  0.4906 -0.3408 -0.7089
 7715SOL    HW134781   4.306   1.012   5.658  0.9760  0.0774  0.0348
 7715SOL    HW234782   4.226   0.979   5.764  1.0377  0.0349 -0.3517
 7716SOL     OW34783   2.511   4.525   2.867 -0.0215  0.2745 -0.2627
 7716SOL    HW134784   2.487   4.590   2.933 -2.2425 -2.1342  1.2628
 7716SOL    HW234785   2.435   4.476   2.838 -0.7601  0.6616  1.0190
 7717SOL     OW34786   0.736   3.668   2.421  0.2658  0.0596  0.2184
 7717SOL    HW134787   0.761   3.760   2.410 -2.1859  0.8236  0.9784
 7717SOL    HW234788   0.681   3.677   2.499 -0.7077 -0.5822 -0.3911
 7718SOL     OW34789   1.882   3.426   4.764 -0.1443  0.0464 -0.1322
 7718SOL    HW134790   1.975   3.431   4.784 -0.4947 -2.2682  2.0919
 7718SOL    HW234791   1.869   3.512   4.724 -0.0711  1.5016  2.9206
 7719SOL     OW34792   0.300   4.492   4.394 -0.8363  0.0739  0.8865
 7719SOL    HW134793   0.206   4.475   4.402 -0.7019 -0.6550  0.9795
 7719SOL    HW234794   0.296   4.587   4.390  0.5921  0.0109 -1.8717
 7720SOL     OW34795   2.002   3.589   1.120  0.5965  0.4502  0.2686
 7720SOL    HW134796   2.081   3.546   1.086  0.7026  0.4237  0.5527
 7720SOL    HW234797   2.042   3.672   1.145 -0.9733  0.7757  1.7074
 7721SOL     OW34798   2.799   1.647  13.476 -0.1775 -0.2260 -0.2427
 7721SOL    HW134799   2.882   1.682  13.442 -0.1928  0.8319  0.8252
 7721SOL    HW234800   2.741   1.711  13.435 -1.0323 -0.4787  0.5798
 7722SOL     OW34801   0.568   1.180  12.253 -0.1356 -0.0284  0.5395
 7722SOL    HW134802   0.580   1.245  12.322  2.3013  0.0768  0.0305
 7722SOL    HW234803   0.485   1.212  12.218 -0.6742 -0.0536  1.7872
 7723SOL     OW34804   2.646   3.812   4.535 -0.5304  0.2935 -0.4112
 7723SOL    HW134805   2.713   3.757   4.576 -0.8159  1.1800  1.2429
 7723SOL    HW234806   2.634   3.877   4.604  0.4391 -0.0502  0.0886
 7724SOL     OW34807   2.370   2.012   6.730  0.6399  0.1240  0.0478
 7724SOL    HW134808   2.319   1.965   6.664 -0.1897 -1.9599  2.2189
 7724SOL    HW234809   2.418   1.938   6.766  0.9050  1.0223  1.5386
 7725SOL     OW34810   4.448   4.058   5.213 -0.6060 -0.3535 -0.1740
 7725SOL    HW134811   4.511   4.083   5.145  0.4984 -0.4797  0.7863
 7725SOL    HW234812   4.492   3.974   5.228  0.1348  0.1311  0.3756
 7726SOL     OW34813   3.765   4.143   4.168  0.3910 -0.2345  0.1559
 7726SOL    HW134814   3.746   4.104   4.082  1.0782 -1.3619  0.5144
 7726SOL    HW234815   3.695   4.109   4.224  0.7428 -1.6129 -0.2437
 7727SOL     OW34816   2.790   4.211   9.845 -0.3619 -0.6006  0.2655
 7727SOL    HW134817   2.724   4.184   9.910 -1.6116  2.3384  0.2204
 7727SOL    HW234818   2.755   4.291   9.805 -0.8225 -0.6532  0.5588
 7728SOL     OW34819   0.095   3.911   2.973  0.2384 -0.1271 -0.5442
 7728SOL    HW134820   0.009   3.947   2.996  1.3007  1.1479  1.3674
 7728SOL    HW234821   0.154   3.983   2.992 -1.2150  0.5109  1.5600
 7729SOL     OW34822   2.312   2.109  10.350 -0.3202  1.1083 -0.1778
 7729SOL    HW134823   2.237   2.133  10.296 -0.5017  0.7581 -0.0813
 7729SOL    HW234824   2.384   2.167  10.326 -0.8611  1.7421 -0.2684
 7730SOL     OW34825   2.438   3.197   7.283  0.4052  0.3446 -0.1717
 7730SOL    HW134826   2.345   3.212   7.264  1.5028  0.5503 -5.3952
 7730SOL    HW234827   2.467   3.288   7.295  0.0267  0.4256  0.1432
 7731SOL     OW34828   2.439   0.074   2.192 -0.1843 -0.4695 -0.0342
 7731SOL    HW134829   2.376   0.084   2.120 -1.8500 -0.4621  1.4071
 7731SOL    HW234830   2.503   0.145   2.185 -1.3868  0.5747 -0.4707
 7732SOL     OW34831   0.558   2.034  13.167 -0.3924  0.3583  0.0967
 7732SOL    HW134832   0.571   2.019  13.073  0.7997 -0.1453  0.3399
 7732SOL    HW234833   0.570   2.128  13.179 -2.9894  0.6128  0.6358
 7733SOL     OW34834   2.845   3.882   0.939 -0.1170 -0.1899 -0.6015
 7733SOL    HW134835   2.790   3.956   0.914  1.2402  0.8721 -0.4252
 7733SOL    HW234836   2.874   3.910   1.026  1.1113 -0.7320 -0.8312
 7734SOL     OW34837   1.153   4.383   5.454 -0.0043 -0.0510  0.0168
 7734SOL    HW134838   1.195   4.353   5.535 -1.5898  0.7754  1.1436
 7734SOL    HW234839   1.069   4.413   5.489 -0.6546 -1.1716 -0.5876
 7735SOL     OW34840   4.342   1.341   2.579  0.3701 -0.4005  0.2827
 7735SOL    HW134841   4.297   1.424   2.565  0.3138 -0.7453 -1.5933
 7735SOL    HW234842   4.272   1.308   2.635  0.6344 -0.0706  0.8182
 7736SOL     OW34843   0.141   0.846   4.675  0.6664 -0.3888  0.1411
 7736SOL    HW134844   0.087   0.775   4.640 -0.1044  0.4509 -0.3710
 7736SOL    HW234845   0.089   0.870   4.752  1.3758  0.5127  0.3330
 7737SOL     OW34846   1.556   1.678   8.012 -0.3546  0.2647  0.5371
 7737SOL    HW134847   1.508   1.607   8.055 -1.0643  0.8428  0.7160
 7737SOL    HW234848   1.630   1.671   8.071  0.6088  0.3659 -0.6663
 7738SOL     OW34849   0.166   4.232   7.218  0.1239 -0.0350  0.2041
 7738SOL    HW134850   0.184   4.139   7.235  0.4660 -0.6835 -3.7026
 7738SOL    HW234851   0.109   4.246   7.294  0.1141 -2.3905  0.6340
 7739SOL     OW34852   2.478   3.054   9.413 -0.2667 -0.6486 -0.1632
 7739SOL    HW134853   2.468   3.044   9.508 -0.8954  1.8647  0.0502
 7739SOL    HW234854   2.524   2.974   9.389 -0.5879 -1.2560  1.2311
 7740SOL     OW34855   3.793   2.344   3.989 -0.0539 -0.1920 -0.6158
 7740SOL    HW134856   3.732   2.345   3.916  0.6690 -1.1691 -1.2478
 7740SOL    HW234857   3.879   2.333   3.947  0.5452 -0.0415  0.5781
 7741SOL     OW34858   0.786   2.917  12.614  0.5468  0.3082 -0.4480
 7741SOL    HW134859   0.825   2.955  12.535  0.8479 -0.1258 -0.5100
 7741SOL    HW234860   0.775   2.829  12.578  2.5639 -0.3581  0.5537
 7742SOL     OW34861   0.841   4.227   3.598  0.0773  0.2613  1.1110
 7742SOL    HW134862   0.867   4.297   3.537  0.0198 -0.3684  0.3686
 7742SOL    HW234863   0.838   4.274   3.681 -1.3001  2.2875 -0.0804
 7743SOL     OW34864   3.986   2.635  13.184  0.3467 -0.2737 -0.1465
 7743SOL    HW134865   4.023   2.556  13.144 -1.8073 -0.4451 -1.7751
 7743SOL    HW234866   4.006   2.614  13.276  1.9274 -1.2836 -0.7214
 7744SOL     OW34867   3.506   1.329  17.351  0.2079 -0.4162 -0.1517
 7744SOL    HW134868   3.537   1.259  17.408 -0.7480 -0.9266 -0.2583
 7744SOL    HW234869   3.423   1.353  17.393  0.3512  1.9049 -1.1890
 7745SOL     OW34870   3.806   0.196  17.012 -0.1454 -0.3268 -0.6731
 7745SOL    HW134871   3.804   0.215  16.918 -1.3052  1.9710 -0.1690
 7745SOL    HW234872   3.897   0.223  17.029 -0.1701  0.8635 -2.4630
 7746SOL     OW34873   4.588   3.465  15.843 -0.3604  1.1026 -0.4244
 7746SOL    HW134874   4.546   3.395  15.793  0.6681  0.8771 -0.9716
 7746SOL    HW234875   4.678   3.460  15.809  0.0697 -2.7197  1.2728
 7747SOL     OW34876   4.665   0.089   5.497 -0.2049 -0.0620 -0.0378
 7747SOL    HW134877   4.722   0.131   5.433  1.7187 -0.3635  1.4722
 7747SOL    HW234878   4.636   0.012   5.449 -0.5108  1.0708 -1.6824
 7748SOL     OW34879   0.494   1.790   0.287  0.3131  0.0715 -0.2010
 7748SOL    HW134880   0.481   1.799   0.193 -1.9121  0.1311  0.1253
 7748SOL    HW234881   0.581   1.828   0.294  0.7471 -0.5809 -2.0234
 7749SOL     OW34882   2.391   0.054   3.055  0.1934  0.0853  0.1827
 7749SOL    HW134883   2.336   0.117   3.102 -0.2142 -0.0488 -0.1216
 7749SOL    HW234884   2.478   0.089   3.074  0.5224  0.3987 -1.8377
 7750SOL     OW34885   1.365   0.753   9.088 -0.5081 -0.0550  0.2595
 7750SOL    HW134886   1.371   0.700   9.009  1.5304  1.0367 -0.3112
 7750SOL    HW234887   1.452   0.790   9.096 -0.0727 -0.8869 -0.6896
 7751SOL     OW34888   3.776   2.476   2.937  0.0240 -0.6134 -0.0371
 7751SOL    HW134889   3.747   2.486   3.028  1.1500  1.7476  0.0691
 7751SOL    HW234890   3.764   2.381   2.933 -0.4651 -0.4440 -2.5457
 7752SOL     OW34891   0.570   2.810   8.550 -0.1614 -0.3619 -0.1717
 7752SOL    HW134892   0.486   2.834   8.590  0.2988  0.7693  0.0885
 7752SOL    HW234893   0.611   2.753   8.615  1.5402  0.8577 -0.2108
 7753SOL     OW34894   0.638   1.505   9.058 -0.2776  0.0176  0.7445
 7753SOL    HW134895   0.663   1.532   9.146  0.0696  1.4459  0.2177
 7753SOL    HW234896   0.687   1.426   9.037  1.5042  1.8464 -2.0435
 7754SOL     OW34897   3.718   2.559   9.598  0.3916 -0.2636  0.0356
 7754SOL    HW134898   3.801   2.513   9.581  0.1193 -0.6806 -0.1546
 7754SOL    HW234899   3.673   2.490   9.647 -1.2679  0.0526 -1.0504
 7755SOL     OW34900   3.222   1.361   7.587  0.2566  0.2129 -0.6771
 7755SOL    HW134901   3.216   1.361   7.683 -0.5297  0.2671 -0.7283
 7755SOL    HW234902   3.164   1.432   7.562  0.8448  0.6800 -0.7127
 7756SOL     OW34903   0.250   3.309   1.726  0.0069 -0.2357 -0.2506
 7756SOL    HW134904   0.246   3.215   1.709 -1.3398 -0.1680 -0.3248
 7756SOL    HW234905   0.307   3.343   1.656 -1.9033  2.2749 -0.5589
 7757SOL     OW34906   0.992   3.868   2.633 -0.5618  0.2616 -0.5799
 7757SOL    HW134907   1.062   3.932   2.618  0.0735 -0.5547 -1.0505
 7757SOL    HW234908   0.915   3.925   2.623 -1.9674 -1.8380 -1.8379
 7758SOL     OW34909   4.647   1.085  12.468  0.1234  0.2507  0.0482
 7758SOL    HW134910   4.722   1.045  12.513  0.4734 -0.1064 -0.8499
 7758SOL    HW234911   4.567   1.052  12.509  0.8276 -4.0136 -2.0871
 7759SOL     OW34912   1.216   1.965   6.108 -0.2498 -0.6252 -0.0144
 7759SOL    HW134913   1.232   1.970   6.014 -2.4797 -0.6316 -0.3984
 7759SOL    HW234914   1.130   1.923   6.098 -0.8093  1.0288 -2.2840
 7760SOL     OW34915   0.773   4.087   3.161 -0.3443 -0.0103 -0.6652
 7760SOL    HW134916   0.749   4.089   3.253 -0.6292 -0.0485 -0.7374
 7760SOL    HW234917   0.690   4.059   3.122 -1.3234  2.6307 -0.4493
 7761SOL     OW34918   2.097   0.563   2.364 -0.0642 -0.2513 -0.0372
 7761SOL    HW134919   2.051   0.510   2.430  0.0121  0.8696  0.9059
 7761SOL    HW234920   2.061   0.532   2.281  0.3500  2.9895 -1.4109
 7762SOL     OW34921   3.108   0.302  15.561  0.0662 -0.6412 -0.7006
 7762SOL    HW134922   3.102   0.250  15.481 -0.4740 -0.1534 -0.9751
 7762SOL    HW234923   3.086   0.388  15.527 -0.9233  0.1441  1.8959
 7763SOL     OW34924   3.216   2.166   6.078 -0.1901 -0.4603 -0.6074
 7763SOL    HW134925   3.145   2.180   6.016  0.8452  0.6297 -1.5249
 7763SOL    HW234926   3.295   2.159   6.025  0.4642  0.9201  0.1994
 7764SOL     OW34927   3.821   3.381   5.045  0.2640 -0.0282  0.1219
 7764SOL    HW134928   3.904   3.388   5.092  0.9753  1.2627 -1.3135
 7764SOL    HW234929   3.855   3.336   4.968  1.3338 -0.2393  0.7202
 7765SOL     OW34930   2.359   4.564  13.438  0.1720 -0.1205 -0.0678
 7765SOL    HW134931   2.432   4.576  13.498  0.6253 -1.0066 -0.4359
 7765SOL    HW234932   2.401   4.586  13.355 -2.6099 -1.3091 -1.7892
 7766SOL     OW34933   2.921   2.035  15.682  0.6849  0.6550  0.1305
 7766SOL    HW134934   2.907   2.080  15.598  1.0637  1.6998  0.6339
 7766SOL    HW234935   2.963   2.097  15.741 -0.6162 -1.8832  3.7504
 7767SOL     OW34936   2.106   2.770   2.057 -0.1825  0.3892  0.6168
 7767SOL    HW134937   2.189   2.774   2.104  1.0385  0.0378 -1.4896
 7767SOL    HW234938   2.095   2.865   2.055  2.3912  0.7087  1.8116
 7768SOL     OW34939   3.055   4.615   4.204 -0.1800  0.6988 -0.2252
 7768SOL    HW134940   2.978   4.590   4.255 -0.6253 -0.4830 -1.5097
 7768SOL    HW234941   3.083   4.680   4.269  0.2352  0.6416 -0.3469
 7769SOL     OW34942   3.554   1.901  16.606 -0.0458 -0.3189  0.7496
 7769SOL    HW134943   3.529   1.993  16.602 -1.6605 -0.6794  2.5779
 7769SOL    HW234944   3.643   1.911  16.638  0.7203 -0.4245 -1.3365
 7770SOL     OW34945   4.661   0.215   2.210 -0.6635  1.0974 -0.2744
 7770SOL    HW134946   4.674   0.123   2.186  2.0993  1.3968  0.0783
 7770SOL    HW234947   4.698   0.216   2.299 -1.9891 -0.4696  0.3012
 7771SOL     OW34948   1.946   1.572   4.636  0.2051 -0.1459  0.5010
 7771SOL    HW134949   1.917   1.602   4.550  0.3759  3.3097  1.6319
 7771SOL    HW234950   1.892   1.493   4.634 -1.1448  0.7655  1.0008
 7772SOL     OW34951   1.347   4.321   3.444 -0.4544 -0.1816  0.1192
 7772SOL    HW134952   1.411   4.268   3.491  0.8067 -1.2217 -2.7881
 7772SOL    HW234953   1.314   4.369   3.520  0.2958  1.5026 -0.6130
 7773SOL     OW34954   3.786   0.295  14.080  1.1503 -0.2369  0.5288
 7773SOL    HW134955   3.797   0.364  14.145  1.2342 -0.6085  0.9123
 7773SOL    HW234956   3.830   0.320  13.999 -1.0619  1.3137 -0.1982
 7774SOL     OW34957   2.757   1.014   2.057 -0.0445 -0.1096  0.2308
 7774SOL    HW134958   2.836   1.063   2.034  0.8678 -0.8835  1.7638
 7774SOL    HW234959   2.757   1.026   2.152  1.1740 -0.1929  0.2289
 7775SOL     OW34960   0.711   2.288  13.187  0.5982 -0.0904 -0.1090
 7775SOL    HW134961   0.791   2.236  13.188 -0.5417 -1.8350  0.9048
 7775SOL    HW234962   0.699   2.280  13.092  0.6752 -0.6313 -0.0701
 7776SOL     OW34963   1.730   2.356   2.144  0.0828  0.8630  0.0092
 7776SOL    HW134964   1.659   2.393   2.197  0.0461 -0.6277  0.9840
 7776SOL    HW234965   1.755   2.433   2.092  0.2181 -0.1057 -1.3590
 7777SOL     OW34966   1.662   3.050  10.161  0.0766  0.2225 -0.1930
 7777SOL    HW134967   1.702   3.090  10.084  0.5197  0.9284  0.4010
 7777SOL    HW234968   1.728   3.057  10.230 -0.0648  0.4428 -0.0792
 7778SOL     OW34969   3.609   4.535   1.431  0.2851  0.2152  0.2673
 7778SOL    HW134970   3.538   4.497   1.483 -2.2659  1.6257 -2.2148
 7778SOL    HW234971   3.659   4.571   1.505 -0.0535 -1.8433  1.4921
 7779SOL     OW34972   2.174   4.503   5.026 -0.2030 -0.6944 -0.3127
 7779SOL    HW134973   2.095   4.490   5.078 -0.3731  0.5537 -0.2510
 7779SOL    HW234974   2.149   4.584   4.981  1.6672  0.3682  0.5826
 7780SOL     OW34975   4.006   3.725   9.898 -0.4830  0.1115  0.2498
 7780SOL    HW134976   3.973   3.667   9.967 -1.1169  1.1217  0.8079
 7780SOL    HW234977   3.931   3.784   9.885  0.8603  1.4350 -1.4269
 7781SOL     OW34978   1.061   2.957   4.523  0.2594 -0.6216 -0.1785
 7781SOL    HW134979   1.071   2.924   4.612 -2.0165  0.1705  0.3509
 7781SOL    HW234980   1.142   2.930   4.479  0.4418 -0.4663  0.0618
 7782SOL     OW34981   0.372   0.577  16.366 -0.5724  0.1159 -0.2701
 7782SOL    HW134982   0.409   0.606  16.449 -3.3385  0.8125  0.7311
 7782SOL    HW234983   0.295   0.523  16.386 -0.5017  0.3108  0.5012
 7783SOL     OW34984   1.552   0.365   2.280 -0.0369 -0.0333  0.3350
 7783SOL    HW134985   1.631   0.314   2.296 -0.1548  0.1183  1.3955
 7783SOL    HW234986   1.594   0.450   2.293 -0.9425  0.4424  0.1382
 7784SOL     OW34987   3.121   4.421   6.602  0.1697 -0.0990  0.2681
 7784SOL    HW134988   3.086   4.353   6.545  1.3326 -1.4928  1.2370
 7784SOL    HW234989   3.068   4.501   6.597  0.5248  0.1162 -0.1695
 7785SOL     OW34990   1.825   3.418  13.439  0.6041  0.4346  0.7420
 7785SOL    HW134991   1.893   3.483  13.422 -0.2667  0.9010 -0.9643
 7785SOL    HW234992   1.837   3.409  13.534  0.9887 -0.2316  0.6330
 7786SOL     OW34993   0.172   2.251  13.682 -0.0928  0.1762 -0.4443
 7786SOL    HW134994   0.134   2.167  13.706 -0.1059 -0.2692 -1.9792
 7786SOL    HW234995   0.133   2.260  13.595 -2.2660 -0.5281  0.4516
 7787SOL     OW34996   2.970   1.972   7.326  0.5190  0.2912  0.4253
 7787SOL    HW134997   3.009   1.991   7.240 -0.4913  0.4366 -0.0047
 7787SOL    HW234998   3.048   1.967   7.381  0.1517  0.7317  0.9796
 7788SOL     OW34999   1.841   4.380   8.640 -0.2148 -0.2094 -0.0418
 7788SOL    HW135000   1.752   4.389   8.672 -0.8803  0.7453 -2.1426
 7788SOL    HW235001   1.869   4.310   8.699  0.6599 -0.5155 -0.8122
 7789SOL     OW35002   3.978   2.628  12.599 -0.3843 -0.3494 -0.4713
 7789SOL    HW135003   3.972   2.558  12.664 -0.4763  0.6008  0.5430
 7789SOL    HW235004   4.059   2.600  12.556  0.4142  2.1198 -0.5555
 7790SOL     OW35005   0.791   1.034   1.721  0.3394  0.0076  0.3251
 7790SOL    HW135006   0.762   0.953   1.763 -0.5915 -0.5506 -1.3696
 7790SOL    HW235007   0.717   1.048   1.662 -0.6285 -0.3344  1.4623
 7791SOL     OW35008   4.158   3.105   3.179 -0.0726  0.0044 -0.1183
 7791SOL    HW135009   4.164   3.019   3.138  0.4855 -0.3570  0.7265
 7791SOL    HW235010   4.074   3.138   3.147 -0.3998  0.2910  1.0537
 7792SOL     OW35011   3.482   3.932   7.950  0.5228  0.0316  0.2843
 7792SOL    HW135012   3.393   3.928   7.915 -0.4566  3.0659  2.4306
 7792SOL    HW235013   3.471   3.893   8.037 -1.9000  1.6784  0.7315
 7793SOL     OW35014   1.249   2.195   1.112  0.0698 -0.2793  0.6399
 7793SOL    HW135015   1.228   2.170   1.202  1.2807 -0.9996  0.7209
 7793SOL    HW235016   1.203   2.279   1.106 -1.6030 -1.0837  2.1812
 7794SOL     OW35017   1.538   1.737  10.024 -0.0602 -0.5092  0.3010
 7794SOL    HW135018   1.549   1.825  10.061 -0.0279 -0.1409 -0.5871
 7794SOL    HW235019   1.479   1.759   9.952  0.9000  2.1548  0.3274
 7795SOL     OW35020   3.349   2.534   7.085  0.1658 -0.0718 -0.0234
 7795SOL    HW135021   3.425   2.494   7.127  0.4801  1.6611  1.0595
 7795SOL    HW235022   3.330   2.597   7.155 -1.0752  0.6444 -1.0007
 7796SOL     OW35023   1.894   0.851   3.084 -0.4316 -0.0387 -0.2263
 7796SOL    HW135024   1.820   0.911   3.073  2.8277  3.9683 -0.0194
 7796SOL    HW235025   1.894   0.820   2.993  1.4269  2.1737 -0.9645
 7797SOL     OW35026   3.325   3.969   8.233  0.2038 -0.9069 -0.4866
 7797SOL    HW135027   3.395   3.904   8.225 -1.2595 -2.6174  0.6707
 7797SOL    HW235028   3.364   4.026   8.300 -0.4924 -0.2529 -0.6314
 7798SOL     OW35029   2.897   4.321  10.874  0.1203 -0.1056 -0.4551
 7798SOL    HW135030   2.880   4.290  10.785  3.5798  0.2676 -1.2460
 7798SOL    HW235031   2.816   4.365  10.899  1.1585  1.5791 -0.0888
 7799SOL     OW35032   1.481   0.353   2.011  0.6063  0.8637 -0.8043
 7799SOL    HW135033   1.551   0.343   2.076 -0.4158  1.0266  0.3300
 7799SOL    HW235034   1.489   0.448   2.004 -2.0004  1.1452 -0.0567
 7800SOL     OW35035   2.036   2.104   0.689 -0.2539  0.4547 -0.4655
 7800SOL    HW135036   1.991   2.147   0.761 -0.0420 -1.7567  0.9976
 7800SOL    HW235037   1.967   2.047   0.655  1.6732 -1.5837 -1.0032
 7801SOL     OW35038   0.438   1.974  11.556 -0.0412  0.3581  0.3937
 7801SOL    HW135039   0.367   1.929  11.600 -1.2251 -1.1561 -3.0497
 7801SOL    HW235040   0.404   2.064  11.552 -3.0684 -0.8212  0.2297
 7802SOL     OW35041   0.155   0.678   7.330 -0.1426  0.4645  0.3734
 7802SOL    HW135042   0.222   0.628   7.376 -0.1231 -1.5950 -1.9271
 7802SOL    HW235043   0.171   0.648   7.241  1.3252  3.9279 -0.5382
 7803SOL     OW35044   3.195   1.199  15.210 -0.5303  0.6262 -0.2080
 7803SOL    HW135045   3.198   1.236  15.122 -0.5530 -0.1098 -0.5222
 7803SOL    HW235046   3.131   1.257  15.251  1.0082  0.4320  2.4836
 7804SOL     OW35047   2.074   3.749   4.886 -0.1862 -0.1627 -0.2366
 7804SOL    HW135048   2.027   3.727   4.967  0.8687  2.5288  1.1039
 7804SOL    HW235049   2.028   3.828   4.858 -0.8951  0.0200  1.4280
 7805SOL     OW35050   1.842   0.538  11.853  0.0741  0.2216  0.0006
 7805SOL    HW135051   1.858   0.450  11.819  2.4399  0.3446  0.8002
 7805SOL    HW235052   1.901   0.593  11.801 -0.0970  1.2637  0.9003
 7806SOL     OW35053   0.375   0.254   6.414  0.3487 -0.2537  0.3012
 7806SOL    HW135054   0.398   0.330   6.468 -0.2072  2.4406 -3.2000
 7806SOL    HW235055   0.407   0.291   6.331  0.5746 -1.2255 -0.0437
 7807SOL     OW35056   2.730   0.928  12.854 -0.2392 -0.0911  0.2140
 7807SOL    HW135057   2.762   0.868  12.786  2.1381 -0.2268  1.4337
 7807SOL    HW235058   2.740   0.877  12.934  0.9595 -2.2950 -1.3485
 7808SOL     OW35059   1.547   0.478  14.975 -0.1855  0.2708  0.1182
 7808SOL    HW135060   1.570   0.479  14.882  1.1003 -1.1507  0.4301
 7808SOL    HW235061   1.629   0.447  15.012 -0.5636  0.2679  0.9423
 7809SOL     OW35062   2.202   4.395   9.250 -0.4445 -0.8726 -0.2992
 7809SOL    HW135063   2.291   4.366   9.272  0.0516  0.3990 -0.6241
 7809SOL    HW235064   2.202   4.475   9.302  1.0515 -0.9739 -0.1312
 7810SOL     OW35065   2.117   1.600   1.369  0.6207  0.1439 -0.0269
 7810SOL    HW135066   2.140   1.558   1.285 -0.7975 -0.9150  0.1159
 7810SOL    HW235067   2.137   1.693   1.358  0.2344  0.1503 -0.7077
 7811SOL     OW35068   0.913   0.181   6.149 -0.3244  0.2704  0.1034
 7811SOL    HW135069   0.855   0.241   6.196 -1.3932  0.3056 -1.2650
 7811SOL    HW235070   0.981   0.249   6.142 -0.2282  0.2399  0.7712
 7812SOL     OW35071   2.858   3.854   5.918  0.5434  0.2601 -0.0068
 7812SOL    HW135072   2.949   3.838   5.942  1.2185 -2.0117 -4.1015
 7812SOL    HW235073   2.869   3.862   5.823  1.0420  1.4913  0.1653
 7813SOL     OW35074   1.481   0.110   0.194  0.4091 -0.5775 -0.2635
 7813SOL    HW135075   1.524   0.088   0.276 -0.0270 -0.0180  0.1195
 7813SOL    HW235076   1.470   0.205   0.206 -0.6648 -0.4907 -1.8552
 7814SOL     OW35077   1.549   4.188   6.100  0.3076 -0.6079  0.0467
 7814SOL    HW135078   1.528   4.144   6.182  1.3191 -0.2541  0.4992
 7814SOL    HW235079   1.614   4.122   6.076  2.5403  2.3129 -1.8734
 7815SOL     OW35080   0.010   2.029   8.214 -0.3208 -0.3956  0.2408
 7815SOL    HW135081   4.730   1.958   8.275 -0.4265 -0.7558 -0.2039
 7815SOL    HW235082   0.098   2.002   8.186  0.2005  0.6203  0.9087
 7816SOL     OW35083   2.349   0.399  17.600  0.1141 -0.1291  0.2336
 7816SOL    HW135084   2.369   0.492  17.595  0.2179 -0.0917  1.3839
 7816SOL    HW235085   2.363   0.390  17.694  0.2573  0.4889  0.2696
 7817SOL     OW35086   1.925   2.175  12.048  0.0009  0.2562  0.6591
 7817SOL    HW135087   1.909   2.263  12.082 -2.4189 -0.4197  1.2763
 7817SOL    HW235088   2.010   2.195  12.010  0.9425 -2.4288  1.3874
 7818SOL     OW35089   1.657   0.740   4.767 -0.2894 -0.2137  0.4682
 7818SOL    HW135090   1.674   0.654   4.807  1.2123  0.0883  0.4792
 7818SOL    HW235091   1.747   0.768   4.753 -0.7419 -0.5523 -2.9404
 7819SOL     OW35092   1.839   1.949   1.980 -0.3672 -0.2495  0.2302
 7819SOL    HW135093   1.863   1.865   1.939  0.7926 -0.8938  2.1942
 7819SOL    HW235094   1.914   2.007   1.963 -1.9605  1.5105 -0.7764
 7820SOL     OW35095   4.544   3.629   1.040 -0.4153  0.1327  0.1358
 7820SOL    HW135096   4.472   3.566   1.028 -1.3623  1.1204  0.6406
 7820SOL    HW235097   4.611   3.580   1.088  0.2717 -0.3676 -1.3382
 7821SOL     OW35098   1.651   0.344  10.801  0.0395 -0.1654  0.3802
 7821SOL    HW135099   1.735   0.388  10.814  0.4207 -0.6779 -0.3775
 7821SOL    HW235100   1.593   0.417  10.779 -0.8566 -1.2826 -0.9470
 7822SOL     OW35101   4.737   3.605  15.547 -0.7838  0.0217  0.1960
 7822SOL    HW135102   0.076   3.578  15.598 -0.9364 -0.7848 -0.0087
 7822SOL    HW235103   4.667   3.561  15.595 -0.4630 -2.9354 -2.0661
 7823SOL     OW35104   4.634   1.125   3.663  0.2272 -0.1731  0.4410
 7823SOL    HW135105   4.714   1.135   3.611  0.3250 -0.7692  0.4798
 7823SOL    HW235106   4.576   1.123   3.586  1.8010 -0.3169 -0.7233
 7824SOL     OW35107   2.804   3.169   7.462 -0.1349  0.0370 -0.4274
 7824SOL    HW135108   2.766   3.089   7.424  0.4972 -0.5250  0.1249
 7824SOL    HW235109   2.757   3.171   7.545  2.4530  1.6891  0.9913
 7825SOL     OW35110   4.180   4.113   2.774  0.1918  0.8670  0.4667
 7825SOL    HW135111   4.134   4.142   2.853 -0.4023 -2.2892  1.2714
 7825SOL    HW235112   4.250   4.178   2.769  0.1030  0.8103 -1.5628
 7826SOL     OW35113   4.232   2.904   9.430  0.4669  0.3362  0.4897
 7826SOL    HW135114   4.154   2.948   9.462  0.5314  0.0406  1.0698
 7826SOL    HW235115   4.284   2.971   9.386  0.9244  0.1749  0.7718
 7827SOL     OW35116   2.201   2.063  14.411  0.0534  0.1837 -0.1856
 7827SOL    HW135117   2.237   2.124  14.475 -1.7340  0.9827  0.0711
 7827SOL    HW235118   2.163   2.120  14.344 -0.6531  3.5032  3.0549
 7828SOL     OW35119   3.420   0.443  17.337  0.3159  0.0716  0.0018
 7828SOL    HW135120   3.436   0.532  17.305  0.5839  0.1252  0.2800
 7828SOL    HW235121   3.399   0.468  17.427  0.6411 -1.7576  0.5794
 7829SOL     OW35122   1.435   0.572  15.240  0.1615  0.3235  0.4935
 7829SOL    HW135123   1.479   0.538  15.162  0.6880  1.1629  0.4226
 7829SOL    HW235124   1.369   0.623  15.191  1.4248  1.4031 -0.0858
 7830SOL     OW35125   1.171   3.894   5.560  0.3291  0.3221 -0.5142
 7830SOL    HW135126   1.194   3.930   5.475  1.2947  0.3019 -0.2731
 7830SOL    HW235127   1.100   3.832   5.544  1.7259 -0.7826 -2.4059
 7831SOL     OW35128   1.595   0.017   7.407  0.0032  0.1956 -0.2786
 7831SOL    HW135129   1.510   0.015   7.451  2.2334  1.0084  4.1189
 7831SOL    HW235130   1.621   0.106   7.431 -0.2586  0.1961  0.0057
 7832SOL     OW35131   4.459   2.430   7.741 -0.1499 -0.5009  0.3448
 7832SOL    HW135132   4.498   2.508   7.781  1.6320 -0.0230 -2.2843
 7832SOL    HW235133   4.526   2.417   7.674 -0.2765 -0.7283  0.2610
 7833SOL     OW35134   4.395   0.241  11.137  0.3852 -0.8118  0.8202
 7833SOL    HW135135   4.362   0.169  11.083 -0.4334  0.9989 -1.0845
 7833SOL    HW235136   4.308   0.264  11.168  0.5373  0.3509  0.3986
 7834SOL     OW35137   0.368   3.390  11.829 -0.2306  0.0594 -0.0578
 7834SOL    HW135138   0.367   3.363  11.921  0.2745 -0.9647 -0.3562
 7834SOL    HW235139   0.432   3.335  11.786  4.3650  3.4252  2.4695
 7835SOL     OW35140   2.474   2.291   5.237 -0.1143  0.2345 -0.1608
 7835SOL    HW135141   2.485   2.199   5.261  1.7804  0.0074 -1.9114
 7835SOL    HW235142   2.553   2.332   5.270  1.2918 -0.9658 -2.0838
 7836SOL     OW35143   2.087   2.235   1.408 -0.0062  0.0702  0.4032
 7836SOL    HW135144   2.100   2.180   1.332  1.4553  1.5693 -0.4258
 7836SOL    HW235145   2.045   2.172   1.467 -0.9129 -0.4014 -0.7559
 7837SOL     OW35146   4.042   1.996   8.347 -0.1960  0.9803  0.0901
 7837SOL    HW135147   3.998   1.912   8.363  0.7269 -0.0809 -2.9660
 7837SOL    HW235148   4.064   2.024   8.436  0.0367 -0.4985  0.4946
 7838SOL     OW35149   3.345   3.196   1.832  0.3729 -0.2842 -0.3806
 7838SOL    HW135150   3.289   3.148   1.894  1.0007 -1.6005 -0.8205
 7838SOL    HW235151   3.282   3.235   1.771  1.2325  1.9372  0.1702
 7839SOL     OW35152   3.316   2.347   4.653 -0.0490 -0.0146  0.8389
 7839SOL    HW135153   3.236   2.399   4.662 -0.0949  0.4678 -2.2681
 7839SOL    HW235154   3.313   2.305   4.739 -1.2955 -1.2376  0.1957
 7840SOL     OW35155   0.639   1.234   2.199 -0.0485  0.7288  0.0453
 7840SOL    HW135156   0.685   1.230   2.116 -0.5072  0.0256 -0.1704
 7840SOL    HW235157   0.552   1.208   2.169  1.1687 -2.3913 -0.7183
 7841SOL     OW35158   3.892   1.194   4.821  0.0834  0.1156 -0.7615
 7841SOL    HW135159   3.896   1.259   4.891 -0.1376  0.1587 -0.7888
 7841SOL    HW235160   3.928   1.243   4.747 -1.3315  0.7577 -1.0228
 7842SOL     OW35161   3.041   0.311   0.763 -0.9118  0.0213  0.6328
 7842SOL    HW135162   3.128   0.275   0.745  0.2090  2.0652  2.0224
 7842SOL    HW235163   2.975   0.269   0.707 -1.4105  3.3558 -1.2558
 7843SOL     OW35164   3.592   2.410   7.113 -0.2271  0.6358  0.3281
 7843SOL    HW135165   3.560   2.324   7.085  2.7963 -0.7161  0.9816
 7843SOL    HW235166   3.649   2.429   7.038 -1.3528  1.4968 -0.3080
 7844SOL     OW35167   0.075   0.656  16.990  0.2562 -0.1589  0.3007
 7844SOL    HW135168   0.157   0.666  17.038 -0.8062  0.5606  1.9721
 7844SOL    HW235169   0.041   0.744  16.976 -0.1339 -0.6417 -1.7769
 7845SOL     OW35170   2.750   1.294  16.347 -0.4030 -0.5596  0.3561
 7845SOL    HW135171   2.712   1.270  16.263 -1.4997  0.4467  0.5612
 7845SOL    HW235172   2.734   1.387  16.359 -0.2211 -0.5792  0.7579
 7846SOL     OW35173   3.290   3.654   3.339 -0.1261  0.0776 -1.0256
 7846SOL    HW135174   3.367   3.599   3.327  0.3038  0.6202 -0.7747
 7846SOL    HW235175   3.244   3.601   3.404  0.4622  2.7281  1.5795
 7847SOL     OW35176   4.312   3.170   6.944  0.5388  0.0235  0.4514
 7847SOL    HW135177   4.228   3.134   6.972  1.3690 -3.2460 -1.3187
 7847SOL    HW235178   4.317   3.249   6.998  2.0858 -0.8662  1.5739
 7848SOL     OW35179   1.888   3.393  16.698  0.4816  0.4138  0.6904
 7848SOL    HW135180   1.839   3.353  16.626 -0.0294  2.6457 -0.1913
 7848SOL    HW235181   1.873   3.333  16.772  2.0437 -1.0356 -0.1811
 7849SOL     OW35182   0.462   3.560   3.392  0.0342 -0.1406 -0.0516
 7849SOL    HW135183   0.434   3.469   3.404 -0.4656 -0.1218 -1.0085
 7849SOL    HW235184   0.527   3.561   3.461 -0.0210 -1.4570  0.0218
 7850SOL     OW35185   0.763   2.295   6.696  0.1158  0.7312 -0.0827
 7850SOL    HW135186   0.766   2.376   6.747  1.5401 -0.1246  1.2125
 7850SOL    HW235187   0.713   2.242   6.757 -0.9070  0.8008 -0.8718
 7851SOL     OW35188   2.533   0.606  16.673  0.0216 -0.8352  0.5424
 7851SOL    HW135189   2.593   0.546  16.719 -0.0600 -0.8908  0.5776
 7851SOL    HW235190   2.537   0.679  16.735 -0.3434 -0.4252  0.0851
 7852SOL     OW35191   1.604   3.926  12.756  0.0967 -0.3640  0.5442
 7852SOL    HW135192   1.532   3.871  12.787 -0.6235  1.8367  2.7935
 7852SOL    HW235193   1.584   3.905  12.665  1.4494 -0.9831  0.3853
 7853SOL     OW35194   4.282   3.319   7.219 -0.0549  0.2930  0.0524
 7853SOL    HW135195   4.301   3.403   7.177  2.3352  0.1986  0.9714
 7853SOL    HW235196   4.368   3.305   7.258 -0.0669 -0.7808 -0.2947
 7854SOL     OW35197   1.596   1.945   6.926 -0.3983 -0.0831  0.1533
 7854SOL    HW135198   1.615   1.891   7.002  0.7853 -1.2885 -0.9953
 7854SOL    HW235199   1.646   2.025   6.946 -0.1361 -0.3287  0.4686
 7855SOL     OW35200   3.433   2.321  14.447  0.1621 -0.0765 -0.0167
 7855SOL    HW135201   3.485   2.400  14.429  0.4644 -0.7596 -2.1368
 7855SOL    HW235202   3.493   2.256  14.483  0.0060  0.6350  1.5403
 7856SOL     OW35203   1.096   0.833  12.138  0.2159 -0.4612 -0.1339
 7856SOL    HW135204   1.005   0.862  12.140  0.6171  0.7664  0.2660
 7856SOL    HW235205   1.094   0.754  12.192 -1.0527  0.2827  0.8951
 7857SOL     OW35206   1.006   1.443   7.625 -0.1403  0.3250  0.0602
 7857SOL    HW135207   1.054   1.373   7.668  0.2570 -0.6595 -1.9928
 7857SOL    HW235208   0.994   1.503   7.698 -1.0533  0.8724 -0.5289
 7858SOL     OW35209   2.067   3.505  13.400  0.6263  0.0007 -0.0807
 7858SOL    HW135210   2.059   3.596  13.371 -2.6962 -0.4054 -0.4208
 7858SOL    HW235211   2.162   3.511  13.390  0.8805  2.1477  3.6773
 7859SOL     OW35212   3.773   0.582  16.655 -0.5276  0.3379  0.3308
 7859SOL    HW135213   3.690   0.572  16.701 -0.5080 -0.4762  0.2037
 7859SOL    HW235214   3.755   0.669  16.621  1.1474 -0.0578 -1.5962
 7860SOL     OW35215   1.344   2.581  15.604 -0.1420 -0.2997 -0.8328
 7860SOL    HW135216   1.345   2.675  15.586 -0.7456 -0.3402 -1.0978
 7860SOL    HW235217   1.271   2.556  15.547  0.6293  0.9508 -2.3771
 7861SOL     OW35218   4.347   3.115   4.306  0.2780 -0.6107  0.3646
 7861SOL    HW135219   4.421   3.082   4.255  0.6368  0.0986  0.4300
 7861SOL    HW235220   4.388   3.114   4.392  0.2582  0.9177  0.3826
 7862SOL     OW35221   4.100   0.447  14.527 -0.3824  0.2606 -0.1633
 7862SOL    HW135222   4.056   0.368  14.558  2.0251 -0.6360  0.9401
 7862SOL    HW235223   4.190   0.423  14.549 -0.4576 -1.1043 -1.3714
 7863SOL     OW35224   3.247   0.930   6.677  0.5356  0.1369  0.0324
 7863SOL    HW135225   3.200   0.862   6.724 -1.2142  0.1202 -1.7204
 7863SOL    HW235226   3.333   0.928   6.720  0.1001  0.7731  0.9248
 7864SOL     OW35227   1.442   3.785   2.462  0.1948 -0.0341  0.3776
 7864SOL    HW135228   1.515   3.844   2.483  1.0476 -0.4390 -1.3977
 7864SOL    HW235229   1.366   3.835   2.491  0.3679  0.0099  0.7484
 7865SOL     OW35230   2.083   3.537   6.773  0.3774  0.3756 -0.2329
 7865SOL    HW135231   2.093   3.527   6.867 -0.3259 -1.8450 -0.3779
 7865SOL    HW235232   2.035   3.459   6.742 -0.8141 -0.2288  3.0704
 7866SOL     OW35233   3.442   2.992   9.798  0.2466 -0.2384  0.6821
 7866SOL    HW135234   3.371   3.056   9.804  0.3728 -0.1844  1.6118
 7866SOL    HW235235   3.514   3.038   9.754 -1.0449  0.9297 -0.1970
 7867SOL     OW35236   4.699   1.850   3.070 -0.0458 -0.3746 -0.2207
 7867SOL    HW135237   4.720   1.846   2.977 -2.5842 -0.0520 -0.7984
 7867SOL    HW235238   0.011   1.922   3.110 -0.8474  0.4531 -0.7305
 7868SOL     OW35239   2.918   3.427   3.531  0.0909 -0.2280 -0.0889
 7868SOL    HW135240   2.987   3.492   3.547 -1.0196  0.4023  2.0873
 7868SOL    HW235241   2.958   3.390   3.452  0.3503  1.8461 -0.9181
 7869SOL     OW35242   2.505   3.455   0.120  0.2384  0.0450  0.3288
 7869SOL    HW135243   2.566   3.465   0.047  0.3053 -0.2745  0.3410
 7869SOL    HW235244   2.564   3.402   0.174 -0.2810 -1.3345 -0.4612
 7870SOL     OW35245   3.162   2.921   3.052 -0.1692  0.1302  0.0362
 7870SOL    HW135246   3.080   2.918   3.004 -0.8793  2.2776  1.1148
 7870SOL    HW235247   3.141   2.867   3.128 -1.6542 -0.0942 -0.5504
 7871SOL     OW35248   1.047   3.962   8.452  0.2586  0.1143  0.2938
 7871SOL    HW135249   1.141   3.948   8.439  0.2741  0.0873  0.4364
 7871SOL    HW235250   1.005   3.880   8.479  0.3249 -0.5865 -1.7501
 7872SOL     OW35251   1.956   3.147   4.676  0.1294  0.4514  0.3782
 7872SOL    HW135252   2.031   3.172   4.623 -0.7790  1.8154 -0.2741
 7872SOL    HW235253   1.954   3.213   4.745  0.2636  3.1352 -2.1828
 7873SOL     OW35254   0.176   3.715   9.449 -0.2789 -0.5515  0.1951
 7873SOL    HW135255   0.114   3.710   9.521 -0.0920  0.9906  0.4605
 7873SOL    HW235256   0.258   3.726   9.496  0.4455 -0.0785 -1.1758
 7874SOL     OW35257   3.363   3.950   7.223  0.5166  0.0812 -0.3626
 7874SOL    HW135258   3.414   3.884   7.269  1.2600  2.0587  1.6383
 7874SOL    HW235259   3.282   3.966   7.273  0.1720 -0.0926 -0.8602
 7875SOL     OW35260   4.155   1.669  11.651 -0.0643 -0.1485 -0.1996
 7875SOL    HW135261   4.133   1.740  11.590  1.5393 -0.0120 -0.6256
 7875SOL    HW235262   4.174   1.719  11.730 -0.0167 -0.9239  0.2783
 7876SOL     OW35263   4.239   3.696   5.178  0.2036 -0.2485  0.0001
 7876SOL    HW135264   4.327   3.687   5.215 -0.5518  0.1689  1.9060
 7876SOL    HW235265   4.211   3.771   5.231 -4.0074 -0.5014 -1.8956
 7877SOL     OW35266   4.542   2.035   2.124  0.3322  0.1922  0.2154
 7877SOL    HW135267   4.574   2.044   2.213  0.1101 -3.2070  0.6372
 7877SOL    HW235268   4.619   2.067   2.077 -0.6261  1.0513 -0.7857
 7878SOL     OW35269   1.632   2.142  17.484 -0.6032  0.2603  0.7529
 7878SOL    HW135270   1.699   2.197  17.526 -1.7756  2.8572 -0.7488
 7878SOL    HW235271   1.564   2.149  17.551 -0.3022  0.9164  1.0036
 7879SOL     OW35272   1.200   1.453   4.187 -0.3544 -0.1707 -0.1472
 7879SOL    HW135273   1.225   1.462   4.278  1.8952 -1.2718 -0.6603
 7879SOL    HW235274   1.163   1.541   4.173  0.8089  0.3760  0.1823
 7880SOL     OW35275   2.842   0.821   4.114 -0.1815 -1.0711 -1.0701
 7880SOL    HW135276   2.932   0.787   4.112 -0.3599 -1.6516  0.1877
 7880SOL    HW235277   2.829   0.813   4.020  1.0833  0.1343 -1.3446
 7881SOL     OW35278   1.560   3.690  12.395 -0.0329 -0.1866  0.1500
 7881SOL    HW135279   1.559   3.624  12.464  0.6938 -1.5564 -1.1450
 7881SOL    HW235280   1.488   3.654  12.343  0.3820  0.7259 -1.0456
 7882SOL     OW35281   1.298   2.220   7.000  0.1269 -0.1690  0.1120
 7882SOL    HW135282   1.208   2.225   6.969  0.6005 -0.6972 -1.3176
 7882SOL    HW235283   1.294   2.213   7.096  0.6156  1.2878  0.2397
 7883SOL     OW35284   3.751   4.459   9.615  0.8805  0.4771  0.2014
 7883SOL    HW135285   3.839   4.431   9.590  1.1453  0.6294  0.9466
 7883SOL    HW235286   3.710   4.402   9.551 -0.0912  0.8498  0.4901
 7884SOL     OW35287   2.297   1.741   3.578 -0.2070 -0.5511 -0.5586
 7884SOL    HW135288   2.216   1.735   3.630  1.3925 -0.1077  1.9817
 7884SOL    HW235289   2.346   1.815   3.612 -0.0533 -0.8930 -0.0292
 7885SOL     OW35290   3.685   1.103   4.516  0.3050  0.2194 -0.2777
 7885SOL    HW135291   3.646   1.185   4.547 -1.7924 -0.2121 -1.7751
 7885SOL    HW235292   3.604   1.057   4.494  0.8822 -2.2780  2.7834
 7886SOL     OW35293   4.290   4.391   8.080 -0.4712 -0.1492 -0.0799
 7886SOL    HW135294   4.385   4.397   8.093 -0.2491 -2.1358 -0.6784
 7886SOL    HW235295   4.290   4.361   7.989 -1.7393  0.9248 -0.4232
 7887SOL     OW35296   3.099   1.138   1.563 -0.4055  0.1677 -0.9425
 7887SOL    HW135297   3.167   1.090   1.611 -2.1758 -2.1842 -0.7742
 7887SOL    HW235298   3.038   1.071   1.532 -3.1298  1.5776  1.3540
 7888SOL     OW35299   1.953   2.410   2.275  0.2297 -0.0729  0.1750
 7888SOL    HW135300   1.953   2.333   2.332  3.3909 -0.0227  0.2193
 7888SOL    HW235301   1.871   2.398   2.226  0.8605 -0.0516 -0.8845
 7889SOL     OW35302   2.256   1.391   4.047 -0.0709  1.0864  0.6078
 7889SOL    HW135303   2.162   1.387   4.029  0.1085 -0.5142  0.0066
 7889SOL    HW235304   2.255   1.380   4.143  1.1725 -0.2679  0.4699
 7890SOL     OW35305   1.230   1.773   6.346  0.3153  0.5812 -0.0014
 7890SOL    HW135306   1.295   1.709   6.317 -0.0625  0.0858  0.2247
 7890SOL    HW235307   1.213   1.824   6.268 -1.7693 -0.1165 -0.0104
 7891SOL     OW35308   4.439   0.763   9.131 -0.3949  0.0031 -0.3828
 7891SOL    HW135309   4.391   0.697   9.079  1.0052 -1.3254  0.0096
 7891SOL    HW235310   4.467   0.823   9.062  0.0908  0.5072  0.2626
 7892SOL     OW35311   2.059   1.627   3.878 -0.8385 -0.0924  0.4620
 7892SOL    HW135312   2.049   1.627   3.782  0.6829 -1.1392  0.2884
 7892SOL    HW235313   2.150   1.600   3.893 -0.0528  2.2232 -0.0876
 7893SOL     OW35314   4.713   0.745  17.412 -0.0200 -0.1506  0.3517
 7893SOL    HW135315   4.657   0.816  17.444  0.8407 -0.0309  1.5786
 7893SOL    HW235316   0.051   0.796  17.381  0.8539 -0.7316  1.5216
 7894SOL     OW35317   2.297   3.054   6.378  0.6291 -0.3504  0.0351
 7894SOL    HW135318   2.233   3.120   6.402  2.8921  1.7262  0.2961
 7894SOL    HW235319   2.288   3.041   6.284  2.0256  0.4711 -0.2103
 7895SOL     OW35320   2.330   2.373   1.729 -0.0911  0.3769 -0.6774
 7895SOL    HW135321   2.327   2.296   1.786  0.7416  1.0313  0.2399
 7895SOL    HW235322   2.244   2.414   1.736  0.1692  0.8565 -0.3655
 7896SOL     OW35323   1.106   4.559   5.074  0.2972  0.4684 -0.1737
 7896SOL    HW135324   1.037   4.604   5.121  1.0707  2.5796 -1.0409
 7896SOL    HW235325   1.163   4.532   5.146  0.5567  1.0562 -0.1622
 7897SOL     OW35326   4.523   0.462  13.130  0.4373  0.0309  0.7080
 7897SOL    HW135327   4.453   0.447  13.067  1.0674  1.0260 -0.2437
 7897SOL    HW235328   4.563   0.375  13.131  2.0008  0.7685  2.6380
 7898SOL     OW35329   0.658   0.540   4.372  0.2354  0.2082  0.2325
 7898SOL    HW135330   0.646   0.579   4.459 -1.2897  0.1495  0.0536
 7898SOL    HW235331   0.679   0.451   4.401 -5.7484 -1.4863 -0.6768
 7899SOL     OW35332   0.493   3.749   7.081  0.3582  0.0916 -0.6755
 7899SOL    HW135333   0.588   3.750   7.094 -0.2720  2.6880  3.6015
 7899SOL    HW235334   0.519   3.712   6.996 -3.6576  1.0067 -2.3394
 7900SOL     OW35335   1.930   4.110   3.346 -0.3727  0.0292  0.2702
 7900SOL    HW135336   1.974   4.074   3.423 -1.5842  0.6600  1.2537
 7900SOL    HW235337   1.888   4.185   3.386 -0.1463 -0.0874  0.7199
 7901SOL     OW35338   2.336   4.687   3.391  0.3328  0.7318  0.1783
 7901SOL    HW135339   2.406   4.731   3.440  0.3235  1.8475 -0.8153
 7901SOL    HW235340   2.302   4.624   3.454 -1.2534  3.5241  2.1004
 7902SOL     OW35341   4.135   4.464   7.099  0.5062  0.1458 -0.1787
 7902SOL    HW135342   4.209   4.458   7.159 -1.0347 -0.9649  1.5882
 7902SOL    HW235343   4.149   4.553   7.066  1.0000 -0.8587 -2.7200
 7903SOL     OW35344   3.558   3.476   2.117 -0.2947  0.4726  0.6069
 7903SOL    HW135345   3.605   3.422   2.180 -0.3691 -1.8994 -1.3548
 7903SOL    HW235346   3.620   3.547   2.103  1.7250 -1.3465  0.3265
 7904SOL     OW35347   3.485   0.049   4.193  0.1331  0.1879 -0.0428
 7904SOL    HW135348   3.411   0.108   4.209  0.9998  0.7802  1.7821
 7904SOL    HW235349   3.482   0.015   4.283  2.0207  0.3970  0.1042
 7905SOL     OW35350   1.954   0.917   0.047 -0.2701  0.4578  0.2967
 7905SOL    HW135351   1.891   0.847   0.031 -0.0947  0.0339  1.4121
 7905SOL    HW235352   1.975   0.928  17.700 -0.2984 -0.3107  0.1942
 7906SOL     OW35353   1.777   1.900  14.646 -0.1682 -0.2312 -0.3699
 7906SOL    HW135354   1.700   1.845  14.662 -1.0156  0.6793 -1.3661
 7906SOL    HW235355   1.762   1.970  14.709 -1.1467 -0.5178 -0.2812
 7907SOL     OW35356   4.431   3.464   3.497 -0.4545  0.1316  0.0747
 7907SOL    HW135357   4.515   3.451   3.453 -2.1541 -4.2414 -1.8656
 7907SOL    HW235358   4.446   3.411   3.575  1.9129  0.9519  0.1531
 7908SOL     OW35359   3.492   3.810   6.617 -0.2429  0.0024 -0.7789
 7908SOL    HW135360   3.479   3.823   6.711  1.2160 -0.1003 -0.5643
 7908SOL    HW235361   3.502   3.901   6.588  1.2451  0.7904  2.1928
 7909SOL     OW35362   1.998   2.447   5.692 -0.0694 -0.5221 -0.0562
 7909SOL    HW135363   1.909   2.416   5.710  0.1581  0.0378  2.0280
 7909SOL    HW235364   2.041   2.364   5.672  0.8550 -0.1635  0.4259
 7910SOL     OW35365   3.541   4.423   4.938  0.0481  0.0457  0.3464
 7910SOL    HW135366   3.637   4.420   4.936  0.1181  2.4607  0.0150
 7910SOL    HW235367   3.524   4.444   4.846 -0.0490 -2.0723 -0.1132
 7911SOL     OW35368   1.596   3.506   1.917  0.1835 -0.5171 -0.2572
 7911SOL    HW135369   1.502   3.506   1.897  0.0468  1.0860  0.4088
 7911SOL    HW235370   1.613   3.599   1.930 -1.8719 -0.1234 -0.2818
 7912SOL     OW35371   0.595   1.872  12.916  0.0208  0.4649  0.2367
 7912SOL    HW135372   0.513   1.854  12.869  0.4138  1.2060 -0.7461
 7912SOL    HW235373   0.602   1.785  12.955 -1.4445 -0.3025 -1.1700
 7913SOL     OW35374   0.483   4.236   8.264  0.4228 -0.3473 -0.5200
 7913SOL    HW135375   0.557   4.279   8.220 -0.7293 -0.8261 -2.9327
 7913SOL    HW235376   0.476   4.151   8.220 -0.2166 -1.4635  1.7423
 7914SOL     OW35377   0.184   0.724   9.275 -0.1683 -0.3716  0.1864
 7914SOL    HW135378   0.212   0.669   9.202 -2.0416  0.6563 -1.3209
 7914SOL    HW235379   0.112   0.670   9.307 -0.2133 -1.2808 -1.4397
 7915SOL     OW35380   4.369   4.333   0.201  0.1013  0.3823  0.0746
 7915SOL    HW135381   4.421   4.412   0.214  1.1760 -0.2845 -0.1295
 7915SOL    HW235382   4.316   4.367   0.129 -0.2320  0.1998  0.2294
 7916SOL     OW35383   4.277   1.473   6.450  0.2027  0.2167  0.5684
 7916SOL    HW135384   4.353   1.490   6.505 -0.6072  3.2395  0.7354
 7916SOL    HW235385   4.263   1.381   6.472  1.4674 -0.0092  0.4302
 7917SOL     OW35386   1.977   3.997   0.423  0.0812 -0.3154  0.0255
 7917SOL    HW135387   1.935   3.941   0.488 -1.5885 -0.0481 -0.8437
 7917SOL    HW235388   2.070   3.974   0.430  0.1177 -0.8004 -2.1893
 7918SOL     OW35389   3.622   1.640   4.484 -0.1614 -0.6439 -0.5652
 7918SOL    HW135390   3.548   1.580   4.492 -1.7768  1.3022 -0.7114
 7918SOL    HW235391   3.652   1.620   4.395 -0.6652  0.9846 -1.1076
 7919SOL     OW35392   3.020   4.222  16.792 -0.2084  0.2446 -0.3072
 7919SOL    HW135393   3.099   4.172  16.813 -1.3153 -0.5885  1.8338
 7919SOL    HW235394   2.995   4.182  16.708  0.6503  0.3381 -0.6008
 7920SOL     OW35395   1.067   0.162   5.049  0.0838  0.2906  0.5960
 7920SOL    HW135396   1.047   0.120   4.966  1.5926  1.2431 -0.2424
 7920SOL    HW235397   1.037   0.252   5.034 -2.8750 -1.2893 -2.8046
 7921SOL     OW35398   2.987   4.324   3.489  0.1897 -0.0756 -0.6338
 7921SOL    HW135399   3.000   4.390   3.557 -3.0368  0.4038 -0.4675
 7921SOL    HW235400   3.061   4.268   3.512  0.4378  0.0326 -1.1938
 7922SOL     OW35401   1.110   2.152   0.874  0.3706  0.4683 -0.1458
 7922SOL    HW135402   1.164   2.125   0.947  0.0747  0.0913 -0.0640
 7922SOL    HW235403   1.025   2.125   0.909  0.3195 -1.2645 -1.5716
 7923SOL     OW35404   4.280   2.499   0.075 -0.6449 -0.0892  0.8483
 7923SOL    HW135405   4.275   2.408   0.047 -0.4699  0.2388 -0.2591
 7923SOL    HW235406   4.375   2.509   0.085 -0.5505  0.8386 -0.9266
 7924SOL     OW35407   1.361   3.198   0.526 -0.4809 -0.8446 -0.2095
 7924SOL    HW135408   1.374   3.250   0.447 -1.4299 -1.2855 -0.6511
 7924SOL    HW235409   1.451   3.166   0.534  0.2780  0.9594 -1.3947
 7925SOL     OW35410   3.776   2.235   5.216  0.6209  0.2119 -0.2898
 7925SOL    HW135411   3.684   2.235   5.244  1.0841 -0.2328  1.2170
 7925SOL    HW235412   3.817   2.301   5.271  0.1912  0.5782 -0.4076
 7926SOL     OW35413   2.054   4.073  16.849  0.3437  0.1981  0.2029
 7926SOL    HW135414   1.972   4.080  16.899 -1.2753 -1.4798 -2.2402
 7926SOL    HW235415   2.079   4.165  16.849  0.5059  0.1521  1.4705
 7927SOL     OW35416   3.997   4.028   5.023 -0.2409 -0.0399 -0.4098
 7927SOL    HW135417   4.030   3.938   5.026  1.6634  0.6373 -0.8382
 7927SOL    HW235418   4.080   4.076   5.017  0.0103 -0.2762  1.2728
 7928SOL     OW35419   1.570   4.580   0.047 -0.0868  0.4265  0.4783
 7928SOL    HW135420   1.605   4.669   0.046  0.0049  0.3661 -2.0864
 7928SOL    HW235421   1.517   4.580   0.127 -0.7140 -0.1078  0.0608
 7929SOL     OW35422   3.240   0.921   4.000 -0.1261  0.1470 -0.3787
 7929SOL    HW135423   3.283   0.870   3.932  0.0807  0.2527 -0.3269
 7929SOL    HW235424   3.205   0.850   4.054  0.2894  0.0708 -0.2082
 7930SOL     OW35425   4.704   2.714   1.892  0.5638 -0.0666  0.3559
 7930SOL    HW135426   0.034   2.699   1.826  0.1507  2.7843 -0.7082
 7930SOL    HW235427   4.683   2.632   1.936  1.9381 -1.0235 -0.7916
 7931SOL     OW35428   3.668   3.565   6.921  1.2529  0.2470  0.1056
 7931SOL    HW135429   3.655   3.480   6.962 -1.3606  0.5220 -0.1389
 7931SOL    HW235430   3.754   3.580   6.959  1.3026 -0.8555  0.4253
 7932SOL     OW35431   4.160   0.473   4.954  0.0783 -0.5287 -0.3226
 7932SOL    HW135432   4.189   0.426   4.876 -0.9978 -3.8306  1.2760
 7932SOL    HW235433   4.228   0.458   5.019 -0.4528  1.9651  0.8047
 7933SOL     OW35434   4.609   2.728   3.934  0.0045  0.0401 -0.7155
 7933SOL    HW135435   4.695   2.728   3.892  0.8702  0.3913  1.0246
 7933SOL    HW235436   4.575   2.639   3.925  0.5096 -0.2051 -0.2165
 7934SOL     OW35437   0.719   0.492   0.817 -0.1327  0.8781  0.1660
 7934SOL    HW135438   0.731   0.397   0.820 -1.8138  0.6814  0.5855
 7934SOL    HW235439   0.723   0.507   0.723  1.1870 -0.7783 -0.0562
 7935SOL     OW35440   3.468   4.733   0.970 -0.0673  0.0704  0.2306
 7935SOL    HW135441   3.382   4.690   0.962 -0.1619  0.5905 -1.6960
 7935SOL    HW235442   3.501   4.690   1.049  1.3932 -0.8590 -0.8732
 7936SOL     OW35443   2.680   2.666  11.522  0.1544  0.0986 -0.5162
 7936SOL    HW135444   2.736   2.599  11.560 -1.5645 -0.2056  1.4518
 7936SOL    HW235445   2.742   2.721  11.473 -1.0561  2.4364  0.5478
 7937SOL     OW35446   1.030   4.504   7.314  0.3592  0.1575 -0.2846
 7937SOL    HW135447   1.060   4.441   7.380 -1.4394 -1.6004 -1.1176
 7937SOL    HW235448   1.105   4.513   7.255 -0.2750 -2.2807 -1.5025
 7938SOL     OW35449   2.540   2.203   6.970 -0.0030 -0.5005 -0.2921
 7938SOL    HW135450   2.508   2.168   7.053 -0.0420  0.2532  0.0186
 7938SOL    HW235451   2.593   2.130   6.937  1.2793  0.6054 -0.6868
 7939SOL     OW35452   0.077   4.256  12.810 -1.1763 -0.3571 -0.1376
 7939SOL    HW135453   0.127   4.330  12.776 -0.3419 -1.9861 -2.4263
 7939SOL    HW235454   0.046   4.300  12.890  2.7370  2.8133 -0.3365
 7940SOL     OW35455   3.638   2.920   6.839 -0.0850  0.1060 -0.1048
 7940SOL    HW135456   3.570   2.971   6.884  1.0454  3.6424 -2.4114
 7940SOL    HW235457   3.597   2.908   6.754 -1.2090  3.2271 -0.0064
 7941SOL     OW35458   0.190   3.811   2.405 -0.7457  0.3644 -0.4687
 7941SOL    HW135459   0.255   3.757   2.450 -1.6131  2.2553  2.9931
 7941SOL    HW235460   0.116   3.775   2.453 -1.5578 -2.0347 -3.4828
 7942SOL     OW35461   0.697   4.407   5.684 -0.1016  0.5902  0.2225
 7942SOL    HW135462   0.646   4.480   5.719 -0.8572  1.1092 -1.9741
 7942SOL    HW235463   0.703   4.423   5.590 -3.4824 -0.5316 -0.1914
 7943SOL     OW35464   2.903   3.740   3.394  0.7908  0.1892  0.6697
 7943SOL    HW135465   2.824   3.686   3.401 -0.4121  1.6342 -1.8746
 7943SOL    HW235466   2.875   3.824   3.430  1.1386  1.6142 -2.4183
 7944SOL     OW35467   1.502   3.598   8.163  0.5673  0.5283 -0.3988
 7944SOL    HW135468   1.499   3.680   8.115  3.2581  0.5461 -0.5603
 7944SOL    HW235469   1.538   3.628   8.247 -0.1791 -2.0507  0.8417
 7945SOL     OW35470   2.955   4.455   6.886  0.2049 -0.1489  0.0787
 7945SOL    HW135471   2.876   4.409   6.860 -1.0924  1.5598  0.9983
 7945SOL    HW235472   2.989   4.489   6.803  2.9543 -2.9332  0.0643
 7946SOL     OW35473   0.279   1.018  16.565 -0.9260 -0.1011  0.2728
 7946SOL    HW135474   0.237   0.933  16.580  2.9246 -2.6064 -3.2576
 7946SOL    HW235475   0.294   1.015  16.471  1.8784  1.6232  0.6826
 7947SOL     OW35476   4.248   0.585  17.454 -0.2766 -0.5993 -0.5036
 7947SOL    HW135477   4.230   0.566  17.362  1.7668 -0.1117 -1.0059
 7947SOL    HW235478   4.240   0.500  17.498  0.0684 -0.9188 -1.0527
 7948SOL     OW35479   1.338   1.659  10.783  0.3857 -0.2742 -0.1455
 7948SOL    HW135480   1.337   1.683  10.876  0.0402 -0.8079 -0.0072
 7948SOL    HW235481   1.426   1.622  10.776  0.3218  0.1123 -2.9332
 7949SOL     OW35482   3.034   0.510  13.081  0.2318  0.4396 -0.5147
 7949SOL    HW135483   2.960   0.571  13.074 -0.4049 -0.5174 -2.1246
 7949SOL    HW235484   3.056   0.511  12.988 -1.1818  0.5345 -0.8530
 7950SOL     OW35485   0.137   0.789   6.499 -0.2979 -0.0312 -0.2315
 7950SOL    HW135486   0.085   0.712   6.474 -1.3592  1.3737 -2.3406
 7950SOL    HW235487   0.202   0.745   6.554  0.7016  2.6359  0.6967
 7951SOL     OW35488   3.417   3.378   7.728  0.6720 -0.0112 -0.0967
 7951SOL    HW135489   3.418   3.418   7.816  0.9423 -3.3446  1.4116
 7951SOL    HW235490   3.488   3.427   7.687  2.8463 -0.4806  3.0571
 7952SOL     OW35491   2.085   2.491   1.725 -0.4547  0.0977  0.0790
 7952SOL    HW135492   1.995   2.521   1.713 -1.8079 -3.3892  1.4198
 7952SOL    HW235493   2.117   2.515   1.638 -0.0840  1.4665  0.6027
 7953SOL     OW35494   0.027   0.018   8.184 -0.4018  0.1559  0.0217
 7953SOL    HW135495   4.721   4.719   8.262  1.0540 -1.8920 -0.1453
 7953SOL    HW235496   0.117   4.729   8.204 -0.6246  0.6141  1.6457
 7954SOL     OW35497   0.377   4.373   7.121  0.2114 -0.6610 -0.1079
 7954SOL    HW135498   0.330   4.299   7.158 -0.4967 -0.3538 -0.3829
 7954SOL    HW235499   0.387   4.355   7.027  1.5443 -1.8071  0.2644
 7955SOL     OW35500   2.941   2.607   2.151 -0.2259 -0.0862 -0.5941
 7955SOL    HW135501   2.883   2.682   2.135  0.2098 -0.0275 -1.8762
 7955SOL    HW235502   2.946   2.610   2.246 -0.8724  1.8270 -0.6239
 7956SOL     OW35503   1.106   3.381   8.674 -0.0102 -0.2894  0.8706
 7956SOL    HW135504   1.046   3.393   8.600  0.2999  2.2305  1.0363
 7956SOL    HW235505   1.053   3.388   8.753 -1.4004  1.1891 -0.1939
 7957SOL     OW35506   1.940   4.491   5.414 -0.5118 -0.1397 -0.1179
 7957SOL    HW135507   1.935   4.546   5.336  0.3492 -0.3387 -0.3159
 7957SOL    HW235508   1.894   4.536   5.484  0.7685 -0.3630  0.8641
 7958SOL     OW35509   2.379   0.375   9.582  0.3288  0.7162 -0.5616
 7958SOL    HW135510   2.412   0.399   9.668 -0.4454 -3.3130  0.8285
 7958SOL    HW235511   2.463   0.384   9.537  1.8986 -1.0478  2.0356
 7959SOL     OW35512   3.714   0.713   6.839 -0.0646 -0.2136 -0.0982
 7959SOL    HW135513   3.775   0.641   6.859  0.3018 -0.0272 -0.5335
 7959SOL    HW235514   3.631   0.668   6.825  0.3600 -0.8812 -0.5073
 7960SOL     OW35515   2.048   3.918   8.852 -0.4519 -0.6263  0.2606
 7960SOL    HW135516   2.105   3.920   8.929 -0.7885 -1.7143  0.5499
 7960SOL    HW235517   1.959   3.906   8.887 -0.8579  1.0081 -0.2389
 7961SOL     OW35518   2.017   3.320   1.581 -0.3531 -0.1958 -0.2025
 7961SOL    HW135519   2.002   3.375   1.658 -1.3788  0.2574 -0.7188
 7961SOL    HW235520   2.047   3.239   1.622 -1.7418 -0.5879  0.0488
 7962SOL     OW35521   0.503   0.920   8.630  0.4246  0.1796  0.3993
 7962SOL    HW135522   0.535   0.989   8.687  0.3299 -1.0229  1.9130
 7962SOL    HW235523   0.443   0.874   8.689  0.0233  2.1280  1.5090
 7963SOL     OW35524   2.750   2.010   3.675  0.2511 -0.2739 -0.4360
 7963SOL    HW135525   2.755   2.106   3.673 -0.3307 -0.2520 -0.9374
 7963SOL    HW235526   2.659   1.995   3.702  0.9046 -0.6186  1.5960
 7964SOL     OW35527   0.662   2.614  14.039  0.5148 -0.3219 -0.3316
 7964SOL    HW135528   0.641   2.563  14.117 -1.9952  2.4483  0.8015
 7964SOL    HW235529   0.603   2.686  14.061  1.7847  1.2190 -1.9860
 7965SOL     OW35530   0.041   1.401   6.642 -0.0852 -0.3353 -0.1999
 7965SOL    HW135531   0.034   1.404   6.547 -0.8562  1.3080 -0.0841
 7965SOL    HW235532   0.097   1.323   6.655 -1.8224 -1.3173  1.3960
 7966SOL     OW35533   0.366   4.658  12.107 -0.5555  0.3003 -0.2268
 7966SOL    HW135534   0.296   4.724  12.109 -2.9148 -2.1540 -1.2105
 7966SOL    HW235535   0.380   4.639  12.199 -0.7493  1.5561  0.0657
 7967SOL     OW35536   3.225   4.501   0.892  0.1050  0.4694  0.2348
 7967SOL    HW135537   3.142   4.455   0.906  0.4097  0.1257  0.9083
 7967SOL    HW235538   3.259   4.455   0.815 -0.6836  1.8093 -0.9230
 7968SOL     OW35539   0.298   3.182   5.786 -0.0886 -0.6829  0.3056
 7968SOL    HW135540   0.364   3.184   5.855 -1.5213 -1.5497  1.7009
 7968SOL    HW235541   0.270   3.090   5.781  1.9797 -1.3285  0.5068
 7969SOL     OW35542   0.312   0.693   6.721  0.2023 -0.1648  0.4231
 7969SOL    HW135543   0.401   0.677   6.752 -0.3399  1.0805  2.6187
 7969SOL    HW235544   0.259   0.646   6.786 -0.8679  1.4522  0.7115
 7970SOL     OW35545   1.013   2.628   4.882  0.1408  0.1915 -0.1810
 7970SOL    HW135546   1.030   2.662   4.970  0.7588  2.2806 -1.1032
 7970SOL    HW235547   1.031   2.534   4.883  0.4649  0.2139 -2.1748
 7971SOL     OW35548   0.989   3.413   7.011  0.6730  0.3113 -0.1664
 7971SOL    HW135549   1.072   3.450   6.979  0.8851  0.9884  1.1918
 7971SOL    HW235550   0.986   3.442   7.102  4.1168 -1.8673  0.6653
 7972SOL     OW35551   1.419   4.302   2.440  0.1964 -0.0777  0.0058
 7972SOL    HW135552   1.416   4.320   2.534 -2.6486 -0.2201 -0.0587
 7972SOL    HW235553   1.402   4.392   2.413  0.0871  0.2443  1.1652
 7973SOL     OW35554   4.213   0.544  14.207 -0.2353 -0.2825 -0.1345
 7973SOL    HW135555   4.208   0.515  14.298 -0.3299  0.4869  0.1138
 7973SOL    HW235556   4.123   0.563  14.180 -0.0332 -1.9557 -1.9264
 7974SOL     OW35557   3.459   0.303  15.158 -0.0965 -0.3001  0.6066
 7974SOL    HW135558   3.366   0.290  15.173 -0.2036  0.3828  0.5571
 7974SOL    HW235559   3.506   0.230  15.197  1.3789  1.0128  1.2772
 7975SOL     OW35560   0.050   0.543   1.347 -0.0261  0.2472 -0.7658
 7975SOL    HW135561   0.036   0.565   1.439  3.2542 -1.7045  0.1849
 7975SOL    HW235562   0.058   0.628   1.305 -0.4445  0.6679 -0.0002
 7976SOL     OW35563   1.037   0.334  16.496 -0.4404  0.1317 -0.5221
 7976SOL    HW135564   1.035   0.367  16.586  0.7762 -1.5507  0.1257
 7976SOL    HW235565   1.081   0.250  16.507 -1.0361  0.0702  1.2365
 7977SOL     OW35566   2.258   0.228   8.849  0.4250  0.5835 -0.0165
 7977SOL    HW135567   2.333   0.233   8.910  0.2262  3.1692  0.0017
 7977SOL    HW235568   2.303   0.202   8.769  0.8826 -1.4022  0.8762
 7978SOL     OW35569   1.104   2.772   0.919 -0.2044  0.2547  0.0761
 7978SOL    HW135570   1.177   2.827   0.892  1.3681 -0.3280  3.0818
 7978SOL    HW235571   1.089   2.801   1.009 -2.4378 -0.0631 -0.2089
 7979SOL     OW35572   4.544   0.281   5.739  0.4426  0.1208  0.0815
 7979SOL    HW135573   4.576   0.196   5.709 -0.5548 -0.1104 -0.3272
 7979SOL    HW235574   4.574   0.286   5.829 -0.3926  2.1969  0.2543
 7980SOL     OW35575   3.686   0.361   3.279  0.4134  0.4608  0.0850
 7980SOL    HW135576   3.746   0.407   3.337  1.0428  0.6368 -0.7089
 7980SOL    HW235577   3.632   0.428   3.235 -0.4663  0.7141  1.5212
 7981SOL     OW35578   2.667   3.438   8.223 -0.2152 -0.1196  0.0305
 7981SOL    HW135579   2.663   3.502   8.294  1.4869 -0.9598  0.8655
 7981SOL    HW235580   2.575   3.433   8.196  0.3345 -1.3194 -1.6415
 7982SOL     OW35581   1.443   2.971   8.498 -0.2076 -0.0894  0.1771
 7982SOL    HW135582   1.410   3.043   8.552  2.5469  1.3091  0.0348
 7982SOL    HW235583   1.362   2.926   8.474  1.3315 -2.9096  0.3206
 7983SOL     OW35584   0.590   0.882   7.076 -0.1261 -0.1898 -0.3336
 7983SOL    HW135585   0.508   0.841   7.049 -0.4539 -0.3013  0.8446
 7983SOL    HW235586   0.583   0.966   7.031  0.1880  0.1523  0.2473
 7984SOL     OW35587   0.743   3.876  10.339  0.0877 -0.7143  0.0303
 7984SOL    HW135588   0.769   3.894  10.429  1.9208 -1.0350 -0.4265
 7984SOL    HW235589   0.730   3.782  10.351  1.1624 -0.9389 -0.4940
 7985SOL     OW35590   4.149   2.480   4.741  0.0141  0.1469 -0.1430
 7985SOL    HW135591   4.128   2.452   4.652 -0.8877 -1.3336  0.5478
 7985SOL    HW235592   4.242   2.459   4.745 -0.3583 -1.5637 -0.6704
 7986SOL     OW35593   1.225   1.061   3.240  0.0525 -0.1622  0.2162
 7986SOL    HW135594   1.267   1.133   3.195  1.3126 -1.4933 -0.7347
 7986SOL    HW235595   1.137   1.077   3.206  0.2525 -1.3678 -0.8800
 7987SOL     OW35596   1.197   1.850   5.485  0.3545 -0.1179 -0.3165
 7987SOL    HW135597   1.187   1.934   5.439  1.3514  0.1317 -0.0727
 7987SOL    HW235598   1.239   1.800   5.415 -0.7124  1.1475 -1.8809
 7988SOL     OW35599   1.754   3.617   6.794  0.0980  0.2012  0.2629
 7988SOL    HW135600   1.818   3.666   6.743 -0.9156  0.4243 -0.7870
 7988SOL    HW235601   1.681   3.668   6.757 -0.3331 -2.2738 -2.2843
 7989SOL     OW35602   3.891   0.199   7.334 -0.2285 -0.3531  0.1409
 7989SOL    HW135603   3.864   0.198   7.426  0.0823  0.6025  0.2363
 7989SOL    HW235604   3.951   0.273   7.335 -1.9652  1.0421  0.4692
 7990SOL     OW35605   0.054   1.816   5.262 -0.1794 -0.3049 -0.3125
 7990SOL    HW135606   0.091   1.832   5.349  1.6149 -2.2507 -0.7224
 7990SOL    HW235607   4.726   1.886   5.253  0.1564 -0.1010 -1.2061
 7991SOL     OW35608   3.026   2.937   5.731 -0.2579 -0.2368 -0.1134
 7991SOL    HW135609   3.003   2.858   5.782 -1.5123 -0.8898 -1.7077
 7991SOL    HW235610   3.012   3.002   5.800  0.8462 -0.6478  0.5005
 7992SOL     OW35611   1.008   0.493  15.465 -0.2763 -0.5430 -0.0217
 7992SOL    HW135612   1.047   0.567  15.511  0.9382  0.3623 -2.5058
 7992SOL    HW235613   1.084   0.435  15.467  0.9138  1.0714  1.9991
 7993SOL     OW35614   1.478   0.851   5.298 -0.3023  0.3791 -0.2343
 7993SOL    HW135615   1.530   0.787   5.250 -0.8642  0.7041 -1.2797
 7993SOL    HW235616   1.454   0.914   5.229 -1.7430 -1.8391 -1.7612
 7994SOL     OW35617   0.925   3.845   1.884 -0.4670  0.2913 -0.5957
 7994SOL    HW135618   0.905   3.889   1.967  1.0008  1.4452 -0.8381
 7994SOL    HW235619   0.838   3.819   1.854 -1.0794  1.1488  0.4474
 7995SOL     OW35620   2.012   1.437  12.842 -0.1960 -0.0611  0.0541
 7995SOL    HW135621   2.046   1.436  12.931 -0.4257  1.3173  0.1588
 7995SOL    HW235622   1.948   1.367  12.858 -0.4201  0.2575  0.5615
 7996SOL     OW35623   2.916   3.130   6.645 -0.3964  0.1591 -0.5848
 7996SOL    HW135624   2.866   3.081   6.581 -0.6147 -0.9720  0.4432
 7996SOL    HW235625   2.897   3.221   6.620 -1.1099 -0.0884 -0.9195
 7997SOL     OW35626   1.097   4.262  17.178 -0.7968  0.1476  0.4537
 7997SOL    HW135627   1.022   4.321  17.181  0.0452  1.3764 -2.4999
 7997SOL    HW235628   1.161   4.328  17.150  0.9921 -2.2051 -0.9486
 7998SOL     OW35629   4.198   1.563   6.809 -0.0177  0.0882 -0.3447
 7998SOL    HW135630   4.219   1.491   6.870 -0.0646 -0.4748 -0.9983
 7998SOL    HW235631   4.124   1.523   6.763 -0.5552  1.1513 -0.3870
 7999SOL     OW35632   1.243   0.275   4.549 -0.0602 -0.9637  0.4888
 7999SOL    HW135633   1.237   0.368   4.524 -0.5996 -1.1402 -0.0374
 7999SOL    HW235634   1.328   0.250   4.513  0.4778 -0.3050  1.2758
 8000SOL     OW35635   1.209   4.319  13.978  0.2237 -0.2308 -0.5506
 8000SOL    HW135636   1.281   4.287  14.033 -0.8078  0.6727  1.3140
 8000SOL    HW235637   1.222   4.258  13.906 -0.1381  0.0751 -0.8764
 8001SOL     OW35638   0.374   2.076   1.028  0.7341  0.0376  0.2594
 8001SOL    HW135639   0.313   2.144   0.998  0.9630 -0.0329 -0.3611
 8001SOL    HW235640   0.337   2.060   1.115  3.5034 -0.7433  1.2978
 8002SOL     OW35641   4.130   3.347  16.222  0.1188  0.1960 -0.2317
 8002SOL    HW135642   4.049   3.376  16.265  0.7930 -0.6501  1.6434
 8002SOL    HW235643   4.197   3.396  16.269  0.5254 -1.3218  0.8003
 8003SOL     OW35644   3.885   0.595   8.393 -0.2659 -0.0520 -0.3992
 8003SOL    HW135645   3.967   0.582   8.346  0.5402  2.3766  0.3342
 8003SOL    HW235646   3.821   0.558   8.332 -0.5335 -0.5068  0.1626
 8004SOL     OW35647   4.711   0.081  17.095 -0.1224 -0.3286 -0.2404
 8004SOL    HW135648   4.711   0.177  17.099  1.6303 -0.2952 -1.0567
 8004SOL    HW235649   4.622   0.062  17.126  0.3665  0.1870  1.4779
 8005SOL     OW35650   1.107   3.642   1.896 -0.9258 -0.3968 -0.6103
 8005SOL    HW135651   1.057   3.573   1.852 -0.7127  1.6111 -4.0541
 8005SOL    HW235652   1.060   3.721   1.869  2.7422  0.5111 -4.2717
 8006SOL     OW35653   3.650   4.052  14.125 -0.3059  0.3503  0.1125
 8006SOL    HW135654   3.671   4.039  14.218  1.8734 -0.7973 -0.5389
 8006SOL    HW235655   3.647   4.147  14.114  3.1901  0.7926  2.7357
 8007SOL     OW35656   1.702   1.568   0.816 -0.4948  0.1083 -0.0446
 8007SOL    HW135657   1.627   1.526   0.773  0.8969 -1.6889 -0.7164
 8007SOL    HW235658   1.772   1.553   0.752 -1.1979  0.2285 -0.8331
 8008SOL     OW35659   0.137   4.512   3.228  0.7842  0.3427 -0.5020
 8008SOL    HW135660   0.068   4.565   3.189  0.2139  0.3740  0.5698
 8008SOL    HW235661   0.207   4.528   3.164 -1.2645  2.8212 -2.1164
 8009SOL     OW35662   0.453   4.102   9.644  0.1269 -0.4814 -0.3445
 8009SOL    HW135663   0.376   4.154   9.624 -0.4051 -0.5396  1.4954
 8009SOL    HW235664   0.410   4.039   9.702  1.0343 -1.2081 -0.4643
 8010SOL     OW35665   4.218   4.244   4.242  0.0523  0.1879  0.2878
 8010SOL    HW135666   4.224   4.239   4.147  3.5599 -0.0557  0.5101
 8010SOL    HW235667   4.126   4.267   4.257  0.0371  0.2399  0.1105
 8011SOL     OW35668   1.640   4.513   7.272  0.4655  0.5543  0.5696
 8011SOL    HW135669   1.627   4.563   7.192  1.1618  2.3241  1.5833
 8011SOL    HW235670   1.622   4.583   7.334  0.5201  0.6690  0.4548
 8012SOL     OW35671   4.105   2.563   5.988 -0.2993 -0.8511 -0.9996
 8012SOL    HW135672   4.165   2.629   6.021 -1.6817 -0.3411  0.4968
 8012SOL    HW235673   4.037   2.569   6.055  0.4600 -1.1853 -0.2020
 8013SOL     OW35674   2.043   4.325   5.652  0.0919  0.3019  0.1374
 8013SOL    HW135675   2.011   4.310   5.741 -1.0476 -2.1351 -0.6601
 8013SOL    HW235676   2.024   4.417   5.635 -2.4662 -0.3097 -0.2912
 8014SOL     OW35677   4.133   1.164   5.013  0.5133  0.5053 -0.0303
 8014SOL    HW135678   4.213   1.212   5.034  0.2966  0.7293  0.2858
 8014SOL    HW235679   4.171   1.091   4.963 -1.9764  0.1730 -1.4284
 8015SOL     OW35680   2.769   2.299  16.761 -0.0160  0.2568 -0.1304
 8015SOL    HW135681   2.860   2.283  16.735  0.5931  2.7624  0.4920
 8015SOL    HW235682   2.779   2.388  16.794  0.0733 -0.3047  1.3927
 8016SOL     OW35683   0.583   1.632   4.057 -0.1433  0.2074 -0.2916
 8016SOL    HW135684   0.561   1.641   3.965  3.2547 -1.3375 -1.2525
 8016SOL    HW235685   0.637   1.553   4.049 -0.8449  0.0630 -3.5347
 8017SOL     OW35686   0.611   1.029   5.648 -0.4214 -0.0370 -0.0928
 8017SOL    HW135687   0.525   1.038   5.689 -0.7115 -2.9264 -0.0137
 8017SOL    HW235688   0.662   0.983   5.715 -1.2369 -0.9903 -0.1169
 8018SOL     OW35689   2.679   0.084   5.314 -0.5267 -0.0755 -0.3621
 8018SOL    HW135690   2.646   0.171   5.337  0.2651 -0.0374  0.6511
 8018SOL    HW235691   2.681   0.046   5.402  2.4292 -1.1206 -0.8946
 8019SOL     OW35692   4.016   3.670   8.543  0.2765  0.1769 -0.1830
 8019SOL    HW135693   4.080   3.618   8.591  0.6984  1.5589  0.7766
 8019SOL    HW235694   4.075   3.734   8.503  1.7234 -1.8432 -1.2835
 8020SOL     OW35695   1.803   0.004   8.629  0.5302 -0.2584 -0.3126
 8020SOL    HW135696   1.711   0.026   8.638  0.6887 -0.3076  1.4576
 8020SOL    HW235697   1.811   4.666   8.688 -1.6705 -0.6753 -0.5516
 8021SOL     OW35698   1.938   3.935  16.459  0.0826  0.0687 -0.0598
 8021SOL    HW135699   1.852   3.892  16.463  0.0329  0.2657  1.0227
 8021SOL    HW235700   1.946   3.955  16.552  2.7569 -0.6112 -0.1591
 8022SOL     OW35701   4.646   3.287   9.627  0.5453  0.7419  0.1352
 8022SOL    HW135702   4.636   3.305   9.534  3.2139 -0.4706 -0.3899
 8022SOL    HW235703   4.607   3.200   9.636  0.9584  0.4149 -1.3489
 8023SOL     OW35704   0.110   1.156   8.283  0.0799 -0.8710 -0.1993
 8023SOL    HW135705   0.161   1.158   8.202  0.6616  0.8810  0.2092
 8023SOL    HW235706   0.025   1.117   8.260 -1.2950  1.4447  0.9238
 8024SOL     OW35707   2.190   3.633   2.319 -0.6193  0.5051  0.0372
 8024SOL    HW135708   2.127   3.615   2.250  0.2174 -1.6849 -0.1532
 8024SOL    HW235709   2.127   3.682   2.373 -1.3485  1.3539 -1.5887
 8025SOL     OW35710   3.311   2.891   6.406 -0.2376  0.1781 -0.4335
 8025SOL    HW135711   3.347   2.894   6.317 -1.2372 -0.1462 -0.8506
 8025SOL    HW235712   3.219   2.872   6.385 -0.8277  2.0957  0.4212
 8026SOL     OW35713   2.931   2.879  16.986 -0.0038 -0.0718  0.2318
 8026SOL    HW135714   3.017   2.839  17.001  0.3045  0.0761 -1.1692
 8026SOL    HW235715   2.905   2.903  17.075 -0.1753 -0.4950  0.2995
 8027SOL     OW35716   2.483   1.771   1.322  0.0283  0.2264  0.0015
 8027SOL    HW135717   2.415   1.800   1.382 -0.3880  2.0717 -1.3370
 8027SOL    HW235718   2.522   1.851   1.285  2.1083 -1.6542 -1.8694
 8028SOL     OW35719   1.468   2.258   6.445 -0.0541 -0.0255  0.3508
 8028SOL    HW135720   1.559   2.246   6.472 -0.2954 -0.7388  0.8596
 8028SOL    HW235721   1.433   2.170   6.458  0.4181 -0.1422  0.8423
 8029SOL     OW35722   4.361   0.341   2.418 -0.2448 -0.4404  0.2571
 8029SOL    HW135723   4.411   0.405   2.470  0.0871  0.2789 -0.9437
 8029SOL    HW235724   4.282   0.355   2.470 -0.1878  0.3456  0.1312
 8030SOL     OW35725   4.060   0.678  13.111 -0.3335  0.3096 -0.0655
 8030SOL    HW135726   3.997   0.750  13.117  1.0456  1.3557  2.1866
 8030SOL    HW235727   4.015   0.601  13.147 -1.2320 -0.0749 -2.0408
 8031SOL     OW35728   3.107   1.851   5.619 -0.1681  0.0122  0.2589
 8031SOL    HW135729   3.110   1.916   5.548 -0.4506 -0.6428 -0.3600
 8031SOL    HW235730   3.109   1.769   5.570  0.2267 -0.9333  1.8964
 8032SOL     OW35731   4.688   3.212   5.061 -0.1846 -0.1987 -0.0853
 8032SOL    HW135732   4.729   3.127   5.078 -1.3127 -0.7676 -0.1870
 8032SOL    HW235733   4.606   3.214   5.109  0.3650  0.4581  0.8107
 8033SOL     OW35734   1.072   0.428   5.005  0.6924 -0.7814  0.6950
 8033SOL    HW135735   1.062   0.504   5.062 -3.0437  0.0012 -1.0350
 8033SOL    HW235736   1.145   0.469   4.958 -0.5415 -0.6383 -1.1242
 8034SOL     OW35737   1.910   1.781   9.946 -0.6882  0.0577  0.0386
 8034SOL    HW135738   1.933   1.688   9.948 -1.9568 -0.2809 -0.7603
 8034SOL    HW235739   1.902   1.803  10.038 -1.4757  0.7872 -0.2066
 8035SOL     OW35740   1.228   0.785  16.226 -0.3717  1.0012  0.2077
 8035SOL    HW135741   1.150   0.823  16.266  0.4691  0.8979  1.9735
 8035SOL    HW235742   1.248   0.714  16.287  1.1297  2.1431  1.0726
 8036SOL     OW35743   3.650   4.531   1.889  0.2374  0.2664 -0.2569
 8036SOL    HW135744   3.585   4.595   1.917 -2.6190 -0.8819 -4.1059
 8036SOL    HW235745   3.701   4.588   1.831  0.3636 -0.4114 -0.8170
 8037SOL     OW35746   2.456   1.000  10.093  0.2027  0.6669  0.1807
 8037SOL    HW135747   2.444   0.972  10.184  1.4705  0.6297  0.3281
 8037SOL    HW235748   2.540   0.964  10.065  0.7725  2.0392  0.0937
 8038SOL     OW35749   3.271   4.174   1.266 -0.0374 -0.4920  0.1053
 8038SOL    HW135750   3.357   4.155   1.303  0.9277 -0.1321 -1.9413
 8038SOL    HW235751   3.263   4.128   1.182  0.7429  3.4240 -2.1016
 8039SOL     OW35752   0.125   2.948   5.610 -0.6347  0.9018 -0.0670
 8039SOL    HW135753   0.048   2.941   5.666 -1.4987 -1.4282 -1.5113
 8039SOL    HW235754   0.101   2.884   5.544 -1.2625  2.5487 -1.4330
 8040SOL     OW35755   3.324   0.762   6.459 -0.2548 -0.2839  0.0858
 8040SOL    HW135756   3.384   0.806   6.398 -2.3799  0.3383 -1.5650
 8040SOL    HW235757   3.322   0.822   6.534 -2.4202 -0.8535  0.4756
 8041SOL     OW35758   4.382   2.310  13.220  0.3971  0.2117 -0.6223
 8041SOL    HW135759   4.388   2.283  13.312 -3.7265  0.1023 -0.3829
 8041SOL    HW235760   4.462   2.362  13.213  1.1070 -0.9802 -1.4016
 8042SOL     OW35761   1.077   4.075   3.530  0.1380  0.1719  0.4275
 8042SOL    HW135762   1.020   4.143   3.566 -0.0651 -0.1334  0.6810
 8042SOL    HW235763   1.073   4.006   3.596 -0.7961 -0.6772 -0.5327
 8043SOL     OW35764   2.009   1.921   0.270 -0.0591  1.1088 -0.0591
 8043SOL    HW135765   2.061   1.859   0.219 -2.0525 -1.9037  1.5951
 8043SOL    HW235766   1.974   1.862   0.336 -1.0848  0.5468 -1.0898
 8044SOL     OW35767   3.179   3.010   1.651  0.1736 -0.4281 -0.4878
 8044SOL    HW135768   3.158   3.099   1.682  0.5167 -0.6384  0.3458
 8044SOL    HW235769   3.135   2.999   1.567  0.0543  0.2547 -0.5179
 8045SOL     OW35770   2.390   2.422   0.845  0.0706  0.0165  0.1902
 8045SOL    HW135771   2.455   2.427   0.916 -0.3454 -0.6942  0.6236
 8045SOL    HW235772   2.318   2.375   0.887  0.5615 -1.1278 -0.2571
 8046SOL     OW35773   1.726   4.632  10.404 -0.4359 -0.2678 -0.8009
 8046SOL    HW135774   1.758   4.681  10.479 -1.6478 -0.5591 -0.0946
 8046SOL    HW235775   1.632   4.623  10.423 -0.5962 -0.2001 -1.5595
 8047SOL     OW35776   4.530   3.507   5.069 -0.2644 -0.1449  0.7708
 8047SOL    HW135777   4.588   3.482   4.997  0.0454 -0.6606  1.2017
 8047SOL    HW235778   4.586   3.581   5.092 -2.6115  1.8334  0.0714
 8048SOL     OW35779   4.685   4.317   1.398  0.0785 -0.2137 -0.4040
 8048SOL    HW135780   0.002   4.349   1.325  0.1953  1.5367  0.4561
 8048SOL    HW235781   0.015   4.300   1.464  1.3217  1.7553 -1.1350
 8049SOL     OW35782   1.042   2.556   2.455 -0.9237 -0.0347 -0.0341
 8049SOL    HW135783   1.112   2.612   2.487 -1.7204 -1.1207  3.6256
 8049SOL    HW235784   1.048   2.564   2.360 -1.1335 -1.0085 -0.1345
 8050SOL     OW35785   3.965   4.308   4.208  0.1042 -0.0823 -0.0936
 8050SOL    HW135786   3.936   4.350   4.127 -0.8510  4.1990  2.4670
 8050SOL    HW235787   3.905   4.233   4.211 -0.1392  0.1890  2.0359
 8051SOL     OW35788   0.467   3.213  10.741  0.4776  0.2100  0.9100
 8051SOL    HW135789   0.479   3.308  10.740  2.4119 -0.0436  1.2081
 8051SOL    HW235790   0.549   3.179  10.706 -0.0907  0.1670 -0.3638
 8052SOL     OW35791   1.836   1.843   7.652  0.1552 -0.1292 -0.2458
 8052SOL    HW135792   1.909   1.781   7.656 -0.2874 -0.5087  1.8607
 8052SOL    HW235793   1.852   1.907   7.721 -1.4485  0.0021 -0.0030
 8053SOL     OW35794   3.418   1.644  10.002  0.5754  0.5214  0.2783
 8053SOL    HW135795   3.368   1.694   9.938 -0.8712 -0.9172  0.2942
 8053SOL    HW235796   3.418   1.553   9.974 -1.7691 -0.0141  1.9946
 8054SOL     OW35797   1.780   3.759  13.491  0.0364  1.1042 -0.1101
 8054SOL    HW135798   1.709   3.791  13.435 -2.2803  1.5519  3.0367
 8054SOL    HW235799   1.750   3.790  13.577 -2.3284  1.7075 -1.1629
 8055SOL     OW35800   2.071   3.528   9.059  0.0469 -0.2902  0.3283
 8055SOL    HW135801   2.124   3.541   9.138  2.4202 -1.4740 -1.0483
 8055SOL    HW235802   2.065   3.432   9.056  2.5941 -0.3839 -1.7405
 8056SOL     OW35803   0.001   2.520   6.228 -0.0173 -0.7701 -1.1179
 8056SOL    HW135804   0.006   2.433   6.269 -1.4864 -0.0177  0.6630
 8056SOL    HW235805   0.078   2.560   6.267 -2.1304  0.3920  1.9183
 8057SOL     OW35806   2.148   2.871  11.097  0.1768  0.6358  0.4277
 8057SOL    HW135807   2.212   2.851  11.028 -0.2283  0.8470 -0.0134
 8057SOL    HW235808   2.192   2.926  11.162 -1.2320  1.0246  1.0521
 8058SOL     OW35809   4.246   3.438   8.041  0.2271 -0.5215  0.3584
 8058SOL    HW135810   4.267   3.358   8.090 -0.1247  0.8618  2.7634
 8058SOL    HW235811   4.224   3.502   8.108  0.7332 -1.9188  1.8564
 8059SOL     OW35812   4.460   4.215   7.349  0.5291  0.0571 -0.6847
 8059SOL    HW135813   4.407   4.161   7.407  0.7019  0.9221  0.2732
 8059SOL    HW235814   4.410   4.294   7.369  1.1250  0.3954 -0.5056
 8060SOL     OW35815   3.479   4.138   4.272  0.5681  0.0336  0.2308
 8060SOL    HW135816   3.409   4.181   4.320 -0.2740 -0.0797 -0.8785
 8060SOL    HW235817   3.443   4.125   4.183  0.8381 -0.5220  0.2010
 8061SOL     OW35818   0.265   3.528  11.560 -0.3466 -0.1783 -0.7423
 8061SOL    HW135819   0.321   3.585  11.507  0.2080 -0.6880 -0.7009
 8061SOL    HW235820   0.330   3.478  11.609  0.0366  0.5661 -0.5026
 8062SOL     OW35821   4.058   1.043  14.874 -0.4295 -0.6796 -0.4107
 8062SOL    HW135822   4.044   0.953  14.846  0.6478 -1.0461  0.2549
 8062SOL    HW235823   4.127   1.024  14.937  1.5300 -1.4768 -2.8251
 8063SOL     OW35824   4.670   4.023   7.287  0.0853 -0.3241 -0.0493
 8063SOL    HW135825   4.675   4.117   7.305  0.0611 -0.1793 -0.8401
 8063SOL    HW235826   4.689   4.032   7.194 -2.1161 -1.1304 -0.5823
 8064SOL     OW35827   4.533   3.837   9.894 -0.0003  0.0157  0.1241
 8064SOL    HW135828   4.475   3.891   9.840 -1.3274 -0.0650  1.4926
 8064SOL    HW235829   4.511   3.754   9.852 -3.1500  0.7448  0.3756
 8065SOL     OW35830   2.072   3.458   7.694 -0.2322 -0.4013 -0.4579
 8065SOL    HW135831   2.158   3.424   7.668 -0.1529  0.5642 -1.4656
 8065SOL    HW235832   2.057   3.399   7.768 -2.0183  0.4695 -0.1079
 8066SOL     OW35833   4.705   3.067   9.949  0.0615  0.3912  0.3758
 8066SOL    HW135834   0.058   3.038   9.967  0.0321 -0.5599 -1.0289
 8066SOL    HW235835   4.664   2.980   9.948  1.4033 -0.2344 -0.8602
 8067SOL     OW35836   0.703   4.065   3.416  0.2685  0.8697 -0.0549
 8067SOL    HW135837   0.756   4.128   3.466  1.4942 -0.7590  0.7121
 8067SOL    HW235838   0.711   3.978   3.455  0.6088 -0.1410 -2.3897
 8068SOL     OW35839   4.500   1.821   6.080 -0.2500 -0.3209 -0.4620
 8068SOL    HW135840   4.488   1.747   6.140 -0.5926 -0.1911 -0.3736
 8068SOL    HW235841   4.520   1.767   6.003  1.6757 -2.4420  1.5242
 8069SOL     OW35842   4.397   3.063  16.120 -0.0243 -0.6175 -0.7091
 8069SOL    HW135843   4.475   3.115  16.138 -1.0022  0.8620 -0.7186
 8069SOL    HW235844   4.446   2.986  16.092  1.7037  1.3920 -3.3224
 8070SOL     OW35845   3.797   2.257  12.905 -0.4003 -0.1156 -0.5451
 8070SOL    HW135846   3.711   2.240  12.865 -0.0904  0.7372 -1.5867
 8070SOL    HW235847   3.821   2.176  12.950  1.7799  0.6075 -0.4453
 8071SOL     OW35848   1.880   2.786   2.585  0.0864 -0.6890 -0.2761
 8071SOL    HW135849   1.889   2.710   2.527  1.4566 -1.5683  1.0836
 8071SOL    HW235850   1.916   2.857   2.531 -0.1233  0.8810  1.6517
 8072SOL     OW35851   0.282   1.611   3.970  0.4367  0.1355  0.2252
 8072SOL    HW135852   0.358   1.566   4.006  0.8868  0.0493 -0.8530
 8072SOL    HW235853   0.275   1.691   4.022  1.7234  0.8238 -0.6736
 8073SOL     OW35854   0.921   0.440   5.328 -0.3597 -0.1301  0.4972
 8073SOL    HW135855   0.946   0.499   5.258  0.6068 -0.9586  0.1506
 8073SOL    HW235856   0.861   0.376   5.290 -2.1099  1.1129  1.1842
 8074SOL     OW35857   4.425   2.512  14.428  0.0412  0.0709  0.5088
 8074SOL    HW135858   4.494   2.515  14.361  0.2233 -2.9329  0.5770
 8074SOL    HW235859   4.349   2.492  14.374  0.2224 -2.0859  1.0379
 8075SOL     OW35860   2.754   4.653   3.904 -0.2219  0.6862 -0.0597
 8075SOL    HW135861   2.806   4.732   3.887  1.1681 -0.1661  0.1919
 8075SOL    HW235862   2.764   4.604   3.823  2.5959  3.7198 -1.5709
 8076SOL     OW35863   4.077   2.534   1.547  0.2703 -0.4017 -0.4661
 8076SOL    HW135864   4.032   2.467   1.496 -1.3645  0.5614 -0.2715
 8076SOL    HW235865   4.110   2.593   1.479  0.6926  0.2670  0.3082
 8077SOL     OW35866   3.900   4.357  12.300  0.3704 -0.0083 -0.1719
 8077SOL    HW135867   3.916   4.294  12.230  0.2678 -1.1975  0.8779
 8077SOL    HW235868   3.970   4.330  12.359  0.0667  1.5501  0.8996
 8078SOL     OW35869   0.579   2.780   7.533  0.1956  0.4012  0.0190
 8078SOL    HW135870   0.556   2.815   7.447  1.1431 -0.3405 -0.5364
 8078SOL    HW235871   0.526   2.832   7.593 -0.1170 -0.5864  0.5943
 8079SOL     OW35872   3.722   4.595   9.212 -0.1290 -0.0423  0.0767
 8079SOL    HW135873   3.748   4.531   9.146 -2.2575  0.7689 -1.5484
 8079SOL    HW235874   3.803   4.642   9.231 -1.0888  1.6607  0.0365
 8080SOL     OW35875   2.013   1.531   6.189  0.3883 -0.0690 -0.6177
 8080SOL    HW135876   1.976   1.619   6.202  0.9513  0.1121 -0.2523
 8080SOL    HW235877   1.949   1.501   6.124 -0.7891  0.8225  0.1169
 8081SOL     OW35878   1.288   1.260   2.871 -0.4264  0.5713 -0.2245
 8081SOL    HW135879   1.333   1.246   2.788 -0.1475 -0.6478  0.1288
 8081SOL    HW235880   1.229   1.332   2.849 -1.7287  0.7768  3.9292
 8082SOL     OW35881   3.574   2.445   4.660 -0.1277  0.2735 -1.2343
 8082SOL    HW135882   3.479   2.435   4.660 -0.1153  0.2221  2.4242
 8082SOL    HW235883   3.601   2.487   4.578  2.9264  0.0400 -0.3597
 8083SOL     OW35884   0.119   4.511   2.412  0.1778  0.3550  0.4039
 8083SOL    HW135885   0.105   4.435   2.468 -1.6518 -1.7443 -2.9242
 8083SOL    HW235886   0.111   4.584   2.473  0.1887  0.6743  0.0223
 8084SOL     OW35887   0.066   2.959   8.203  0.1063  0.2623  0.2187
 8084SOL    HW135888   4.721   2.965   8.252 -0.8688  0.5594 -1.4395
 8084SOL    HW235889   0.124   2.995   8.271  1.3142  0.8661 -1.1251
 8085SOL     OW35890   0.336   1.925   2.750  0.1359  0.1216  0.1261
 8085SOL    HW135891   0.276   1.866   2.705 -2.0301  1.6474  1.0308
 8085SOL    HW235892   0.416   1.873   2.761 -0.2241 -0.2098  1.1303
 8086SOL     OW35893   3.959   4.168   8.615 -0.0024 -0.8742  0.1810
 8086SOL    HW135894   4.047   4.147   8.586 -1.1144 -1.7164 -2.6172
 8086SOL    HW235895   3.974   4.211   8.699 -0.4838  1.8634 -1.1505
 8087SOL     OW35896   1.517   4.704   9.015  0.3223 -0.2094  0.1472
 8087SOL    HW135897   1.441   0.016   8.985  0.3138  0.7792  1.8098
 8087SOL    HW235898   1.581   0.037   9.004 -0.9076  0.9758  0.5083
 8088SOL     OW35899   1.861   2.425   5.296 -0.1054  0.0044  0.6992
 8088SOL    HW135900   1.805   2.430   5.219  1.2534 -3.4657 -0.5114
 8088SOL    HW235901   1.802   2.467   5.359 -3.1414  1.5387 -3.2026
 8089SOL     OW35902   1.658   0.015   6.778  0.5890 -0.2406  0.3051
 8089SOL    HW135903   1.567   4.726   6.791  0.7004  0.0502  1.5845
 8089SOL    HW235904   1.688   0.026   6.868 -0.6051  0.8200  0.5629
 8090SOL     OW35905   2.843   0.090  12.301 -0.0395  0.3488 -0.2021
 8090SOL    HW135906   2.916   0.137  12.262 -0.9614  1.1302 -1.0065
 8090SOL    HW235907   2.867   4.735  12.298  2.1766  0.9719 -1.0678
 8091SOL     OW35908   3.470   2.442   2.892  0.0452 -0.7027  0.9483
 8091SOL    HW135909   3.529   2.503   2.848 -1.2191  0.4270  0.8228
 8091SOL    HW235910   3.520   2.434   2.973 -1.2218 -0.8314  1.7149
 8092SOL     OW35911   1.606   1.592   9.200 -0.0175 -0.2953 -0.1066
 8092SOL    HW135912   1.538   1.657   9.184 -2.7954 -2.6118  2.2516
 8092SOL    HW235913   1.681   1.647   9.223  1.4675 -3.0496  1.7310
 8093SOL     OW35914   1.075   0.777   7.321 -0.1626  0.6058 -0.1441
 8093SOL    HW135915   1.016   0.831   7.374  2.8454  0.9389  2.9245
 8093SOL    HW235916   1.091   0.710   7.388 -1.6287 -0.9851 -1.3808
 8094SOL     OW35917   4.497   3.489   2.137  0.3499 -0.4431 -0.7012
 8094SOL    HW135918   4.429   3.500   2.204 -1.0185  1.4834 -2.4313
 8094SOL    HW235919   4.520   3.398   2.157 -0.9947 -0.8215 -0.8216
 8095SOL     OW35920   4.221   2.775  10.680 -0.1337 -0.4832  0.4352
 8095SOL    HW135921   4.153   2.840  10.698  1.6655  1.8405 -1.2469
 8095SOL    HW235922   4.263   2.829  10.614  2.4244 -0.0130  2.4488
 8096SOL     OW35923   4.712   1.659   0.558  0.0529 -0.0675 -0.1950
 8096SOL    HW135924   4.646   1.715   0.516 -0.5759 -0.2970  0.4878
 8096SOL    HW235925   0.004   1.610   0.481 -1.1286  0.3400 -0.9028
 8097SOL     OW35926   3.652   1.641  10.594 -0.4808  0.1029  0.5811
 8097SOL    HW135927   3.670   1.547  10.594  0.2551  0.2544 -2.0230
 8097SOL    HW235928   3.566   1.640  10.635  0.3865  0.0230  2.4161
 8098SOL     OW35929   0.613   3.605   2.882  0.1105 -0.0618  0.1954
 8098SOL    HW135930   0.621   3.538   2.814  0.7142 -0.0274  0.2345
 8098SOL    HW235931   0.538   3.573   2.933 -0.2297 -0.1027 -0.3402
 8099SOL     OW35932   1.692   3.741   4.846  0.3509 -0.1272 -0.4369
 8099SOL    HW135933   1.635   3.687   4.902  0.0072 -1.8925 -2.4727
 8099SOL    HW235934   1.702   3.699   4.760  0.2131  2.2461 -1.6062
 8100SOL     OW35935   1.490   2.183   4.649  0.6136 -0.3121  0.2909
 8100SOL    HW135936   1.450   2.215   4.730  1.9400 -0.7191  1.0992
 8100SOL    HW235937   1.453   2.095   4.654  0.2318 -0.2184 -0.7063
 8101SOL     OW35938   0.587   1.664  10.991  0.2964 -0.4622  0.7730
 8101SOL    HW135939   0.676   1.670  11.026  0.5204 -3.1381  0.6865
 8101SOL    HW235940   0.565   1.574  11.014  0.1942 -0.6842 -0.1895
 8102SOL     OW35941   1.111   3.178   5.057 -0.2717  0.4945  0.4635
 8102SOL    HW135942   1.137   3.231   5.133  0.2254 -0.4801  0.9733
 8102SOL    HW235943   1.112   3.256   5.001 -1.2818  1.7908  2.2262
 8103SOL     OW35944   0.476   3.620  13.618  0.0337 -0.0397 -0.1991
 8103SOL    HW135945   0.460   3.669  13.699  0.9840 -2.2268  1.3264
 8103SOL    HW235946   0.476   3.694  13.557  2.2119 -1.6021 -2.0783
 8104SOL     OW35947   1.871   0.669   2.500 -0.0778 -0.3289  1.0189
 8104SOL    HW135948   1.946   0.717   2.466  0.6163 -1.8866  0.3119
 8104SOL    HW235949   1.819   0.740   2.537 -0.9140 -0.4485  0.0867
 8105SOL     OW35950   2.041   0.417  11.169 -0.2395  0.3246  0.1891
 8105SOL    HW135951   2.054   0.511  11.157  0.3037  0.3217  0.7387
 8105SOL    HW235952   2.035   0.410  11.264 -1.3485 -3.6588 -0.1894
 8106SOL     OW35953   2.773   0.770  13.101 -0.0507  0.1257 -0.8743
 8106SOL    HW135954   2.777   0.822  13.181  1.5974  2.5241 -2.5301
 8106SOL    HW235955   2.700   0.713  13.128  1.0098 -1.8064 -2.0288
 8107SOL     OW35956   2.860   4.257  12.562 -0.0413 -0.1970  0.4850
 8107SOL    HW135957   2.846   4.167  12.591  0.0427 -1.4732 -3.4382
 8107SOL    HW235958   2.886   4.242  12.471 -3.3678 -0.0424 -0.4884
 8108SOL     OW35959   0.274   3.359  13.600 -0.1095 -0.4496  0.3463
 8108SOL    HW135960   0.222   3.410  13.663  1.4820 -1.5268  2.5179
 8108SOL    HW235961   0.215   3.362  13.525  0.1008  2.1497  0.2910
 8109SOL     OW35962   2.451   0.430   9.834  0.9807  0.2306  0.0133
 8109SOL    HW135963   2.425   0.408   9.923 -1.0636 -0.7429 -0.8113
 8109SOL    HW235964   2.477   0.521   9.848  2.1686 -0.1647  0.3608
 8110SOL     OW35965   2.771   0.081   1.173  0.1437  0.0916 -0.4126
 8110SOL    HW135966   2.821   0.131   1.109  1.2409 -1.0000 -0.4085
 8110SOL    HW235967   2.719   0.150   1.215 -0.4166 -0.5230 -0.1014
 8111SOL     OW35968   0.336   1.355   8.055  0.2072 -0.0208 -0.0549
 8111SOL    HW135969   0.271   1.287   8.037 -0.3471  1.0247 -2.0232
 8111SOL    HW235970   0.366   1.381   7.968 -1.0609 -1.0669 -0.7919
 8112SOL     OW35971   3.747   1.901   2.740 -0.3487 -0.2783 -0.0576
 8112SOL    HW135972   3.680   1.836   2.716  0.0227 -0.2951 -1.0572
 8112SOL    HW235973   3.772   1.932   2.653 -1.6947  2.5998  0.5987
 8113SOL     OW35974   1.375   3.018   2.267  0.1385  0.3938 -0.5116
 8113SOL    HW135975   1.339   3.062   2.190  0.3697  0.4996 -0.5598
 8113SOL    HW235976   1.391   2.938   2.216  2.3952 -0.3843  1.3902
 8114SOL     OW35977   0.297   2.024   8.410 -0.1444  0.0210  0.2712
 8114SOL    HW135978   0.287   1.969   8.332 -1.8321 -0.4994  0.8434
 8114SOL    HW235979   0.371   1.985   8.456 -1.5248 -0.6803  1.9189
 8115SOL     OW35980   4.624   1.447   3.123 -0.9338  0.0130  0.0965
 8115SOL    HW135981   4.599   1.454   3.215 -2.5956  0.0715 -0.3654
 8115SOL    HW235982   4.601   1.355   3.109 -2.3763  0.9760 -3.9920
 8116SOL     OW35983   0.539   3.873   3.686 -0.7589 -1.0608  0.0080
 8116SOL    HW135984   0.595   3.846   3.759  0.2441  1.3979  0.1410
 8116SOL    HW235985   0.452   3.846   3.715 -0.9082  0.7244  1.2589
 8117SOL     OW35986   3.984   1.029   5.672 -0.0865 -0.2592 -0.0096
 8117SOL    HW135987   3.981   0.936   5.695  1.7042 -0.8450 -2.0984
 8117SOL    HW235988   3.965   1.009   5.580  2.1335  0.6818 -0.6730
 8118SOL     OW35989   1.373   3.782   4.179 -0.4185  0.1615 -0.2678
 8118SOL    HW135990   1.317   3.858   4.163 -0.1150  0.4822  0.1776
 8118SOL    HW235991   1.428   3.820   4.248  0.6416 -1.5978 -0.1421
 8119SOL     OW35992   3.424   0.112   7.885  0.1879 -0.0797 -0.4959
 8119SOL    HW135993   3.387   0.025   7.896 -0.9229  0.5118  0.3606
 8119SOL    HW235994   3.430   0.109   7.789  1.6654 -2.1458 -0.3412
 8120SOL     OW35995   4.450   2.264   2.593  0.1851 -0.2175 -0.1307
 8120SOL    HW135996   4.357   2.276   2.573 -0.2588  0.0739  2.0194
 8120SOL    HW235997   4.482   2.282   2.505  1.3805 -1.9778 -0.0764
 8121SOL     OW35998   2.083   0.307  17.303  0.1939 -1.2553 -0.2675
 8121SOL    HW135999   1.999   0.314  17.347  0.4502 -0.1629  0.0355
 8121SOL    HW236000   2.083   0.211  17.300  1.5333 -1.2877  1.0922
 8122SOL     OW36001   4.035   3.942   8.076 -0.1038 -0.4953 -0.0770
 8122SOL    HW136002   4.032   3.876   8.007 -1.6945 -1.2548  0.7191
 8122SOL    HW236003   3.979   4.005   8.031  0.6416 -0.2824 -0.7061
 8123SOL     OW36004   4.652   3.983   1.836 -0.0333 -0.1312 -0.5011
 8123SOL    HW136005   4.682   4.067   1.870 -2.7500 -0.4309  2.7617
 8123SOL    HW236006   4.561   4.003   1.861  0.2837  0.5994  0.0611
 8124SOL     OW36007   0.659   3.714   9.047 -0.0250  0.1226 -0.1428
 8124SOL    HW136008   0.648   3.747   8.958  2.4372 -0.1492 -0.5290
 8124SOL    HW236009   0.570   3.683   9.066 -0.0379 -1.5017 -2.8600
 8125SOL     OW36010   3.530   0.859   8.243 -0.2871 -0.2820  0.6238
 8125SOL    HW136011   3.513   0.907   8.161  1.1772  2.4208  1.8862
 8125SOL    HW236012   3.441   0.858   8.278  0.4193 -0.7248  2.4249
 8126SOL     OW36013   1.787   0.565  17.372 -0.2744 -0.5196 -0.4695
 8126SOL    HW136014   1.749   0.482  17.398  0.8862 -0.9689 -0.2233
 8126SOL    HW236015   1.830   0.549  17.288  1.8903  1.2153  0.2933
 8127SOL     OW36016   1.775   0.436   7.862  0.0512 -0.1539  0.6005
 8127SOL    HW136017   1.858   0.391   7.843  0.3143 -0.5005  2.5688
 8127SOL    HW236018   1.751   0.389   7.942  0.1502  0.9057  1.2444
 8128SOL     OW36019   0.135   3.855   3.949  0.0247  0.1614  0.4725
 8128SOL    HW136020   0.141   3.833   3.856  2.5433  1.7102  0.2610
 8128SOL    HW236021   0.230   3.864   3.963 -0.4648 -0.4836  4.1060
 8129SOL     OW36022   2.959   2.386   2.990 -0.5356 -0.5165  0.1819
 8129SOL    HW136023   2.974   2.349   2.903  0.3868 -2.4229  1.1636
 8129SOL    HW236024   2.866   2.371   3.007 -0.3828 -0.9472  0.6244
 8130SOL     OW36025   4.249   4.161   8.652  0.3422  0.2673 -0.4244
 8130SOL    HW136026   4.308   4.231   8.625 -0.3020  1.2541  0.7211
 8130SOL    HW236027   4.292   4.077   8.637  1.5160  0.6001  1.0618
 8131SOL     OW36028   3.379   2.630  16.773  0.1630 -0.0858 -0.4118
 8131SOL    HW136029   3.345   2.719  16.762  0.6192  0.2446  0.8447
 8131SOL    HW236030   3.332   2.601  16.851 -2.4879  1.0331 -1.6126
 8132SOL     OW36031   2.398   2.483   8.558  0.2553  0.2296  0.4800
 8132SOL    HW136032   2.389   2.389   8.547 -2.1149  0.5619 -0.3548
 8132SOL    HW236033   2.493   2.490   8.564  0.1712  1.1915  0.8031
 8133SOL     OW36034   3.290   4.461   7.770 -0.0135  0.2909 -0.7419
 8133SOL    HW136035   3.381   4.486   7.784  0.6283 -2.0536 -0.6892
 8133SOL    HW236036   3.254   4.446   7.857  0.4701 -2.1074 -0.9531
 8134SOL     OW36037   3.798   3.127  13.116  1.1517 -0.3451 -0.5550
 8134SOL    HW136038   3.832   3.212  13.144  0.4980  0.3858 -1.9370
 8134SOL    HW236039   3.877   3.082  13.087  1.8757  0.2695  0.4450
 8135SOL     OW36040   1.954   0.678   6.173 -0.0417  0.5747  0.0216
 8135SOL    HW136041   1.998   0.593   6.175 -1.5749 -0.2326 -0.8275
 8135SOL    HW236042   2.019   0.745   6.149  3.5973 -1.8908  3.0810
 8136SOL     OW36043   4.176   4.631  15.402  0.0646  0.5562  0.1289
 8136SOL    HW136044   4.249   4.584  15.441 -1.1300  1.5627  3.6061
 8136SOL    HW236045   4.136   4.691  15.466  0.9367  0.9080  0.3446
 8137SOL     OW36046   0.092   0.101   2.519  0.0771 -0.2001  0.3964
 8137SOL    HW136047   0.171   0.086   2.468  0.8247  0.8734  1.2131
 8137SOL    HW236048   0.119   0.173   2.577  0.4929 -0.4171  0.4750
 8138SOL     OW36049   1.138   3.405   1.222 -0.0023 -0.2902 -0.1722
 8138SOL    HW136050   1.155   3.499   1.219 -1.7846  0.0514  0.5793
 8138SOL    HW236051   1.063   3.394   1.163 -0.7472 -2.0278  1.0790
 8139SOL     OW36052   0.173   1.999   5.982 -0.3596 -0.6325  0.2090
 8139SOL    HW136053   0.098   2.056   5.999  1.6978  2.7959 -2.2063
 8139SOL    HW236054   0.130   1.916   5.962  0.0169  0.0022 -3.2090
 8140SOL     OW36055   0.566   1.089   6.931  0.4390 -0.0538  0.0313
 8140SOL    HW136056   0.624   1.133   6.993 -0.1086 -1.1784  1.3343
 8140SOL    HW236057   0.595   1.120   6.845 -0.0272  0.8161  0.1894
 8141SOL     OW36058   1.194   0.127   8.465 -0.0844 -0.3274  0.6084
 8141SOL    HW136059   1.166   0.143   8.374 -0.6323 -0.2083  0.7977
 8141SOL    HW236060   1.214   0.034   8.461  0.5233 -0.1055 -1.5262
 8142SOL     OW36061   0.838   3.407   6.019  0.7590 -0.0610 -0.3192
 8142SOL    HW136062   0.906   3.402   6.085  0.7912  0.3284 -0.3240
 8142SOL    HW236063   0.773   3.364   6.074 -0.1483 -0.0391 -1.3609
 8143SOL     OW36064   2.157   2.522   8.988 -0.2582 -0.0644  0.1313
 8143SOL    HW136065   2.227   2.542   8.925 -0.6608  0.8825 -0.0057
 8143SOL    HW236066   2.107   2.459   8.936 -0.8553  0.3086  0.2554
 8144SOL     OW36067   4.535   1.975   7.777 -0.0495  0.3847 -0.2466
 8144SOL    HW136068   4.453   2.025   7.774 -0.4912 -0.3258 -0.1596
 8144SOL    HW236069   4.507   1.890   7.811  0.5827  1.2013  2.2949
 8145SOL     OW36070   1.045   2.021   6.537 -0.0614 -0.0342 -0.1273
 8145SOL    HW136071   1.011   1.942   6.579  1.3650 -0.1686  0.7680
 8145SOL    HW236072   1.087   2.065   6.611 -0.8432 -2.0795  1.5465
 8146SOL     OW36073   2.946   0.826   7.279 -0.1750 -0.5093  0.7216
 8146SOL    HW136074   3.013   0.760   7.265 -1.3232 -1.9184  1.9104
 8146SOL    HW236075   2.988   0.892   7.335 -0.8040  0.7833 -0.3150
 8147SOL     OW36076   3.850   1.755   3.447  0.1701  0.1144  0.0072
 8147SOL    HW136077   3.894   1.835   3.418 -0.1835 -0.0226 -0.8940
 8147SOL    HW236078   3.909   1.716   3.512 -0.5890 -0.7535  0.1717
 8148SOL     OW36079   1.518   1.048   3.803  0.0504  0.5113 -0.4468
 8148SOL    HW136080   1.438   0.995   3.809 -0.1326  0.7958 -0.4200
 8148SOL    HW236081   1.517   1.072   3.710  1.2843 -0.8653 -0.8087
 8149SOL     OW36082   1.217   3.848   4.432 -0.0688 -0.2350 -0.1399
 8149SOL    HW136083   1.242   3.804   4.513  0.7660 -0.3001 -0.4279
 8149SOL    HW236084   1.290   3.907   4.414  0.5620 -1.4065 -1.4578
 8150SOL     OW36085   4.158   0.522   6.732 -0.5253  0.0053  0.3478
 8150SOL    HW136086   4.195   0.584   6.794 -3.7239  0.7922  1.4872
 8150SOL    HW236087   4.235   0.473   6.702 -0.0668  1.1411 -0.3253
 8151SOL     OW36088   1.339   2.747   8.142  0.1796 -0.4427  0.8255
 8151SOL    HW136089   1.285   2.674   8.114 -2.6699  1.8043  0.4900
 8151SOL    HW236090   1.315   2.810   8.075 -0.2865 -0.6621  0.7871
 8152SOL     OW36091   2.269   0.114   4.701  0.5855  0.0431 -0.5438
 8152SOL    HW136092   2.362   0.126   4.719  1.0605 -0.9317 -2.3466
 8152SOL    HW236093   2.243   0.022   4.713 -7.4576  2.5795  1.3421
 8153SOL     OW36094   3.764   0.639  15.914  0.3382  0.2045 -0.0015
 8153SOL    HW136095   3.788   0.564  15.968  0.0212  1.4951  1.9512
 8153SOL    HW236096   3.673   0.631  15.886 -1.2601  0.4510  5.1732
 8154SOL     OW36097   0.695   3.159   6.965  0.2658  0.3786  0.0571
 8154SOL    HW136098   0.769   3.106   6.936 -1.1624 -3.4605  3.3353
 8154SOL    HW236099   0.706   3.246   6.926 -0.3826 -0.0727 -1.1500
 8155SOL     OW36100   0.982   0.905   9.140 -0.0395  0.0395  0.1833
 8155SOL    HW136101   0.889   0.916   9.156 -0.5097 -1.7539 -1.3402
 8155SOL    HW236102   0.972   0.889   9.046  3.7699 -1.5643  0.0334
 8156SOL     OW36103   3.821   0.784  11.909 -0.1466  0.0498 -0.5067
 8156SOL    HW136104   3.763   0.749  11.841 -0.5174  0.0538 -0.1921
 8156SOL    HW236105   3.859   0.702  11.942 -0.2121  0.1742 -0.1165
 8157SOL     OW36106   2.390   2.957  16.075 -0.3660  0.3663  0.0266
 8157SOL    HW136107   2.316   2.987  16.024  0.3557  0.7278 -0.8074
 8157SOL    HW236108   2.361   2.875  16.115  1.3326 -0.6056 -0.7315
 8158SOL     OW36109   4.279   2.463   7.340 -0.0258  0.6096  0.3638
 8158SOL    HW136110   4.314   2.535   7.394  3.4750  0.1972 -1.3427
 8158SOL    HW236111   4.219   2.516   7.288  0.9149  0.6662 -0.6698
 8159SOL     OW36112   3.347   2.407   8.001 -0.0190 -0.0595 -0.4043
 8159SOL    HW136113   3.356   2.372   8.090  1.6934  1.6151  0.0981
 8159SOL    HW236114   3.378   2.497   8.015  3.5225 -1.1874 -0.7779
 8160SOL     OW36115   2.266   2.054   5.519  0.1689  0.5816 -0.5367
 8160SOL    HW136116   2.334   2.104   5.564  0.8402 -1.2950  0.5315
 8160SOL    HW236117   2.291   2.046   5.427  0.3517 -0.2883 -0.4083
 8161SOL     OW36118   1.306   2.977   6.946  0.0544  0.5445  0.0871
 8161SOL    HW136119   1.282   2.885   6.956 -1.3187  0.6783 -1.9903
 8161SOL    HW236120   1.385   2.985   7.000  1.9408 -4.2213 -1.9997
 8162SOL     OW36121   4.692   2.929   5.856 -0.2545  0.2729  0.3789
 8162SOL    HW136122   4.655   2.847   5.888 -1.3360  1.0090  1.0517
 8162SOL    HW236123   0.024   2.949   5.920  0.1073 -1.1991  0.4360
 8163SOL     OW36124   0.687   4.230  10.816 -0.0695 -0.1310 -0.1075
 8163SOL    HW136125   0.703   4.319  10.787 -1.0941  0.4094  0.9638
 8163SOL    HW236126   0.669   4.187  10.733  0.6200 -0.9783  0.1842
 8164SOL     OW36127   0.795   2.331   7.535 -0.2096 -0.5703 -0.4558
 8164SOL    HW136128   0.762   2.324   7.445  0.4686 -0.1748 -0.7331
 8164SOL    HW236129   0.772   2.247   7.575  0.7903 -1.5776 -1.9886
 8165SOL     OW36130   2.033   0.733   9.353  0.2992 -0.1147 -0.2234
 8165SOL    HW136131   2.049   0.799   9.420 -0.2733  0.7049 -0.8836
 8165SOL    HW236132   2.108   0.674   9.362  0.5052  0.2338  0.3386
 8166SOL     OW36133   1.800   0.987   3.595  0.2541 -0.3473  0.4014
 8166SOL    HW136134   1.801   0.894   3.620 -0.7889 -0.3126  0.5633
 8166SOL    HW236135   1.791   0.984   3.499 -0.1654 -0.1503  0.4335
 8167SOL     OW36136   3.458   3.064   6.983  0.2121  0.3334 -0.4981
 8167SOL    HW136137   3.508   3.059   7.065  0.0354 -0.8403 -0.4694
 8167SOL    HW236138   3.405   3.142   7.000 -1.3835 -0.4043 -2.0663
 8168SOL     OW36139   3.619   3.359  16.767  0.1273  0.1754 -0.3552
 8168SOL    HW136140   3.536   3.310  16.769 -1.0207  2.1930  0.9429
 8168SOL    HW236141   3.614   3.391  16.857 -0.6669  0.6392 -0.5617
 8169SOL     OW36142   2.023   1.249  11.540 -0.0109  0.3261 -0.6074
 8169SOL    HW136143   2.076   1.192  11.594  1.0790  0.9147 -1.0577
 8169SOL    HW236144   2.093   1.298  11.497 -0.7523 -0.7407 -3.0328
 8170SOL     OW36145   0.332   2.524   4.988 -0.3399  0.0998 -0.1938
 8170SOL    HW136146   0.367   2.458   5.047 -0.0574  0.5268  0.1224
 8170SOL    HW236147   0.281   2.469   4.929 -0.6461 -1.8043  1.8734
 8171SOL     OW36148   2.370   2.136   3.040  0.5844  0.0063  0.2293
 8171SOL    HW136149   2.291   2.144   3.093 -0.6255 -2.9338 -1.1003
 8171SOL    HW236150   2.367   2.227   3.011 -1.2542  0.4077  1.7609
 8172SOL     OW36151   0.487   2.275   9.192 -0.0816 -0.0400 -0.2345
 8172SOL    HW136152   0.474   2.224   9.272 -1.1209  1.5196  0.5810
 8172SOL    HW236153   0.574   2.246   9.164  0.4184  2.3432 -1.0994
 8173SOL     OW36154   3.535   3.733  14.268  0.1386  0.3815  0.6473
 8173SOL    HW136155   3.580   3.732  14.352  0.2913 -0.9353  0.5476
 8173SOL    HW236156   3.502   3.823  14.274  2.3840  1.2802 -0.7590
 8174SOL     OW36157   3.185   3.578   5.718 -0.7774  0.1556  0.9124
 8174SOL    HW136158   3.242   3.636   5.667 -0.3606 -0.3324  0.8188
 8174SOL    HW236159   3.118   3.556   5.653  0.4145  2.2655 -1.0436
 8175SOL     OW36160   3.373   2.968   4.706 -0.0587  0.5068  0.3365
 8175SOL    HW136161   3.405   3.058   4.701  0.8619  0.0881 -1.5808
 8175SOL    HW236162   3.342   2.956   4.796  0.6225 -0.8173  0.3998
 8176SOL     OW36163   0.182   1.763  12.973 -1.0752 -0.2732 -0.0720
 8176SOL    HW136164   0.194   1.854  12.948  1.7197 -0.3864  0.7836
 8176SOL    HW236165   0.272   1.732  12.964 -1.3248 -0.3308 -2.3228
 8177SOL     OW36166   4.480   2.838   3.697 -0.2692  0.3983 -0.4913
 8177SOL    HW136167   4.539   2.763   3.697  0.9558  1.3495  2.2011
 8177SOL    HW236168   4.535   2.905   3.656 -0.1134  0.6936  0.2039
 8178SOL     OW36169   3.818   4.638   4.369 -0.5015  0.2322  0.3973
 8178SOL    HW136170   3.778   4.552   4.376  0.6781 -0.5140 -1.9841
 8178SOL    HW236171   3.748   4.686   4.413 -0.8629 -0.0401  0.1170
 8179SOL     OW36172   4.297   0.002   4.983  0.1345  0.4480  0.1493
 8179SOL    HW136173   4.294   4.643   4.988  0.8428  0.3468 -1.3007
 8179SOL    HW236174   4.215   0.015   4.935 -0.3844 -0.2653  0.8475
 8180SOL     OW36175   2.025   3.029   8.094  0.2582  0.0449 -0.3253
 8180SOL    HW136176   2.029   2.950   8.040  2.6780  0.1847 -0.3494
 8180SOL    HW236177   2.109   3.066   8.067 -0.1422  0.5401 -0.9058
 8181SOL     OW36178   2.977   4.045   8.489 -0.6629 -0.1532 -0.3129
 8181SOL    HW136179   2.950   4.005   8.406  1.4749 -0.6851 -0.7304
 8181SOL    HW236180   3.064   4.084   8.480  0.0732 -1.5269  0.8430
 8182SOL     OW36181   1.918   0.685   4.961  0.3674  0.3997 -0.2757
 8182SOL    HW136182   1.994   0.628   4.948  0.7587  0.5068  1.5597
 8182SOL    HW236183   1.916   0.726   4.875 -4.6858  1.4966  0.3900
 8183SOL     OW36184   1.388   2.103   4.337  0.1494  0.1544 -0.2250
 8183SOL    HW136185   1.301   2.128   4.369  0.9605 -0.4358  2.3817
 8183SOL    HW236186   1.441   2.183   4.332  0.7232 -0.0254  3.0284
 8184SOL     OW36187   0.157   3.117   9.088 -0.5146  1.1042  0.5329
 8184SOL    HW136188   0.130   3.045   9.031  3.3069  1.0474 -1.1710
 8184SOL    HW236189   0.125   3.088   9.174 -0.0591 -0.7148  0.0804
 8185SOL     OW36190   4.348   2.891  17.470 -0.6123  0.4351  0.3766
 8185SOL    HW136191   4.421   2.949  17.491  0.3455 -0.5269 -0.3346
 8185SOL    HW236192   4.379   2.845  17.393 -2.0194 -1.9216  1.2056
 8186SOL     OW36193   2.832   0.637   3.609 -0.0719  0.3723 -0.1807
 8186SOL    HW136194   2.802   0.728   3.615 -0.7411  0.2276 -1.3801
 8186SOL    HW236195   2.745   0.607   3.582  0.9284 -0.5503 -2.3454
 8187SOL     OW36196   1.390   2.284   2.243 -0.5182 -0.4741 -0.1054
 8187SOL    HW136197   1.445   2.237   2.180 -0.0156 -0.2007  0.1300
 8187SOL    HW236198   1.429   2.244   2.321  0.6470  0.4903 -0.1886
 8188SOL     OW36199   2.002   4.007   5.221  0.1409  0.5718 -0.1672
 8188SOL    HW136200   2.075   3.964   5.178 -1.5585 -2.4891 -0.0427
 8188SOL    HW236201   2.042   4.048   5.298  0.3584  0.2513 -0.1090
 8189SOL     OW36202   1.106   1.353   6.419  0.1717  0.2943 -0.2058
 8189SOL    HW136203   1.049   1.282   6.388 -0.3441  1.1088 -1.1080
 8189SOL    HW236204   1.153   1.310   6.490  0.8611  2.5445  0.6891
 8190SOL     OW36205   2.618   1.747   0.495 -0.4095 -0.8866  0.4845
 8190SOL    HW136206   2.668   1.823   0.522  0.7779 -0.8047 -1.9684
 8190SOL    HW236207   2.593   1.761   0.403  0.3870  0.0988  0.4173
 8191SOL     OW36208   0.133   0.112   9.753 -0.2594  0.1260  0.5868
 8191SOL    HW136209   0.113   0.179   9.818  1.0469  0.7431  0.3686
 8191SOL    HW236210   0.145   0.036   9.809  3.7984  0.3965  0.1317
 8192SOL     OW36211   3.964   2.507   4.202  0.0989 -1.0717 -0.2966
 8192SOL    HW136212   3.904   2.562   4.151  0.2068 -1.7110 -1.1220
 8192SOL    HW236213   4.019   2.470   4.133  1.1898  0.6263 -0.3306
 8193SOL     OW36214   2.998   3.913  13.620 -0.8313 -0.0390  0.1581
 8193SOL    HW136215   2.905   3.893  13.630 -0.7343 -0.9475 -0.7976
 8193SOL    HW236216   3.034   3.859  13.690 -1.2499 -1.1944 -0.5231
 8194SOL     OW36217   1.113   2.249   5.900 -0.2367 -0.2034 -0.2737
 8194SOL    HW136218   1.060   2.251   5.980  1.4282  1.5903  0.7858
 8194SOL    HW236219   1.052   2.213   5.835 -2.0244 -0.6017  1.6253
 8195SOL     OW36220   2.094   4.073   6.728 -0.0079 -0.0924 -0.1778
 8195SOL    HW136221   2.047   4.075   6.811 -0.1155 -1.2086 -0.2179
 8195SOL    HW236222   2.151   3.996   6.729 -0.1465 -0.1816  1.1715
 8196SOL     OW36223   3.435   4.517   5.203  0.0540  0.6857 -0.2267
 8196SOL    HW136224   3.432   4.423   5.219 -0.6413  0.3682 -2.3309
 8196SOL    HW236225   3.478   4.506   5.118  2.2458  0.6037  0.8863
 8197SOL     OW36226   3.956   0.242  15.248 -0.5043 -0.1230 -0.9230
 8197SOL    HW136227   3.981   0.335  15.250  0.1619 -0.2925 -1.2530
 8197SOL    HW236228   3.885   0.227  15.186 -0.1115  0.1191 -1.4360
 8198SOL     OW36229   3.319   2.839  10.281  0.5532 -0.3730 -0.0373
 8198SOL    HW136230   3.366   2.849  10.198  0.8993 -1.2009  0.0647
 8198SOL    HW236231   3.358   2.766  10.328 -0.0263 -0.7936 -0.2241
 8199SOL     OW36232   0.289   3.613   4.403  0.3627  0.4862  0.1246
 8199SOL    HW136233   0.300   3.673   4.329 -2.3736  0.1637 -0.5591
 8199SOL    HW236234   0.248   3.540   4.355 -0.5232 -0.3979  2.2425
 8200SOL     OW36235   3.755   3.209   8.787  0.1968 -0.1147 -0.0282
 8200SOL    HW136236   3.770   3.195   8.693 -3.4611  0.9429 -0.7765
 8200SOL    HW236237   3.731   3.301   8.785  0.3813 -0.0726 -0.3898
 8201SOL     OW36238   0.939   0.866  12.999 -0.4266  0.8352  0.3736
 8201SOL    HW136239   0.891   0.878  12.917  1.0692  0.9548 -0.4956
 8201SOL    HW236240   0.889   0.932  13.048  2.0656  2.6437  0.5146
 8202SOL     OW36241   2.427   1.377   5.445 -0.3640 -0.1407  0.1490
 8202SOL    HW136242   2.398   1.302   5.393 -1.1086  0.6559 -0.5942
 8202SOL    HW236243   2.369   1.376   5.520  0.1044 -1.0409  0.4963
 8203SOL     OW36244   4.612   0.968   7.519 -0.0416 -0.3747  0.0811
 8203SOL    HW136245   4.621   0.877   7.491 -0.6288  0.0180 -1.3411
 8203SOL    HW236246   4.520   0.977   7.495  0.7976  0.0868 -2.9216
 8204SOL     OW36247   1.151   0.579   4.592 -0.0858 -0.7471  0.3632
 8204SOL    HW136248   1.077   0.550   4.645 -0.4505  0.6054  0.5925
 8204SOL    HW236249   1.213   0.578   4.665  1.2557 -0.0264 -0.7719
 8205SOL     OW36250   0.863   3.615   6.284 -0.2319 -0.3454  0.2334
 8205SOL    HW136251   0.906   3.663   6.355 -1.9760  0.3558  0.8047
 8205SOL    HW236252   0.827   3.687   6.231  1.0517  0.7220  0.8056
 8206SOL     OW36253   3.288   3.303   7.004 -0.4732 -0.4666 -0.0628
 8206SOL    HW136254   3.234   3.275   6.930 -0.0325  0.3907 -0.6968
 8206SOL    HW236255   3.303   3.397   7.000 -0.3292 -0.4447  0.8143
 8207SOL     OW36256   0.757   3.354   6.363 -0.9152  0.1358  0.1284
 8207SOL    HW136257   0.804   3.285   6.315  1.9667  2.1224  0.0956
 8207SOL    HW236258   0.808   3.431   6.336 -0.6053 -0.1841 -0.2081
 8208SOL     OW36259   2.796   2.596  16.810  0.3390 -0.2034 -0.1124
 8208SOL    HW136260   2.734   2.575  16.739 -2.1158  0.6238  1.8034
 8208SOL    HW236261   2.779   2.690  16.817  0.1026 -0.0655 -2.3405
 8209SOL     OW36262   2.767   3.096   0.635  0.3951  0.5119  0.7624
 8209SOL    HW136263   2.785   3.148   0.713  0.7745  1.1047  0.2814
 8209SOL    HW236264   2.702   3.040   0.677  2.0811 -1.2234  1.0354
 8210SOL     OW36265   2.816   0.197   3.831  0.5027  0.3354  0.0902
 8210SOL    HW136266   2.866   0.217   3.910 -1.2661  5.1800 -0.0202
 8210SOL    HW236267   2.751   0.267   3.840 -3.3410 -2.8249 -2.8764
 8211SOL     OW36268   1.358   4.159   1.670  0.0101 -0.3337 -0.1266
 8211SOL    HW136269   1.319   4.238   1.632  1.4902  0.3645 -0.1789
 8211SOL    HW236270   1.288   4.094   1.671 -1.4993  1.3135  0.9087
 8212SOL     OW36271   0.510   4.174   6.499 -0.4940  0.1618 -0.2615
 8212SOL    HW136272   0.477   4.157   6.411  0.5399  0.2232 -0.6621
 8212SOL    HW236273   0.471   4.108   6.556  1.0276  0.5600  1.2470
 8213SOL     OW36274   3.068   2.951   8.049  0.0769  0.5652 -0.4804
 8213SOL    HW136275   2.980   2.927   8.077 -0.3197 -0.0863 -2.2488
 8213SOL    HW236276   3.090   2.885   7.983  1.0811  0.6115 -0.1912
 8214SOL     OW36277   4.660   0.620   6.696  0.0648 -0.1530  0.7646
 8214SOL    HW136278   4.651   0.655   6.607  0.8429  0.0606  0.7684
 8214SOL    HW236279   4.570   0.616   6.731 -0.3191  0.2437 -0.1704
 8215SOL     OW36280   4.178   2.074   3.205 -0.0935 -0.2324  0.4713
 8215SOL    HW136281   4.238   2.118   3.265  1.5094 -1.3106 -0.3261
 8215SOL    HW236282   4.152   2.141   3.141 -0.0260 -1.3027 -0.6839
 8216SOL     OW36283   1.998   1.150   8.925  0.8115  0.2912  0.2141
 8216SOL    HW136284   1.937   1.198   8.868  1.9657 -1.0988 -2.2040
 8216SOL    HW236285   1.936   1.104   8.981  2.3102 -1.7304  0.2263
 8217SOL     OW36286   0.746   1.347   0.670  0.4289  0.5524  0.1110
 8217SOL    HW136287   0.667   1.318   0.626  0.0941  0.4469  0.7771
 8217SOL    HW236288   0.724   1.404   0.744  3.3192  0.0180  1.4293
 8218SOL     OW36289   2.528   3.282  11.950  0.1104 -0.0686 -0.0286
 8218SOL    HW136290   2.544   3.225  12.025  0.0275 -0.9776 -0.7018
 8218SOL    HW236291   2.574   3.232  11.884  0.7827  0.5651 -0.0414
 8219SOL     OW36292   0.779   4.133   1.999  0.2030 -0.0846 -0.3141
 8219SOL    HW136293   0.717   4.078   2.047 -1.1344 -0.6023 -2.6215
 8219SOL    HW236294   0.740   4.143   1.912 -0.9299  0.9362  0.2987
 8220SOL     OW36295   1.217   0.807   7.101 -0.2267 -0.0223 -0.0006
 8220SOL    HW136296   1.180   0.858   7.028  0.0770  0.8574  0.4696
 8220SOL    HW236297   1.142   0.806   7.160  1.2976 -1.5674  1.8785
 8221SOL     OW36298   0.415   2.659   1.450  0.6261 -0.1719 -0.0493
 8221SOL    HW136299   0.492   2.603   1.460  0.7364 -0.1929 -1.0272
 8221SOL    HW236300   0.435   2.692   1.362 -0.9307 -0.0323 -0.3558
 8222SOL     OW36301   3.840   0.746  10.145 -0.9055 -0.5156  0.4470
 8222SOL    HW136302   3.802   0.753  10.058  0.6673 -2.6694 -0.4301
 8222SOL    HW236303   3.797   0.820  10.187 -2.1811  0.4094 -2.5163
 8223SOL     OW36304   2.872   4.110   6.347  0.4971  0.5007 -0.4046
 8223SOL    HW136305   2.923   4.044   6.300 -1.3057 -0.8156 -0.5274
 8223SOL    HW236306   2.787   4.065   6.352  0.0449  1.2613 -1.1609
 8224SOL     OW36307   1.804   3.260   2.448 -0.0813 -0.0235 -0.0280
 8224SOL    HW136308   1.795   3.328   2.514  0.1084 -0.5851  0.5805
 8224SOL    HW236309   1.763   3.190   2.500 -1.5033 -1.8909 -3.6961
 8225SOL     OW36310   4.267   1.813   2.912 -0.1772  0.0862 -0.8232
 8225SOL    HW136311   4.176   1.841   2.919  0.4817  2.1476 -0.6002
 8225SOL    HW236312   4.316   1.819   2.994 -1.7386 -0.5777  0.1612
 8226SOL     OW36313   3.911   2.019   3.640 -0.1131  0.5133 -0.0838
 8226SOL    HW136314   3.901   2.012   3.545  2.1084 -0.4419 -0.2541
 8226SOL    HW236315   3.819   2.031   3.664 -0.7978 -1.7495 -1.5639
 8227SOL     OW36316   4.101   2.758   4.751  0.3127  0.4021 -0.4623
 8227SOL    HW136317   4.179   2.799   4.714 -0.6591  1.8478 -0.8976
 8227SOL    HW236318   4.127   2.670   4.724  2.1765  0.4820  0.9935
 8228SOL     OW36319   1.663   1.319  12.139  0.6791  0.3781 -0.3076
 8228SOL    HW136320   1.757   1.313  12.157  0.7827  0.4053 -0.8301
 8228SOL    HW236321   1.626   1.296  12.224  2.1927 -1.7884 -0.2434
 8229SOL     OW36322   4.044   1.506   5.923  0.1298 -0.1017  0.4942
 8229SOL    HW136323   4.038   1.599   5.944  1.4094  0.1256 -0.1391
 8229SOL    HW236324   4.013   1.470   6.005  2.3786 -0.6219  1.1275
 8230SOL     OW36325   2.215   0.968  10.835 -0.0783 -1.1827 -0.4539
 8230SOL    HW136326   2.238   1.054  10.801 -0.3890 -0.3969  1.3238
 8230SOL    HW236327   2.296   0.919  10.849  0.4786 -0.3277 -0.7114
 8231SOL     OW36328   2.737   4.636   5.524 -0.4497 -0.4319 -0.0542
 8231SOL    HW136329   2.698   4.646   5.611  0.9480 -3.2418  0.8862
 8231SOL    HW236330   2.823   4.671   5.544 -0.5612 -1.3924  2.1772
 8232SOL     OW36331   0.146   3.418   9.696 -0.2190 -0.0584 -0.2688
 8232SOL    HW136332   0.058   3.386   9.676 -0.9685  0.5627  2.0078
 8232SOL    HW236333   0.138   3.441   9.789 -0.7840 -0.2728 -0.2617
 8233SOL     OW36334   0.790   2.543  16.269 -0.2949  0.1277 -0.2287
 8233SOL    HW136335   0.833   2.628  16.281  0.5448 -0.6221  2.2477
 8233SOL    HW236336   0.781   2.542  16.174 -0.2215 -1.0908 -0.2215
 8234SOL     OW36337   4.383   3.737   4.798  0.2218 -0.6519  0.3592
 8234SOL    HW136338   4.350   3.647   4.803  0.3182 -0.5987  1.7991
 8234SOL    HW236339   4.468   3.720   4.758  0.9649  1.3127  1.0952
 8235SOL     OW36340   3.055   4.073   9.177  0.1930  0.4763  0.1685
 8235SOL    HW136341   3.082   3.989   9.213  0.7608  0.8136  0.5480
 8235SOL    HW236342   2.971   4.047   9.139  0.7224 -1.1450  0.1192
 8236SOL     OW36343   3.525   3.963   6.088  0.2553  0.0945 -0.1349
 8236SOL    HW136344   3.551   3.888   6.142  0.2602 -0.4297 -0.8711
 8236SOL    HW236345   3.527   4.030   6.156 -2.0640  1.8676 -1.8070
 8237SOL     OW36346   2.891   1.286   4.977  0.0564 -0.4689  0.1682
 8237SOL    HW136347   2.954   1.214   4.970  1.5479  0.8764 -0.2584
 8237SOL    HW236348   2.819   1.260   4.919  0.1316  0.4647 -0.3477
 8238SOL     OW36349   0.225   0.322  12.410  0.1767 -0.1822  0.4076
 8238SOL    HW136350   0.235   0.271  12.491  1.1757 -1.8277 -0.7617
 8238SOL    HW236351   0.292   0.390  12.422  0.2089 -0.0253 -0.7402
 8239SOL     OW36352   2.380   3.082   0.738 -0.7235 -0.1579  0.1244
 8239SOL    HW136353   2.401   3.128   0.657  0.8903 -1.4501 -0.1873
 8239SOL    HW236354   2.466   3.049   0.764 -1.2159 -1.4944  0.0445
 8240SOL     OW36355   3.865   2.655   5.535  0.0107 -0.1465 -0.1379
 8240SOL    HW136356   3.810   2.691   5.604  1.3486 -1.4873  1.6033
 8240SOL    HW236357   3.846   2.725   5.472  0.7534 -1.9677 -2.4097
 8241SOL     OW36358   2.451   1.458   0.852  0.1963 -0.3183 -0.1230
 8241SOL    HW136359   2.437   1.512   0.930  1.0107  1.5108 -1.2333
 8241SOL    HW236360   2.458   1.527   0.786 -0.3727 -0.3630 -0.2267
 8242SOL     OW36361   2.765   0.660   1.656  0.0116  0.0076  0.5461
 8242SOL    HW136362   2.861   0.658   1.662 -0.1654 -1.5442  2.9262
 8242SOL    HW236363   2.750   0.569   1.682  2.1403 -0.1672  1.1243
 8243SOL     OW36364   4.239   4.159   3.499 -0.3881 -0.5773 -0.0007
 8243SOL    HW136365   4.262   4.250   3.521  0.7224 -0.7843 -0.3078
 8243SOL    HW236366   4.227   4.124   3.587  0.3167 -0.1669  0.2647
 8244SOL     OW36367   4.050   2.479   1.237  0.3726 -0.0713 -0.3902
 8244SOL    HW136368   4.075   2.569   1.257 -2.3542  0.2598  1.5243
 8244SOL    HW236369   3.958   2.494   1.216  0.2480 -1.4997 -0.8628
 8245SOL     OW36370   1.429   3.879   7.050 -0.5656 -0.5342  0.5194
 8245SOL    HW136371   1.515   3.907   7.080 -1.2598  0.8497  1.2198
 8245SOL    HW236372   1.403   3.814   7.114 -0.6392 -1.0423 -0.0306
 8246SOL     OW36373   0.698   3.358  10.121  0.3961  0.4832  0.1779
 8246SOL    HW136374   0.687   3.269  10.086 -3.0526  0.4295  1.4582
 8246SOL    HW236375   0.604   3.375  10.126 -0.0469 -2.2229  0.9998
 8247SOL     OW36376   2.728   1.676   4.502  0.2300 -0.2880  0.3542
 8247SOL    HW136377   2.778   1.707   4.578 -1.7151 -0.8418  1.8531
 8247SOL    HW236378   2.650   1.727   4.521  0.7866  1.4667 -2.1691
 8248SOL     OW36379   0.694   1.743   4.368  0.3420 -0.0978 -0.1959
 8248SOL    HW136380   0.610   1.705   4.342  0.5822 -1.3818  0.9355
 8248SOL    HW236381   0.660   1.793   4.441  1.7596  1.1596 -0.3854
 8249SOL     OW36382   3.975   3.149   7.385  0.0038 -0.0663  0.2330
 8249SOL    HW136383   3.897   3.138   7.439  0.6643 -0.5046  1.1063
 8249SOL    HW236384   3.971   3.242   7.362 -1.6378  0.5953  3.0901
 8250SOL     OW36385   4.406   3.518   7.487  0.4184 -0.1831  0.0316
 8250SOL    HW136386   4.434   3.449   7.427 -3.9628 -1.6951 -0.2869
 8250SOL    HW236387   4.385   3.462   7.562  0.1166 -1.3727 -0.9476
 8251SOL     OW36388   3.625   2.291  13.397 -0.1410  0.3578  0.6748
 8251SOL    HW136389   3.642   2.379  13.431  2.6869  0.1299 -0.1873
 8251SOL    HW236390   3.683   2.301  13.322  0.4563  1.8670  1.3380
 8252SOL     OW36391   2.754   3.138   2.128 -0.4026 -0.2283  0.3310
 8252SOL    HW136392   2.735   3.232   2.124  2.1388  0.2377 -0.7337
 8252SOL    HW236393   2.847   3.134   2.104 -0.8137  0.5219 -1.3415
 8253SOL     OW36394   1.961   0.007   9.236  0.1267 -0.0095  0.4009
 8253SOL    HW136395   2.031   0.026   9.174 -0.2079 -2.3175 -0.6871
 8253SOL    HW236396   1.884   4.706   9.193  0.5396 -1.0581  0.5841
 8254SOL     OW36397   2.822   1.022   0.017  0.1716 -0.1797  0.0093
 8254SOL    HW136398   2.845   0.929   0.006  0.7236  0.0494 -0.7410
 8254SOL    HW236399   2.856   1.040   0.104 -1.1727 -0.2594  0.5419
 8255SOL     OW36400   2.636   4.338   7.542  0.1494  0.6254  0.4893
 8255SOL    HW136401   2.642   4.249   7.577 -0.0529  0.9583  1.3821
 8255SOL    HW236402   2.652   4.390   7.622 -0.5576 -0.1596  1.1448
 8256SOL     OW36403   0.838   0.503  15.912  0.1163 -0.2137  0.2588
 8256SOL    HW136404   0.830   0.573  15.976  0.0881  1.9524 -2.1082
 8256SOL    HW236405   0.746   0.489  15.890  0.0916  0.5230 -0.1172
 8257SOL     OW36406   3.280   4.245   6.817 -0.2339  0.0596 -0.1280
 8257SOL    HW136407   3.258   4.215   6.729 -0.8548  0.1662 -0.0154
 8257SOL    HW236408   3.292   4.339   6.806 -2.3461  0.4730  0.9225
 8258SOL     OW36409   3.857   3.834   4.420 -0.2025 -0.1019 -0.2790
 8258SOL    HW136410   3.776   3.884   4.432 -1.0419 -1.1928 -1.4414
 8258SOL    HW236411   3.828   3.784   4.344 -0.1086 -1.9398  0.8951
 8259SOL     OW36412   4.183   1.327  17.608  0.7710 -0.0499 -0.0003
 8259SOL    HW136413   4.197   1.233  17.604 -0.0935 -0.1431 -0.9077
 8259SOL    HW236414   4.253   1.357  17.667  0.2964  1.0108  0.0284
 8260SOL     OW36415   2.637   3.831   9.338  0.4592 -0.2800  0.4449
 8260SOL    HW136416   2.639   3.753   9.283 -0.2790  1.5039 -2.1556
 8260SOL    HW236417   2.655   3.803   9.427 -0.0103 -0.3478  0.5203
 8261SOL     OW36418   2.227   0.447  17.081  0.3561 -0.1765 -0.1252
 8261SOL    HW136419   2.151   0.426  17.134 -0.6786 -0.5052 -1.7297
 8261SOL    HW236420   2.289   0.450  17.154  1.2590 -0.2271 -0.8775
 8262SOL     OW36421   4.511   3.757   2.366 -0.0889 -0.1175  1.0526
 8262SOL    HW136422   4.604   3.736   2.361 -0.0994 -0.0931  0.7671
 8262SOL    HW236423   4.491   3.697   2.438  0.0084  1.0442  2.0429
 8263SOL     OW36424   2.063   2.042   1.875  0.1277 -0.1455 -0.0719
 8263SOL    HW136425   2.132   2.109   1.867 -1.4334  1.4319 -0.2701
 8263SOL    HW236426   2.113   1.964   1.851  1.0159  0.5084 -0.3707
 8264SOL     OW36427   4.726   1.690   6.444  0.4571  0.2288  0.1477
 8264SOL    HW136428   0.023   1.654   6.362  1.3109 -0.8617  0.9830
 8264SOL    HW236429   0.062   1.746   6.471 -1.5290  2.3016  1.2499
 8265SOL     OW36430   3.390   4.409   2.890  0.2729 -0.3889  0.4202
 8265SOL    HW136431   3.464   4.361   2.853  2.3086  1.6733  1.8224
 8265SOL    HW236432   3.354   4.344   2.951 -1.6633  2.3220  2.1459
 8266SOL     OW36433   1.769   3.327   5.942  0.0074  0.1464 -0.3704
 8266SOL    HW136434   1.815   3.378   5.876 -0.1368  1.0048  0.1825
 8266SOL    HW236435   1.822   3.248   5.951 -3.0559 -1.8397  0.1028
 8267SOL     OW36436   4.298   3.950   4.961  0.9917 -0.0586 -0.3265
 8267SOL    HW136437   4.309   3.877   4.899  1.3584  0.2482 -0.6232
 8267SOL    HW236438   4.285   3.898   5.040 -1.4416 -2.0846 -2.0434
 8268SOL     OW36439   0.863   3.833   3.520 -0.1050 -0.8379  0.3614
 8268SOL    HW136440   0.917   3.808   3.445  0.7018 -1.1507  1.0408
 8268SOL    HW236441   0.917   3.898   3.565 -1.4133  0.5896 -0.1805
 8269SOL     OW36442   2.031   2.959   2.418  0.1580 -0.0355 -0.1284
 8269SOL    HW136443   2.116   2.915   2.427 -0.7449 -1.7961 -0.0987
 8269SOL    HW236444   2.057   3.051   2.425  0.8739 -0.3361  1.1691
 8270SOL     OW36445   0.376   0.990   4.831  0.3332 -0.0229  0.0243
 8270SOL    HW136446   0.331   0.942   4.762 -0.1639 -0.3495  0.5796
 8270SOL    HW236447   0.331   1.071   4.810  0.6383  1.0580  3.5591
 8271SOL     OW36448   0.942   4.037  16.355  0.2621 -0.2073 -0.2427
 8271SOL    HW136449   0.978   4.102  16.295 -2.5247  0.7185 -0.9199
 8271SOL    HW236450   0.992   4.036  16.436 -1.4931 -0.9856  0.8264
 8272SOL     OW36451   1.512   4.402   2.726 -0.2399 -0.6008  0.0352
 8272SOL    HW136452   1.544   4.316   2.700  0.8429 -0.6311  1.4755
 8272SOL    HW236453   1.571   4.409   2.801 -1.1546  0.9388  0.6046
 8273SOL     OW36454   0.719   2.223   4.118  0.3944  0.4773  0.1163
 8273SOL    HW136455   0.661   2.217   4.193  1.8340 -2.0439  1.0425
 8273SOL    HW236456   0.752   2.134   4.104  0.1612  0.3384  0.4627
 8274SOL     OW36457   1.065   0.132   9.703  0.4496  0.5402 -0.4909
 8274SOL    HW136458   1.057   0.189   9.627 -1.7528 -1.7917 -2.0385
 8274SOL    HW236459   1.151   0.149   9.741  0.1510  0.6489  0.1326
 8275SOL     OW36460   2.594   2.508   2.543  0.8206  0.3867 -0.0884
 8275SOL    HW136461   2.645   2.427   2.541 -1.9434 -1.3590 -0.0010
 8275SOL    HW236462   2.616   2.545   2.629 -1.1289 -0.1613  0.6494
 8276SOL     OW36463   3.492   0.818  16.822  0.2812  0.1157 -0.2039
 8276SOL    HW136464   3.582   0.850  16.813 -0.3127  1.5731 -0.8770
 8276SOL    HW236465   3.483   0.756  16.750 -0.4789  0.3611 -0.3157
 8277SOL     OW36466   2.400   0.564   3.717 -0.3883  0.2084  0.2129
 8277SOL    HW136467   2.432   0.594   3.803  3.4885  1.1500 -1.5586
 8277SOL    HW236468   2.331   0.627   3.696  1.5258  2.1345 -0.3153
 8278SOL     OW36469   0.251   2.561   4.100 -0.1427 -0.3162 -0.2916
 8278SOL    HW136470   0.263   2.582   4.007 -4.3100 -1.3423 -1.1059
 8278SOL    HW236471   0.207   2.637   4.138  1.4568 -0.1761  1.2564
 8279SOL     OW36472   1.734   4.676   2.162  0.1232  0.4707 -0.3404
 8279SOL    HW136473   1.676   4.718   2.098 -2.2493 -0.5049  1.1864
 8279SOL    HW236474   1.676   4.620   2.213  0.0965  0.6003 -0.2303
 8280SOL     OW36475   0.417   0.108   3.162 -0.8229 -0.5807  0.3435
 8280SOL    HW136476   0.340   0.157   3.133  1.8066  1.5978 -2.9524
 8280SOL    HW236477   0.452   0.077   3.079 -0.8773  0.1571  0.0468
 8281SOL     OW36478   3.956   3.248  10.915 -0.0020  0.0613  0.0104
 8281SOL    HW136479   4.045   3.275  10.938 -0.3971  1.3540  0.0235
 8281SOL    HW236480   3.972   3.199  10.835  1.2056  1.0873 -0.3714
 8282SOL     OW36481   4.317   0.479   1.463 -0.2004  0.0901 -0.0790
 8282SOL    HW136482   4.319   0.574   1.472 -2.1471  0.2227 -1.0900
 8282SOL    HW236483   4.411   0.459   1.469 -0.2875 -0.1073  0.6615
 8283SOL     OW36484   0.007   1.252   6.424  0.0521  0.4810  0.1353
 8283SOL    HW136485   0.024   1.304   6.346  1.3654  0.3016  0.3015
 8283SOL    HW236486   4.730   1.169   6.378  0.4773  1.6022 -2.0079
 8284SOL     OW36487   1.179   2.822   2.839 -0.2149  0.4403 -0.2131
 8284SOL    HW136488   1.185   2.863   2.926  2.0978 -4.5216  2.0023
 8284SOL    HW236489   1.245   2.752   2.845 -2.1555 -1.3899 -0.2724
 8285SOL     OW36490   3.896   0.630  14.437 -0.1920  0.7646  0.0496
 8285SOL    HW136491   3.980   0.620  14.483 -0.1417  0.5253 -0.0987
 8285SOL    HW236492   3.845   0.554  14.465 -1.3115  1.5601  0.1713
 8286SOL     OW36493   0.982   1.854   6.075 -0.1018  0.0782  0.0533
 8286SOL    HW136494   0.940   1.770   6.055 -2.6853  1.3808  0.0378
 8286SOL    HW236495   0.904   1.909   6.082 -0.2430  0.0650 -1.6016
 8287SOL     OW36496   1.933   0.663   7.017 -0.2539  0.3407 -0.1494
 8287SOL    HW136497   2.004   0.667   7.081  1.9269  0.1506 -2.5765
 8287SOL    HW236498   1.888   0.583   7.044 -2.5895  1.7632  0.2393
 8288SOL     OW36499   2.078   2.397   5.965 -0.5579 -0.1568  0.2292
 8288SOL    HW136500   2.102   2.476   5.917 -0.6676 -0.6047 -0.5465
 8288SOL    HW236501   1.988   2.414   5.990 -0.6231 -0.0691 -0.0678
 8289SOL     OW36502   3.058   4.455   1.634  0.3040 -0.7716  0.2682
 8289SOL    HW136503   3.133   4.504   1.667  0.2842  0.0666 -0.9450
 8289SOL    HW236504   3.003   4.458   1.713  3.0431  3.8047  2.0487
 8290SOL     OW36505   1.291   4.193  13.717  0.0731  0.2853  0.5207
 8290SOL    HW136506   1.357   4.262  13.712 -0.8910  1.1957  0.3904
 8290SOL    HW236507   1.311   4.140  13.640  0.4860 -1.2244  1.6529
 8291SOL     OW36508   0.017   3.391  15.268 -0.0137  0.4379 -0.1820
 8291SOL    HW136509   4.707   3.327  15.322  0.5368  0.4256  0.2822
 8291SOL    HW236510   0.097   3.341  15.253  1.7342  3.4590 -0.8953
 8292SOL     OW36511   1.337   1.540   6.600 -0.1959  0.0092  0.2056
 8292SOL    HW136512   1.354   1.533   6.506  0.3393  0.0532  0.3027
 8292SOL    HW236513   1.332   1.450   6.632 -2.2160  0.9919  2.7111
 8293SOL     OW36514   4.481   2.861   8.402 -0.1932  0.4631 -0.2395
 8293SOL    HW136515   4.411   2.844   8.465  1.6736 -1.3051  1.3733
 8293SOL    HW236516   4.499   2.767   8.389  0.2215  0.4757  0.2549
 8294SOL     OW36517   2.680   4.441  16.570 -0.3903 -0.2478 -1.0041
 8294SOL    HW136518   2.669   4.458  16.476 -0.2188  0.9884 -0.8119
 8294SOL    HW236519   2.677   4.346  16.579 -1.3063 -0.1963 -0.6954
 8295SOL     OW36520   3.383   4.213  10.766  0.1299  0.3526  0.8414
 8295SOL    HW136521   3.352   4.303  10.751 -0.4012  0.3433  1.8562
 8295SOL    HW236522   3.407   4.214  10.858 -2.3833 -0.2964  1.4981
 8296SOL     OW36523   4.499   1.158   6.935  0.2334  0.0136  0.1734
 8296SOL    HW136524   4.463   1.177   7.022 -1.2325 -3.2450  0.2686
 8296SOL    HW236525   4.582   1.206   6.929 -0.1151  0.8276  1.8694
 8297SOL     OW36526   3.672   0.662  11.731  0.3449 -0.1420  0.1095
 8297SOL    HW136527   3.581   0.691  11.736  0.4697  0.5071 -1.6085
 8297SOL    HW236528   3.690   0.687  11.640 -2.1873  0.9563 -0.0945
 8298SOL     OW36529   3.474   2.151   9.625 -0.5902  0.3483  0.0146
 8298SOL    HW136530   3.517   2.112   9.702 -1.1067 -0.4721 -0.1096
 8298SOL    HW236531   3.543   2.202   9.584 -0.4098 -1.7982 -2.3341
 8299SOL     OW36532   2.657   2.494   4.693 -1.0552  0.1460  0.2228
 8299SOL    HW136533   2.659   2.539   4.778 -0.1054 -1.0252  0.8226
 8299SOL    HW236534   2.601   2.552   4.642  0.9466 -0.0537 -2.1549
 8300SOL     OW36535   2.341   2.897  15.048 -0.5830  0.1146 -0.3017
 8300SOL    HW136536   2.288   2.965  15.092  2.2953  2.1487  0.0184
 8300SOL    HW236537   2.283   2.822  15.064 -1.1339  0.0833 -2.4025
 8301SOL     OW36538   0.241   0.729  10.242 -0.5455  0.3875 -0.0046
 8301SOL    HW136539   0.301   0.693  10.307  0.0718 -1.2213 -1.4661
 8301SOL    HW236540   0.300   0.791  10.199  0.4907 -0.2750  0.4714
 8302SOL     OW36541   3.377   4.672   3.184 -0.5123  0.6799  0.3294
 8302SOL    HW136542   3.346   4.681   3.274  0.8346  1.4366  0.7201
 8302SOL    HW236543   3.337   0.009   3.138 -1.7511 -0.3642 -0.2785
 8303SOL     OW36544   3.465   0.385   4.808 -0.2449 -0.1620 -0.0602
 8303SOL    HW136545   3.487   0.478   4.797  1.4108 -0.5508  0.0116
 8303SOL    HW236546   3.523   0.367   4.882 -1.2949 -0.2249  0.7549
 8304SOL     OW36547   4.567   4.057   2.919 -0.1558  0.2219 -0.0884
 8304SOL    HW136548   4.588   3.996   2.848  0.1506 -0.1601  0.3316
 8304SOL    HW236549   4.501   4.115   2.881 -1.4662 -0.7675  0.6443
 8305SOL     OW36550   3.655   3.718   7.790 -0.1216  0.2705  0.3985
 8305SOL    HW136551   3.709   3.681   7.859 -0.9026 -0.0564  0.8350
 8305SOL    HW236552   3.621   3.798   7.831  0.8399 -0.1598  2.0097
 8306SOL     OW36553   3.315   2.350   6.293 -0.1690 -0.1522 -0.4133
 8306SOL    HW136554   3.334   2.433   6.250 -2.5553  0.5726 -0.0726
 8306SOL    HW236555   3.271   2.295   6.227 -1.5152  3.8716 -2.8624
 8307SOL     OW36556   1.360   2.050  17.474  0.2307 -1.5511 -0.2095
 8307SOL    HW136557   1.444   2.003  17.474  1.9887  1.6259 -0.3864
 8307SOL    HW236558   1.361   2.072  17.381  1.2900  0.7906  0.3567
 8308SOL     OW36559   2.782   1.834   4.710 -0.7434  0.2663 -0.4352
 8308SOL    HW136560   2.732   1.911   4.686  1.2451  1.5960 -0.2705
 8308SOL    HW236561   2.780   1.842   4.806 -0.6321 -1.7928 -0.2583
 8309SOL     OW36562   3.941   1.918  17.383  0.0061  0.0793  0.0095
 8309SOL    HW136563   3.966   1.845  17.439 -1.3840  0.4006  1.0566
 8309SOL    HW236564   3.912   1.873  17.303  1.7642  2.2938 -1.8702
 8310SOL     OW36565   3.780   1.367   4.378 -0.1460 -0.2758 -0.0749
 8310SOL    HW136566   3.743   1.450   4.348  2.6015  0.9570 -0.0053
 8310SOL    HW236567   3.722   1.351   4.452 -0.4788 -0.8472 -0.4600
 8311SOL     OW36568   1.903   2.889  16.484  0.5267  0.7024 -0.1936
 8311SOL    HW136569   1.902   2.851  16.571 -0.3964  0.8658 -0.1298
 8311SOL    HW236570   1.810   2.908  16.470  0.8298  2.0377 -0.3925
 8312SOL     OW36571   2.503   3.360   9.464  0.0272 -0.3287 -0.7846
 8312SOL    HW136572   2.460   3.361   9.550  1.4369  1.3323 -0.1130
 8312SOL    HW236573   2.498   3.267   9.441 -1.1366 -0.3410 -0.4851
 8313SOL     OW36574   2.183   3.127   9.507 -0.1727  0.3130 -0.9453
 8313SOL    HW136575   2.264   3.083   9.534 -0.2218  1.0065  0.3557
 8313SOL    HW236576   2.205   3.213   9.544  0.1272  0.6923 -2.0323
 8314SOL     OW36577   0.746   0.438  12.188 -0.1635 -0.4355  0.2104
 8314SOL    HW136578   0.752   0.532  12.171 -2.2049 -0.4348 -0.5141
 8314SOL    HW236579   0.838   0.417  12.204  0.0451  2.4495  2.9005
 8315SOL     OW36580   0.964   2.319   2.558 -0.0796 -0.6935  0.2188
 8315SOL    HW136581   0.969   2.402   2.512  1.2691  0.1051  1.7919
 8315SOL    HW236582   1.002   2.344   2.643 -1.9180 -1.2807  1.2018
 8316SOL     OW36583   3.798   0.980  10.460  0.2606  0.3055  0.2820
 8316SOL    HW136584   3.823   0.888  10.459 -1.0848 -0.0559  0.2851
 8316SOL    HW236585   3.741   0.978  10.537 -0.0857 -2.2942 -0.0704
 8317SOL     OW36586   2.687   0.546   4.320 -0.6926 -0.2120  0.0434
 8317SOL    HW136587   2.611   0.489   4.333 -0.4242 -0.4613  0.5086
 8317SOL    HW236588   2.656   0.627   4.362  0.5034 -0.2017  0.9195
 8318SOL     OW36589   3.997   0.202  13.305 -0.5002  0.4540  0.7192
 8318SOL    HW136590   4.039   0.116  13.306  1.7972  1.5696  0.0035
 8318SOL    HW236591   3.907   0.175  13.324 -0.4882 -0.2067 -0.2025
 8319SOL     OW36592   2.550   1.723  11.243  0.3060 -0.4389 -0.4584
 8319SOL    HW136593   2.463   1.754  11.216  0.2639  0.0416  0.2142
 8319SOL    HW236594   2.528   1.679  11.325  1.6770 -0.7987 -0.2843
 8320SOL     OW36595   1.952   2.115  11.025  0.3009  0.2929 -0.2023
 8320SOL    HW136596   1.918   2.051  10.962  0.3018  1.1006 -1.0186
 8320SOL    HW236597   1.899   2.194  11.020  1.2198  0.8041 -2.0354
 8321SOL     OW36598   4.018   3.278   2.331 -0.5133  0.5179 -0.0890
 8321SOL    HW136599   4.068   3.294   2.251 -2.3017  1.6608 -0.9565
 8321SOL    HW236600   4.099   3.277   2.382 -0.2233 -1.2867 -0.6168
 8322SOL     OW36601   2.180   2.704   3.239  0.1939 -0.1275  0.3265
 8322SOL    HW136602   2.165   2.610   3.229 -0.9095  0.0961 -0.0863
 8322SOL    HW236603   2.271   2.709   3.210  0.4397 -1.6228  0.8476
 8323SOL     OW36604   4.660   0.002  15.564 -0.4575 -0.2008  0.1308
 8323SOL    HW136605   4.679   4.647  15.585 -4.4645 -0.6960  1.6488
 8323SOL    HW236606   4.700   0.007  15.478 -0.3153 -0.1517  0.1999
 8324SOL     OW36607   1.549   1.834   4.709  0.6567 -0.1682  0.5106
 8324SOL    HW136608   1.546   1.866   4.799  1.9669  0.7269  0.2309
 8324SOL    HW236609   1.612   1.762   4.711  0.5949 -0.2283  0.3009
 8325SOL     OW36610   1.511   2.112   1.337  0.1331 -0.1350  0.1676
 8325SOL    HW136611   1.424   2.137   1.369  0.0006  0.3394 -0.5443
 8325SOL    HW236612   1.495   2.060   1.258  0.4553 -0.6458  0.4383
 8326SOL     OW36613   0.289   2.380   7.317 -0.2788 -0.4451  0.1135
 8326SOL    HW136614   0.294   2.398   7.410  1.4872 -3.8871  0.6749
 8326SOL    HW236615   0.371   2.417   7.283  0.4193  0.3925  2.7365
 8327SOL     OW36616   4.248   4.257   6.207  0.3277 -0.0939  0.2143
 8327SOL    HW136617   4.308   4.320   6.169  0.2422 -0.6448 -0.8475
 8327SOL    HW236618   4.266   4.181   6.152  1.4273 -0.8492  1.6246
 8328SOL     OW36619   4.407   1.890   2.440  0.2018 -0.2470 -0.3344
 8328SOL    HW136620   4.437   1.803   2.465  0.9129 -0.6346 -2.4953
 8328SOL    HW236621   4.401   1.929   2.527 -1.0032 -0.4306 -0.3327
 8329SOL     OW36622   0.397   3.195   3.017  0.2998 -0.4604 -0.4186
 8329SOL    HW136623   0.362   3.156   2.937  0.2502 -0.0393 -0.6031
 8329SOL    HW236624   0.453   3.122   3.042 -0.8331 -1.4571 -0.7924
 8330SOL     OW36625   2.211   4.463   6.039  0.1920  0.5119  0.3996
 8330SOL    HW136626   2.263   4.472   6.118  0.2254  0.2390  0.4105
 8330SOL    HW236627   2.279   4.514   5.995 -2.9624  3.8142 -0.6500
 8331SOL     OW36628   2.587   1.251  11.163 -0.4733 -0.0994 -0.5501
 8331SOL    HW136629   2.559   1.336  11.127  1.5013  0.1680 -1.4285
 8331SOL    HW236630   2.672   1.276  11.200 -0.6011 -0.0709 -0.2686
 8332SOL     OW36631   0.332   1.067   1.848 -0.2924  0.2570  0.4117
 8332SOL    HW136632   0.390   0.992   1.856 -0.4507  0.0175 -0.5706
 8332SOL    HW236633   0.332   1.109   1.934  0.8642  1.1405 -0.0308
 8333SOL     OW36634   4.414   2.850   2.558 -0.4567 -0.6652  0.0001
 8333SOL    HW136635   4.327   2.889   2.556 -0.2547 -0.2348 -0.5306
 8333SOL    HW236636   4.388   2.765   2.593 -0.8890 -0.3307  0.4752
 8334SOL     OW36637   2.958   0.411  16.409  0.0173 -0.5164 -0.0845
 8334SOL    HW136638   2.904   0.454  16.342  1.3382 -1.0898 -1.5133
 8334SOL    HW236639   2.907   0.332  16.427  0.7649 -1.4430 -2.0232
 8335SOL     OW36640   1.875   3.428  10.034 -0.0180  0.5415  0.4281
 8335SOL    HW136641   1.795   3.478  10.022 -1.2319 -1.6297 -0.5563
 8335SOL    HW236642   1.878   3.428  10.129  0.7516 -0.0292  0.4083
 8336SOL     OW36643   0.312   2.327  15.236 -0.3255 -0.4878 -0.2511
 8336SOL    HW136644   0.399   2.352  15.203  0.5157 -0.3265  2.1085
 8336SOL    HW236645   0.249   2.339  15.166 -0.4492 -2.2001 -0.4311
 8337SOL     OW36646   1.618   1.468   7.809 -0.3566  0.4569  0.3268
 8337SOL    HW136647   1.614   1.543   7.749 -0.1903  0.2586  0.0706
 8337SOL    HW236648   1.567   1.488   7.887  0.2115 -2.0263  1.3346
 8338SOL     OW36649   3.374   0.330   3.265  0.0647  0.2526 -0.6947
 8338SOL    HW136650   3.347   0.276   3.339 -1.0171 -0.9249 -1.9523
 8338SOL    HW236651   3.437   0.266   3.233  1.3250  0.6882  0.9366
 8339SOL     OW36652   3.972   4.054  16.736 -0.2561  0.2878  0.0855
 8339SOL    HW136653   4.006   4.117  16.800 -1.5208  0.2689  0.7694
 8339SOL    HW236654   4.025   4.084  16.662  0.4814 -0.4066  0.3243
 8340SOL     OW36655   2.129   1.993   6.314 -0.1402  0.2446 -0.6286
 8340SOL    HW136656   2.122   2.088   6.305  2.1445  0.4228 -0.6774
 8340SOL    HW236657   2.177   1.967   6.235  2.5372 -2.0600  1.7661
 8341SOL     OW36658   1.094   1.928   8.223  0.4358 -0.5152 -0.1417
 8341SOL    HW136659   1.172   1.873   8.213  0.9656 -0.0498  1.3326
 8341SOL    HW236660   1.036   1.920   8.148 -0.6379 -1.8685  0.8458
 8342SOL     OW36661   2.214   3.947   5.047  0.7374  0.6203  0.5711
 8342SOL    HW136662   2.214   3.905   4.961 -3.5992 -1.6025  1.6443
 8342SOL    HW236663   2.230   4.040   5.032  1.8444  0.3095 -0.2054
 8343SOL     OW36664   0.007   0.087   3.263 -0.2613  0.4596 -0.1454
 8343SOL    HW136665   4.710   0.004   3.297  2.3236  0.1463  1.6210
 8343SOL    HW236666   4.714   0.135   3.340  1.3984  0.1691  0.6683
 8344SOL     OW36667   3.311   3.582   5.405 -0.5913  0.3212 -0.2849
 8344SOL    HW136668   3.317   3.579   5.309 -0.9463  2.5969 -0.3775
 8344SOL    HW236669   3.405   3.570   5.417 -0.8432 -1.0959  0.2549
 8345SOL     OW36670   1.950   0.082   9.884 -0.2076 -0.0567 -0.2260
 8345SOL    HW136671   1.911   0.156   9.931 -2.5341 -1.9076  0.7247
 8345SOL    HW236672   2.041   0.103   9.863 -0.2726  0.3974 -0.0708
 8346SOL     OW36673   0.703   3.551   1.536  0.5134  0.6967 -0.1673
 8346SOL    HW136674   0.789   3.509   1.542  0.3599  0.3200 -0.5828
 8346SOL    HW236675   0.689   3.572   1.444 -0.6430 -1.1425 -0.4296
 8347SOL     OW36676   1.537   1.537  10.207 -0.1308 -0.3239  0.0392
 8347SOL    HW136677   1.602   1.540  10.277  1.5497  0.4199 -1.5546
 8347SOL    HW236678   1.511   1.628  10.188 -1.3976 -0.4502  1.1693
 8348SOL     OW36679   4.108   4.378   1.296 -0.1410 -0.1962  0.1618
 8348SOL    HW136680   4.173   4.392   1.228  0.4074 -4.3067 -0.1751
 8348SOL    HW236681   4.155   4.329   1.363 -1.0213 -0.6369  0.4571
 8349SOL     OW36682   1.232   0.834   4.036 -0.3817 -0.3945 -0.7124
 8349SOL    HW136683   1.241   0.917   4.083  0.9167 -0.3022 -1.1218
 8349SOL    HW236684   1.221   0.866   3.946 -0.1288  0.1481 -0.5474
 8350SOL     OW36685   4.147   1.611  17.188 -0.2449  0.3118 -0.0138
 8350SOL    HW136686   4.170   1.605  17.281 -2.0036 -0.7985  0.3336
 8350SOL    HW236687   4.096   1.531  17.177  0.1911  0.1181 -0.6338
 8351SOL     OW36688   1.959   2.812   2.829  0.2165  0.6337  0.2306
 8351SOL    HW136689   1.963   2.720   2.854 -0.1581  0.6032  0.1834
 8351SOL    HW236690   1.933   2.805   2.737  1.3229 -0.5373  0.0145
 8352SOL     OW36691   2.055   2.973   4.877 -0.0985 -0.3484  0.1172
 8352SOL    HW136692   1.988   2.924   4.925  0.7447 -2.5266 -0.9404
 8352SOL    HW236693   2.024   2.981   4.787 -1.5057 -1.0438  0.5398
 8353SOL     OW36694   4.347   2.038   7.511 -0.1361 -0.3452 -0.5734
 8353SOL    HW136695   4.372   2.126   7.483  0.3064 -0.3555 -0.2087
 8353SOL    HW236696   4.416   1.979   7.478  0.0699 -0.8681  0.7818
 8354SOL     OW36697   0.911   0.722  15.753  0.1068 -0.1563 -0.4637
 8354SOL    HW136698   0.898   0.635  15.792  0.7943 -0.4484 -0.8935
 8354SOL    HW236699   0.821   0.728  15.722 -0.5993 -3.9238  0.8537
 8355SOL     OW36700   1.962   0.871  10.890 -0.7227 -0.3905  0.3142
 8355SOL    HW136701   2.041   0.921  10.867 -0.4808  0.1003  2.2043
 8355SOL    HW236702   1.958   0.823  10.807  1.8086 -0.3588  0.1711
 8356SOL     OW36703   3.756   1.601  17.523  0.0053  0.0967  0.8197
 8356SOL    HW136704   3.676   1.652  17.510 -1.1500 -2.0715 -0.4126
 8356SOL    HW236705   3.754   1.598  17.619  0.5786 -0.9751  0.7931
 8357SOL     OW36706   3.706   1.837   3.804 -0.4385 -0.2231  0.6101
 8357SOL    HW136707   3.635   1.867   3.748 -0.5706 -0.6760  0.5396
 8357SOL    HW236708   3.671   1.855   3.891  1.1698  4.4109  0.3272
 8358SOL     OW36709   3.197   3.552   1.728  0.0888 -0.0823  0.6067
 8358SOL    HW136710   3.114   3.600   1.721  0.4625  0.8176  2.4704
 8358SOL    HW236711   3.262   3.601   1.779  1.3555 -0.2694 -0.8385
 8359SOL     OW36712   4.311   2.587  13.295 -0.0446 -0.3516 -0.6478
 8359SOL    HW136713   4.295   2.661  13.235  1.1323 -0.0888 -0.6598
 8359SOL    HW236714   4.401   2.571  13.265  1.5920  2.1990  2.8371
 8360SOL     OW36715   1.350   0.801   8.398 -0.0999  0.6138 -0.0640
 8360SOL    HW136716   1.304   0.721   8.422  0.0752  0.2604 -0.9063
 8360SOL    HW236717   1.284   0.870   8.399  0.0631  0.7811 -0.4564
 8361SOL     OW36718   1.401   1.670   8.393  0.9312  0.6495 -0.5287
 8361SOL    HW136719   1.490   1.638   8.380  1.0705  0.8964 -0.2063
 8361SOL    HW236720   1.416   1.763   8.411 -0.7860  1.0520 -1.1769
 8362SOL     OW36721   2.290   1.871   5.706  0.2094  0.2820  0.0268
 8362SOL    HW136722   2.248   1.937   5.650  2.3644  2.2962  0.8211
 8362SOL    HW236723   2.250   1.797   5.659  0.7015  0.4662 -0.6827
 8363SOL     OW36724   4.133   0.726   4.884 -0.2790  0.0093  0.0429
 8363SOL    HW136725   4.134   0.633   4.907  2.0667  0.4945  1.8696
 8363SOL    HW236726   4.074   0.754   4.954 -0.0181  2.4106 -0.6746
 8364SOL     OW36727   2.837   2.411   4.108  0.3093 -0.4096 -0.0014
 8364SOL    HW136728   2.797   2.339   4.058 -0.2002  0.0726 -0.2840
 8364SOL    HW236729   2.758   2.449   4.146 -0.0045  0.3033 -1.3845
 8365SOL     OW36730   1.958   0.230   7.857 -0.0594  0.5181  0.0591
 8365SOL    HW136731   1.987   0.206   7.945 -1.2949  2.7338  1.0800
 8365SOL    HW236732   1.922   0.146   7.830  0.7928  0.8855 -2.1725
 8366SOL     OW36733   1.282   4.042   4.183  0.0804  0.2363  0.2293
 8366SOL    HW136734   1.323   4.082   4.106  0.2965  1.5693  1.0463
 8366SOL    HW236735   1.354   4.045   4.247 -0.4123  1.3771  0.7343
 8367SOL     OW36736   1.862   2.269   2.498 -0.4064  0.1696 -0.2537
 8367SOL    HW136737   1.883   2.177   2.516  1.0292  0.7742  1.1183
 8367SOL    HW236738   1.901   2.318   2.570 -0.4689 -0.3697  0.1501
 8368SOL     OW36739   3.971   0.830  13.560  0.3925  0.1015  0.6559
 8368SOL    HW136740   4.034   0.772  13.515 -1.9863 -2.4163  0.5619
 8368SOL    HW236741   3.963   0.915  13.517 -2.0738 -0.1319  0.6441
 8369SOL     OW36742   4.160   4.436   2.933 -0.1151 -0.0196 -0.1137
 8369SOL    HW136743   4.208   4.477   2.860 -0.9418  2.3230  0.6489
 8369SOL    HW236744   4.163   4.514   2.989 -1.0161 -0.0640 -0.0079
 8370SOL     OW36745   1.101   2.614   5.727  0.2291  0.2385 -0.8894
 8370SOL    HW136746   1.013   2.596   5.759 -0.3721  0.0015 -2.7102
 8370SOL    HW236747   1.089   2.621   5.633 -0.3163 -0.4727 -0.8755
 8371SOL     OW36748   2.183   3.804   6.757 -0.0115  0.3550 -0.0384
 8371SOL    HW136749   2.176   3.708   6.748 -0.1386  0.3191  0.4831
 8371SOL    HW236750   2.264   3.820   6.804 -1.0364 -1.2861  2.3112
 8372SOL     OW36751   3.202   0.583   2.479 -0.3858 -0.9979 -0.2021
 8372SOL    HW136752   3.285   0.568   2.433 -0.8288 -0.2457 -1.2396
 8372SOL    HW236753   3.153   0.641   2.421  0.1838  0.0084  0.3252
 8373SOL     OW36754   4.409   0.638   4.007  0.3061 -0.3096 -0.5821
 8373SOL    HW136755   4.365   0.584   4.073  1.7153 -2.5804 -1.4959
 8373SOL    HW236756   4.356   0.716   4.020  0.2258 -0.2535 -1.2741
 8374SOL     OW36757   1.955   0.154   8.268 -0.0071  0.0586 -0.0934
 8374SOL    HW136758   2.004   0.199   8.338 -0.3253 -0.9857  0.7987
 8374SOL    HW236759   1.986   0.213   8.200 -0.7977 -0.4781 -0.9191
 8375SOL     OW36760   3.093   4.510   7.570  0.2687 -0.1862 -0.1880
 8375SOL    HW136761   3.154   4.506   7.644 -0.1065 -2.2610 -0.0013
 8375SOL    HW236762   3.159   4.510   7.501  0.4854 -1.2246  0.0311
 8376SOL     OW36763   3.232   3.893   4.840 -0.4556  0.1903  0.1006
 8376SOL    HW136764   3.249   3.984   4.817 -1.6894 -0.2931 -2.7679
 8376SOL    HW236765   3.276   3.853   4.765 -1.6276  0.6168 -0.8238
 8377SOL     OW36766   3.106   0.681   4.097 -0.4861 -1.1637  0.7849
 8377SOL    HW136767   3.111   0.590   4.126 -2.3252 -0.7744  2.4047
 8377SOL    HW236768   3.147   0.721   4.174  0.3187  1.6310 -1.1081
 8378SOL     OW36769   2.825   2.838   5.417  0.3808 -0.3337  0.2634
 8378SOL    HW136770   2.756   2.877   5.471 -0.4857 -0.6098 -0.6415
 8378SOL    HW236771   2.767   2.773   5.376  1.4104 -1.1978  0.1816
 8379SOL     OW36772   1.901   1.493   5.356  0.3103 -0.1274 -0.2477
 8379SOL    HW136773   1.927   1.585   5.361 -1.4676  0.2529  2.0579
 8379SOL    HW236774   1.807   1.487   5.339  0.1214 -2.7620  1.6298
 8380SOL     OW36775   0.574   1.369   7.775  0.1422  0.0252 -0.3104
 8380SOL    HW136776   0.559   1.308   7.847  0.1088  1.0664  0.5538
 8380SOL    HW236777   0.511   1.329   7.715  1.1260 -0.7204 -0.8564
 8381SOL     OW36778   3.242   0.941   8.195 -0.0258 -0.0078 -0.5885
 8381SOL    HW136779   3.243   1.027   8.237 -0.5829  0.5876 -1.7997
 8381SOL    HW236780   3.230   0.894   8.278  3.0624  2.5853  1.2988
 8382SOL     OW36781   3.771   2.260  15.037 -0.3312 -0.2043 -0.7361
 8382SOL    HW136782   3.689   2.272  15.085 -0.3091 -1.5355 -0.3839
 8382SOL    HW236783   3.828   2.320  15.085 -1.2182  0.9304 -1.1054
 8383SOL     OW36784   3.150   1.693   1.472  0.6201 -0.4505  0.4148
 8383SOL    HW136785   3.176   1.623   1.532  1.2353  0.0595  0.7485
 8383SOL    HW236786   3.126   1.646   1.392 -1.0036  2.5933 -0.8843
 8384SOL     OW36787   0.732   0.950   9.058  0.5136  0.0828 -0.4992
 8384SOL    HW136788   0.711   1.038   9.089  1.6293  0.3750 -0.5613
 8384SOL    HW236789   0.705   0.952   8.966 -3.3922 -0.1297  0.6828
 8385SOL     OW36790   1.453   3.086   7.174 -0.0967  0.5367 -0.0601
 8385SOL    HW136791   1.443   2.995   7.201  1.0397  0.3117 -0.3905
 8385SOL    HW236792   1.500   3.114   7.252 -1.8188  0.3946  1.0391
 8386SOL     OW36793   2.910   3.421   5.950 -0.2591  0.3686 -0.1094
 8386SOL    HW136794   2.998   3.427   5.985 -1.5426 -5.0315  4.0347
 8386SOL    HW236795   2.872   3.507   5.970 -1.0508  0.0410 -0.1693
 8387SOL     OW36796   1.013   0.069   1.604 -0.0078  0.0117  0.8663
 8387SOL    HW136797   1.091   0.124   1.596 -1.0064  1.2410 -0.4293
 8387SOL    HW236798   1.017   0.054   1.698 -0.3253  1.7382  1.1549
 8388SOL     OW36799   4.267   1.516   8.753 -0.0687 -0.2259  0.2547
 8388SOL    HW136800   4.199   1.528   8.819  1.6622 -1.2065  2.2641
 8388SOL    HW236801   4.313   1.441   8.791 -1.0011 -0.0847  1.6433
 8389SOL     OW36802   4.151   4.662   9.797 -0.0718  0.3865  0.1379
 8389SOL    HW136803   4.062   4.697   9.787 -1.2523 -2.7156 -0.1981
 8389SOL    HW236804   4.202   0.006   9.803 -1.0979  0.9111  1.6967
 8390SOL     OW36805   4.166   1.571   7.192  0.5361  0.5546  0.1891
 8390SOL    HW136806   4.126   1.630   7.128  2.1557  1.3174 -0.1350
 8390SOL    HW236807   4.178   1.495   7.135 -1.3152 -0.4869  1.2190
 8391SOL     OW36808   0.243   2.033  15.763  0.4544 -0.1572  0.4156
 8391SOL    HW136809   0.191   1.964  15.720  1.0590  0.1642 -0.8278
 8391SOL    HW236810   0.274   2.072  15.681 -1.5315  0.3459 -0.0995
 8392SOL     OW36811   2.292   4.725   0.326  0.5653  0.5032 -0.2005
 8392SOL    HW136812   2.268   0.042   0.251 -1.7203  0.8464  0.7766
 8392SOL    HW236813   2.378   0.024   0.348  0.9233  1.9685 -4.0373
 8393SOL     OW36814   3.365   3.332   2.471  0.3845 -0.1981 -0.5857
 8393SOL    HW136815   3.275   3.349   2.445  0.9463  2.1765 -0.9809
 8393SOL    HW236816   3.396   3.423   2.479  1.0748 -0.2581 -2.5360
 8394SOL     OW36817   3.684   4.503   3.071  0.3108 -0.8652 -0.1543
 8394SOL    HW136818   3.753   4.438   3.065  1.3307  0.2853 -0.9014
 8394SOL    HW236819   3.628   4.446   3.124 -0.6909  1.4451  1.3013
 8395SOL     OW36820   0.950   1.090  10.397 -0.5363  0.1652  0.4703
 8395SOL    HW136821   1.015   1.159  10.386  0.5428 -0.4819  2.7634
 8395SOL    HW236822   0.929   1.056  10.310 -1.3834 -0.0489  0.7592
 8396SOL     OW36823   3.095   2.804   4.298  0.2280  0.0594  0.0788
 8396SOL    HW136824   3.171   2.770   4.251 -0.1206  0.6164 -0.8827
 8396SOL    HW236825   3.136   2.857   4.366  0.6262  0.6566 -0.6322
 8397SOL     OW36826   0.397   1.667   6.502  0.0120 -0.4285 -0.3211
 8397SOL    HW136827   0.431   1.580   6.523  0.2836 -0.0690  0.7168
 8397SOL    HW236828   0.368   1.686   6.591 -1.0614 -1.7625 -0.3885
 8398SOL     OW36829   3.654   3.358   6.222 -0.3734 -0.1569  0.2437
 8398SOL    HW136830   3.631   3.323   6.136 -0.7655  0.8858 -0.0666
 8398SOL    HW236831   3.720   3.420   6.190  1.7511 -2.1919  0.6828
 8399SOL     OW36832   0.257   0.532   3.780 -0.1143 -0.1951  0.4871
 8399SOL    HW136833   0.278   0.445   3.745 -0.0164 -0.2869  0.7732
 8399SOL    HW236834   0.343   0.568   3.758 -0.5623  0.8143  0.3822
 8400SOL     OW36835   4.290   0.585   2.134  0.1988  0.1767  0.7050
 8400SOL    HW136836   4.219   0.522   2.146 -0.0997  0.7014  1.6636
 8400SOL    HW236837   4.313   0.572   2.042  1.1494 -1.4629  1.1713
 8401SOL     OW36838   2.408   3.061   2.932 -0.1640 -0.2998  0.2496
 8401SOL    HW136839   2.357   3.142   2.931  0.2805 -0.0219  0.2559
 8401SOL    HW236840   2.411   3.035   3.024  1.6743  2.3602  0.9398
 8402SOL     OW36841   3.621   3.730   3.940  0.1244  0.3103  0.3936
 8402SOL    HW136842   3.691   3.678   3.900  0.9009  2.4094 -0.9562
 8402SOL    HW236843   3.547   3.674   3.916  0.1344  1.4353 -2.2286
 8403SOL     OW36844   0.311   1.087  12.090  0.1334  0.3973  0.5244
 8403SOL    HW136845   0.365   1.050  12.021 -1.4284 -1.0452  0.1005
 8403SOL    HW236846   0.267   1.009  12.123 -1.1876  0.2838 -1.5269
 8404SOL     OW36847   2.805   2.584   7.017 -0.0071  0.0264 -0.2341
 8404SOL    HW136848   2.810   2.489   7.021  0.0939 -0.0362 -1.5900
 8404SOL    HW236849   2.894   2.612   7.036 -0.0510 -1.0504  1.5151
 8405SOL     OW36850   1.038   0.657   0.813 -0.5686 -1.0107  0.5623
 8405SOL    HW136851   1.099   0.650   0.886 -2.0056 -0.0170  1.8672
 8405SOL    HW236852   1.061   0.582   0.759 -0.7188 -0.7570  0.1447
 8406SOL     OW36853   3.396   3.510   7.961  0.2842 -0.0636  0.6448
 8406SOL    HW136854   3.443   3.513   8.044 -0.5079 -0.3275  1.0988
 8406SOL    HW236855   3.305   3.485   7.978 -0.5337  1.2455 -1.7181
 8407SOL     OW36856   3.106   0.148   6.846  0.3488  0.0219  0.1984
 8407SOL    HW136857   3.056   0.119   6.922  0.6529  0.7366  0.6620
 8407SOL    HW236858   3.168   0.076   6.836 -1.8232 -2.1030  1.9262
 8408SOL     OW36859   4.517   3.687  14.468  0.3706  0.6166 -0.0164
 8408SOL    HW136860   4.599   3.656  14.429 -0.2856 -0.2003 -0.7448
 8408SOL    HW236861   4.466   3.616  14.431  3.3045 -0.6902 -1.5320
 8409SOL     OW36862   0.342   0.286  12.865 -0.0217 -0.0511  0.8606
 8409SOL    HW136863   0.370   0.197  12.887  0.6960  0.4322  1.9067
 8409SOL    HW236864   0.284   0.262  12.792  1.4619 -0.6959 -0.1178
 8410SOL     OW36865   3.567   2.737   9.091 -0.1668 -0.0098  0.2205
 8410SOL    HW136866   3.563   2.761   8.999  0.2583 -1.6411 -0.2192
 8410SOL    HW236867   3.591   2.825   9.120  0.1850 -0.0301 -0.0085
 8411SOL     OW36868   3.089   3.089   7.493 -0.4437  0.7054 -0.2522
 8411SOL    HW136869   2.994   3.084   7.499 -0.4240 -0.5697 -0.9505
 8411SOL    HW236870   3.114   3.156   7.430 -0.7939  0.2377 -0.8919
 8412SOL     OW36871   0.090   2.892   7.929 -0.4522 -0.0059 -0.7853
 8412SOL    HW136872   0.146   2.819   7.956  1.0334  0.9627 -1.2475
 8412SOL    HW236873   0.047   2.902   8.014  2.9780  1.7910  0.7205
 8413SOL     OW36874   0.024   0.792  12.634 -0.3282 -0.7157 -0.1391
 8413SOL    HW136875   0.101   0.737  12.650 -0.7666 -1.2061  0.3279
 8413SOL    HW236876   4.691   0.773  12.697  0.0435 -1.8483 -0.0703
 8414SOL     OW36877   4.545   3.058   3.489 -0.5123 -0.1363 -0.8309
 8414SOL    HW136878   4.555   2.970   3.454 -1.8339 -0.4750 -0.3481
 8414SOL    HW236879   4.462   3.092   3.454  0.1357 -0.2293 -2.4241
 8415SOL     OW36880   0.317   1.111   1.441  0.3592  0.2852 -0.0582
 8415SOL    HW136881   0.228   1.143   1.455 -0.3731 -0.6752 -2.5613
 8415SOL    HW236882   0.363   1.187   1.477 -0.4022  1.5359 -1.7258
 8416SOL     OW36883   3.887   1.706   6.628  0.0549  0.1819  0.2183
 8416SOL    HW136884   3.966   1.759   6.622  0.1419 -0.2038 -2.2174
 8416SOL    HW236885   3.826   1.776   6.649  1.0954  1.2483 -0.3599
 8417SOL     OW36886   3.876   4.129   7.980  0.3024  0.0249  0.6911
 8417SOL    HW136887   3.927   4.189   7.926  0.5466  0.6376  1.5961
 8417SOL    HW236888   3.794   4.118   7.932  0.2021 -1.1697  1.1313
 8418SOL     OW36889   3.585   1.535   0.349 -0.0980  0.0522 -0.3716
 8418SOL    HW136890   3.523   1.540   0.277 -2.3468  0.8332  1.6173
 8418SOL    HW236891   3.565   1.449   0.386 -1.2242  1.4853  2.3628
 8419SOL     OW36892   2.424   4.329   8.760  0.3743 -0.3587 -0.5114
 8419SOL    HW136893   2.340   4.346   8.802  0.4131  0.0940 -0.6096
 8419SOL    HW236894   2.456   4.419   8.772  0.7922 -0.6956  0.8693
 8420SOL     OW36895   3.762   1.586   0.071  0.2527  0.1896 -0.0985
 8420SOL    HW136896   3.814   1.512   0.039 -0.1540 -1.2851  2.6664
 8420SOL    HW236897   3.709   1.543   0.138  0.9059 -2.6536 -1.4045
 8421SOL     OW36898   1.458   1.061   0.390  0.5284  0.2590  0.0874
 8421SOL    HW136899   1.480   0.982   0.340  0.0288  0.3116 -0.2191
 8421SOL    HW236900   1.362   1.059   0.387  0.5490  0.3178 -0.5854
 8422SOL     OW36901   3.867   4.475   4.661 -0.1947 -0.0932  0.1362
 8422SOL    HW136902   3.838   4.444   4.748 -2.3721 -0.8373 -0.8550
 8422SOL    HW236903   3.879   4.383   4.636  0.5571 -0.0698  0.4198
 8423SOL     OW36904   1.429   0.206   2.906  0.2327  0.5437 -0.2221
 8423SOL    HW136905   1.402   0.156   2.828 -1.9629  2.4103 -0.6504
 8423SOL    HW236906   1.438   0.134   2.968 -1.4100  0.4697 -0.0673
 8424SOL     OW36907   3.319   3.256   4.479  0.9780  0.0878 -0.4852
 8424SOL    HW136908   3.397   3.266   4.424 -0.2007  3.9366 -1.4445
 8424SOL    HW236909   3.363   3.243   4.563  0.3306 -0.7028 -0.2716
 8425SOL     OW36910   0.434   1.061  14.612 -0.1402  0.3167 -0.3941
 8425SOL    HW136911   0.519   1.067  14.655 -0.3260 -1.6810  0.2575
 8425SOL    HW236912   0.374   1.120  14.656  2.0177  2.0565  0.2231
 8426SOL     OW36913   4.415   3.228   8.978  0.5411 -0.5501  0.4219
 8426SOL    HW136914   4.322   3.215   8.960  0.6554 -2.1381  0.9978
 8426SOL    HW236915   4.434   3.298   8.915 -3.1058  0.8055  0.7745
 8427SOL     OW36916   0.840   1.432   3.149 -0.1782 -0.3341 -0.1512
 8427SOL    HW136917   0.770   1.376   3.183 -0.8760 -0.2959 -1.5272
 8427SOL    HW236918   0.834   1.508   3.208 -1.1278 -0.4001 -0.1560
 8428SOL     OW36919   3.744   2.047   7.742 -0.0334  0.0836 -0.0914
 8428SOL    HW136920   3.667   2.085   7.785  0.8342  1.7776 -0.0147
 8428SOL    HW236921   3.776   2.126   7.699 -0.4331  0.8561  1.0336
 8429SOL     OW36922   3.285   4.280  13.498  0.1202 -0.2913 -0.0950
 8429SOL    HW136923   3.317   4.260  13.586  1.0103 -1.0289 -0.5848
 8429SOL    HW236924   3.232   4.205  13.472  1.0138 -1.0778  0.3695
 8430SOL     OW36925   3.616   1.278   8.225  0.2255 -0.1425  0.3228
 8430SOL    HW136926   3.581   1.334   8.155  2.5581  1.6781  0.6002
 8430SOL    HW236927   3.673   1.217   8.180 -0.5146 -1.0078  0.5553
 8431SOL     OW36928   3.039   0.997   2.589 -0.2869 -0.2830 -0.0589
 8431SOL    HW136929   3.003   0.909   2.579 -0.4098 -0.0416 -1.7879
 8431SOL    HW236930   3.118   0.988   2.641  0.1568  1.7771 -0.3784
 8432SOL     OW36931   1.480   3.572   6.912 -0.4785 -0.4371  0.5036
 8432SOL    HW136932   1.430   3.530   6.982 -1.5194  1.3968  0.8596
 8432SOL    HW236933   1.569   3.568   6.946 -0.0721  1.9166 -0.3030
 8433SOL     OW36934   3.947   0.524   5.820 -0.9447  0.8322 -0.1773
 8433SOL    HW136935   3.899   0.449   5.786 -1.3890  1.2319 -0.4332
 8433SOL    HW236936   4.008   0.527   5.746 -0.4547 -3.0555  0.0872
 8434SOL     OW36937   0.509   2.679   5.232 -0.0249 -0.1768 -0.2343
 8434SOL    HW136938   0.535   2.634   5.313  1.2966 -0.0218 -0.5643
 8434SOL    HW236939   0.414   2.674   5.232 -0.0307 -0.1286  0.1944
 8435SOL     OW36940   3.538   2.409   5.992 -0.1035 -0.0259  0.5735
 8435SOL    HW136941   3.592   2.368   6.059  2.3076  1.3189 -0.5195
 8435SOL    HW236942   3.569   2.359   5.916 -1.2424  0.0183  0.0750
 8436SOL     OW36943   0.910   3.897   1.511 -0.0547  0.1970  0.0319
 8436SOL    HW136944   0.898   3.855   1.597  0.7067 -0.3714 -0.1344
 8436SOL    HW236945   0.888   3.988   1.529 -0.4648 -0.6277  3.6648
 8437SOL     OW36946   3.194   2.876   3.665  0.7247 -0.4742 -0.7762
 8437SOL    HW136947   3.285   2.901   3.651  0.6511 -0.7943 -1.8339
 8437SOL    HW236948   3.189   2.876   3.760 -0.6296  0.2953 -0.8366
 8438SOL     OW36949   4.729   0.567  16.584 -0.0779 -0.1065  0.0277
 8438SOL    HW136950   4.643   0.603  16.605  0.1380 -0.0850  0.8835
 8438SOL    HW236951   0.006   0.516  16.664 -0.0743  0.1792  0.2089
 8439SOL     OW36952   2.141   1.091  16.336 -0.1129  0.1123  0.2890
 8439SOL    HW136953   2.094   1.138  16.405  0.3952  2.2878 -0.8230
 8439SOL    HW236954   2.183   1.161  16.285  1.1494 -1.4062 -0.7822
 8440SOL     OW36955   0.494   1.897   8.575  0.0922  0.1474  0.3797
 8440SOL    HW136956   0.487   1.802   8.567 -0.6854  0.2271  0.1368
 8440SOL    HW236957   0.590   1.901   8.573  0.1219  0.1374  1.4646
 8441SOL     OW36958   4.364   0.425   5.156 -0.0851 -0.2512 -0.3394
 8441SOL    HW136959   4.429   0.462   5.216  0.3677 -1.4079 -0.1107
 8441SOL    HW236960   4.399   0.335   5.157 -0.6440 -0.4678 -0.3215
 8442SOL     OW36961   4.458   2.486   1.706 -0.0591  0.3739  0.5856
 8442SOL    HW136962   4.388   2.431   1.739 -0.6379  1.6698  1.4936
 8442SOL    HW236963   4.421   2.573   1.693 -2.8050 -0.9896 -0.6827
 8443SOL     OW36964   1.489   3.700   2.753 -0.3444  0.1905  0.0357
 8443SOL    HW136965   1.430   3.630   2.725 -0.3777  0.5015 -0.6585
 8443SOL    HW236966   1.552   3.714   2.683  0.1023  0.3719  0.4686
 8444SOL     OW36967   0.326   2.753   9.598 -1.1840  0.2819 -0.4852
 8444SOL    HW136968   0.339   2.663   9.569  2.0765  1.1520 -1.6264
 8444SOL    HW236969   0.380   2.756   9.677 -1.4473  1.2312 -0.3391
 8445SOL     OW36970   1.643   0.592   3.889 -0.2454  0.5122 -0.1680
 8445SOL    HW136971   1.620   0.584   3.797  0.2591  1.3477 -0.3665
 8445SOL    HW236972   1.736   0.572   3.881 -0.0740  0.1997  2.6433
 8446SOL     OW36973   2.684   3.767   2.959 -0.0595  0.2035 -0.4595
 8446SOL    HW136974   2.596   3.765   2.922  0.1390  1.5417 -1.0259
 8446SOL    HW236975   2.711   3.859   2.955 -1.8684  0.7574  0.1923
 8447SOL     OW36976   0.064   3.521  16.894  0.1279 -0.5596 -0.3941
 8447SOL    HW136977   0.142   3.468  16.906 -0.2335 -1.5055 -2.3398
 8447SOL    HW236978   0.029   3.499  16.808  2.2989  2.9864 -2.1807
 8448SOL     OW36979   3.929   3.417  11.838  0.4272 -0.2869 -0.1852
 8448SOL    HW136980   3.984   3.496  11.833 -0.4929  0.4800  1.8519
 8448SOL    HW236981   3.877   3.444  11.762 -0.0871 -0.4881  0.0997
 8449SOL     OW36982   0.756   2.346   5.446 -0.1248 -0.0745  0.0337
 8449SOL    HW136983   0.838   2.311   5.410 -0.6417 -2.1882  0.8930
 8449SOL    HW236984   0.695   2.333   5.374 -1.8774 -0.1210  1.5243
 8450SOL     OW36985   0.732   3.473  13.593 -0.2488  0.3395  0.1967
 8450SOL    HW136986   0.734   3.569  13.599  0.2504  0.4189 -1.1889
 8450SOL    HW236987   0.793   3.457  13.521  0.9109 -0.3024  1.3428
 8451SOL     OW36988   1.362   1.512   6.323  0.4362  0.5316  0.4831
 8451SOL    HW136989   1.426   1.444   6.304  0.6174  0.6347  0.7355
 8451SOL    HW236990   1.292   1.450   6.343 -0.9669  1.6527 -0.9098
 8452SOL     OW36991   1.278   1.625   7.905  0.0279 -0.2857  0.7109
 8452SOL    HW136992   1.302   1.558   7.841  2.5119  1.7405 -0.4723
 8452SOL    HW236993   1.303   1.695   7.846  0.7690  0.8849  2.4016
 8453SOL     OW36994   4.440   0.486  12.326 -0.1910 -0.6907  0.1586
 8453SOL    HW136995   4.514   0.493  12.386  0.3878  1.7731 -0.8453
 8453SOL    HW236996   4.437   0.571  12.282  0.8032 -0.3425  0.7664
 8454SOL     OW36997   1.078   0.031   3.282 -0.0133 -0.3718  0.0259
 8454SOL    HW136998   1.061   4.676   3.304  1.2918 -0.0096  2.6784
 8454SOL    HW236999   1.031   0.026   3.199 -1.7264  0.8512  0.9302
 8455SOL     OW37000   4.564   2.491  13.242 -0.0171  0.2701  0.1268
 8455SOL    HW137001   4.593   2.562  13.299 -1.9938  1.9428 -0.9539
 8455SOL    HW237002   4.636   2.478  13.180 -0.8412  2.1910 -1.2375
 8456SOL     OW37003   2.799   1.919   6.173 -0.6964  0.2889 -0.3783
 8456SOL    HW137004   2.874   1.965   6.210 -0.3469 -1.6405  1.3250
 8456SOL    HW237005   2.775   1.990   6.115 -0.9645  0.1469 -0.4438
 8457SOL     OW37006   2.220   0.949   2.849 -0.1596  0.2398 -0.0064
 8457SOL    HW137007   2.293   0.988   2.800 -1.0245  1.3832 -0.3754
 8457SOL    HW237008   2.217   0.996   2.932  2.4580  1.8543 -0.8365
 8458SOL     OW37009   0.750   2.569  17.294 -0.0504 -0.8077 -0.0065
 8458SOL    HW137010   0.773   2.480  17.270  1.2091 -0.1624 -1.2093
 8458SOL    HW237011   0.771   2.559  17.387  2.4040 -0.1297 -0.4923
 8459SOL     OW37012   3.701   4.438   3.693 -0.0932  0.0579 -0.4508
 8459SOL    HW137013   3.697   4.501   3.622 -0.8124  0.9347  0.3627
 8459SOL    HW237014   3.751   4.371   3.647 -1.6971 -1.5566  0.1679
 8460SOL     OW37015   1.006   0.722  12.483 -0.1244  0.1140 -0.1360
 8460SOL    HW137016   1.078   0.769  12.525 -1.7869  3.5035 -1.0099
 8460SOL    HW237017   1.060   0.645  12.467  1.1987  1.0862 -0.3513
 8461SOL     OW37018   2.813   1.090   7.273 -0.1988  0.0924 -0.4760
 8461SOL    HW137019   2.740   1.069   7.216 -1.7488  1.5657  0.9909
 8461SOL    HW237020   2.875   1.019   7.256 -1.9330 -1.3209 -0.7728
 8462SOL     OW37021   1.575   2.003  11.689 -0.2730  0.1090  0.3111
 8462SOL    HW137022   1.498   1.960  11.726  0.0493 -1.0074 -0.3221
 8462SOL    HW237023   1.630   2.024  11.765  1.8393 -1.1673 -0.8890
 8463SOL     OW37024   1.311   0.015   9.421 -0.1089  0.3024  0.5895
 8463SOL    HW137025   1.231   4.722   9.465  0.4679 -1.8697  0.1432
 8463SOL    HW237026   1.305   0.109   9.441  4.2325  0.6400  0.2846
 8464SOL     OW37027   3.255   2.015  15.458 -0.3306  0.2760 -0.3375
 8464SOL    HW137028   3.253   2.109  15.478 -1.2110  0.3341 -0.6796
 8464SOL    HW237029   3.280   2.025  15.366  4.5177  0.1825  0.9738
 8465SOL     OW37030   1.600   3.143   2.616  0.6413 -0.3573  0.1293
 8465SOL    HW137031   1.559   3.064   2.580 -2.2754  1.0123  0.4669
 8465SOL    HW237032   1.543   3.202   2.568 -0.9108 -0.0463  2.3743
 8466SOL     OW37033   2.977   4.399   8.333 -0.0228 -0.2452  0.6011
 8466SOL    HW137034   2.931   4.348   8.399 -2.3110  0.8429 -0.1677
 8466SOL    HW237035   3.069   4.393   8.358 -0.1813  0.0182  1.2418
 8467SOL     OW37036   3.671   0.256  15.826  0.0702 -0.0721  0.5291
 8467SOL    HW137037   3.600   0.289  15.770  2.1921  1.1938 -1.4095
 8467SOL    HW237038   3.741   0.254  15.761 -0.1158 -1.5925  0.3533
 8468SOL     OW37039   1.297   4.733  15.931  0.4543 -0.1301 -0.2074
 8468SOL    HW137040   1.292   4.642  15.962  0.5609 -0.1043 -0.1136
 8468SOL    HW237041   1.392   0.006  15.931  0.3531  0.7785 -3.1768
 8469SOL     OW37042   1.608   2.769   3.010  0.1380  0.6671 -0.2614
 8469SOL    HW137043   1.570   2.829   3.075  1.6127  2.4001 -1.0086
 8469SOL    HW237044   1.598   2.832   2.939 -0.3691  0.2286 -0.5793
 8470SOL     OW37045   2.543   0.629  12.437  0.2296  0.2023 -0.5400
 8470SOL    HW137046   2.601   0.694  12.478  0.4329  0.6901 -1.6057
 8470SOL    HW237047   2.467   0.671  12.399  0.6142 -0.3198 -1.9176
 8471SOL     OW37048   1.033   3.804   5.939 -0.3705  0.1310  0.2273
 8471SOL    HW137049   0.973   3.840   6.003 -0.8670 -0.2781 -0.0116
 8471SOL    HW237050   1.108   3.862   5.956 -0.4248 -0.0844  1.1850
 8472SOL     OW37051   1.572   1.474   9.671  0.1601  0.0584 -0.0362
 8472SOL    HW137052   1.485   1.465   9.710  0.0925 -2.5922 -0.7878
 8472SOL    HW237053   1.626   1.502   9.745  0.8873 -1.6575  0.0806
 8473SOL     OW37054   2.494   0.500   4.807  0.5296 -0.6790 -0.3002
 8473SOL    HW137055   2.412   0.475   4.765  0.1478  0.9851 -0.5244
 8473SOL    HW237056   2.506   0.421   4.861  1.5530 -0.1305  0.2857
 8474SOL     OW37057   3.612   1.447  13.220  0.0260  0.1519 -0.3900
 8474SOL    HW137058   3.625   1.510  13.291  2.6101 -0.3094 -0.4565
 8474SOL    HW237059   3.579   1.377  13.275 -1.1813 -0.9118 -2.4833
 8475SOL     OW37060   3.426   0.667   0.913 -0.4181  0.0589 -0.3681
 8475SOL    HW137061   3.456   0.651   0.823 -0.3536  3.5228 -0.9812
 8475SOL    HW237062   3.340   0.627   0.908 -1.0216  1.0141  2.2728
 8476SOL     OW37063   2.016   1.328   6.805  0.3305  0.2135 -0.4791
 8476SOL    HW137064   2.068   1.249   6.787 -0.7704 -0.8601  0.9608
 8476SOL    HW237065   1.930   1.311   6.767  0.4352 -0.5790 -0.3690
 8477SOL     OW37066   3.045   2.818  12.570  0.4292 -0.2540  0.6302
 8477SOL    HW137067   3.012   2.905  12.547 -0.4308 -1.1860 -1.6568
 8477SOL    HW237068   3.118   2.808  12.508 -0.0409 -0.1846  0.0696
 8478SOL     OW37069   2.768   2.648  14.371  0.5812 -0.0537  0.1347
 8478SOL    HW137070   2.836   2.582  14.385 -0.6428 -1.2116  0.6591
 8478SOL    HW237071   2.815   2.726  14.402 -1.3745  1.3246 -0.3584
 8479SOL     OW37072   0.184   1.404   7.068  0.4349  0.2855 -0.0239
 8479SOL    HW137073   0.198   1.373   7.157 -0.0527  2.0865  0.6788
 8479SOL    HW237074   0.235   1.485   7.055  1.0131 -0.1652 -0.5724
 8480SOL     OW37075   0.308   2.787   3.503 -0.0752 -0.2254  0.3510
 8480SOL    HW137076   0.257   2.836   3.568 -0.6212  0.8747 -0.9087
 8480SOL    HW237077   0.393   2.828   3.490 -0.1016 -0.5620 -0.8250
 8481SOL     OW37078   1.028   1.067   5.471 -0.1008 -0.5127  0.5416
 8481SOL    HW137079   0.934   1.054   5.478 -0.2941  0.6217  0.0637
 8481SOL    HW237080   1.053   0.998   5.531  2.1738 -1.9078 -2.0060
 8482SOL     OW37081   4.023   1.402   4.201  0.3183 -0.3472 -0.1095
 8482SOL    HW137082   3.978   1.486   4.207  0.6089 -0.2744  1.1198
 8482SOL    HW237083   4.077   1.408   4.280 -1.0682  1.3202  0.7151
 8483SOL     OW37084   2.458   4.043   8.405  0.7815 -0.8332  0.2801
 8483SOL    HW137085   2.453   3.959   8.359  0.1821  0.8172 -2.7292
 8483SOL    HW237086   2.526   4.087   8.354 -0.5334  0.9599  0.0711
 8484SOL     OW37087   3.800   2.884   7.116  0.9190 -0.0608  0.1568
 8484SOL    HW137088   3.879   2.840   7.086 -0.4544 -0.0588 -3.4738
 8484SOL    HW237089   3.742   2.868   7.042 -0.3653  0.2506  1.0828
 8485SOL     OW37090   0.885   4.435   4.395 -0.0455 -0.2072  0.4539
 8485SOL    HW137091   0.811   4.470   4.444 -0.2810 -0.1942  0.0831
 8485SOL    HW237092   0.951   4.495   4.430 -0.5457 -0.2085  1.3840
 8486SOL     OW37093   4.411   4.043   6.317  0.4724 -0.1941  0.3241
 8486SOL    HW137094   4.439   3.996   6.395 -3.5512  1.5551  2.8299
 8486SOL    HW237095   4.349   3.980   6.279 -0.8637 -0.2263  2.5918
 8487SOL     OW37096   1.682   1.305   7.201  0.4814  0.0307 -0.3027
 8487SOL    HW137097   1.679   1.364   7.277  0.9522 -1.1061  0.5927
 8487SOL    HW237098   1.622   1.236   7.227  0.8137 -0.2169 -0.1895
 8488SOL     OW37099   1.205   2.076   7.556 -0.3034 -0.0979  0.3122
 8488SOL    HW137100   1.293   2.046   7.534  0.1163  0.9210  0.6338
 8488SOL    HW237101   1.162   2.034   7.482  1.8830 -1.5334 -0.1326
 8489SOL     OW37102   4.091   2.093   8.885 -0.5194  0.1907 -0.0748
 8489SOL    HW137103   4.037   2.017   8.904  1.4497 -0.8793  1.1501
 8489SOL    HW237104   4.044   2.159   8.936 -1.0962 -0.6664  0.4968
 8490SOL     OW37105   1.866   3.374   6.841  0.0878 -0.0358 -0.3608
 8490SOL    HW137106   1.822   3.452   6.806  0.9328 -0.3074 -2.0346
 8490SOL    HW237107   1.813   3.374   6.921  1.8720 -1.0066  0.8067
 8491SOL     OW37108   4.526   1.970  16.697 -0.2735 -0.4303  0.2413
 8491SOL    HW137109   4.601   1.921  16.662  0.3518 -0.0397  1.0321
 8491SOL    HW237110   4.508   1.918  16.775  1.0275 -0.1714  0.7204
 8492SOL     OW37111   1.782   2.832   2.310 -0.1831  0.0058 -0.3696
 8492SOL    HW137112   1.865   2.809   2.352  0.2571  2.4058  0.0503
 8492SOL    HW237113   1.802   2.922   2.284 -2.4223  0.4729 -0.4629
 8493SOL     OW37114   4.042   0.841   3.639  0.2302 -0.4099  0.0334
 8493SOL    HW137115   3.997   0.825   3.722  1.2273  1.5029  0.9453
 8493SOL    HW237116   4.127   0.859   3.680  0.3189  1.2042 -0.8880
 8494SOL     OW37117   2.123   1.938   4.973 -0.2071 -0.4918 -0.0425
 8494SOL    HW137118   2.073   1.958   4.894  0.0111 -0.4103 -0.1605
 8494SOL    HW237119   2.092   1.851   4.999  1.6303 -0.7015  1.4582
 8495SOL     OW37120   1.867   2.046   5.133 -0.0112  0.1884 -0.1362
 8495SOL    HW137121   1.884   2.043   5.038 -0.4854 -2.5767 -0.1399
 8495SOL    HW237122   1.924   2.118   5.159  1.8833 -1.2949 -0.1661
 8496SOL     OW37123   1.839   4.190   4.631  0.6050 -0.3782 -0.2186
 8496SOL    HW137124   1.785   4.127   4.678 -1.1684  1.2139 -0.1137
 8496SOL    HW237125   1.925   4.161   4.660  0.0004 -0.3767  1.6217
 8497SOL     OW37126   0.417   1.176   7.671  0.0795  0.3233  0.1784
 8497SOL    HW137127   0.412   1.080   7.663 -1.6385  0.4296 -0.2133
 8497SOL    HW237128   0.393   1.189   7.579 -1.4054  0.0014  0.5150
 8498SOL     OW37129   1.527   2.745   0.926 -0.3027 -0.1897  0.0563
 8498SOL    HW137130   1.619   2.724   0.912  0.4097  3.3942 -0.7084
 8498SOL    HW237131   1.479   2.662   0.921 -0.6428  0.0450 -0.5454
 8499SOL     OW37132   2.588   0.905   7.174 -0.0517  0.0100  0.1568
 8499SOL    HW137133   2.502   0.868   7.154  0.0580 -0.7894  1.1259
 8499SOL    HW237134   2.641   0.875   7.100 -0.9459 -0.8232 -0.1593
 8500SOL     OW37135   2.368   2.403   4.430  0.1856  0.4699 -0.0588
 8500SOL    HW137136   2.292   2.365   4.476 -0.5876 -0.2854 -1.9550
 8500SOL    HW237137   2.326   2.405   4.344  1.5173 -0.6980 -0.7296
 8501SOL     OW37138   0.806   3.072  17.249  0.0754  0.3046  0.5337
 8501SOL    HW137139   0.780   3.083  17.340 -1.9117  0.1356 -0.0225
 8501SOL    HW237140   0.779   2.981  17.246 -0.7196  0.5393  0.5370
 8502SOL     OW37141   2.491   1.697   7.416 -0.1760  0.4704  0.2083
 8502SOL    HW137142   2.564   1.759   7.420  0.0289  0.2499 -0.0455
 8502SOL    HW237143   2.515   1.645   7.339  0.7806  0.6800  0.3552
 8503SOL     OW37144   2.837   0.730  16.544 -0.2560 -0.0977 -0.0055
 8503SOL    HW137145   2.747   0.750  16.517  0.2107  1.3389 -0.4641
 8503SOL    HW237146   2.818   0.704  16.634 -1.1822  0.8575  0.0652
 8504SOL     OW37147   3.107   4.718   5.871  0.3184 -0.0205  0.9015
 8504SOL    HW137148   3.154   0.029   5.939 -0.4899  1.7596  0.2194
 8504SOL    HW237149   3.073   4.643   5.921 -3.0374  0.4461 -0.6321
 8505SOL     OW37150   2.838   1.599  15.004  0.0694  0.4846  0.0425
 8505SOL    HW137151   2.927   1.564  15.011  0.5514  1.4887 -1.1060
 8505SOL    HW237152   2.803   1.584  15.092  0.1376  1.2403  0.1973
 8506SOL     OW37153   4.729   1.401   4.235 -0.0736  0.0650  0.2943
 8506SOL    HW137154   4.721   1.468   4.167 -0.9492 -0.0928  0.2397
 8506SOL    HW237155   0.044   1.333   4.192  0.0718  0.3910 -0.0467
 8507SOL     OW37156   3.851   1.438   2.923  0.0411 -0.0200  0.2756
 8507SOL    HW137157   3.778   1.478   2.971 -0.5878  0.5081 -1.0927
 8507SOL    HW237158   3.864   1.353   2.964  2.0464  0.2851  0.2774
 8508SOL     OW37159   4.145   0.172   6.249  0.2763  0.5682 -0.0544
 8508SOL    HW137160   4.135   0.088   6.295 -0.4549 -0.2664 -1.7197
 8508SOL    HW237161   4.236   0.167   6.219 -0.2981 -2.2179 -1.3467
 8509SOL     OW37162   3.166   4.649   3.386 -0.1645  0.3988 -0.0466
 8509SOL    HW137163   3.134   4.635   3.475 -1.0478 -1.2397 -0.6208
 8509SOL    HW237164   3.080   4.645   3.344  0.8338  1.9356 -2.2174
 8510SOL     OW37165   3.496   3.879   2.415  0.1998 -0.6013  0.2361
 8510SOL    HW137166   3.497   3.963   2.370  0.1666  0.4979  2.2919
 8510SOL    HW237167   3.425   3.895   2.476  0.4091 -1.1833  0.6351
 8511SOL     OW37168   2.220   2.993   6.776  0.3838 -0.0874  0.6574
 8511SOL    HW137169   2.152   2.980   6.842  1.1986  0.9093  1.7097
 8511SOL    HW237170   2.190   2.938   6.704 -1.1364  0.0600  1.1783
 8512SOL     OW37171   1.140   2.661   4.365  0.0302 -0.0863 -0.0917
 8512SOL    HW137172   1.194   2.707   4.430  0.4806 -1.1357  0.2883
 8512SOL    HW237173   1.070   2.636   4.425 -0.8836  0.1382 -1.0761
 8513SOL     OW37174   4.687   2.457   2.919 -0.0132  0.3504 -0.6043
 8513SOL    HW137175   4.726   2.488   2.837  1.3161  0.0159 -0.0887
 8513SOL    HW237176   4.616   2.400   2.889  0.4288 -0.8086  0.5548
 8514SOL     OW37177   3.953   4.731   4.622  0.3997  0.0317  0.2007
 8514SOL    HW137178   3.923   4.641   4.607  1.3057 -0.0462 -1.1257
 8514SOL    HW237179   3.873   0.033   4.584 -0.1217 -1.0038  0.2294
 8515SOL     OW37180   0.457   2.562  11.966  0.4412 -0.3611 -0.1772
 8515SOL    HW137181   0.427   2.532  12.052 -3.3289  0.5374 -1.1967
 8515SOL    HW237182   0.518   2.494  11.938  0.7363  0.0564 -0.5480
 8516SOL     OW37183   3.220   3.896  11.738 -0.7502 -0.8136  0.2777
 8516SOL    HW137184   3.176   3.896  11.653  0.0787  0.3623 -0.1390
 8516SOL    HW237185   3.273   3.817  11.726  1.9719  0.8623  1.2679
 8517SOL     OW37186   0.618   4.225  11.079  0.5816 -0.0627  0.0034
 8517SOL    HW137187   0.523   4.217  11.081  0.4242  1.4927 -1.1001
 8517SOL    HW237188   0.643   4.227  10.987  2.8318  0.0669  0.6245
 8518SOL     OW37189   2.975   4.247   2.940 -0.5262 -0.2352 -0.3654
 8518SOL    HW137190   2.930   4.164   2.931 -1.1503 -0.0243  0.7846
 8518SOL    HW237191   3.011   4.228   3.026 -2.2657  0.2519  0.4641
 8519SOL     OW37192   3.040   1.452   2.613 -0.5091  0.0783 -0.2743
 8519SOL    HW137193   3.035   1.366   2.572  0.6389  0.1761 -0.6204
 8519SOL    HW237194   3.038   1.429   2.706 -0.9227  0.0584 -0.2879
 8520SOL     OW37195   0.630   1.516  13.481 -0.0453  0.2564 -0.6161
 8520SOL    HW137196   0.625   1.599  13.434  1.0101  0.0379 -1.1244
 8520SOL    HW237197   0.544   1.525  13.520  1.2848  1.6581  1.9693
 8521SOL     OW37198   1.464   2.076   7.463  0.8984 -0.6095  0.6055
 8521SOL    HW137199   1.487   2.130   7.538  0.1913  2.4053 -1.3728
 8521SOL    HW237200   1.541   2.094   7.409 -0.2737  0.5855 -0.6696
 8522SOL     OW37201   3.482   0.537   7.094 -0.0442  0.1844 -0.6922
 8522SOL    HW137202   3.505   0.524   7.002 -0.2426  0.0580 -0.7226
 8522SOL    HW237203   3.419   0.607   7.105 -0.7401 -0.3206 -1.4822
 8523SOL     OW37204   2.609   0.485   6.566  0.0461  0.0338  0.1095
 8523SOL    HW137205   2.642   0.453   6.650  0.3839  0.1243  0.0092
 8523SOL    HW237206   2.687   0.516   6.521 -1.6993  0.4490 -2.6186
 8524SOL     OW37207   3.857   2.099   1.338 -0.0558 -0.1572  0.2524
 8524SOL    HW137208   3.845   2.157   1.264 -1.8186  0.3410  0.9307
 8524SOL    HW237209   3.953   2.099   1.344  0.0480 -3.7063 -1.1485
 8525SOL     OW37210   4.136   0.716   6.365  0.7046 -0.5316  0.3385
 8525SOL    HW137211   4.167   0.774   6.295 -0.7092  1.4697  1.3544
 8525SOL    HW237212   4.061   0.669   6.330  0.1002 -0.1705  1.1430
 8526SOL     OW37213   2.111   0.262   6.460 -0.0548 -0.4420  0.3940
 8526SOL    HW137214   2.075   0.179   6.428  0.8114 -1.5714  2.2648
 8526SOL    HW237215   2.047   0.282   6.528 -1.0742 -0.1684 -0.6543
 8527SOL     OW37216   3.100   1.256   3.593 -0.2728 -0.0381 -0.0761
 8527SOL    HW137217   3.188   1.273   3.626  1.0379 -3.3498 -1.8685
 8527SOL    HW237218   3.078   1.187   3.655  0.6626 -0.2391  0.0422
 8528SOL     OW37219   3.516   0.187   1.656  0.7994  0.1814  0.3097
 8528SOL    HW137220   3.576   0.120   1.688 -1.0933 -0.6799  2.0490
 8528SOL    HW237221   3.527   0.180   1.561  1.1756  2.2400  0.1932
 8529SOL     OW37222   3.369   3.047   2.502  0.6073 -0.2491 -0.0334
 8529SOL    HW137223   3.364   3.138   2.475 -1.5917  0.9409  4.5129
 8529SOL    HW237224   3.345   3.048   2.594  0.9624  2.7396  0.0111
 8530SOL     OW37225   3.336   3.505  13.849  0.2997  0.1711  0.3446
 8530SOL    HW137226   3.395   3.566  13.892 -0.2426  0.5219  0.5994
 8530SOL    HW237227   3.371   3.501  13.760 -0.2186 -1.6822  0.2224
 8531SOL     OW37228   4.158   3.664   8.209 -0.2021 -0.4104 -0.6656
 8531SOL    HW137229   4.143   3.677   8.115  2.4487  0.1930 -1.0050
 8531SOL    HW237230   4.119   3.744   8.245  1.1183  0.2195 -0.6173
 8532SOL     OW37231   0.359   0.725  11.997  0.2978  0.2305  0.2511
 8532SOL    HW137232   0.339   0.637  12.030  1.3376 -0.7569 -1.7465
 8532SOL    HW237233   0.281   0.773  12.027 -0.1434 -0.7588  0.6707
 8533SOL     OW37234   3.846   4.419   6.251  0.3634  0.3308 -0.4578
 8533SOL    HW137235   3.805   4.403   6.166 -2.1535  0.6953  0.7064
 8533SOL    HW237236   3.775   4.390   6.308  0.6094  0.3838 -0.1247
 8534SOL     OW37237   3.211   1.935  12.877 -0.6022  0.2440 -0.1359
 8534SOL    HW137238   3.221   1.971  12.788  1.7141  0.8178  0.3587
 8534SOL    HW237239   3.162   2.005  12.919  3.1577  1.6689  1.8588
 8535SOL     OW37240   0.752   0.172   0.863  0.0832 -0.0600 -0.6960
 8535SOL    HW137241   0.722   0.085   0.890  1.7708 -0.0887  1.0822
 8535SOL    HW237242   0.813   0.146   0.794 -0.8897 -1.1807 -1.1440
 8536SOL     OW37243   0.047   2.028   4.437  0.7261 -0.2890 -0.0876
 8536SOL    HW137244   0.027   2.030   4.530  0.5804 -1.6909 -0.0952
 8536SOL    HW237245   0.010   1.942   4.420 -0.7737  0.1088  1.2434
 8537SOL     OW37246   2.585   3.622   1.157  0.1121  0.3619 -0.1631
 8537SOL    HW137247   2.633   3.683   1.213  0.2362 -1.1464  1.3990
 8537SOL    HW237248   2.504   3.615   1.208  0.8549 -3.1845  0.5035
 8538SOL     OW37249   2.082   3.084  16.512 -0.1420  0.1313 -0.1259
 8538SOL    HW137250   2.059   3.135  16.434 -1.2394  0.7538  0.5962
 8538SOL    HW237251   2.024   3.008  16.508 -0.1496  0.0651  1.1186
 8539SOL     OW37252   3.889   2.724   7.974  0.2700  0.0186  0.0261
 8539SOL    HW137253   3.928   2.730   7.887 -1.4475 -0.0102 -0.7439
 8539SOL    HW237254   3.920   2.642   8.012 -2.6877 -0.8543  0.5493
 8540SOL     OW37255   0.331   3.566   7.192 -0.1054 -0.5412  0.1310
 8540SOL    HW137256   0.342   3.501   7.122  0.6773  1.1945 -1.3595
 8540SOL    HW237257   0.386   3.639   7.164  0.5731 -0.4045  1.8497
 8541SOL     OW37258   2.689   3.803  14.864 -0.1020  0.4225 -0.0546
 8541SOL    HW137259   2.627   3.802  14.937  0.4100 -0.7429  0.3661
 8541SOL    HW237260   2.776   3.798  14.904 -0.2300 -0.2723  0.1288
 8542SOL     OW37261   1.929   1.404   0.367 -0.3304 -0.2786 -0.2764
 8542SOL    HW137262   1.919   1.319   0.410 -0.9832 -0.8539 -1.5572
 8542SOL    HW237263   1.836   1.426   0.369 -0.4337 -0.8199  0.7763
 8543SOL     OW37264   0.528   1.419   7.092 -0.1129 -0.3922  0.2541
 8543SOL    HW137265   0.557   1.427   7.183 -0.1724  1.2525  0.1240
 8543SOL    HW237266   0.603   1.374   7.053  0.1854  0.8839 -0.6574
 8544SOL     OW37267   0.337   0.627   8.027  0.1310 -0.3097  0.7333
 8544SOL    HW137268   0.265   0.661   7.974  0.6653 -1.8116 -0.9154
 8544SOL    HW237269   0.287   0.575   8.090 -0.4010 -0.3718  0.2567
 8545SOL     OW37270   1.986   3.622   2.134  0.4574 -0.4101  0.5867
 8545SOL    HW137271   1.942   3.706   2.121  3.2774  1.0389  0.4492
 8545SOL    HW237272   1.913   3.574   2.173 -0.1665 -0.3431 -0.4955
 8546SOL     OW37273   1.683   2.680   2.089  0.6758  0.2428  0.2036
 8546SOL    HW137274   1.730   2.719   2.015  0.2905  0.1351 -0.1021
 8546SOL    HW237275   1.714   2.733   2.162  1.7360  2.6638 -1.9797
 8547SOL     OW37276   2.494   4.417   1.436 -0.5920  0.4026  0.3902
 8547SOL    HW137277   2.493   4.468   1.356  2.0812  1.6152  1.1238
 8547SOL    HW237278   2.477   4.491   1.494 -2.1573  0.9535 -0.7956
 8548SOL     OW37279   2.150   2.780   6.328 -0.1846  0.6342  0.3093
 8548SOL    HW137280   2.058   2.788   6.353  0.0075 -0.3429  1.3271
 8548SOL    HW237281   2.177   2.868   6.353  0.0379  0.5727  0.2872
 8549SOL     OW37282   3.493   0.066   9.442 -0.5249 -0.1918 -0.7559
 8549SOL    HW137283   3.567   0.114   9.480 -0.5716 -1.0289  0.3965
 8549SOL    HW237284   3.433   0.078   9.516 -0.5943 -0.2787 -0.7996
 8550SOL     OW37285   1.798   1.553   3.094 -0.5025  0.4227  0.0909
 8550SOL    HW137286   1.713   1.525   3.129 -0.8119  1.1374 -0.0887
 8550SOL    HW237287   1.782   1.568   3.001  0.8510  0.9791 -0.0485
 8551SOL     OW37288   3.390   0.405   7.462 -0.0098 -0.1705  0.2817
 8551SOL    HW137289   3.432   0.346   7.524 -0.2969 -1.9137 -1.1665
 8551SOL    HW237290   3.443   0.485   7.453  0.3033 -0.4772 -0.5945
 8552SOL     OW37291   0.130   4.212   1.567  0.0240  0.1772  0.4135
 8552SOL    HW137292   0.207   4.258   1.601  0.1335  0.1489  0.2082
 8552SOL    HW237293   0.166   4.124   1.558 -0.7079  0.0429 -1.1703
 8553SOL     OW37294   0.676   1.115   7.401  0.5953  0.3279 -0.3875
 8553SOL    HW137295   0.690   1.023   7.382 -1.2981 -0.1058  0.2466
 8553SOL    HW237296   0.709   1.112   7.491  1.0130  0.3590 -0.5393
 8554SOL     OW37297   0.664   1.267   4.332 -0.3878  0.2812  0.0881
 8554SOL    HW137298   0.595   1.319   4.372  1.3672  1.6221  1.3407
 8554SOL    HW237299   0.640   1.175   4.348 -0.3879  0.3731  0.6347
 8555SOL     OW37300   0.240   4.602   5.179  0.1677 -0.1258 -0.5122
 8555SOL    HW137301   0.163   4.562   5.138 -0.0616  0.0285 -0.2254
 8555SOL    HW237302   0.304   4.610   5.107  1.3046 -3.4819  0.1110
 8556SOL     OW37303   4.409   2.220   9.776 -0.7027 -0.2912 -0.3721
 8556SOL    HW137304   4.472   2.153   9.802 -1.3434 -0.1918  1.4116
 8556SOL    HW237305   4.461   2.298   9.753 -2.7059  1.4283  0.9527
 8557SOL     OW37306   2.936   0.291  12.895  0.1125 -0.4558 -0.1838
 8557SOL    HW137307   2.907   0.377  12.865  1.5053 -0.2749 -1.0310
 8557SOL    HW237308   2.865   0.228  12.886  0.9594 -1.3488 -0.5517
 8558SOL     OW37309   2.037   3.100   7.765  0.4417  0.6028 -0.2757
 8558SOL    HW137310   1.959   3.154   7.748  1.8934  2.1680 -2.0738
 8558SOL    HW237311   2.000   3.020   7.801  1.1839  0.3669 -0.0338
 8559SOL     OW37312   4.204   2.876  12.714  0.0991 -0.0643 -0.0284
 8559SOL    HW137313   4.123   2.919  12.688 -0.2696 -0.2670  0.7743
 8559SOL    HW237314   4.186   2.818  12.788 -0.1825 -0.3598 -0.3303
 8560SOL     OW37315   0.571   1.193   7.983 -0.4895 -0.0424  0.1458
 8560SOL    HW137316   0.610   1.112   7.949 -0.3012  1.0400 -2.2140
 8560SOL    HW237317   0.523   1.157   8.057 -0.3006 -2.9508 -1.1639
 8561SOL     OW37318   0.345   2.274  13.473  0.0993  0.3366 -0.0887
 8561SOL    HW137319   0.415   2.210  13.489  0.0358  0.3403  0.1998
 8561SOL    HW237320   0.264   2.223  13.482 -0.0594  0.9560  2.0129
 8562SOL     OW37321   2.604   4.271   0.576 -0.3974  0.2727 -0.2693
 8562SOL    HW137322   2.553   4.337   0.529  2.8105  2.4525 -0.6491
 8562SOL    HW237323   2.692   4.308   0.571  0.6656 -2.0724  1.0121
 8563SOL     OW37324   0.274   1.222   6.398 -0.5122 -0.3126  0.0741
 8563SOL    HW137325   0.192   1.238   6.445 -0.4239  0.1169  0.0879
 8563SOL    HW237326   0.330   1.191   6.469 -0.6644 -2.1378 -0.6033
 8564SOL     OW37327   2.607   1.621   7.162 -0.2278 -0.2250  0.7432
 8564SOL    HW137328   2.684   1.570   7.189  0.3790  0.2519 -0.0483
 8564SOL    HW237329   2.579   1.564   7.091  1.4880  1.2513 -1.1366
 8565SOL     OW37330   3.405   3.513  11.512  0.2072 -0.6566  0.2458
 8565SOL    HW137331   3.486   3.564  11.508 -0.0830 -0.3719 -2.0568
 8565SOL    HW237332   3.348   3.589  11.524 -0.3249 -0.9969 -0.1277
 8566SOL     OW37333   4.271   2.798   4.534 -0.2149 -0.4647  0.1219
 8566SOL    HW137334   4.353   2.843   4.552 -0.0235 -0.3368 -1.0530
 8566SOL    HW237335   4.241   2.847   4.458  1.0766 -1.3828 -0.9821
 8567SOL     OW37336   0.673   3.279  11.736  0.2627  0.2886  0.0699
 8567SOL    HW137337   0.620   3.201  11.751 -3.0360  2.3276 -1.0077
 8567SOL    HW237338   0.707   3.281  11.646  3.0228 -1.9281  1.0835
 8568SOL     OW37339   0.128   4.239   3.954  0.3817  0.2259  0.0177
 8568SOL    HW137340   0.111   4.237   4.048 -1.6195 -1.6772 -0.3787
 8568SOL    HW237341   0.223   4.227   3.948  0.2371 -0.1638 -1.4585
 8569SOL     OW37342   2.448   1.732   2.943  0.2347 -0.1756 -0.2187
 8569SOL    HW137343   2.522   1.737   3.004 -1.3840 -0.6410  1.7651
 8569SOL    HW237344   2.473   1.658   2.888  1.3213  0.2367 -0.2840
 8570SOL     OW37345   3.239   4.120   3.392 -0.3868 -0.3405  0.1710
 8570SOL    HW137346   3.235   4.140   3.486 -0.3407 -1.9748  0.5319
 8570SOL    HW237347   3.210   4.029   3.392 -0.5909 -0.2712 -1.1915
 8571SOL     OW37348   0.935   1.179   4.997 -0.4969 -0.6894 -0.4981
 8571SOL    HW137349   0.873   1.130   5.051 -0.6158 -1.7300 -1.5527
 8571SOL    HW237350   0.941   1.117   4.924 -2.0155 -1.2763 -0.1422
 8572SOL     OW37351   0.680   2.316   7.275  0.2156  0.2146 -0.0350
 8572SOL    HW137352   0.758   2.350   7.230  1.0064  0.7899  1.8017
 8572SOL    HW237353   0.624   2.393   7.270  0.9375  0.5874 -2.8646
 8573SOL     OW37354   4.207   0.712  13.466  0.5199  0.2366 -0.1139
 8573SOL    HW137355   4.262   0.709  13.544 -2.4439  1.3151  2.0619
 8573SOL    HW237356   4.196   0.618  13.451 -1.9805  0.6127 -0.7165
 8574SOL     OW37357   1.828   0.519   1.318  0.3383  0.2990 -0.0373
 8574SOL    HW137358   1.752   0.577   1.317 -0.4493 -0.7190  0.7376
 8574SOL    HW237359   1.900   0.579   1.298  1.4857 -1.4020 -1.0205
 8575SOL     OW37360   2.902   3.986  11.872  0.2048 -0.1665  0.4863
 8575SOL    HW137361   2.825   4.044  11.868  0.0079 -0.3051  2.0705
 8575SOL    HW237362   2.887   3.936  11.792  3.1117  2.5961 -1.7474
 8576SOL     OW37363   0.520   4.488   2.084 -0.3030  0.0515 -0.5302
 8576SOL    HW137364   0.480   4.401   2.089 -2.1489  0.8881 -0.6767
 8576SOL    HW237365   0.604   4.468   2.125 -1.3025  0.2992  1.6058
 8577SOL     OW37366   3.064   3.183   8.859  0.1353  0.8820  0.2055
 8577SOL    HW137367   2.975   3.150   8.873  0.0753  0.9125 -0.1060
 8577SOL    HW237368   3.098   3.116   8.799  1.2300  1.8940 -0.3072
 8578SOL     OW37369   1.139   3.710   1.000 -0.0973  0.0892  0.1537
 8578SOL    HW137370   1.219   3.710   1.052  0.1644  0.2537 -0.2569
 8578SOL    HW237371   1.143   3.795   0.957 -0.1886  0.0468  0.0612
 8579SOL     OW37372   2.007   1.110   6.131  0.0882  0.0714  0.4576
 8579SOL    HW137373   1.927   1.119   6.079 -0.2226  1.3041  1.1512
 8579SOL    HW237374   2.057   1.183   6.094  0.4688  0.5229  1.8398
 8580SOL     OW37375   3.476   0.894   5.372  0.3984  0.0382  0.0954
 8580SOL    HW137376   3.507   0.803   5.375 -0.0473 -0.1485 -0.7473
 8580SOL    HW237377   3.543   0.938   5.424  0.5322 -1.0628  0.8482
 8581SOL     OW37378   0.665   2.778   5.670  0.5806 -0.4028 -0.0124
 8581SOL    HW137379   0.627   2.811   5.589  1.9161  0.8742 -0.1130
 8581SOL    HW237380   0.614   2.823   5.738 -0.4624  0.6414 -1.4751
 8582SOL     OW37381   4.482   3.705   8.298 -0.0268  0.6219 -0.4458
 8582SOL    HW137382   4.430   3.764   8.353  0.8145  0.1167  0.8855
 8582SOL    HW237383   4.456   3.742   8.214 -0.1050 -0.6635 -0.9801
 8583SOL     OW37384   4.026   4.248   8.877 -0.4034 -0.1880  0.8592
 8583SOL    HW137385   4.097   4.281   8.821  0.9705 -3.0522  0.9405
 8583SOL    HW237386   4.072   4.183   8.930 -0.6905 -0.8715  0.2715
 8584SOL     OW37387   1.744   1.574  13.705 -0.0397  0.0645  0.3805
 8584SOL    HW137388   1.706   1.649  13.750  0.7763  0.2449  0.7588
 8584SOL    HW237389   1.701   1.505  13.756 -0.5926 -1.7967 -2.5916
 8585SOL     OW37390   4.498   0.185   6.309 -0.6210 -0.1372  0.1660
 8585SOL    HW137391   4.456   0.254   6.360  0.8795  1.8524 -1.2959
 8585SOL    HW237392   4.553   0.241   6.254  0.6649 -1.9919 -0.4463
 8586SOL     OW37393   3.552   4.141   6.283 -0.0425  0.3003  0.7154
 8586SOL    HW137394   3.561   4.094   6.366  1.4204 -0.8960 -0.1063
 8586SOL    HW237395   3.597   4.222   6.304 -2.4346  1.8944 -0.3950
 8587SOL     OW37396   0.830   2.784   2.434 -0.0642  0.5492  0.5473
 8587SOL    HW137397   0.815   2.870   2.395 -0.2413  0.0003 -0.5862
 8587SOL    HW237398   0.923   2.767   2.421 -0.2785  0.6159 -1.0537
 8588SOL     OW37399   1.223   1.648   5.276  0.7258 -0.0939  0.3103
 8588SOL    HW137400   1.153   1.591   5.309 -0.4361  2.9135  3.0187
 8588SOL    HW237401   1.300   1.618   5.324 -0.2020 -2.4201  0.3657
 8589SOL     OW37402   0.015   3.922  11.248 -0.1906  0.5051  0.5009
 8589SOL    HW137403   0.040   3.999  11.298 -0.9160  0.3190  1.1688
 8589SOL    HW237404   4.701   3.964  11.178  1.9096  0.6168 -0.9433
 8590SOL     OW37405   3.380   2.872   6.130  0.0917  0.0678 -0.2790
 8590SOL    HW137406   3.361   2.808   6.061  1.1077  0.3853 -0.8593
 8590SOL    HW237407   3.321   2.940   6.098  1.7050  1.4523 -0.3239
 8591SOL     OW37408   0.122   1.277  12.078 -0.3412  0.0899 -0.1406
 8591SOL    HW137409   0.071   1.213  12.128  2.4196 -0.3638  2.1111
 8591SOL    HW237410   0.204   1.228  12.076 -1.3559 -1.4903 -2.0283
 8592SOL     OW37411   3.913   1.056   3.535  0.2011 -0.3438 -0.2036
 8592SOL    HW137412   3.956   1.002   3.601 -0.5895 -0.2629  0.3804
 8592SOL    HW237413   3.858   1.110   3.593  0.5119 -0.0501 -0.1848
 8593SOL     OW37414   3.987   4.363   9.522 -0.0020 -0.3149  0.0706
 8593SOL    HW137415   4.033   4.429   9.470  0.0977 -1.2243 -0.9954
 8593SOL    HW237416   3.978   4.287   9.465  0.3790 -0.7792  0.6288
 8594SOL     OW37417   1.980   2.571   8.092 -0.2818 -0.0678 -0.1149
 8594SOL    HW137418   1.885   2.576   8.101 -0.3111 -0.2707 -0.3212
 8594SOL    HW237419   1.999   2.568   7.998  0.4351 -0.4747  0.0448
 8595SOL     OW37420   1.600   3.016   5.318  0.5457  0.2365  0.9345
 8595SOL    HW137421   1.633   3.035   5.230  0.1078  3.2264  1.4114
 8595SOL    HW237422   1.673   3.041   5.375 -0.5184  1.4742  1.7549
 8596SOL     OW37423   0.931   3.645   7.822 -0.3256  0.2373  0.7262
 8596SOL    HW137424   0.887   3.687   7.749  0.6705  0.0477  0.0048
 8596SOL    HW237425   0.906   3.693   7.901 -1.7579  2.7745 -1.3032
 8597SOL     OW37426   0.832   4.692  16.535  0.1327 -0.0853 -0.4403
 8597SOL    HW137427   0.914   4.659  16.500  0.6854 -0.5755  1.3129
 8597SOL    HW237428   0.785   4.630  16.479 -0.0780  1.0340 -1.5102
 8598SOL     OW37429   0.145   1.410   6.200 -0.3543 -0.0654  0.0775
 8598SOL    HW137430   0.223   1.459   6.224  1.7864 -3.4085 -0.1311
 8598SOL    HW237431   0.090   1.484   6.172 -0.5385 -0.4531 -0.5729
 8599SOL     OW37432   2.257   0.609  10.807 -0.0495 -0.0804  0.1204
 8599SOL    HW137433   2.189   0.544  10.787 -0.3925  0.2786  0.1378
 8599SOL    HW237434   2.326   0.544  10.819  0.6387  0.3640 -1.3125
 8600SOL     OW37435   0.572   3.013  13.469 -0.1567 -0.2987 -0.4991
 8600SOL    HW137436   0.564   2.959  13.390 -1.3130 -0.6898 -0.1272
 8600SOL    HW237437   0.623   3.086  13.433  0.3807  0.6236  2.1874
 8601SOL     OW37438   4.439   1.803   3.160 -0.4716 -0.2037  0.0320
 8601SOL    HW137439   4.462   1.804   3.253 -0.2185  0.2204 -0.0301
 8601SOL    HW237440   4.525   1.821   3.121  0.8434 -2.1421  2.1090
 8602SOL     OW37441   4.464   1.260   2.917 -0.0486  0.5470  0.5249
 8602SOL    HW137442   4.486   1.172   2.947 -0.0713  0.3910  0.0935
 8602SOL    HW237443   4.524   1.266   2.843 -0.4427  1.3351  0.2733
 8603SOL     OW37444   3.966   2.141   2.326 -0.1561 -0.1548 -0.4946
 8603SOL    HW137445   4.060   2.137   2.310  0.1123 -1.2646  1.3540
 8603SOL    HW237446   3.950   2.235   2.331  0.0493 -0.2434  1.7486
 8604SOL     OW37447   2.818   3.209   9.620 -0.1284  0.6772  0.5745
 8604SOL    HW137448   2.843   3.118   9.604 -1.5810  0.0893  1.7056
 8604SOL    HW237449   2.731   3.208   9.660 -0.4618 -0.4991 -0.2023
 8605SOL     OW37450   1.312   0.481   2.280  0.1644  0.5758  0.1499
 8605SOL    HW137451   1.388   0.424   2.275 -1.6065 -1.5602 -2.1375
 8605SOL    HW237452   1.300   0.502   2.187 -0.7745  0.8309  0.3294
 8606SOL     OW37453   3.175   4.372  10.936 -0.5491 -0.5924 -0.5810
 8606SOL    HW137454   3.198   4.408  10.850  1.6876 -1.6471 -0.4187
 8606SOL    HW237455   3.094   4.325  10.916  1.0822 -1.8189 -4.2881
 8607SOL     OW37456   2.469   0.571   1.962  0.4241 -0.3343  0.0763
 8607SOL    HW137457   2.550   0.527   1.988 -0.4233 -0.1049  3.0738
 8607SOL    HW237458   2.510   0.653   1.937  2.5616 -1.6082 -0.5566
 8608SOL     OW37459   2.102   4.702   6.885 -0.6339  0.1254 -0.4235
 8608SOL    HW137460   2.112   4.684   6.978 -0.5329 -1.9156 -0.8172
 8608SOL    HW237461   2.020   0.014   6.883  0.7348  2.4938  2.8034
 8609SOL     OW37462   3.474   3.777  15.361  0.3559  0.5482  0.0778
 8609SOL    HW137463   3.397   3.737  15.401 -0.4291 -0.2715 -2.2409
 8609SOL    HW237464   3.440   3.806  15.276  1.6242  0.0619 -0.5944
 8610SOL     OW37465   1.663   3.606   7.559 -0.0252 -0.5450  0.5453
 8610SOL    HW137466   1.738   3.571   7.607  0.6993  0.3708  0.0921
 8610SOL    HW237467   1.590   3.574   7.612  0.7293 -2.2188  0.5698
 8611SOL     OW37468   3.319   4.574   1.859  0.3489 -0.7082  0.2735
 8611SOL    HW137469   3.298   4.652   1.910  2.6313  0.5517 -0.6859
 8611SOL    HW237470   3.395   4.543   1.909  1.6203 -0.5652 -1.5586
 8612SOL     OW37471   1.343   2.825   4.539 -0.4091 -0.8684 -0.3818
 8612SOL    HW137472   1.363   2.821   4.633  1.4942 -1.1805 -0.8028
 8612SOL    HW237473   1.413   2.772   4.500 -0.5756 -0.4023 -1.3074
 8613SOL     OW37474   4.148   4.111   8.402 -0.1894 -0.4068 -0.8787
 8613SOL    HW137475   4.161   4.116   8.307 -1.9694  2.1580 -0.9649
 8613SOL    HW237476   4.208   4.178   8.434  0.2468 -0.8624 -0.7475
 8614SOL     OW37477   2.876   4.378   0.655 -0.2884  0.2823  0.2388
 8614SOL    HW137478   2.810   4.412   0.716 -1.1019  0.9904 -1.0129
 8614SOL    HW237479   2.960   4.377   0.701 -0.7206 -0.1378  1.0234
 8615SOL     OW37480   0.685   3.937  14.039 -0.1487  0.0894 -0.1138
 8615SOL    HW137481   0.730   3.884  14.104 -1.9971 -2.3907 -0.8658
 8615SOL    HW237482   0.673   3.866  13.976 -1.8377  0.4871 -0.2228
 8616SOL     OW37483   1.979   4.027   6.964 -0.4442  0.0915 -0.2856
 8616SOL    HW137484   1.956   4.103   7.017  3.1120 -0.2784  1.7986
 8616SOL    HW237485   2.008   3.963   7.030 -1.2832  2.9392  2.8327
 8617SOL     OW37486   0.963   1.129   0.510  0.4489  0.6606 -0.1580
 8617SOL    HW137487   1.014   1.049   0.499 -0.2423  0.3054 -0.8808
 8617SOL    HW237488   0.927   1.104   0.595  1.5917 -0.6209 -0.0632
 8618SOL     OW37489   3.956   1.793   5.156  0.0933 -0.9891  0.5282
 8618SOL    HW137490   3.957   1.806   5.061 -0.6865  0.6131  0.7318
 8618SOL    HW237491   3.964   1.883   5.187  1.4751 -0.4221 -1.4176
 8619SOL     OW37492   3.995   3.687   6.762  0.1600  0.0223  0.3176
 8619SOL    HW137493   4.038   3.619   6.710 -0.4881 -0.7504  0.7964
 8619SOL    HW237494   3.907   3.679   6.727  0.4277  0.0887 -0.3700
 8620SOL     OW37495   0.360   3.397   7.843  0.4261  0.0135  0.0471
 8620SOL    HW137496   0.331   3.417   7.932 -1.0935 -3.5906  0.3340
 8620SOL    HW237497   0.351   3.302   7.848 -1.1869  0.0638 -2.0449
 8621SOL     OW37498   2.502   2.301   3.547 -0.0481 -0.0181 -0.5636
 8621SOL    HW137499   2.581   2.275   3.594  0.2078  1.2986 -0.2702
 8621SOL    HW237500   2.503   2.392   3.577 -0.6050  0.1917 -1.1690
 8622SOL     OW37501   2.385   1.555  17.055  0.7289 -0.4087  0.2881
 8622SOL    HW137502   2.458   1.565  16.993  2.4034 -2.2840  1.9452
 8622SOL    HW237503   2.426   1.573  17.140  2.2481  0.8021 -0.6945
 8623SOL     OW37504   1.789   1.090   4.456 -0.3151 -0.4514 -0.0407
 8623SOL    HW137505   1.779   1.056   4.545  1.1286 -1.2565 -0.2010
 8623SOL    HW237506   1.711   1.146   4.448 -1.0148 -1.0075  2.9603
 8624SOL     OW37507   1.868   2.852   1.163  0.3798 -0.1499  0.0061
 8624SOL    HW137508   1.822   2.851   1.247  1.6473 -2.2485  0.6941
 8624SOL    HW237509   1.930   2.922   1.180  0.8711 -0.4532 -0.5416
 8625SOL     OW37510   2.138   2.920  14.383 -0.1765 -0.2991  0.0660
 8625SOL    HW137511   2.169   2.940  14.294 -1.3025 -1.3142 -0.5625
 8625SOL    HW237512   2.188   2.845  14.416 -0.6409 -0.1907  0.9917
 8626SOL     OW37513   3.800   2.473  14.481 -0.2448  0.0284  0.0955
 8626SOL    HW137514   3.875   2.530  14.466 -0.7069  0.4973 -0.4671
 8626SOL    HW237515   3.782   2.486  14.574  1.0361  0.9994  0.2055
 8627SOL     OW37516   0.966   0.481   7.836  0.4330 -0.4740  0.0481
 8627SOL    HW137517   0.955   0.539   7.911  1.7071 -0.8956  0.5683
 8627SOL    HW237518   0.878   0.490   7.800 -0.6529 -1.6067  2.4033
 8628SOL     OW37519   1.151   0.581   4.068 -0.4330  0.1771  0.3272
 8628SOL    HW137520   1.201   0.661   4.047  0.0363 -0.3783 -0.6878
 8628SOL    HW237521   1.146   0.584   4.163 -0.0096 -0.4118  0.3692
 8629SOL     OW37522   4.358   2.241  17.697  0.3483 -0.2113 -0.0289
 8629SOL    HW137523   4.360   2.295  17.618  1.2170  0.6687  0.5853
 8629SOL    HW237524   4.449   2.211  17.694  0.3623 -0.1035 -0.7487
 8630SOL     OW37525   1.535   1.155   9.900 -0.4447 -0.1216  0.3288
 8630SOL    HW137526   1.619   1.202   9.891 -0.6424  0.6593  2.6270
 8630SOL    HW237527   1.559   1.096   9.828  0.0532 -1.2767  1.4562
 8631SOL     OW37528   2.824   3.311   3.069  0.1643 -0.0757  0.0827
 8631SOL    HW137529   2.808   3.296   2.976 -1.1814  2.1759 -0.0589
 8631SOL    HW237530   2.805   3.404   3.079  2.1405  0.1221  2.0413
 8632SOL     OW37531   0.086   3.879   6.752 -0.1407 -0.1614  0.0581
 8632SOL    HW137532   0.044   3.915   6.673  2.1779  0.5843 -0.8304
 8632SOL    HW237533   0.094   3.786   6.734  0.9806  0.0041 -0.2825
 8633SOL     OW37534   3.389   2.104  10.468 -0.1034 -0.3400 -0.2767
 8633SOL    HW137535   3.305   2.069  10.498 -1.5197  2.8793 -0.5688
 8633SOL    HW237536   3.413   2.160  10.542 -3.4869  0.6503  0.0740
 8634SOL     OW37537   1.850   2.768  10.527 -0.1362 -0.2036  0.0122
 8634SOL    HW137538   1.899   2.686  10.522 -1.7829 -1.2752  1.1992
 8634SOL    HW237539   1.764   2.749  10.490 -0.2172 -0.9464  0.5691
 8635SOL     OW37540   1.158   4.166  16.931  0.2590 -0.2181  0.1087
 8635SOL    HW137541   1.249   4.183  16.955  1.0416  0.1224 -3.0388
 8635SOL    HW237542   1.113   4.176  17.015 -0.9717 -0.6940 -0.4981
 8636SOL     OW37543   0.688   0.860   6.574  0.2944 -0.0236  0.1079
 8636SOL    HW137544   0.750   0.791   6.549  0.2312 -0.8873  2.3385
 8636SOL    HW237545   0.698   0.918   6.499  0.1435  2.4024  1.9741
 8637SOL     OW37546   3.154   2.941   2.755  0.1812 -0.5388  0.2867
 8637SOL    HW137547   3.248   2.934   2.771  0.6452  0.0428 -2.2000
 8637SOL    HW237548   3.133   2.848   2.757 -0.7628 -0.3457 -0.7771
 8638SOL     OW37549   0.716   2.625  11.493 -0.8468 -0.1878 -0.2924
 8638SOL    HW137550   0.666   2.675  11.428 -0.5659 -1.3233 -1.3943
 8638SOL    HW237551   0.784   2.686  11.521 -0.3230 -1.6038  1.5429
 8639SOL     OW37552   3.373   1.076   1.391 -0.5944 -0.0307 -0.5122
 8639SOL    HW137553   3.366   1.058   1.485  0.7459 -1.4757 -0.7002
 8639SOL    HW237554   3.293   1.038   1.356 -2.0090  1.8061  0.7686
 8640SOL     OW37555   1.290   3.450   5.719  0.2941 -0.1224 -0.2661
 8640SOL    HW137556   1.283   3.542   5.745  0.3609 -0.0709 -0.4275
 8640SOL    HW237557   1.261   3.409   5.800  0.1682  0.0171 -0.2399
 8641SOL     OW37558   1.356   1.515   3.881 -0.5312  0.1589  0.1424
 8641SOL    HW137559   1.319   1.554   3.961 -2.4189  0.1224 -0.6973
 8641SOL    HW237560   1.346   1.427   3.918 -1.9150  0.1075 -0.3392
 8642SOL     OW37561   2.529   2.519   9.066  0.3530  0.2727  0.0052
 8642SOL    HW137562   2.467   2.536   8.996  0.1440  3.3032  0.9523
 8642SOL    HW237563   2.475   2.531   9.144  1.9817 -3.0917  1.6880
 8643SOL     OW37564   2.248   2.804   2.828  0.0282 -0.3564  0.0108
 8643SOL    HW137565   2.154   2.794   2.813  0.6273 -1.4330 -2.9274
 8643SOL    HW237566   2.246   2.895   2.857  0.8658 -0.2622 -0.2114
 8644SOL     OW37567   0.987   1.480   7.167 -0.2484  0.5341  0.3629
 8644SOL    HW137568   0.998   1.412   7.233  0.3227  1.1050  0.8490
 8644SOL    HW237569   1.003   1.559   7.219  0.6313  0.6885 -0.1559
 8645SOL     OW37570   4.411   1.403   3.420 -0.1935  0.2195 -0.0441
 8645SOL    HW137571   4.390   1.466   3.351  1.9537  0.5976 -0.3592
 8645SOL    HW237572   4.337   1.343   3.418 -0.8002  0.9715 -0.3741
 8646SOL     OW37573   1.101   1.315   3.462  0.3254 -0.2703 -0.3206
 8646SOL    HW137574   1.031   1.256   3.439 -0.0775 -0.5520  1.6043
 8646SOL    HW237575   1.056   1.378   3.519 -1.0680 -1.1440 -0.4866
 8647SOL     OW37576   2.214   3.704   6.370  0.1521 -0.0472 -0.2716
 8647SOL    HW137577   2.151   3.664   6.430 -0.2351  2.2178  0.8507
 8647SOL    HW237578   2.186   3.678   6.282 -0.7087 -1.2435  0.3631
 8648SOL     OW37579   0.562   4.274   2.746 -0.0169 -0.1992 -0.0068
 8648SOL    HW137580   0.522   4.277   2.833 -0.8177 -0.4933 -0.3582
 8648SOL    HW237581   0.488   4.316   2.701 -0.3013 -0.6206  0.0713
 8649SOL     OW37582   1.268   2.387   6.222 -0.2874  0.0098 -0.4825
 8649SOL    HW137583   1.187   2.340   6.237 -0.5935  0.5961 -0.2835
 8649SOL    HW237584   1.324   2.361   6.295  0.9723  2.1415 -0.6880
 8650SOL     OW37585   4.498   4.687   6.694 -0.3936 -0.4674  0.0953
 8650SOL    HW137586   4.515   4.618   6.758  0.9750  0.3337  0.5877
 8650SOL    HW237587   4.509   4.638   6.612 -1.4044 -0.2521 -0.1668
 8651SOL     OW37588   4.723   1.558   5.268  0.3918  0.1819  0.2663
 8651SOL    HW137589   0.006   1.651   5.275 -1.5445  0.5964  0.0328
 8651SOL    HW237590   4.673   1.551   5.187  1.1003  1.2933 -0.2646
 8652SOL     OW37591   1.565   4.146   7.386 -0.1907  0.3570 -0.5527
 8652SOL    HW137592   1.575   4.084   7.458  1.0987 -0.8810 -1.7976
 8652SOL    HW237593   1.617   4.106   7.316  0.7968  0.0034  0.3864
 8653SOL     OW37594   3.104   1.620   7.614  0.1237 -0.0763 -0.3408
 8653SOL    HW137595   3.190   1.659   7.598 -0.3559  0.5049 -1.4829
 8653SOL    HW237596   3.088   1.640   7.706 -1.0120  2.1311 -1.0243
 8654SOL     OW37597   4.481   2.926   6.160 -0.2524 -0.1810  0.5870
 8654SOL    HW137598   4.554   2.895   6.213  0.8538  1.6792  0.1481
 8654SOL    HW237599   4.413   2.864   6.186 -0.7246 -1.1004 -2.9696
 8655SOL     OW37600   1.418   0.722   3.490  0.1348  0.4424 -0.7944
 8655SOL    HW137601   1.403   0.816   3.493 -0.6919  0.2398  1.1253
 8655SOL    HW237602   1.461   0.725   3.404 -0.9737  0.9515 -1.3198
 8656SOL     OW37603   1.411   1.508   0.954  0.1154  0.6043 -0.2232
 8656SOL    HW137604   1.329   1.466   0.927 -0.0040  0.7815 -0.1416
 8656SOL    HW237605   1.486   1.472   0.907 -1.7272 -2.2148 -0.9883
 8657SOL     OW37606   3.562   2.421  16.815 -0.2792  1.0389  0.0760
 8657SOL    HW137607   3.644   2.444  16.771 -0.5991 -0.8219 -1.5121
 8657SOL    HW237608   3.500   2.484  16.779 -2.5070 -1.4007 -0.3678
 8658SOL     OW37609   1.192   0.971  10.424 -0.5164 -0.4369 -0.1717
 8658SOL    HW137610   1.103   1.008  10.427 -0.7316 -0.8774 -1.0944
 8658SOL    HW237611   1.212   0.987  10.332  1.0098  0.8778  0.3992
 8659SOL     OW37612   4.390   4.452   1.092 -0.4648 -0.0766 -0.3474
 8659SOL    HW137613   4.452   4.500   1.146 -0.8783  0.2085 -0.1241
 8659SOL    HW237614   4.358   4.523   1.036  1.0053  0.8719  0.0224
 8660SOL     OW37615   1.591   1.969   5.627 -0.1505 -0.3098 -0.3423
 8660SOL    HW137616   1.676   2.013   5.624 -0.4145  0.0942 -2.4842
 8660SOL    HW237617   1.553   1.992   5.711 -0.1221 -0.9365 -0.1570
 8661SOL     OW37618   0.205   0.549  13.606 -0.0061  0.5181 -0.0687
 8661SOL    HW137619   0.148   0.537  13.682  0.7559 -3.1809 -0.0727
 8661SOL    HW237620   0.281   0.565  13.662 -2.8240  1.3563  3.5032
 8662SOL     OW37621   2.045   1.365  13.103 -0.5105 -0.1250 -0.7577
 8662SOL    HW137622   2.045   1.432  13.171 -0.0430  1.1504 -2.0087
 8662SOL    HW237623   2.066   1.286  13.152  1.6003  1.0151  0.1742
 8663SOL     OW37624   2.272   3.038   5.830  0.0595 -0.4053  0.2045
 8663SOL    HW137625   2.305   2.969   5.772 -3.5795 -0.2388 -2.0289
 8663SOL    HW237626   2.209   3.078   5.770 -0.1295 -1.9818 -0.6375
 8664SOL     OW37627   3.833   3.058   4.374  0.4601 -0.1067 -0.0836
 8664SOL    HW137628   3.872   3.025   4.294 -1.5088 -0.0384 -1.0770
 8664SOL    HW237629   3.844   3.151   4.351 -0.9040  0.1219  0.1760
 8665SOL     OW37630   0.601   4.148   4.871  0.1446 -0.4860 -0.5094
 8665SOL    HW137631   0.685   4.145   4.916  1.1682  1.4060 -2.2929
 8665SOL    HW237632   0.555   4.075   4.913  1.3347 -0.4541  0.8317
 8666SOL     OW37633   0.735   1.343   0.137  0.3386 -0.0048  0.0651
 8666SOL    HW137634   0.829   1.334   0.153  0.3500  1.0878  0.6286
 8666SOL    HW237635   0.724   1.415   0.074 -1.4516 -0.2717  0.0557
 8667SOL     OW37636   3.917   1.600   9.651 -0.1789 -0.0193  0.3026
 8667SOL    HW137637   3.963   1.516   9.650 -0.8583 -0.3749 -0.9267
 8667SOL    HW237638   3.963   1.628   9.572  2.4231  0.0892  1.8737
 8668SOL     OW37639   1.299   3.757  16.503 -0.3298  0.1498  0.1691
 8668SOL    HW137640   1.336   3.716  16.425 -0.9995 -1.4540  0.6931
 8668SOL    HW237641   1.358   3.713  16.564  1.4332  1.0230 -0.9000
 8669SOL     OW37642   1.934   1.309   0.973 -0.7848  0.7151  0.4913
 8669SOL    HW137643   1.912   1.312   1.066 -1.1086  1.4582  0.3948
 8669SOL    HW237644   1.968   1.398   0.965 -0.1879  0.2462 -2.2484
 8670SOL     OW37645   2.445   2.375   2.010 -0.2031 -0.1287  0.4062
 8670SOL    HW137646   2.393   2.454   2.025  1.4245  0.8156  1.0837
 8670SOL    HW237647   2.523   2.413   1.971 -0.0159 -1.3605 -0.4346
 8671SOL     OW37648   4.366   0.424   8.352 -0.1733 -0.1300 -0.1360
 8671SOL    HW137649   4.455   0.428   8.317 -0.2759  1.2674 -0.2172
 8671SOL    HW237650   4.323   0.368   8.287  0.0397 -0.7468  0.2498
 8672SOL     OW37651   0.410   4.629   5.639  0.1675 -0.4214  0.1974
 8672SOL    HW137652   0.317   4.613   5.652  0.2075  0.0301  1.0926
 8672SOL    HW237653   0.412   4.553   5.581  1.8804  0.4568 -0.9005
 8673SOL     OW37654   4.170   3.939   6.557 -0.2058 -0.5637  0.1607
 8673SOL    HW137655   4.092   3.925   6.611 -1.1004 -0.8281 -1.2130
 8673SOL    HW237656   4.167   4.030   6.528 -0.6758 -0.2996  1.0247
 8674SOL     OW37657   0.812   1.449  10.504 -0.7797  0.9969 -0.1321
 8674SOL    HW137658   0.803   1.377  10.441  2.3852  0.6744 -0.2328
 8674SOL    HW237659   0.906   1.464  10.491 -0.2093 -0.6359  1.9439
 8675SOL     OW37660   2.380   2.582   8.822 -0.0212  0.2814 -0.9210
 8675SOL    HW137661   2.394   2.676   8.838  4.6223 -0.6168  0.0527
 8675SOL    HW237662   2.379   2.586   8.727  0.8410 -0.8568 -0.9718
 8676SOL     OW37663   1.461   2.478   3.668 -0.2373 -0.3904  0.1625
 8676SOL    HW137664   1.438   2.502   3.758 -1.3838  0.1910 -0.2940
 8676SOL    HW237665   1.487   2.562   3.631 -1.8945  0.9790  2.1313
 8677SOL     OW37666   2.232   0.182   0.570  0.0954 -0.6834 -0.4164
 8677SOL    HW137667   2.202   0.151   0.485 -0.3076 -0.2320 -0.4394
 8677SOL    HW237668   2.323   0.155   0.564  0.2194 -0.8110  1.7960
 8678SOL     OW37669   0.179   3.788  11.727  0.2485  0.3371 -0.5934
 8678SOL    HW137670   0.129   3.722  11.678 -2.3126  0.6747  1.5718
 8678SOL    HW237671   0.105   3.843  11.752 -0.3025 -0.7770  0.2754
 8679SOL     OW37672   1.267   3.931   6.032  0.4501  0.0737 -0.2446
 8679SOL    HW137673   1.229   3.913   6.118 -2.0648 -0.0928 -1.3970
 8679SOL    HW237674   1.323   4.001   6.066  3.3437 -0.2030 -4.4058
 8680SOL     OW37675   2.189   3.690   8.868  0.6155 -0.5702 -0.2944
 8680SOL    HW137676   2.130   3.764   8.855  0.7836 -0.3894 -0.0343
 8680SOL    HW237677   2.142   3.647   8.940  3.0352 -1.7507  0.5718
 8681SOL     OW37678   4.302   1.582   2.252 -0.2138  0.3267 -0.1538
 8681SOL    HW137679   4.356   1.503   2.265 -0.4502  0.2112  0.1381
 8681SOL    HW237680   4.364   1.651   2.231 -0.0009  0.2434  0.1971
 8682SOL     OW37681   0.049   2.147   6.808  0.2592 -0.2438 -0.0196
 8682SOL    HW137682   0.111   2.081   6.838 -0.2003 -0.7319 -0.1506
 8682SOL    HW237683   0.099   2.186   6.737  0.1071  0.1696  0.0975
 8683SOL     OW37684   4.710   2.533   8.636  0.4108 -0.1633 -0.0449
 8683SOL    HW137685   4.627   2.495   8.664  0.6009  0.7644  1.7724
 8683SOL    HW237686   4.713   2.479   8.557 -1.8836 -2.5237  1.4447
 8684SOL     OW37687   2.340   3.266  17.247 -0.3802 -0.6547  0.5234
 8684SOL    HW137688   2.350   3.175  17.277 -0.4419 -1.0986 -0.7924
 8684SOL    HW237689   2.355   3.248  17.154  1.2771  1.0200  0.4890
 8685SOL     OW37690   1.182   3.962   1.793  0.3617 -0.2553 -0.3330
 8685SOL    HW137691   1.106   3.926   1.840  1.6681  0.2094  2.1066
 8685SOL    HW237692   1.167   4.049   1.830  4.8460 -0.7387  2.5283
 8686SOL     OW37693   1.854   3.047  10.403 -0.1958  0.0609 -0.4691
 8686SOL    HW137694   1.942   3.079  10.385  0.0385  0.7462  1.7802
 8686SOL    HW237695   1.874   2.975  10.463  2.2270  1.3209  0.2501
 8687SOL     OW37696   3.360   2.955  11.824 -0.0513 -0.0733  0.5169
 8687SOL    HW137697   3.446   2.994  11.809 -1.2028  2.4411  0.4511
 8687SOL    HW237698   3.378   2.872  11.780  1.4690  0.0488  0.9123
 8688SOL     OW37699   1.688   0.796  16.307  0.1232 -0.0367  0.8374
 8688SOL    HW137700   1.748   0.871  16.302 -0.1272 -0.0244 -1.7731
 8688SOL    HW237701   1.612   0.833  16.263  1.1155  0.6321 -0.3264
 8689SOL     OW37702   2.383   4.602   7.096 -0.6241 -0.2350  0.4351
 8689SOL    HW137703   2.288   4.593   7.095 -0.4392 -1.9209 -1.6627
 8689SOL    HW237704   2.398   4.637   7.184 -1.6000  1.8536 -0.2217
 8690SOL     OW37705   3.845   0.130  16.350  0.2485 -0.2373  0.0339
 8690SOL    HW137706   3.881   0.159  16.434 -0.2040  1.6453 -0.4214
 8690SOL    HW237707   3.766   0.183  16.344  0.1412 -0.5428 -1.3524
 8691SOL     OW37708   3.918   2.712   8.518 -0.2280  0.0870 -0.3891
 8691SOL    HW137709   3.973   2.667   8.454 -0.5538 -0.0472 -0.5725
 8691SOL    HW237710   3.852   2.644   8.524 -0.9461  0.9318  1.5486
 8692SOL     OW37711   3.491   1.227   6.053 -0.8349  0.0460 -0.5832
 8692SOL    HW137712   3.415   1.232   6.111  1.1458 -1.4918  2.1574
 8692SOL    HW237713   3.561   1.266   6.104 -0.4763 -0.2656 -0.8388
 8693SOL     OW37714   4.034   3.102   5.528  0.0330  0.6350 -0.4196
 8693SOL    HW137715   4.127   3.105   5.506 -0.8820  1.8091 -4.1132
 8693SOL    HW237716   4.024   3.007   5.539  0.0276  0.6395 -0.3847
 8694SOL     OW37717   0.499   1.582   3.639 -0.1636  0.0437  0.7303
 8694SOL    HW137718   0.562   1.633   3.690 -0.4026 -1.0534  2.1141
 8694SOL    HW237719   0.484   1.501   3.687 -2.4147  0.5759  0.9457
 8695SOL     OW37720   4.466   3.162  17.402  0.0929  0.3622 -0.2236
 8695SOL    HW137721   4.373   3.180  17.418 -0.1996 -0.7500 -0.6544
 8695SOL    HW237722   4.465   3.135  17.310 -1.8019  1.7151 -0.5978
 8696SOL     OW37723   3.249   0.246   9.006  0.1601  0.3503  0.2634
 8696SOL    HW137724   3.199   0.215   9.082  1.8881 -1.2426  0.7781
 8696SOL    HW237725   3.335   0.209   9.029  1.1149  3.2581  1.3941
 8697SOL     OW37726   1.812   0.916   4.232  0.3326  0.1597 -0.6185
 8697SOL    HW137727   1.741   0.920   4.168 -0.9157  2.7634  0.9138
 8697SOL    HW237728   1.786   0.991   4.286  1.1029  1.1143 -1.5703
 8698SOL     OW37729   2.827   1.603  13.748  0.2582  0.3665 -0.5718
 8698SOL    HW137730   2.791   1.688  13.774 -1.0453 -0.1541 -0.6837
 8698SOL    HW237731   2.794   1.604  13.658 -1.3744 -0.2753  0.0196
 8699SOL     OW37732   4.042   1.848  17.062 -0.3229  0.3694 -0.6166
 8699SOL    HW137733   4.076   1.760  17.081  0.8508  1.1590  0.9236
 8699SOL    HW237734   3.951   1.837  17.088  0.4554  1.7401  2.6674
 8700SOL     OW37735   3.393   3.109   8.799  0.1229 -0.1372 -0.2583
 8700SOL    HW137736   3.361   3.167   8.869  3.2205  1.3624 -0.1053
 8700SOL    HW237737   3.356   3.147   8.720  0.0198 -1.5105 -0.8702
 8701SOL     OW37738   1.136   2.633   3.788  0.1429  0.0095 -0.3451
 8701SOL    HW137739   1.121   2.588   3.871  0.9679  0.0711 -0.1695
 8701SOL    HW237740   1.180   2.715   3.810  0.4510 -1.2048  3.4933
 8702SOL     OW37741   3.105   1.099  17.545  0.1270  0.6235 -0.2598
 8702SOL    HW137742   3.131   1.084  17.454 -3.5023 -1.4946 -0.9619
 8702SOL    HW237743   3.102   1.008  17.576 -0.4341  0.8391  0.3090
 8703SOL     OW37744   4.108   0.315   9.871  0.1413 -0.2820 -0.8353
 8703SOL    HW137745   4.190   0.269   9.852 -0.5440 -0.8368 -2.3923
 8703SOL    HW237746   4.041   0.256   9.836 -1.1308 -0.5447  1.9787
 8704SOL     OW37747   1.579   1.911  11.169  0.4619  0.6298 -0.0638
 8704SOL    HW137748   1.585   1.911  11.265 -0.2369  1.6639 -0.0137
 8704SOL    HW237749   1.598   2.005  11.165 -0.5620  0.7894 -1.4282
 8705SOL     OW37750   1.741   0.792  11.641 -0.1725  0.4761  0.5169
 8705SOL    HW137751   1.649   0.816  11.636 -0.0272  0.7984 -0.6524
 8705SOL    HW237752   1.776   0.865  11.692  0.9303 -0.1755  0.7090
 8706SOL     OW37753   0.209   2.011   4.870 -0.3900 -0.2573  0.5083
 8706SOL    HW137754   0.169   2.071   4.807 -0.3540  1.0444  1.7289
 8706SOL    HW237755   0.151   1.935   4.870 -1.3307  0.4642  1.1698
 8707SOL     OW37756   3.905   2.674   5.186  0.4923  0.5124  0.3605
 8707SOL    HW137757   3.916   2.755   5.135  1.4540  0.5688  0.6431
 8707SOL    HW237758   3.925   2.613   5.115  3.9278  2.3678 -0.2768
 8708SOL     OW37759   1.828   0.448   7.470 -0.3527  0.2244 -0.0350
 8708SOL    HW137760   1.909   0.435   7.520  0.2109  2.8272 -0.2471
 8708SOL    HW237761   1.812   0.538   7.498 -1.1386 -0.4984  1.8524
 8709SOL     OW37762   4.482   1.872   3.420 -0.1753  0.1460 -0.1575
 8709SOL    HW137763   4.569   1.853   3.454  0.8861  2.2376 -1.7393
 8709SOL    HW237764   4.435   1.855   3.502  0.0734  1.6859  0.2898
 8710SOL     OW37765   1.731   1.853   5.859 -0.7024 -0.2653  0.0419
 8710SOL    HW137766   1.670   1.791   5.818 -0.7557  0.0792 -0.3929
 8710SOL    HW237767   1.696   1.878   5.945 -0.8956 -0.6104  0.0640
 8711SOL     OW37768   4.151   2.489   7.021  0.4708 -0.3090  0.0500
 8711SOL    HW137769   4.170   2.408   6.973  1.1364  0.1786 -0.5140
 8711SOL    HW237770   4.092   2.456   7.089 -0.0684  1.7364  0.5609
 8712SOL     OW37771   3.911   3.649   6.250  0.2031 -0.1673 -0.5959
 8712SOL    HW137772   3.974   3.639   6.178 -0.2428 -2.0561 -0.7188
 8712SOL    HW237773   3.981   3.688   6.302 -0.5466  0.7531 -0.2906
 8713SOL     OW37774   0.446   3.583   7.649 -0.1853 -0.6898  0.0751
 8713SOL    HW137775   0.404   3.530   7.717 -1.6131 -0.9904 -1.0424
 8713SOL    HW237776   0.378   3.593   7.582  0.1296 -0.9392 -0.2857
 8714SOL     OW37777   4.680   1.930   0.669 -0.0134 -0.6472 -0.1281
 8714SOL    HW137778   4.626   1.990   0.720  2.1220  1.6983 -0.6230
 8714SOL    HW237779   4.623   1.855   0.687  2.4827 -2.9297 -1.6536
 8715SOL     OW37780   2.425   1.554   7.895 -0.1575 -0.2595  0.2623
 8715SOL    HW137781   2.335   1.550   7.863 -0.2184  1.1353  0.2597
 8715SOL    HW237782   2.472   1.592   7.820  1.9749 -1.4659  0.9912
 8716SOL     OW37783   1.431   2.581   6.081  0.5861 -0.0928 -0.6423
 8716SOL    HW137784   1.373   2.635   6.028 -1.9119 -2.4948 -0.4013
 8716SOL    HW237785   1.372   2.544   6.147 -0.0531  0.0635 -1.1242
 8717SOL     OW37786   4.237   1.569  15.224 -0.2285 -0.6630 -0.2319
 8717SOL    HW137787   4.244   1.474  15.235  0.2641 -0.4590  1.2490
 8717SOL    HW237788   4.283   1.566  15.140 -0.9081  1.1598 -0.6725
 8718SOL     OW37789   1.533   1.945   4.966 -0.5849 -0.3841  0.4884
 8718SOL    HW137790   1.580   1.994   5.033 -0.5723 -0.1557  0.3122
 8718SOL    HW237791   1.463   1.896   5.009 -0.0761 -1.3930  0.1705
 8719SOL     OW37792   1.120   2.819  15.442 -0.0471 -0.3975  0.1440
 8719SOL    HW137793   1.129   2.726  15.425  0.1984 -0.7924  2.4623
 8719SOL    HW237794   1.046   2.811  15.502 -1.0249  1.2978 -0.8135
 8720SOL     OW37795   0.712   1.243   5.901 -0.0309  0.2547 -0.1217
 8720SOL    HW137796   0.747   1.277   5.984  2.2383  1.9726 -1.7766
 8720SOL    HW237797   0.795   1.229   5.855  1.5144  4.0064  1.5174
 8721SOL     OW37798   0.925   0.569  10.387 -0.3702 -0.3745 -0.0394
 8721SOL    HW137799   0.990   0.511  10.349 -0.1711 -0.9659  1.1994
 8721SOL    HW237800   0.976   0.626  10.445  1.8302 -1.2628 -1.1194
 8722SOL     OW37801   3.212   2.635   2.076  0.1090 -0.1201  0.2702
 8722SOL    HW137802   3.120   2.656   2.093  0.7045  1.5513  1.3809
 8722SOL    HW237803   3.236   2.704   2.015 -1.4095  0.0524 -0.1300
 8723SOL     OW37804   2.913   0.911   6.926 -0.4299  0.2281 -0.2274
 8723SOL    HW137805   2.960   0.991   6.946 -0.4229  0.0895  0.3132
 8723SOL    HW237806   2.972   0.869   6.863  0.2105 -0.1381  0.6318
 8724SOL     OW37807   3.680   0.209   9.617 -0.3825 -0.4006 -0.0608
 8724SOL    HW137808   3.666   0.250   9.702  0.4235  0.7872 -0.5108
 8724SOL    HW237809   3.747   0.274   9.595 -0.3853 -0.5731 -0.5963
 8725SOL     OW37810   2.127   1.627  12.480 -0.3613  0.0473 -0.4920
 8725SOL    HW137811   2.045   1.579  12.470 -0.1063 -0.0674 -1.9251
 8725SOL    HW237812   2.173   1.585  12.552 -1.4336 -2.1049 -1.0717
 8726SOL     OW37813   0.515   1.782  15.732  0.3140 -0.0134  0.0146
 8726SOL    HW137814   0.538   1.872  15.757  2.8625 -0.0254 -2.2532
 8726SOL    HW237815   0.460   1.752  15.804 -0.0396 -0.8065 -0.5905
 8727SOL     OW37816   1.806   1.973  13.795  0.0230 -0.5796  0.0923
 8727SOL    HW137817   1.877   1.910  13.800 -0.0819 -0.9823 -3.2342
 8727SOL    HW237818   1.729   1.923  13.824 -1.0948  0.9164 -0.2446
 8728SOL     OW37819   0.251   1.631   7.701  0.6288  0.0043  0.2553
 8728SOL    HW137820   0.213   1.547   7.727 -0.1444  0.2998  0.0773
 8728SOL    HW237821   0.182   1.660   7.642  0.1903 -0.7155  0.4151
 8729SOL     OW37822   4.734   4.159  11.387 -0.6735  0.5645 -0.0850
 8729SOL    HW137823   4.695   4.174  11.474 -1.8706  2.3845 -0.9443
 8729SOL    HW237824   4.713   4.241  11.344  1.9970  0.0369 -2.3498
 8730SOL     OW37825   3.230   2.120   7.922  0.1248 -0.0440  0.3275
 8730SOL    HW137826   3.225   2.177   7.999  2.3354  2.0670 -1.1072
 8730SOL    HW237827   3.249   2.036   7.964 -1.1560  0.3772  1.7841
 8731SOL     OW37828   0.251   1.442   9.412 -0.1879 -0.0177 -0.1848
 8731SOL    HW137829   0.201   1.501   9.469 -0.2313 -2.4348  2.2709
 8731SOL    HW237830   0.329   1.436   9.468 -1.4469 -0.8853  1.4822
 8732SOL     OW37831   4.359   4.224   6.596  0.0067 -0.0578 -0.4250
 8732SOL    HW137832   4.452   4.242   6.587 -0.4785  2.8121  0.0462
 8732SOL    HW237833   4.355   4.172   6.676  0.6276  0.2668 -0.1854
 8733SOL     OW37834   2.070   0.150   3.575 -0.1429  0.0378  0.1450
 8733SOL    HW137835   2.050   0.073   3.628 -0.0623 -0.8667 -1.1440
 8733SOL    HW237836   2.163   0.140   3.559  0.1457 -1.3664  2.7937
 8734SOL     OW37837   2.430   0.429   6.341  0.5095 -0.5191 -0.0658
 8734SOL    HW137838   2.495   0.418   6.409 -0.6436 -1.9991  0.8074
 8734SOL    HW237839   2.435   0.523   6.323  0.3511 -0.3530  0.7896
 8735SOL     OW37840   1.534   3.196   5.869 -0.4050  0.3036 -0.5443
 8735SOL    HW137841   1.603   3.259   5.890  0.5221 -0.2664 -1.9000
 8735SOL    HW237842   1.510   3.161   5.955 -1.3700  2.3827  0.0313
 8736SOL     OW37843   0.826   1.953   2.698  0.0565  0.4976 -0.1504
 8736SOL    HW137844   0.779   1.885   2.747 -0.8605  0.8132 -0.5863
 8736SOL    HW237845   0.865   1.992   2.776 -0.4422  0.5730  0.0623
 8737SOL     OW37846   4.052   0.557   4.414 -0.2911 -0.8691  0.2910
 8737SOL    HW137847   4.015   0.612   4.483  1.5685 -0.1448  0.7104
 8737SOL    HW237848   3.985   0.565   4.345 -0.8861 -2.0290  0.7489
 8738SOL     OW37849   3.146   2.983   1.387 -0.1356  0.1525  0.0373
 8738SOL    HW137850   3.213   3.029   1.336 -0.2283 -0.9096 -1.0451
 8738SOL    HW237851   3.091   2.936   1.325 -1.4379 -0.1172  1.4005
 8739SOL     OW37852   1.232   2.541   2.020  0.6002  0.2153  0.0600
 8739SOL    HW137853   1.177   2.523   1.944 -0.0512  0.3985  0.4826
 8739SOL    HW237854   1.317   2.564   1.982  2.6213  0.5945  4.8224
 8740SOL     OW37855   0.105   3.828   1.193  0.7494  0.4917  0.1919
 8740SOL    HW137856   0.026   3.836   1.246  0.9426 -1.7401  0.8065
 8740SOL    HW237857   0.071   3.801   1.108 -0.1615  0.9072  0.4264
 8741SOL     OW37858   3.662   0.046   4.548 -0.3259 -0.3323  0.6784
 8741SOL    HW137859   3.641   0.050   4.641 -0.9696 -0.4849  0.5416
 8741SOL    HW237860   3.685   0.137   4.528  2.5095 -1.1132  0.4680
 8742SOL     OW37861   4.421   0.167   5.175 -0.5945 -0.1738 -0.1681
 8742SOL    HW137862   4.438   0.118   5.256  2.4757 -1.5818 -1.6638
 8742SOL    HW237863   4.403   0.097   5.112  1.2387  0.4876 -1.4171
 8743SOL     OW37864   1.773   0.267  17.737  0.3761  0.3836 -0.2723
 8743SOL    HW137865   1.685   0.286   0.026  0.3685 -1.4778  0.7288
 8743SOL    HW237866   1.821   0.335   0.038  1.4535 -0.4096 -0.2299
 8744SOL     OW37867   2.573   2.655   7.966 -0.0762  0.6119 -0.5647
 8744SOL    HW137868   2.592   2.596   7.893 -1.2287  0.4831 -0.7510
 8744SOL    HW237869   2.653   2.634   8.015 -0.9819  1.9299  1.5251
 8745SOL     OW37870   3.967   3.952   6.177 -0.0636 -0.0527  0.1960
 8745SOL    HW137871   4.005   4.039   6.166  0.3488 -0.1067  1.2139
 8745SOL    HW237872   3.945   3.944   6.269  0.7336  2.4761  0.6023
 8746SOL     OW37873   0.589   4.428   2.465  0.3791 -0.3034  0.2623
 8746SOL    HW137874   0.525   4.365   2.430  0.3011 -0.4103  0.6043
 8746SOL    HW237875   0.534   4.490   2.512  0.2769  1.2155 -1.8573
 8747SOL     OW37876   3.212   0.881   3.038 -0.0869  0.3125  0.0633
 8747SOL    HW137877   3.206   0.820   2.965  1.4001  0.4099 -0.1302
 8747SOL    HW237878   3.129   0.858   3.080  0.5126  2.4941  2.4879
 8748SOL     OW37879   0.937   2.316   0.277  0.5222  0.8466 -0.2101
 8748SOL    HW137880   0.943   2.287   0.368 -1.1773 -1.7964 -0.9333
 8748SOL    HW237881   0.864   2.378   0.273  1.5650  2.1457  0.9786
 8749SOL     OW37882   2.200   0.825   6.442  0.3870 -0.2924 -0.1242
 8749SOL    HW137883   2.249   0.899   6.478 -0.3683  0.5207 -0.7726
 8749SOL    HW237884   2.218   0.751   6.500 -1.6301  0.8852  1.9921
 8750SOL     OW37885   1.341   3.963   9.083  0.1376 -0.0694 -0.6624
 8750SOL    HW137886   1.336   3.872   9.112  0.1233 -0.3308 -1.4825
 8750SOL    HW237887   1.284   3.959   9.006 -1.2230  1.0171  0.2987
 8751SOL     OW37888   0.815   4.136   0.718  0.2463  0.1925  0.0146
 8751SOL    HW137889   0.799   4.061   0.777  0.9672  0.5826  0.7039
 8751SOL    HW237890   0.899   4.104   0.684 -0.0641 -2.6265  1.8411
 8752SOL     OW37891   3.014   2.982   9.096  0.2828  0.5821  0.0053
 8752SOL    HW137892   2.923   2.964   9.075  0.2580 -1.0734  1.4800
 8752SOL    HW237893   3.060   2.941   9.022 -1.4470 -0.2716 -0.5972
 8753SOL     OW37894   4.512   0.610   5.311 -0.5138 -0.0799  0.1388
 8753SOL    HW137895   4.532   0.634   5.401 -2.3611  0.9928  0.2564
 8753SOL    HW237896   4.501   0.696   5.272  2.5734 -1.2833 -3.4303
 8754SOL     OW37897   2.201   0.068   9.109  0.3774 -0.2953  0.3224
 8754SOL    HW137898   2.195   0.088   9.016 -2.6690  5.4680  1.7330
 8754SOL    HW237899   2.294   0.051   9.121  0.3112  0.4621  1.9553
 8755SOL     OW37900   0.757   4.105   6.165 -0.4978  0.6944 -0.6068
 8755SOL    HW137901   0.691   4.167   6.196 -0.4770  0.3150  0.1797
 8755SOL    HW237902   0.824   4.116   6.232 -1.1567  1.0589 -0.0045
 8756SOL     OW37903   4.154   3.767  15.108 -0.3170  0.3052  0.2525
 8756SOL    HW137904   4.235   3.756  15.059 -0.7970  1.2650 -0.7563
 8756SOL    HW237905   4.155   3.862  15.120  2.5145  0.3652 -0.4841
 8757SOL     OW37906   2.558   2.699   7.375 -0.4353  0.6578  0.1349
 8757SOL    HW137907   2.540   2.606   7.360 -0.5322  0.2212  3.0546
 8757SOL    HW237908   2.488   2.746   7.330 -0.7038  1.4530  1.4028
 8758SOL     OW37909   3.048   4.631   2.225 -0.6012 -0.2020  0.4663
 8758SOL    HW137910   3.139   4.658   2.234 -1.2152  1.4984  1.6422
 8758SOL    HW237911   2.998   4.692   2.281 -0.8116 -0.0941  0.1646
 8759SOL     OW37912   4.087   1.554   8.941 -0.4092  0.4121  0.8747
 8759SOL    HW137913   3.998   1.577   8.913 -1.2778 -2.1279  1.5463
 8759SOL    HW237914   4.079   1.569   9.035  1.8204 -0.0962  1.1458
 8760SOL     OW37915   3.610   3.674   3.008  0.3986  0.6341 -0.5067
 8760SOL    HW137916   3.684   3.730   2.986 -0.7122  3.0317  1.9607
 8760SOL    HW237917   3.632   3.661   3.100 -0.5282  0.8073 -0.2623
 8761SOL     OW37918   3.915   2.806   1.424  0.1775  0.2350 -0.4821
 8761SOL    HW137919   3.869   2.752   1.359  0.7461  1.5058 -1.9548
 8761SOL    HW237920   4.007   2.782   1.430 -0.0616 -1.3360 -2.9493
 8762SOL     OW37921   1.700   4.271  14.404  0.4301  0.4614  1.0431
 8762SOL    HW137922   1.620   4.319  14.426  0.3077  0.1769  1.2163
 8762SOL    HW237923   1.698   4.276  14.308 -0.3354 -0.4658  1.0100
 8763SOL     OW37924   2.451   1.478   3.204  0.1976  0.1187  0.0720
 8763SOL    HW137925   2.499   1.479   3.287 -0.0125  1.1195  0.1811
 8763SOL    HW237926   2.515   1.480   3.134  2.2151  3.2183  2.0212
 8764SOL     OW37927   0.626   3.460   7.285 -0.3897  0.2537  0.8754
 8764SOL    HW137928   0.561   3.472   7.216 -0.7085  0.6270  1.2383
 8764SOL    HW237929   0.611   3.540   7.336 -1.0669  1.0777 -0.6078
 8765SOL     OW37930   4.522   0.359   4.213  0.2247 -0.5572  0.0265
 8765SOL    HW137931   4.475   0.416   4.273 -1.6021 -1.7241 -0.3041
 8765SOL    HW237932   4.475   0.284   4.249 -2.6416  1.2282 -0.0013
 8766SOL     OW37933   3.625   1.419   1.949 -0.3837 -0.0088  0.1594
 8766SOL    HW137934   3.575   1.416   2.031 -0.3495  1.8732  0.2713
 8766SOL    HW237935   3.627   1.514   1.932  0.2020 -0.0598 -0.0520
 8767SOL     OW37936   0.052   1.964   9.998  0.0773  0.6416  0.6389
 8767SOL    HW137937   0.017   2.037  10.049  2.0640  0.7769  1.8236
 8767SOL    HW237938   0.147   1.968  10.014  0.1388  0.1594  0.3933
 8768SOL     OW37939   3.710   0.139   6.059 -0.2214  0.1122 -0.7358
 8768SOL    HW137940   3.737   0.071   5.998  1.2228 -0.7459  0.8854
 8768SOL    HW237941   3.742   0.100   6.140  0.8787  0.0377 -1.2149
 8769SOL     OW37942   1.212   4.569  14.128  0.0021  0.4690 -0.2017
 8769SOL    HW137943   1.202   4.483  14.088  0.2699  0.0827  0.5626
 8769SOL    HW237944   1.185   4.623  14.053 -3.9081 -0.3974  0.5890
 8770SOL     OW37945   0.126   4.069  10.576  0.4570  0.1077 -0.2639
 8770SOL    HW137946   0.045   4.110  10.546 -0.3116  0.8257  2.7396
 8770SOL    HW237947   0.117   3.981  10.539 -0.0323 -0.1276  0.4124
 8771SOL     OW37948   1.903   1.243  14.504 -0.0788 -0.4862  0.0948
 8771SOL    HW137949   1.985   1.200  14.525 -0.3492 -1.6643 -1.3149
 8771SOL    HW237950   1.932   1.335  14.503  1.3320 -0.9481 -1.3848
 8772SOL     OW37951   3.971   2.922   4.177  0.6767 -0.4382 -0.3813
 8772SOL    HW137952   4.013   2.945   4.094 -0.5104  1.4143 -0.4488
 8772SOL    HW237953   4.045   2.866   4.203  0.9074  0.6196  1.2871
 8773SOL     OW37954   3.816   3.828   6.478  0.1914  0.0074  0.1022
 8773SOL    HW137955   3.762   3.906   6.491  0.3536 -0.1295  1.6398
 8773SOL    HW237956   3.806   3.784   6.562 -1.7696 -1.1467 -0.7544
 8774SOL     OW37957   1.290   3.731   0.592  0.4808 -0.0562  0.7413
 8774SOL    HW137958   1.274   3.652   0.645  0.1696 -2.5893 -3.1064
 8774SOL    HW237959   1.286   3.700   0.502  0.6335 -0.3809  0.8450
 8775SOL     OW37960   0.114   0.751   9.610  0.2552  0.2921 -0.2545
 8775SOL    HW137961   0.194   0.705   9.586  1.0922  0.8921  1.3910
 8775SOL    HW237962   0.127   0.830   9.556  0.3812  1.6247  1.7166
 8776SOL     OW37963   3.171   1.962   2.073 -0.0246 -0.0615 -0.0751
 8776SOL    HW137964   3.097   2.021   2.093 -0.4117 -0.7229  0.4370
 8776SOL    HW237965   3.137   1.913   1.998  1.7085  0.1354 -0.9811
 8777SOL     OW37966   4.175   2.847   3.076 -0.1275 -0.7028 -0.8406
 8777SOL    HW137967   4.237   2.782   3.109 -0.8694  0.2132  2.4077
 8777SOL    HW237968   4.191   2.824   2.985  0.7592 -1.9111 -0.3718
 8778SOL     OW37969   2.099   2.169   8.585 -0.3203 -0.0730 -0.0784
 8778SOL    HW137970   2.066   2.253   8.552 -0.5370  0.2686  0.9863
 8778SOL    HW237971   2.091   2.105   8.515  1.2225  1.5187 -1.7067
 8779SOL     OW37972   1.495   0.896   7.723  0.2729  0.2017  0.1890
 8779SOL    HW137973   1.583   0.889   7.759 -0.0235  1.3000  1.1387
 8779SOL    HW237974   1.485   0.828   7.657  0.0437 -1.2795  1.7525
 8780SOL     OW37975   4.629   0.083  15.127 -0.6457 -0.3452 -0.2665
 8780SOL    HW137976   4.542   0.048  15.141 -0.2537 -0.8929  0.7593
 8780SOL    HW237977   4.605   0.172  15.099  1.0647 -0.3358 -1.7496
 8781SOL     OW37978   1.145   1.962  12.823  0.2752  0.5827 -0.5682
 8781SOL    HW137979   1.067   1.972  12.876  1.8791  1.9886  1.5082
 8781SOL    HW237980   1.108   1.895  12.765  0.3976  2.2014 -2.5117
 8782SOL     OW37981   2.928   0.866   4.809 -0.3271  0.3475  1.0250
 8782SOL    HW137982   2.894   0.954   4.793 -0.0859  0.0777 -0.9108
 8782SOL    HW237983   2.897   0.837   4.895 -1.4276  0.0016  0.5031
 8783SOL     OW37984   0.591   0.087  15.883 -0.0685  0.1524  0.1517
 8783SOL    HW137985   0.633   0.168  15.854  0.7961 -0.8089 -1.3200
 8783SOL    HW237986   0.544   0.060  15.804  0.2042  0.8828 -0.2686
 8784SOL     OW37987   1.805   0.961   9.009  0.0403  1.1635 -0.3069
 8784SOL    HW137988   1.838   0.893   9.068 -0.2794  1.1312 -0.1619
 8784SOL    HW237989   1.750   0.913   8.947 -0.6474  0.9336  0.4801
 8785SOL     OW37990   3.371   2.743   5.250 -0.1386 -0.3261 -0.2083
 8785SOL    HW137991   3.397   2.805   5.318 -3.4999 -1.1020  1.7982
 8785SOL    HW237992   3.286   2.777   5.222 -0.2108 -0.6220 -0.3533
 8786SOL     OW37993   3.196   0.495   5.937 -0.0835  0.3007  0.0317
 8786SOL    HW137994   3.237   0.453   6.012  0.6448  0.7701 -0.1042
 8786SOL    HW237995   3.227   0.433   5.871 -1.0866 -0.0164 -0.1340
 8787SOL     OW37996   4.113   2.250   2.995  0.5953  0.4427 -0.6081
 8787SOL    HW137997   4.128   2.176   2.935 -0.7588 -0.5789  0.3074
 8787SOL    HW237998   4.108   2.332   2.946 -1.6016  1.6419  1.6120
 8788SOL     OW37999   4.693   0.346   3.768 -0.0010 -0.4759  0.5962
 8788SOL    HW138000   4.697   0.320   3.860  1.6736  1.8173  1.1907
 8788SOL    HW238001   4.630   0.418   3.772 -1.9173 -2.1156 -0.2732
 8789SOL     OW38002   1.693   4.569   5.603 -0.8909  0.3426 -0.0425
 8789SOL    HW138003   1.708   4.543   5.694  0.0500 -1.3676 -0.6831
 8789SOL    HW238004   1.616   4.625   5.608 -0.1904  1.5341 -2.7786
 8790SOL     OW38005   1.508   2.081   5.878  0.2373 -0.1614 -0.1805
 8790SOL    HW138006   1.580   2.072   5.940  1.4684 -0.1149 -1.6157
 8790SOL    HW238007   1.459   2.141   5.935  0.4963  0.3410 -0.4800
 8791SOL     OW38008   2.769   1.560   1.711 -0.3038 -0.7142 -0.0586
 8791SOL    HW138009   2.849   1.510   1.693 -1.3421 -1.8523 -1.4843
 8791SOL    HW238010   2.788   1.595   1.798  0.8004 -3.3042  0.7368
 8792SOL     OW38011   0.646   3.785   5.309 -0.1596  0.3915 -0.5250
 8792SOL    HW138012   0.587   3.728   5.261  2.8705 -1.9612 -1.4648
 8792SOL    HW238013   0.616   3.762   5.398 -2.1657  1.4423 -0.9438
 8793SOL     OW38014   1.939   0.995  17.527 -0.1427  0.1468 -0.1740
 8793SOL    HW138015   1.965   0.953  17.445 -0.7300 -0.4156 -0.0779
 8793SOL    HW238016   1.953   1.086  17.504  0.2233  0.8802  2.8473
 8794SOL     OW38017   3.647   3.067   9.616  0.5179 -0.1850  0.0393
 8794SOL    HW138018   3.577   3.090   9.554 -0.3331  1.5308  1.6550
 8794SOL    HW238019   3.679   2.983   9.583  0.6332  0.4635 -1.5392
 8795SOL     OW38020   1.604   1.073   8.113 -0.0721 -0.0781  0.0871
 8795SOL    HW138021   1.613   1.119   8.030  0.0815  0.4730  0.4138
 8795SOL    HW238022   1.602   1.142   8.179  1.3138  1.6840 -1.7428
 8796SOL     OW38023   1.093   4.524   4.790 -0.7260  0.2237 -0.8570
 8796SOL    HW138024   1.108   4.528   4.885  0.1423  0.3846 -0.9963
 8796SOL    HW238025   1.051   4.438   4.794  0.8519 -0.5737 -1.5669
 8797SOL     OW38026   2.782   3.044  12.497  0.0221  0.3386  0.1663
 8797SOL    HW138027   2.809   3.028  12.406 -1.2954  2.3057 -0.5622
 8797SOL    HW238028   2.860   3.081  12.537  2.0181 -2.1697 -1.3573
 8798SOL     OW38029   0.686   2.061   2.512 -0.6074 -0.0424  0.1908
 8798SOL    HW138030   0.741   2.129   2.472  0.1237 -1.2497 -0.8477
 8798SOL    HW238031   0.741   2.029   2.583  0.2652  1.2536  0.1020
 8799SOL     OW38032   0.643   0.033   5.569 -1.0700  0.5504  0.2732
 8799SOL    HW138033   0.663   0.015   5.477  1.6665  1.6858  0.6439
 8799SOL    HW238034   0.563   4.720   5.586  1.6460 -3.3610  1.5319
 8800SOL     OW38035   3.934   2.767  12.387  0.1590  0.5607 -0.0028
 8800SOL    HW138036   3.938   2.719  12.469  3.1776 -1.5654 -1.3785
 8800SOL    HW238037   3.896   2.850  12.415  3.1985  1.8655  0.2087
 8801SOL     OW38038   3.829   4.570   8.501 -0.1791 -0.1452 -0.1129
 8801SOL    HW138039   3.790   4.567   8.414  0.0923  3.4487 -0.3526
 8801SOL    HW238040   3.909   4.521   8.481 -0.3302 -0.5376  0.2506
 8802SOL     OW38041   4.028   2.875  10.448  0.5614  0.1255 -0.4615
 8802SOL    HW138042   4.013   2.908  10.536  0.5327  1.3184 -0.9232
 8802SOL    HW238043   4.119   2.844  10.450 -0.5492 -3.2225 -0.7827
 8803SOL     OW38044   1.070   2.528   4.065 -0.6328 -0.5468  0.5576
 8803SOL    HW138045   1.100   2.553   4.152  1.2439  0.9436 -0.4991
 8803SOL    HW238046   1.120   2.447   4.052 -2.5473 -1.7837  0.8981
 8804SOL     OW38047   3.575   4.637   3.826  0.6262 -0.2504  0.1222
 8804SOL    HW138048   3.594   4.599   3.912 -0.6686  0.0850  0.5683
 8804SOL    HW238049   3.620   4.576   3.768 -1.1622 -1.7627  0.3153
 8805SOL     OW38050   4.578   0.877   7.161 -0.0439  0.4532 -0.2776
 8805SOL    HW138051   4.639   0.943   7.196  0.6464 -1.5701  2.3268
 8805SOL    HW238052   4.634   0.853   7.087 -0.6970  2.6373 -1.4788
 8806SOL     OW38053   1.167   3.314   2.984 -0.5281  0.0264 -0.6949
 8806SOL    HW138054   1.104   3.385   2.977 -0.6394  0.1362  1.4783
 8806SOL    HW238055   1.182   3.290   2.892 -1.6705 -0.8570 -0.6536
 8807SOL     OW38056   3.890   3.082  12.234  0.2428 -0.2612 -0.1338
 8807SOL    HW138057   3.868   3.112  12.146  0.4317 -1.6426 -0.6482
 8807SOL    HW238058   3.971   3.034  12.219 -0.0163 -1.1490  1.3188
 8808SOL     OW38059   2.590   4.649  10.798 -0.0774  0.1526 -0.0352
 8808SOL    HW138060   2.633   4.693  10.724  2.7063 -0.2098  1.4028
 8808SOL    HW238061   2.653   4.580  10.818 -2.7076 -1.8260  1.4356
 8809SOL     OW38062   1.210   4.189   9.160  0.5641  0.2982 -0.5187
 8809SOL    HW138063   1.262   4.130   9.105 -1.3317 -2.6310  0.8688
 8809SOL    HW238064   1.157   4.127   9.210  1.0356  1.1137  0.9850
 8810SOL     OW38065   0.239   0.193   6.158 -0.0062  0.3221 -0.1580
 8810SOL    HW138066   0.199   0.133   6.222 -0.6368  1.1300  0.2055
 8810SOL    HW238067   0.233   0.276   6.205  1.0926  1.2368 -1.6664
 8811SOL     OW38068   0.910   2.819  11.484 -0.5498  0.0162 -0.0479
 8811SOL    HW138069   1.003   2.841  11.480 -0.7069  0.4710 -1.4753
 8811SOL    HW238070   0.876   2.907  11.494  1.4829  0.7215  0.6240
 8812SOL     OW38071   2.136   0.375  16.822  0.0363 -0.4118  0.1377
 8812SOL    HW138072   2.170   0.408  16.905  2.3127 -0.8828 -0.5977
 8812SOL    HW238073   2.205   0.405  16.762 -1.5399  0.8857 -1.0404
 8813SOL     OW38074   0.789   0.470   0.549 -0.5302  0.3610 -0.2757
 8813SOL    HW138075   0.798   0.537   0.482  0.3635 -0.7384 -1.2571
 8813SOL    HW238076   0.718   0.420   0.509  1.4798 -2.9467  0.2966
 8814SOL     OW38077   1.648   1.314   2.801 -0.4139 -0.8653  0.5053
 8814SOL    HW138078   1.729   1.281   2.762  1.1340 -0.0563  3.0233
 8814SOL    HW238079   1.671   1.404   2.824 -0.6365 -1.3096  2.4936
 8815SOL     OW38080   3.768   4.372   9.022  0.0091  0.3450  0.1079
 8815SOL    HW138081   3.819   4.301   8.984  1.4240  0.7247  1.2627
 8815SOL    HW238082   3.692   4.375   8.964  1.2260 -1.2374 -1.5430
 8816SOL     OW38083   2.315   3.461   6.184  0.0311  0.3153 -0.2031
 8816SOL    HW138084   2.355   3.548   6.176 -0.6164  0.8913  2.8485
 8816SOL    HW238085   2.333   3.446   6.277  1.5496  0.1692 -0.5134
 8817SOL     OW38086   2.365   4.071   2.586 -0.0876  0.1685  0.2332
 8817SOL    HW138087   2.416   4.142   2.627  0.9150 -0.0741 -0.6060
 8817SOL    HW238088   2.280   4.065   2.630 -0.0140  0.7302  0.4557
 8818SOL     OW38089   3.389   1.239   8.447 -0.2140  0.0955  0.2190
 8818SOL    HW138090   3.460   1.175   8.453 -1.6021 -1.2241  2.3387
 8818SOL    HW238091   3.332   1.215   8.374 -0.5921  2.9116 -0.4257
 8819SOL     OW38092   1.836   1.501   7.046 -0.1631 -0.1470 -0.3915
 8819SOL    HW138093   1.904   1.453   6.999 -0.9495 -2.5530  0.9215
 8819SOL    HW238094   1.809   1.436   7.110 -1.8103  1.7132  0.8305
 8820SOL     OW38095   0.350   1.122   3.717 -0.1075  0.3850 -0.0239
 8820SOL    HW138096   0.332   1.128   3.623 -1.2908  3.6688  0.4009
 8820SOL    HW238097   0.297   1.197   3.746 -0.4668  0.4156 -0.7531
 8821SOL     OW38098   0.088   2.079   3.171  0.2291  0.2513 -0.3060
 8821SOL    HW138099   0.082   2.175   3.177 -1.6115  0.1808 -1.2557
 8821SOL    HW238100   0.152   2.067   3.101 -1.2271  0.9269 -1.7472
 8822SOL     OW38101   2.178   3.270   8.479  0.2327  0.0245  0.0528
 8822SOL    HW138102   2.156   3.357   8.512 -1.9920 -0.7483  0.5532
 8822SOL    HW238103   2.266   3.253   8.514 -0.3831  0.1902  1.6558
 8823SOL     OW38104   4.006   2.517   2.215 -0.0980 -0.3392 -0.3394
 8823SOL    HW138105   4.006   2.609   2.192 -0.1180 -0.4836 -0.9247
 8823SOL    HW238106   4.100   2.497   2.215 -0.1220 -0.4640 -0.6938
 8824SOL     OW38107   1.778   1.617   5.678  0.1603 -0.1500  0.1105
 8824SOL    HW138108   1.780   1.679   5.606 -1.6354 -0.2217 -0.0103
 8824SOL    HW238109   1.866   1.634   5.713  0.9572 -3.5555 -0.2687
 8825SOL     OW38110   4.300   4.048   9.818  0.2312 -0.2772 -0.7818
 8825SOL    HW138111   4.318   4.129   9.865  1.1549 -0.1259 -1.3999
 8825SOL    HW238112   4.244   4.085   9.750  0.9156  0.5517 -0.8932
 8826SOL     OW38113   4.620   0.981  15.116 -0.3410  0.5750  0.4886
 8826SOL    HW138114   4.632   0.900  15.067 -3.4641 -0.4315  1.3992
 8826SOL    HW238115   4.574   0.948  15.193 -4.8824  0.1118 -2.4449
 8827SOL     OW38116   0.299   3.876   7.430  0.5583  0.3017 -0.8328
 8827SOL    HW138117   0.305   3.913   7.342  0.7008  1.2505 -0.4289
 8827SOL    HW238118   0.387   3.900   7.460  0.8219 -1.0805 -0.5085
 8828SOL     OW38119   4.185   0.720   3.025 -0.0800 -0.0343 -0.1706
 8828SOL    HW138120   4.124   0.767   3.082  1.2745  1.0569  0.3911
 8828SOL    HW238121   4.124   0.660   2.982 -1.6677  0.0360  1.9323
 8829SOL     OW38122   0.875   4.353   5.077 -0.4427  0.3377 -0.4953
 8829SOL    HW138123   0.935   4.292   5.120 -0.7629 -0.3311 -0.9763
 8829SOL    HW238124   0.935   4.427   5.072  1.3561 -1.0167  0.8376
 8830SOL     OW38125   3.109   1.746   9.617 -0.6073  0.2553 -0.2633
 8830SOL    HW138126   3.161   1.813   9.661  0.4561 -0.3337 -0.6139
 8830SOL    HW238127   3.085   1.689   9.691  1.0498 -1.1592 -0.8122
 8831SOL     OW38128   4.575   3.706   7.248  0.4668 -0.2829  0.2020
 8831SOL    HW138129   4.609   3.793   7.269 -0.6455  0.1388  0.2669
 8831SOL    HW238130   4.481   3.724   7.247 -0.0515 -3.0710 -1.0582
 8832SOL     OW38131   1.315   1.359   2.243  0.4146  0.5186 -0.4189
 8832SOL    HW138132   1.298   1.313   2.160 -1.2340  0.4156 -0.0249
 8832SOL    HW238133   1.382   1.305   2.285 -0.4468 -0.3939 -0.1896
 8833SOL     OW38134   1.159   0.885   1.466 -0.2671  0.3652 -0.2745
 8833SOL    HW138135   1.138   0.917   1.554 -1.3702  1.5114 -0.9437
 8833SOL    HW238136   1.084   0.826   1.454  1.3134 -1.7971  0.5639
 8834SOL     OW38137   2.331   0.305   3.663 -0.2851 -0.1519  0.0528
 8834SOL    HW138138   2.303   0.301   3.571 -1.1546 -1.3602  0.3652
 8834SOL    HW238139   2.358   0.396   3.674  1.0927 -0.7032  1.1353
 8835SOL     OW38140   3.936   3.901   8.774  0.4433  0.2347 -0.1141
 8835SOL    HW138141   3.986   3.944   8.843 -0.5212 -0.2321  0.8678
 8835SOL    HW238142   3.958   3.937   8.688 -0.1662  1.4050  0.2218
 8836SOL     OW38143   3.193   3.962   2.747  0.3486 -0.5147 -0.0004
 8836SOL    HW138144   3.261   3.908   2.788  1.0441  0.5403  0.2376
 8836SOL    HW238145   3.239   4.027   2.694 -0.2648 -1.4699 -1.7141
 8837SOL     OW38146   4.377   3.885  10.927  0.0092  0.2352 -0.0396
 8837SOL    HW138147   4.333   3.880  10.842  0.7729  1.6361 -0.5368
 8837SOL    HW238148   4.339   3.807  10.965 -1.1922  0.5894 -0.5299
 8838SOL     OW38149   1.759   1.307   5.656  0.0037  0.4747  0.1073
 8838SOL    HW138150   1.842   1.347   5.632  0.9233 -1.3485  0.2304
 8838SOL    HW238151   1.748   1.246   5.583 -1.7281 -1.0419  1.6359
 8839SOL     OW38152   3.595   1.489   8.613 -0.0805 -0.0820  0.2144
 8839SOL    HW138153   3.615   1.427   8.683 -0.9033  1.0207  1.4206
 8839SOL    HW238154   3.657   1.553   8.649 -1.4584  1.2192  0.2508
 8840SOL     OW38155   0.807   3.805   4.536  0.1781 -0.0882 -0.8549
 8840SOL    HW138156   0.896   3.828   4.562 -0.2615  0.8207 -0.1415
 8840SOL    HW238157   0.806   3.712   4.514  1.3088  0.0941 -1.6672
 8841SOL     OW38158   2.058   0.865   2.630  0.0245  0.5089 -0.4895
 8841SOL    HW138159   2.119   0.879   2.703 -0.7038  3.7687 -0.4997
 8841SOL    HW238160   2.121   0.863   2.557  0.3864 -2.4476 -0.0812
 8842SOL     OW38161   0.809   2.848   9.589 -0.2499 -0.0124  0.2858
 8842SOL    HW138162   0.861   2.792   9.647 -1.2029  2.3937  3.5399
 8842SOL    HW238163   0.876   2.913   9.568 -1.0431  0.8592  0.4263
 8843SOL     OW38164   2.332   1.177   9.490  0.6181  0.0439  0.6877
 8843SOL    HW138165   2.339   1.224   9.407 -2.7846  1.2854  1.1108
 8843SOL    HW238166   2.409   1.120   9.491  0.8935  0.3342 -3.3888
 8844SOL     OW38167   2.231   3.070  12.925 -0.3971  0.3766  0.1161
 8844SOL    HW138168   2.223   2.976  12.907 -2.5533  0.6493 -0.3508
 8844SOL    HW238169   2.278   3.113  12.853  0.0712  1.2158  0.9226
 8845SOL     OW38170   3.735   3.604   7.347 -0.0043 -0.2242 -0.0076
 8845SOL    HW138171   3.801   3.540   7.371  0.0201  0.5259  1.9702
 8845SOL    HW238172   3.676   3.547   7.298  0.1558 -1.4345  1.1998
 8846SOL     OW38173   3.789   4.644   2.338  0.3204  0.1081 -0.4575
 8846SOL    HW138174   3.839   4.630   2.419  0.7701 -0.2570 -0.7954
 8846SOL    HW238175   3.779   4.553   2.308 -0.0491 -0.0585  0.1742
 8847SOL     OW38176   1.950   1.200  17.084  0.0916 -0.7180 -0.6537
 8847SOL    HW138177   1.996   1.269  17.131 -2.5073  0.3882  0.2354
 8847SOL    HW238178   1.880   1.164  17.138  0.8234 -1.2405 -0.0557
 8848SOL     OW38179   4.158   3.576   6.041  0.2002 -0.1941  0.2393
 8848SOL    HW138180   4.182   3.524   5.965  0.8980  0.0517  0.2900
 8848SOL    HW238181   4.093   3.638   6.006  0.1699  0.4635  1.4585
 8849SOL     OW38182   3.164   2.151   7.648 -0.1008 -0.6133  0.2412
 8849SOL    HW138183   3.143   2.244   7.663 -0.5551 -0.4802 -1.2225
 8849SOL    HW238184   3.202   2.126   7.732 -0.8594 -2.6487 -0.0230
 8850SOL     OW38185   3.926   4.133   9.383 -0.1094  0.0316  0.0832
 8850SOL    HW138186   3.982   4.056   9.393  0.1600  0.5700  2.7865
 8850SOL    HW238187   3.862   4.091   9.326  0.4915  0.9749 -1.2776
 8851SOL     OW38188   2.111   1.083   6.741 -0.0771  0.0632 -0.2757
 8851SOL    HW138189   2.163   1.095   6.661  1.6588  2.4177  1.2228
 8851SOL    HW238190   2.092   0.990   6.735  1.0819  0.0270 -3.6252
 8852SOL     OW38191   2.398   2.021   8.656 -0.4548 -0.3898 -0.6457
 8852SOL    HW138192   2.363   2.104   8.688 -0.9987 -0.3165 -1.4397
 8852SOL    HW238193   2.490   2.023   8.684 -0.2600 -0.4264 -1.2769
 8853SOL     OW38194   2.833   4.272   1.817  0.2468 -0.0461  0.4549
 8853SOL    HW138195   2.769   4.275   1.888 -2.2657  0.7806 -1.8753
 8853SOL    HW238196   2.783   4.290   1.738  0.0767  0.7069  0.7344
 8854SOL     OW38197   0.663   2.051   9.658 -0.3156  0.7538  0.0718
 8854SOL    HW138198   0.756   2.070   9.652 -0.5958  1.9749 -0.4031
 8854SOL    HW238199   0.659   1.995   9.581  0.6386  0.2570  0.3830
 8855SOL     OW38200   0.732   4.306   4.683  0.7158  0.5879 -0.0453
 8855SOL    HW138201   0.673   4.294   4.609 -0.5359  2.0293  0.7259
 8855SOL    HW238202   0.701   4.238   4.743 -2.3747  1.6301 -0.4586
 8856SOL     OW38203   1.423   3.398   7.456  0.1648 -0.2441  0.1473
 8856SOL    HW138204   1.464   3.452   7.524 -0.0772  1.8751 -1.3959
 8856SOL    HW238205   1.477   3.319   7.445  1.3940  0.6263 -0.0570
 8857SOL     OW38206   0.129   4.233   8.116 -0.3567  0.1140  0.1687
 8857SOL    HW138207   0.215   4.270   8.097 -0.5872  0.7352  0.3149
 8857SOL    HW238208   0.155   4.164   8.176 -2.1992 -0.1216  0.6959
 8858SOL     OW38209   3.917   2.420   5.347 -0.2052 -0.0731 -0.1386
 8858SOL    HW138210   3.901   2.511   5.373 -0.1065 -0.1417  0.1649
 8858SOL    HW238211   3.985   2.404   5.412 -0.6718  2.1378  0.8912
 8859SOL     OW38212   4.454   0.609   4.638 -0.1296 -0.5379 -0.0080
 8859SOL    HW138213   4.517   0.538   4.652  0.8349  0.4786  0.8352
 8859SOL    HW238214   4.390   0.570   4.578 -1.3854 -0.5627  1.3469
 8860SOL     OW38215   0.609   3.178   3.946 -0.5305  0.0960 -0.2237
 8860SOL    HW138216   0.654   3.104   3.987  1.9760  1.4612 -0.5598
 8860SOL    HW238217   0.650   3.254   3.986  0.7758 -1.2957  1.0744
 8861SOL     OW38218   1.033   4.217   2.353 -0.2354 -0.1482 -0.3256
 8861SOL    HW138219   0.954   4.236   2.404 -0.2680 -2.6330  0.5565
 8861SOL    HW238220   1.105   4.261   2.398 -0.8836  3.8137 -3.1432
 8862SOL     OW38221   3.187   0.594   7.266 -0.2347  0.1954  0.1710
 8862SOL    HW138222   3.276   0.628   7.275  0.4181 -1.5663  0.3679
 8862SOL    HW238223   3.165   0.587   7.359 -0.6151 -0.5897  0.0255
 8863SOL     OW38224   2.190   2.305   2.172 -0.3118 -0.4072 -0.2623
 8863SOL    HW138225   2.222   2.369   2.109  0.7779 -0.3021  0.4033
 8863SOL    HW238226   2.100   2.337   2.186  0.4706  1.6383  0.0868
 8864SOL     OW38227   0.304   3.073   1.946  0.0296 -0.1742 -0.1283
 8864SOL    HW138228   0.332   3.164   1.949  0.0601 -0.2097  0.7044
 8864SOL    HW238229   0.245   3.075   1.870 -3.0434 -1.3691  2.2175
 8865SOL     OW38230   1.334   4.440  15.932  0.3064  0.2539 -0.0829
 8865SOL    HW138231   1.330   4.345  15.918  1.1146  0.1823  0.1530
 8865SOL    HW238232   1.298   4.469  15.849  3.5140  1.0484 -1.2096
 8866SOL     OW38233   2.375   0.621  16.183 -0.6873  0.3810  0.9069
 8866SOL    HW138234   2.400   0.575  16.263  0.1166 -1.9018 -0.6460
 8866SOL    HW238235   2.285   0.646  16.202 -1.0283  0.0581 -0.2621
 8867SOL     OW38236   1.439   3.444  17.350  0.1084  0.1851 -0.1289
 8867SOL    HW138237   1.452   3.361  17.396  0.5624 -0.0659 -0.6968
 8867SOL    HW238238   1.527   3.471  17.323 -0.8754  1.9006 -1.5806
 8868SOL     OW38239   1.817   0.489   2.811 -0.2357 -0.3193 -0.1325
 8868SOL    HW138240   1.807   0.465   2.904 -1.7757 -0.3105 -0.2986
 8868SOL    HW238241   1.830   0.584   2.810 -1.5660 -0.1291  0.2187
 8869SOL     OW38242   0.963   1.298  17.075  0.7838  0.4661 -0.0467
 8869SOL    HW138243   0.972   1.316  17.169  0.0726 -0.0479  0.1211
 8869SOL    HW238244   0.994   1.207  17.073 -1.0573 -0.1622  0.1586
 8870SOL     OW38245   2.400   2.105  10.016 -0.6584 -0.0435  0.1833
 8870SOL    HW138246   2.382   2.184   9.964  1.2588  1.7749  2.3133
 8870SOL    HW238247   2.414   2.141  10.103 -4.5412 -0.2176  0.8840
 8871SOL     OW38248   2.500   2.092  16.476  0.4502  0.2108  0.5375
 8871SOL    HW138249   2.459   2.179  16.470 -0.8806 -0.4655 -0.1011
 8871SOL    HW238250   2.426   2.035  16.457 -0.3821  1.3605  0.3258
 8872SOL     OW38251   3.551   4.100   6.815  0.3508 -0.3428 -0.0223
 8872SOL    HW138252   3.537   4.026   6.874  1.4832  0.1677  0.8861
 8872SOL    HW238253   3.465   4.139   6.831  0.7120  0.0162  1.0914
 8873SOL     OW38254   0.469   2.230   4.285  0.4626  0.0995  0.0439
 8873SOL    HW138255   0.416   2.157   4.256 -0.7838  0.4287  1.4941
 8873SOL    HW238256   0.468   2.218   4.380 -2.5347  0.2465  0.0117
 8874SOL     OW38257   4.503   1.228  13.204 -0.2313 -0.0329  0.3001
 8874SOL    HW138258   4.561   1.173  13.257 -2.0516 -2.6533 -0.4001
 8874SOL    HW238259   4.417   1.185  13.205  0.6936 -1.9263 -0.7089
 8875SOL     OW38260   4.653   1.102  12.918  0.2745  0.1614 -0.1436
 8875SOL    HW138261   4.562   1.076  12.931  0.4639 -1.1687 -1.5504
 8875SOL    HW238262   4.678   1.039  12.851 -1.6687 -1.6935  0.8713
 8876SOL     OW38263   1.488   0.492   3.177  0.0344 -0.3495  0.6676
 8876SOL    HW138264   1.495   0.584   3.200  1.7097 -0.8071  2.0110
 8876SOL    HW238265   1.531   0.445   3.249 -0.3121 -0.3383  0.8847
 8877SOL     OW38266   0.370   1.708  11.949 -0.0367  0.2101  0.4187
 8877SOL    HW138267   0.369   1.787  12.003  0.4646  1.3485 -1.2406
 8877SOL    HW238268   0.360   1.631  12.004  0.3931 -0.0969  0.0740
 8878SOL     OW38269   0.350   0.361   1.410  0.4830  0.5853  0.9310
 8878SOL    HW138270   0.339   0.456   1.417  0.3246  0.4766  2.1710
 8878SOL    HW238271   0.430   0.348   1.462  1.5317  0.1158 -0.8254
 8879SOL     OW38272   0.577   2.047   7.169 -0.4786 -0.0821  0.2712
 8879SOL    HW138273   0.641   1.976   7.179 -0.2367 -0.1122 -1.4853
 8879SOL    HW238274   0.608   2.103   7.240 -1.1813 -0.6841  1.0549
 8880SOL     OW38275   3.857   2.913   8.675 -0.2896  0.3050  0.1033
 8880SOL    HW138276   3.933   2.926   8.731 -2.0083  2.6484  1.8602
 8880SOL    HW238277   3.883   2.839   8.620  1.3347  1.2016 -0.3157
 8881SOL     OW38278   2.581   4.232   3.336  0.3101 -0.2004  0.1102
 8881SOL    HW138279   2.537   4.237   3.251  1.5921 -0.3515 -0.5546
 8881SOL    HW238280   2.558   4.315   3.378  1.7888  0.6040 -0.6833
 8882SOL     OW38281   3.416   0.633   8.771 -0.9988 -0.2921  0.3315
 8882SOL    HW138282   3.374   0.589   8.697 -2.2515  0.6344  0.5041
 8882SOL    HW238283   3.379   0.721   8.766 -0.2969  0.0804  1.4596
 8883SOL     OW38284   4.298   2.234   6.918  0.2211  0.0668  0.0621
 8883SOL    HW138285   4.338   2.193   6.995  1.1811 -2.3810 -1.7671
 8883SOL    HW238286   4.356   2.311   6.919 -0.3729  0.4963  2.2604
 8884SOL     OW38287   2.934   1.876  10.457 -0.0856 -0.1065  0.6682
 8884SOL    HW138288   2.936   1.802  10.518 -1.1104 -0.5145  0.2185
 8884SOL    HW238289   2.894   1.836  10.380 -0.1608 -0.8669  1.1030
 8885SOL     OW38290   2.539   4.324  17.705  0.4723  0.0808  0.4052
 8885SOL    HW138291   2.536   4.302  17.611  1.2935 -0.5320  0.5297
 8885SOL    HW238292   2.574   4.243  17.741  0.0624  0.0531  0.7403
 8886SOL     OW38293   0.765   3.349  11.489  0.2946  0.2097 -0.0010
 8886SOL    HW138294   0.803   3.434  11.512  0.0193  0.3503 -0.0702
 8886SOL    HW238295   0.687   3.376  11.441  0.4723 -0.2177 -0.5322
 8887SOL     OW38296   0.811   2.568   3.337  0.5770  0.4476  0.4680
 8887SOL    HW138297   0.850   2.606   3.415  1.3038 -1.8751  1.2433
 8887SOL    HW238298   0.888   2.529   3.295 -0.4049 -0.8464 -0.1230
 8888SOL     OW38299   4.268   4.466   4.965  0.5535  0.3193 -0.3658
 8888SOL    HW138300   4.276   4.458   4.870 -0.6521  1.4864 -0.5715
 8888SOL    HW238301   4.330   4.396   4.986 -0.0850 -0.6819 -1.8612
 8889SOL     OW38302   1.050   3.600   7.526  0.2110 -0.1638 -0.2050
 8889SOL    HW138303   1.061   3.680   7.475 -0.8136 -0.8983 -1.5811
 8889SOL    HW238304   0.980   3.626   7.587 -0.3011  0.6187 -1.1220
 8890SOL     OW38305   3.517   0.497  16.678 -0.4093  0.2768  0.2186
 8890SOL    HW138306   3.513   0.404  16.654 -0.0076 -0.5511  3.4611
 8890SOL    HW238307   3.450   0.523  16.614 -0.5499  1.3942  0.8258
 8891SOL     OW38308   0.937   2.856   5.399  0.1214  0.2067  0.4302
 8891SOL    HW138309   0.999   2.922   5.370  0.0495  0.2629  0.4042
 8891SOL    HW238310   0.847   2.888   5.404  0.5714  1.5213 -0.0350
 8892SOL     OW38311   2.429   4.279  13.175 -0.4542 -0.5041  0.1651
 8892SOL    HW138312   2.514   4.275  13.131  0.1115 -1.9471  1.3958
 8892SOL    HW238313   2.431   4.372  13.198  2.0611 -0.9384  1.5911
 8893SOL     OW38314   2.467   4.539   2.201  0.1644  0.1786  0.1410
 8893SOL    HW138315   2.459   4.632   2.180 -1.6644 -0.4246 -1.8516
 8893SOL    HW238316   2.510   4.504   2.123  1.4262 -0.6385  1.2095
 8894SOL     OW38317   2.845   1.314   4.332 -0.4780  0.4225  0.3720
 8894SOL    HW138318   2.921   1.268   4.297 -0.5588 -0.1541  0.9377
 8894SOL    HW238319   2.768   1.280   4.286 -0.1374  0.0251  0.1100
 8895SOL     OW38320   3.300   0.004   8.290  0.3175 -0.1648  0.2428
 8895SOL    HW138321   3.299   4.700   8.376  3.1608 -0.4634  0.1214
 8895SOL    HW238322   3.318   0.096   8.312 -1.2672  0.3357 -0.5257
 8896SOL     OW38323   1.367   2.513   6.733  0.2477 -0.3609  0.3708
 8896SOL    HW138324   1.459   2.503   6.709 -0.3186 -0.2419 -1.8456
 8896SOL    HW238325   1.326   2.446   6.678  0.5489 -1.1895  1.1580
 8897SOL     OW38326   2.602   3.658   9.136  0.2275  0.1367  0.2217
 8897SOL    HW138327   2.578   3.566   9.140 -4.2642  1.2799 -1.3087
 8897SOL    HW238328   2.540   3.707   9.082 -0.0286 -0.2798  0.1397
 8898SOL     OW38329   0.926   2.487   6.857  0.5610 -0.0873  0.3772
 8898SOL    HW138330   0.913   2.577   6.825 -0.3227 -0.5283 -0.5127
 8898SOL    HW238331   1.015   2.480   6.890  1.1787 -3.0275 -1.9510
 8899SOL     OW38332   2.684   2.570   2.835  0.0176  0.1650 -0.2181
 8899SOL    HW138333   2.666   2.518   2.914 -0.8817  2.6646  1.2183
 8899SOL    HW238334   2.636   2.650   2.858 -0.3637 -0.5417  1.4674
 8900SOL     OW38335   2.031   2.605   0.801 -1.0515  0.4483 -0.1998
 8900SOL    HW138336   1.999   2.609   0.711 -0.5639  3.1500 -0.2642
 8900SOL    HW238337   2.078   2.687   0.817 -0.8794  0.5064 -0.9905
 8901SOL     OW38338   0.672   4.168   6.814 -0.2700  0.0435  0.2892
 8901SOL    HW138339   0.620   4.227   6.758 -0.8955  0.5558  1.4077
 8901SOL    HW238340   0.644   4.081   6.784 -0.8658  1.0596 -2.1582
 8902SOL     OW38341   3.351   3.044   4.144 -0.5157 -0.1611  0.2514
 8902SOL    HW138342   3.387   3.106   4.208  2.3847  1.1062 -2.6029
 8902SOL    HW238343   3.303   3.106   4.089 -0.3289 -0.5375 -0.3313
 8903SOL     OW38344   4.176   2.715   1.354 -0.0359  0.4576 -0.0671
 8903SOL    HW138345   4.269   2.733   1.362 -0.0600  1.1257 -1.4345
 8903SOL    HW238346   4.147   2.764   1.277 -1.8642 -1.4938 -0.6310
 8904SOL     OW38347   1.952   0.796   8.228 -0.0151  0.3066 -0.1458
 8904SOL    HW138348   2.040   0.766   8.204  0.3833  0.1262  1.5883
 8904SOL    HW238349   1.912   0.722   8.272 -0.5319  0.9698  0.4963
 8905SOL     OW38350   2.791   3.972   9.143  0.0672 -0.1237 -0.4150
 8905SOL    HW138351   2.771   3.913   9.215  1.5918 -1.3746 -1.0071
 8905SOL    HW238352   2.707   4.013   9.122  0.2721 -0.6584 -2.3216
 8906SOL     OW38353   0.399   0.828   9.415 -0.3335 -0.3633 -0.1401
 8906SOL    HW138354   0.324   0.789   9.370 -0.3544  0.4232 -0.7883
 8906SOL    HW238355   0.463   0.814   9.346  0.0892  3.1255 -0.4708
 8907SOL     OW38356   0.947   1.278  11.994  0.7132 -0.0945  0.2935
 8907SOL    HW138357   0.876   1.217  12.014 -1.6807  2.7039  0.2978
 8907SOL    HW238358   0.920   1.281  11.902 -2.4024  2.7735  1.3165
 8908SOL     OW38359   0.990   0.736   2.216 -0.0164 -0.2576  0.1556
 8908SOL    HW138360   1.010   0.828   2.230  1.0981 -0.4669 -0.0727
 8908SOL    HW238361   0.993   0.722   2.121  0.3574  4.1169 -0.4785
 8909SOL     OW38362   1.201   0.291   9.102  0.4227 -0.5925  0.1443
 8909SOL    HW138363   1.138   0.233   9.144  1.5326 -0.3970  2.0737
 8909SOL    HW238364   1.148   0.358   9.058  1.2741  2.2976  3.5591
 8910SOL     OW38365   3.650   1.537   4.214  0.2504  0.3433 -0.0897
 8910SOL    HW138366   3.735   1.557   4.177  0.2417 -0.2454 -0.4243
 8910SOL    HW238367   3.596   1.559   4.138 -2.1857 -1.1764  1.1919
 8911SOL     OW38368   1.580   1.480   5.803  0.2951  0.0942 -0.8126
 8911SOL    HW138369   1.614   1.392   5.785 -2.2732 -1.5408  2.4729
 8911SOL    HW238370   1.634   1.524   5.737  1.4541 -0.7040 -0.4082
 8912SOL     OW38371   3.241   4.655   6.784 -0.2302 -0.4669 -0.0399
 8912SOL    HW138372   3.210   4.571   6.750  0.4564 -1.1362  0.9800
 8912SOL    HW238373   3.317   4.633   6.839 -0.5818 -1.3623  0.0728
 8913SOL     OW38374   1.513   1.132   7.312 -0.0555 -0.0475  0.5125
 8913SOL    HW138375   1.499   1.047   7.271  1.6964 -0.9829  1.8434
 8913SOL    HW238376   1.579   1.113   7.379 -0.4437  4.1794  2.1017
 8914SOL     OW38377   1.268   1.917   1.472  0.2377  0.7305  0.5466
 8914SOL    HW138378   1.253   2.005   1.440  4.8568  0.5236 -2.1970
 8914SOL    HW238379   1.274   1.871   1.388 -0.3421 -0.6684  1.2735
 8915SOL     OW38380   1.690   2.523   5.505  0.6302  0.1514 -0.2489
 8915SOL    HW138381   1.646   2.603   5.535  0.2367  0.1896 -0.9315
 8915SOL    HW238382   1.638   2.461   5.557  1.6119 -0.6801 -0.2620
 8916SOL     OW38383   1.519   0.773  10.198 -0.3855  0.5581 -0.4631
 8916SOL    HW138384   1.563   0.807  10.276  0.8411  1.0417 -1.3688
 8916SOL    HW238385   1.522   0.850  10.141 -0.1114  0.4424 -0.6072
 8917SOL     OW38386   0.823   2.093   6.329 -0.2124  0.2153  0.2060
 8917SOL    HW138387   0.895   2.103   6.390 -0.7820  1.1384  0.7185
 8917SOL    HW238388   0.751   2.115   6.388 -0.7118  0.1525 -0.3775
 8918SOL     OW38389   1.257   0.520   7.128  0.1440  0.1492  0.6114
 8918SOL    HW138390   1.345   0.514   7.166  0.4904 -0.1127 -0.2483
 8918SOL    HW238391   1.249   0.615   7.121 -0.3367  0.0582 -0.0187
 8919SOL     OW38392   4.468   3.024  14.825  0.4809  0.1874  0.5834
 8919SOL    HW138393   4.438   3.031  14.916 -2.8964 -0.7184 -0.4437
 8919SOL    HW238394   4.488   2.931  14.822 -1.8041 -0.3334  1.2936
 8920SOL     OW38395   1.473   0.896   7.176  0.0172 -0.6249 -0.1454
 8920SOL    HW138396   1.501   0.897   7.084  0.4956  1.2293  0.0257
 8920SOL    HW238397   1.384   0.862   7.167 -0.4010  0.8319 -1.5265
 8921SOL     OW38398   2.914   4.363   9.061 -0.3478  0.5461 -0.1304
 8921SOL    HW138399   2.997   4.337   9.100  0.0457 -0.2801 -1.5284
 8921SOL    HW238400   2.912   4.456   9.083 -1.3808  0.7323 -1.0122
 8922SOL     OW38401   3.894   4.617  16.301  0.2493  0.1207 -0.0606
 8922SOL    HW138402   3.989   4.613  16.310  0.4755  2.0997 -1.4558
 8922SOL    HW238403   3.877   4.706  16.332 -1.8321 -0.4120  0.3510
 8923SOL     OW38404   1.120   1.529   5.989  0.3376  0.0473 -0.0356
 8923SOL    HW138405   1.201   1.580   5.998  0.8551 -0.7418 -0.2586
 8923SOL    HW238406   1.145   1.477   5.913  5.0821  0.0476  1.5226
 8924SOL     OW38407   2.325   4.375   5.218 -0.3634  0.3252  0.2338
 8924SOL    HW138408   2.243   4.357   5.264 -1.4943  1.8503 -1.1800
 8924SOL    HW238409   2.296   4.429   5.144  0.2916  0.6717  0.2286
 8925SOL     OW38410   4.073   0.262   4.453  0.0246 -0.0157  0.2226
 8925SOL    HW138411   3.979   0.264   4.435  0.6487  1.9301 -2.7291
 8925SOL    HW238412   4.113   0.316   4.386 -0.0123  0.6080  0.7013
 8926SOL     OW38413   2.164   4.284   6.552 -0.8126 -0.1716 -0.2121
 8926SOL    HW138414   2.157   4.353   6.619  3.0114 -3.2144  3.2964
 8926SOL    HW238415   2.125   4.209   6.596 -1.6252  1.6706  2.2241
 8927SOL     OW38416   1.702   2.650   6.361  0.0950  0.1475  0.2452
 8927SOL    HW138417   1.664   2.574   6.316  2.7868 -1.1076  0.0848
 8927SOL    HW238418   1.694   2.713   6.289  1.0467 -1.7856 -1.5674
 8928SOL     OW38419   0.237   0.841   1.006  0.1566 -0.2230  0.8455
 8928SOL    HW138420   0.261   0.895   0.930 -0.6284 -0.0269  0.7382
 8928SOL    HW238421   0.272   0.892   1.079  2.6598 -2.0918  0.9939
 8929SOL     OW38422   0.114   0.839   5.098 -0.2284 -0.1566  0.5379
 8929SOL    HW138423   0.133   0.814   5.189 -0.5282 -1.0120  0.3698
 8929SOL    HW238424   0.184   0.789   5.056 -1.6561 -0.5686 -1.3736
 8930SOL     OW38425   2.191   4.617   3.153  0.5355 -0.5502 -0.5475
 8930SOL    HW138426   2.277   4.650   3.130  0.6441  0.8685  1.9107
 8930SOL    HW238427   2.205   4.598   3.246  1.0184  0.4429 -0.4271
 8931SOL     OW38428   4.645   4.052   8.379 -0.2435 -0.4311 -0.1792
 8931SOL    HW138429   4.614   3.990   8.313 -0.5224  0.5138 -0.9297
 8931SOL    HW238430   4.732   4.072   8.344 -0.4183 -0.5964 -0.6962
 8932SOL     OW38431   4.546   3.605  13.209 -0.0552 -0.3100  0.7914
 8932SOL    HW138432   4.634   3.601  13.245  1.2552 -2.7943 -2.6139
 8932SOL    HW238433   4.508   3.681  13.252  1.4926  1.3729 -0.8317
 8933SOL     OW38434   3.101   3.248  17.041 -0.0305  0.1582  0.3739
 8933SOL    HW138435   3.123   3.199  17.120 -0.3855 -1.0698 -0.2950
 8933SOL    HW238436   3.070   3.325  17.089  2.7601  1.1339  0.5768
 8934SOL     OW38437   1.773   0.424   1.736 -0.5699 -0.3185 -0.5734
 8934SOL    HW138438   1.854   0.472   1.722  0.1022 -1.1311  0.5157
 8934SOL    HW238439   1.743   0.471   1.814 -0.7940 -1.9736  0.3392
 8935SOL     OW38440   3.361   1.511   8.462  0.3657  0.4038 -0.0071
 8935SOL    HW138441   3.341   1.419   8.482 -0.8179  0.4009 -1.2418
 8935SOL    HW238442   3.445   1.515   8.507  1.8297 -0.5874 -2.7046
 8936SOL     OW38443   0.158   1.941   8.887 -0.6647 -0.0696  0.0720
 8936SOL    HW138444   0.151   1.847   8.903  0.9577  0.0378  1.4232
 8936SOL    HW238445   0.160   1.946   8.792  1.5048  2.1964  0.2151
 8937SOL     OW38446   3.516   1.697   4.844  0.7466  0.0014  0.0292
 8937SOL    HW138447   3.546   1.634   4.910 -0.2701  1.4724  1.9032
 8937SOL    HW238448   3.440   1.650   4.810  1.2899 -1.5568  0.9879
 8938SOL     OW38449   1.078   2.268  10.730  0.5692  0.2375 -0.1240
 8938SOL    HW138450   1.065   2.301  10.819 -1.4200  1.3246 -0.8219
 8938SOL    HW238451   0.989   2.238  10.714  1.1482 -1.2461 -0.5951
 8939SOL     OW38452   4.293   1.893   5.267  0.0823 -0.2494  0.2308
 8939SOL    HW138453   4.216   1.873   5.321 -0.3954  1.2822  0.1177
 8939SOL    HW238454   4.361   1.904   5.333  0.1389 -0.4994  0.2139
 8940SOL     OW38455   0.309   4.085   5.128 -0.7026  0.3614  0.1849
 8940SOL    HW138456   0.254   4.010   5.107 -3.2955  2.1338  0.7662
 8940SOL    HW238457   0.295   4.158   5.068  0.2340 -0.3621 -0.9093
 8941SOL     OW38458   3.316   4.108   5.953 -0.6027  0.1161 -0.5094
 8941SOL    HW138459   3.291   4.161   6.029 -0.6014 -1.7336  0.7882
 8941SOL    HW238460   3.400   4.076   5.986 -2.4368 -2.7376  1.3409
 8942SOL     OW38461   4.332   3.138   4.845  0.5651 -0.0761  0.3049
 8942SOL    HW138462   4.399   3.098   4.900 -2.5441 -1.1984  3.2890
 8942SOL    HW238463   4.256   3.135   4.903  1.9737 -0.6397  2.1476
 8943SOL     OW38464   1.691   1.588   6.454  0.0118 -0.1168 -0.3051
 8943SOL    HW138465   1.651   1.600   6.540 -0.2308 -3.2220  0.0301
 8943SOL    HW238466   1.719   1.677   6.433 -0.3409  0.0697  0.0043
 8944SOL     OW38467   2.904   3.880   1.527  0.5805  0.7343 -0.1165
 8944SOL    HW138468   2.953   3.951   1.485  0.1452 -0.0486 -1.9284
 8944SOL    HW238469   2.969   3.848   1.589  2.6574 -1.2433 -3.3538
 8945SOL     OW38470   2.514   0.257   8.562 -0.1350 -0.1703 -0.7149
 8945SOL    HW138471   2.605   0.229   8.550  0.0309 -0.2284  0.6661
 8945SOL    HW238472   2.468   0.209   8.493  0.2679 -0.6155 -0.6764
 8946SOL     OW38473   1.092   3.896   4.936  0.7349  0.3620  0.1325
 8946SOL    HW138474   1.091   3.840   5.014 -0.3265  1.5950  0.9954
 8946SOL    HW238475   1.169   3.856   4.894 -1.3039 -0.2691 -3.0163
 8947SOL     OW38476   2.400   2.921   8.386  0.4373 -0.0118  0.3680
 8947SOL    HW138477   2.342   2.873   8.327  0.6945  1.4187 -1.0559
 8947SOL    HW238478   2.340   2.933   8.459  0.0387  0.0893  0.0213
 8948SOL     OW38479   2.163   4.076   5.808 -0.8195 -0.7755 -0.5920
 8948SOL    HW138480   2.184   4.169   5.819 -1.1957 -0.8386  0.7072
 8948SOL    HW238481   2.248   4.031   5.805  0.3735  1.3851  0.2217
 8949SOL     OW38482   0.349   0.471  14.275  0.2022 -0.1644 -0.4622
 8949SOL    HW138483   0.365   0.382  14.244 -2.2486 -1.3652  1.7652
 8949SOL    HW238484   0.437   0.504  14.255  1.3444 -1.9588  1.5882
 8950SOL     OW38485   3.638   4.682   7.524 -0.2658 -0.3614  0.2002
 8950SOL    HW138486   3.714   4.729   7.558 -1.3171  3.4278 -2.6679
 8950SOL    HW238487   3.619   4.719   7.438 -1.2153  0.4550  0.7570
 8951SOL     OW38488   3.587   3.910   4.849  0.0837 -0.4111  0.2801
 8951SOL    HW138489   3.518   3.900   4.915  0.2963 -0.9638  0.4153
 8951SOL    HW238490   3.629   3.825   4.859  1.0037  0.1338  1.0428
 8952SOL     OW38491   0.072   0.300   9.955  0.0175  0.7782 -0.4805
 8952SOL    HW138492   0.095   0.327  10.043  2.4163 -2.7478 -0.0505
 8952SOL    HW238493   0.124   0.362   9.904 -0.0002 -0.2550 -1.7721
 8953SOL     OW38494   0.200   0.263   3.160  0.1544  0.4082  0.0757
 8953SOL    HW138495   0.176   0.354   3.178 -1.1620 -0.1581  1.2031
 8953SOL    HW238496   0.145   0.209   3.217  1.2581 -0.5053  0.2816
 8954SOL     OW38497   1.643   1.835   2.940  0.2886 -0.6188  0.2168
 8954SOL    HW138498   1.709   1.835   3.009 -0.4629 -1.4622  0.9258
 8954SOL    HW238499   1.580   1.896   2.980  0.9256  0.4783 -0.4512
 8955SOL     OW38500   4.207   1.639   5.043 -0.0428  0.7230  0.2686
 8955SOL    HW138501   4.193   1.703   5.113 -0.1923  1.3523 -0.3461
 8955SOL    HW238502   4.155   1.679   4.974 -3.2990  0.6087  2.6951
 8956SOL     OW38503   2.612   0.501   0.985 -0.1433  0.2000  0.6901
 8956SOL    HW138504   2.603   0.406   0.972 -2.9684  0.4308  0.9737
 8956SOL    HW238505   2.571   0.500   1.072 -3.2881 -0.4981 -0.8301
 8957SOL     OW38506   0.525   3.507   6.066  0.0017  0.2502 -0.4633
 8957SOL    HW138507   0.432   3.495   6.085  0.3294 -0.3539  0.7913
 8957SOL    HW238508   0.528   3.541   5.977  1.1541 -0.5074 -0.7041
 8958SOL     OW38509   4.712   1.862   5.743  0.6000 -0.4608  0.2242
 8958SOL    HW138510   4.662   1.783   5.758  0.7291 -0.8488 -1.3664
 8958SOL    HW238511   4.653   1.932   5.712  1.1164 -0.6732 -1.2645
 8959SOL     OW38512   4.687   0.989   6.349 -0.3977  0.0456  0.2386
 8959SOL    HW138513   4.601   0.963   6.317 -0.6769  0.5195  0.5957
 8959SOL    HW238514   0.003   0.914   6.377  2.1097  1.4824 -0.6849
 8960SOL     OW38515   0.146   2.958   8.855  0.3508  0.0090  0.5429
 8960SOL    HW138516   0.086   2.884   8.852  2.0154 -1.4180  2.9579
 8960SOL    HW238517   0.101   3.032   8.813  0.7676  0.5819  1.1132
 8961SOL     OW38518   3.523   2.890   7.664 -0.1130 -0.1788 -0.5104
 8961SOL    HW138519   3.482   2.824   7.608  0.3929 -0.3846 -0.6403
 8961SOL    HW238520   3.462   2.963   7.666  0.3356  0.1368  1.5618
 8962SOL     OW38521   3.769   0.642   3.627 -0.5312  0.1346  0.4241
 8962SOL    HW138522   3.683   0.620   3.662 -0.7291  0.9000  0.4300
 8962SOL    HW238523   3.815   0.670   3.706  0.5911 -2.2401  0.5848
 8963SOL     OW38524   0.882   3.174  14.770  0.3007 -0.1559 -0.1730
 8963SOL    HW138525   0.955   3.148  14.826  0.5608  0.1254 -0.3807
 8963SOL    HW238526   0.918   3.255  14.734  0.1748  0.0945  0.2591
 8964SOL     OW38527   1.159   3.025   6.719  0.1440  0.5513 -0.3837
 8964SOL    HW138528   1.176   2.939   6.680  1.5748 -0.3206  2.2119
 8964SOL    HW238529   1.244   3.042   6.759  0.6886  0.0311 -1.3170
 8965SOL     OW38530   2.086   1.375   6.404 -0.1446 -0.8549 -0.0595
 8965SOL    HW138531   2.172   1.415   6.393 -1.4912  1.9227 -0.3883
 8965SOL    HW238532   2.040   1.423   6.336  1.2540  1.8124  0.8472
 8966SOL     OW38533   0.947   1.691   6.676  0.4681 -0.5386  0.3400
 8966SOL    HW138534   0.964   1.667   6.585  1.9081 -2.5614  1.1356
 8966SOL    HW238535   1.034   1.702   6.715 -0.9862  4.2902  2.2307
 8967SOL     OW38536   4.096   1.088   6.832  0.2090 -0.8400 -0.1669
 8967SOL    HW138537   4.051   1.014   6.790  0.9835 -1.0767 -0.5683
 8967SOL    HW238538   4.187   1.058   6.835  0.8115  1.0723  0.1446
 8968SOL     OW38539   1.222   1.221   8.257  0.0721  0.7626  0.1227
 8968SOL    HW138540   1.188   1.262   8.337  0.2855  2.2719 -0.5706
 8968SOL    HW238541   1.162   1.147   8.248  2.4364 -1.2354  0.5777
 8969SOL     OW38542   3.318   3.219  12.125 -0.6508 -0.0011  0.5128
 8969SOL    HW138543   3.398   3.204  12.074 -1.2316 -0.5371 -0.2409
 8969SOL    HW238544   3.289   3.305  12.093 -1.1726 -0.0324  0.9113
 8970SOL     OW38545   1.514   2.341   1.137 -0.2132  0.2564  0.5428
 8970SOL    HW138546   1.453   2.306   1.202  0.9020 -1.5831  0.6142
 8970SOL    HW238547   1.591   2.361   1.190 -0.6404 -0.9053  1.6283
 8971SOL     OW38548   0.823   4.652   9.496 -0.4105  0.3838  0.2218
 8971SOL    HW138549   0.801   4.619   9.583 -2.0710  1.1192  0.0894
 8971SOL    HW238550   0.744   4.701   9.470 -1.7250 -1.5157  0.6167
 8972SOL     OW38551   3.205   3.096  17.251  0.7720 -0.4020  0.0095
 8972SOL    HW138552   3.120   3.052  17.247  0.1070  0.8752  0.0759
 8972SOL    HW238553   3.217   3.105  17.346  1.8075  1.4890 -0.3071
 8973SOL     OW38554   3.300   3.603   6.620  0.0352  0.1314 -0.2079
 8973SOL    HW138555   3.301   3.612   6.716  1.1626 -1.0505 -0.1021
 8973SOL    HW238556   3.368   3.666   6.597  0.5746 -0.1314  0.6711
 8974SOL     OW38557   1.695   2.176  17.216 -0.5451  0.3635 -0.8143
 8974SOL    HW138558   1.721   2.086  17.194  1.2181  0.7705 -0.4444
 8974SOL    HW238559   1.647   2.166  17.298  1.5681  0.4565  0.4324
 8975SOL     OW38560   2.618   4.522  16.270 -0.8570 -0.3454  0.8151
 8975SOL    HW138561   2.684   4.499  16.205  0.2267 -0.2763  1.8893
 8975SOL    HW238562   2.543   4.477  16.231 -1.4023 -0.0205  1.4799
 8976SOL     OW38563   2.735   2.951   9.230 -0.1102  0.0179 -0.5562
 8976SOL    HW138564   2.737   3.031   9.282  1.1680 -0.0969 -0.4324
 8976SOL    HW238565   2.672   2.906   9.286 -1.2218  2.2480  0.0042
 8977SOL     OW38566   1.323   1.126   2.023 -0.4335 -0.2273  0.6860
 8977SOL    HW138567   1.241   1.092   1.987 -0.5656 -1.0319  1.7485
 8977SOL    HW238568   1.339   1.053   2.083 -1.6482 -1.2916 -0.2734
 8978SOL     OW38569   4.369   3.716  14.977  0.3784 -0.3705  0.6685
 8978SOL    HW138570   4.423   3.710  14.898  0.0223  1.1371  0.3173
 8978SOL    HW238571   4.431   3.664  15.028  0.7942  0.7419  1.2990
 8979SOL     OW38572   1.884   0.451   0.178 -0.0898 -0.2526  0.4385
 8979SOL    HW138573   1.888   0.496   0.263  0.0653  0.8652 -0.1567
 8979SOL    HW238574   1.975   0.433   0.156  0.3312  1.7980  0.4689
 8980SOL     OW38575   1.332   3.504   1.899 -0.3652 -0.4149 -0.3744
 8980SOL    HW138576   1.301   3.418   1.871  0.1067  0.0706 -2.3731
 8980SOL    HW238577   1.253   3.559   1.897  0.8929  1.3565 -1.6018
 8981SOL     OW38578   2.345   3.463   6.796 -0.0819 -0.1540 -0.8515
 8981SOL    HW138579   2.264   3.494   6.755  0.2787 -0.3964 -1.7448
 8981SOL    HW238580   2.333   3.494   6.886  0.3715  3.4141 -2.0328
 8982SOL     OW38581   1.310   3.630   5.937  0.0592  0.3109 -0.1887
 8982SOL    HW138582   1.256   3.695   5.981  1.8330  0.7560  1.3515
 8982SOL    HW238583   1.255   3.551   5.933 -1.0082  0.9916  1.1721
 8983SOL     OW38584   1.849   0.510  10.404 -0.1784 -0.1857 -0.0284
 8983SOL    HW138585   1.925   0.494  10.349  1.0943  2.6580  0.9169
 8983SOL    HW238586   1.816   0.421  10.411 -2.2591  0.3529 -2.7022
 8984SOL     OW38587   2.709   4.361   6.825  0.0296 -0.1827 -0.3358
 8984SOL    HW138588   2.616   4.372   6.842  0.2619 -0.1288  0.9344
 8984SOL    HW238589   2.722   4.319   6.740 -0.5624 -2.4117  0.6733
 8985SOL     OW38590   2.616   3.262   1.372  0.4337 -0.2116  0.1776
 8985SOL    HW138591   2.562   3.340   1.385 -0.1433 -0.2467 -2.0186
 8985SOL    HW238592   2.553   3.201   1.332  0.0951  0.7053 -0.7025
 8986SOL     OW38593   4.249   2.852   6.462  0.8571  0.2753 -0.4425
 8986SOL    HW138594   4.242   2.929   6.517 -1.0682 -0.5119  0.4134
 8986SOL    HW238595   4.174   2.799   6.488  0.7683  0.0735 -1.0950
 8987SOL     OW38596   0.635   4.012  14.823  0.2373 -0.0417 -0.1887
 8987SOL    HW138597   0.558   3.957  14.806  0.3111 -0.1775 -0.0839
 8987SOL    HW238598   0.705   3.949  14.811  2.9134  1.8581  5.5660
 8988SOL     OW38599   2.101   0.558   3.417 -0.1247 -0.1783  0.0334
 8988SOL    HW138600   2.170   0.615   3.451 -1.7688  1.0090  1.3480
 8988SOL    HW238601   2.055   0.625   3.365  0.8231  1.2611  1.0445
 8989SOL     OW38602   0.756   3.068  11.513 -0.5642  0.0490  0.2653
 8989SOL    HW138603   0.661   3.068  11.510 -0.5141 -0.2211 -1.9111
 8989SOL    HW238604   0.766   3.163  11.517  0.2201  0.0541 -1.5641
 8990SOL     OW38605   1.551   2.397   5.750  0.2835  0.3655  0.5710
 8990SOL    HW138606   1.523   2.306   5.758  2.2579  0.1339  4.3698
 8990SOL    HW238607   1.467   2.443   5.753 -1.3192 -2.3189 -2.5175
 8991SOL     OW38608   0.459   1.310   5.934 -0.4687  0.0749 -0.2247
 8991SOL    HW138609   0.548   1.293   5.904 -0.5028 -0.0489 -0.2545
 8991SOL    HW238610   0.459   1.406   5.938 -3.2798  0.1523 -1.4892
 8992SOL     OW38611   3.332   3.214   6.227 -0.3080 -0.7660 -0.1078
 8992SOL    HW138612   3.347   3.299   6.268  0.3356 -1.6339  1.4445
 8992SOL    HW238613   3.387   3.164   6.287  0.8991  1.0706  0.2844
 8993SOL     OW38614   4.193   1.381   9.878  0.5190  0.1391 -0.1756
 8993SOL    HW138615   4.231   1.317   9.937 -0.2747 -1.2739 -1.1813
 8993SOL    HW238616   4.243   1.459   9.902  1.1511  0.8702 -3.7449
 8994SOL     OW38617   2.374   1.155   5.881 -0.5281 -0.5065 -0.3308
 8994SOL    HW138618   2.348   1.072   5.841 -3.0295 -0.3781  0.9980
 8994SOL    HW238619   2.428   1.126   5.954 -0.4261 -1.0161 -0.6067
 8995SOL     OW38620   1.589   1.269   4.464 -0.5138  0.0118  0.0417
 8995SOL    HW138621   1.574   1.355   4.426 -0.0732  1.3704  2.9100
 8995SOL    HW238622   1.498   1.243   4.455 -0.1954 -1.1816  0.2516
 8996SOL     OW38623   0.808   4.476   6.080  0.1582  0.3947 -0.0615
 8996SOL    HW138624   0.804   4.569   6.104  0.6502  0.1823  0.8670
 8996SOL    HW238625   0.867   4.445   6.149  0.3807  0.2797 -0.3052
 8997SOL     OW38626   0.130   1.171   7.987  0.5630  0.8768  0.5215
 8997SOL    HW138627   0.107   1.096   7.932  2.7577 -0.5272  1.4903
 8997SOL    HW238628   0.046   1.213   8.004  0.8122  2.0132 -1.0723
 8998SOL     OW38629   3.272   3.417  16.943 -0.7931  0.3560 -0.4007
 8998SOL    HW138630   3.350   3.363  16.951 -0.1011  1.3294 -0.5504
 8998SOL    HW238631   3.205   3.359  16.980 -0.1121 -0.7408 -0.8921
 8999SOL     OW38632   4.495   4.584   4.303 -0.2481  0.0378  0.0391
 8999SOL    HW138633   4.545   4.596   4.222 -0.5136  3.4920  0.3496
 8999SOL    HW238634   4.449   4.667   4.317  1.5176  1.0018  0.1280
 9000SOL     OW38635   2.581   3.171  14.637  0.0900 -0.1746  0.2196
 9000SOL    HW138636   2.606   3.187  14.546 -2.5063 -1.3956 -0.7084
 9000SOL    HW238637   2.569   3.076  14.640  0.5320 -0.3102 -2.3961
 9001SOL     OW38638   0.227   0.577   8.736 -0.0961 -0.0330 -0.0548
 9001SOL    HW138639   0.227   0.669   8.761 -0.1379  0.3506 -1.4623
 9001SOL    HW238640   0.269   0.581   8.651 -0.5584 -0.6200 -0.3154
 9002SOL     OW38641   2.744   3.155  15.719  0.2859  0.2124  0.1224
 9002SOL    HW138642   2.745   3.249  15.740  1.9706 -0.3506  2.5819
 9002SOL    HW238643   2.722   3.113  15.801  1.2648 -1.6936 -0.6023
 9003SOL     OW38644   1.320   0.161   1.879  0.3708 -0.1328  0.4524
 9003SOL    HW138645   1.357   0.188   1.795  0.2380  1.1829  0.8172
 9003SOL    HW238646   1.346   0.233   1.936  0.6184  0.1924 -0.0752
 9004SOL     OW38647   0.000   1.498   9.561 -0.2828 -0.0122 -0.0893
 9004SOL    HW138648   4.696   1.495   9.475  0.5009  1.6936 -0.5295
 9004SOL    HW238649   4.673   1.551   9.607 -2.0164 -0.6850 -1.7258
 9005SOL     OW38650   4.035   4.442   2.078  0.2439  0.2384  0.6329
 9005SOL    HW138651   4.108   4.419   2.020 -1.9750 -2.6414 -1.0153
 9005SOL    HW238652   4.082   4.456   2.161 -0.7219  1.2484  1.0068
 9006SOL     OW38653   3.649   1.962   8.305 -0.1361  0.5015  0.4007
 9006SOL    HW138654   3.682   1.975   8.216 -0.6651  1.8579  0.3898
 9006SOL    HW238655   3.719   1.908   8.341 -0.6632 -0.4540 -0.0278
 9007SOL     OW38656   0.157   1.379   5.869  0.3496  0.4667  0.0109
 9007SOL    HW138657   0.249   1.380   5.897  0.3719  3.1313 -0.1154
 9007SOL    HW238658   0.161   1.434   5.790 -0.2597 -0.4936 -0.6828
 9008SOL     OW38659   0.607   2.355   6.119  0.1360  0.0879 -0.4320
 9008SOL    HW138660   0.605   2.324   6.028 -2.6313  1.6325 -0.8850
 9008SOL    HW238661   0.515   2.377   6.133  0.0720 -1.0523  0.9638
 9009SOL     OW38662   4.268   2.077   7.874 -0.2554  0.1678  0.3527
 9009SOL    HW138663   4.309   2.147   7.923  0.0188  0.4592 -0.2911
 9009SOL    HW238664   4.219   2.029   7.941 -1.5691 -0.9220 -1.3914
 9010SOL     OW38665   1.794   0.170   7.155  0.0742 -0.1564 -0.9624
 9010SOL    HW138666   1.827   0.101   7.212 -0.2019 -0.3740 -1.0648
 9010SOL    HW238667   1.698   0.166   7.158  0.1124  0.2072  0.3765
 9011SOL     OW38668   0.293   4.610   8.164  0.4431 -0.3653  0.4854
 9011SOL    HW138669   0.348   4.674   8.208 -2.7458  1.1205  2.2472
 9011SOL    HW238670   0.264   4.550   8.233 -2.7215  0.9430  0.2697
 9012SOL     OW38671   2.027   0.854   5.645  0.3179 -0.1594 -0.6263
 9012SOL    HW138672   2.023   0.913   5.720 -0.7681 -1.8961  0.6808
 9012SOL    HW238673   1.941   0.812   5.653  0.7013 -0.5465  1.3767
 9013SOL     OW38674   3.164   3.856   5.413 -0.3523 -0.2835  0.2394
 9013SOL    HW138675   3.079   3.830   5.378 -1.2142  1.2932  1.1651
 9013SOL    HW238676   3.196   3.766   5.416  2.1438  0.5685 -0.5585
 9014SOL     OW38677   2.625   2.025   4.583  0.3767  0.2714 -0.8338
 9014SOL    HW138678   2.618   2.120   4.588 -0.6297 -0.0510  3.3780
 9014SOL    HW238679   2.532   2.000   4.590  0.0564  0.3664 -4.3488
 9015SOL     OW38680   2.212   4.147   6.201 -0.1112 -0.7459 -0.3345
 9015SOL    HW138681   2.175   4.233   6.218  0.1757 -0.9363  1.2489
 9015SOL    HW238682   2.287   4.164   6.145 -0.4352  1.0786 -0.1964
 9016SOL     OW38683   2.658   2.539  14.130  0.0332 -0.6335  0.5957
 9016SOL    HW138684   2.587   2.601  14.144  0.9158 -0.0946  2.7120
 9016SOL    HW238685   2.690   2.527  14.219 -3.3753  1.1690  2.0635
 9017SOL     OW38686   0.923   1.506   2.176  0.6332 -0.6740 -0.2444
 9017SOL    HW138687   0.983   1.547   2.115  0.3140  0.3725  0.1557
 9017SOL    HW238688   0.976   1.445   2.228  0.4216  0.6948  1.5913
 9018SOL     OW38689   3.410   2.250   8.874  0.2502  0.0257  0.8811
 9018SOL    HW138690   3.383   2.189   8.805  0.9770  1.4195 -0.6376
 9018SOL    HW238691   3.338   2.228   8.933  0.2714 -0.5942  0.6741
 9019SOL     OW38692   3.910   0.104   8.045  0.2473  0.4640 -0.2351
 9019SOL    HW138693   3.842   0.073   8.105 -0.3007 -0.9084 -1.5689
 9019SOL    HW238694   3.990   0.057   8.067 -0.6919 -2.3799 -2.8087
 9020SOL     OW38695   0.476   3.997  10.180 -0.1172  0.2225  0.2515
 9020SOL    HW138696   0.564   3.971  10.207 -0.4334 -1.0483  0.0727
 9020SOL    HW238697   0.490   4.021  10.088  0.3528  0.8397  0.4850
 9021SOL     OW38698   2.220   4.430  13.635 -0.1127 -0.4689  0.0873
 9021SOL    HW138699   2.216   4.334  13.636 -0.0853 -0.4818 -0.9734
 9021SOL    HW238700   2.276   4.450  13.560 -3.1409 -2.3060 -2.6776
 9022SOL     OW38701   1.651   1.462   0.351 -0.1104 -0.0200 -0.1517
 9022SOL    HW138702   1.663   1.379   0.304 -0.2982  1.5343 -2.9472
 9022SOL    HW238703   1.577   1.487   0.296  1.8834 -1.1391 -3.3547
 9023SOL     OW38704   1.942   2.704   8.405  0.6176  0.0044  0.7610
 9023SOL    HW138705   1.870   2.642   8.417  0.2247  0.0808 -1.1621
 9023SOL    HW238706   1.999   2.685   8.480  1.6699 -2.0152 -0.5366
 9024SOL     OW38707   2.903   2.663   5.981  0.5273  0.2459  0.3875
 9024SOL    HW138708   2.939   2.750   5.996  2.1514 -0.2367 -0.7082
 9024SOL    HW238709   2.939   2.616   6.056  0.4883  0.1043  0.3168
 9025SOL     OW38710   1.633   3.498   5.349  0.4050 -0.0519 -0.0570
 9025SOL    HW138711   1.617   3.425   5.409  1.2409  0.8111  1.2095
 9025SOL    HW238712   1.670   3.453   5.273 -1.6682 -0.2538 -0.9487
 9026SOL     OW38713   1.243   2.759   7.646  0.1940  0.1666 -0.6087
 9026SOL    HW138714   1.237   2.667   7.620 -1.8112  0.6437 -1.8467
 9026SOL    HW238715   1.261   2.815   7.570  0.3904 -1.0175 -1.4287
 9027SOL     OW38716   4.590   4.405   7.641 -0.2185 -0.3157  0.2546
 9027SOL    HW138717   4.498   4.415   7.663 -0.1183 -1.0551  1.0180
 9027SOL    HW238718   4.595   4.492   7.601 -1.2967 -1.3704 -2.1638
 9028SOL     OW38719   1.134   0.332   6.178  0.1165  0.6303  0.0447
 9028SOL    HW138720   1.154   0.285   6.259  0.2204 -0.6199 -0.7229
 9028SOL    HW238721   1.212   0.334   6.123  0.0040  2.3437 -0.0816
 9029SOL     OW38722   0.122   4.205   4.218  0.4373  0.8204  0.1657
 9029SOL    HW138723   0.186   4.158   4.271 -1.2825 -0.6552  0.9488
 9029SOL    HW238724   0.086   4.250   4.294  0.0466 -1.4752  1.3558
 9030SOL     OW38725   2.159   3.921   7.497  0.4281 -0.0989 -0.5326
 9030SOL    HW138726   2.137   3.871   7.575 -0.3150  1.4394  0.2282
 9030SOL    HW238727   2.249   3.949   7.514  0.2648  0.5994 -0.8165
 9031SOL     OW38728   2.647   1.326  15.978 -0.1857 -0.1388 -0.2248
 9031SOL    HW138729   2.657   1.247  16.032  0.4333 -0.3759 -0.6880
 9031SOL    HW238730   2.712   1.316  15.909 -0.3824 -2.3484 -0.0892
 9032SOL     OW38731   2.172   1.870   1.412  0.2165  0.1973 -0.1191
 9032SOL    HW138732   2.200   1.961   1.425  1.5931  0.0070 -1.7320
 9032SOL    HW238733   2.086   1.883   1.452  0.1153 -0.5267 -0.1027
 9033SOL     OW38734   4.317   2.179   4.665  0.1586  0.2724  0.0070
 9033SOL    HW138735   4.223   2.163   4.653  0.4229 -0.5573 -0.9279
 9033SOL    HW238736   4.321   2.196   4.759 -0.1674  0.9866 -0.1039
 9034SOL     OW38737   1.853   0.253  14.189  0.1864  0.8006 -0.4494
 9034SOL    HW138738   1.942   0.275  14.160  1.1288  1.3555  2.8873
 9034SOL    HW238739   1.858   0.204  14.271 -1.6476 -1.3119 -1.6052
 9035SOL     OW38740   2.497   2.167   2.224 -0.5466  0.2343  0.1109
 9035SOL    HW138741   2.429   2.201   2.282 -0.2093  2.1521 -0.6463
 9035SOL    HW238742   2.514   2.236   2.161  1.3058 -0.3801 -0.0875
 9036SOL     OW38743   2.442   0.302   9.025  0.3577 -0.5139  0.8848
 9036SOL    HW138744   2.487   0.247   9.089 -1.7942 -0.6011  2.3035
 9036SOL    HW238745   2.507   0.372   9.019 -1.5442  1.1591 -0.3697
 9037SOL     OW38746   0.868   1.207   3.677  0.2980  0.0324 -0.2054
 9037SOL    HW138747   0.829   1.290   3.651  0.4654  0.0846 -0.2883
 9037SOL    HW238748   0.827   1.144   3.617 -0.3338 -0.4154  0.6921
 9038SOL     OW38749   0.279   0.372   2.180  0.2705  0.3511  0.0714
 9038SOL    HW138750   0.345   0.417   2.232  1.0121 -1.0866  0.3986
 9038SOL    HW238751   0.307   0.281   2.168 -0.2962  0.3200 -1.0096
 9039SOL     OW38752   2.748   3.495   7.471 -0.2143 -0.0149 -0.0670
 9039SOL    HW138753   2.808   3.496   7.545 -0.0348  1.1334 -0.2336
 9039SOL    HW238754   2.796   3.549   7.408  1.6598 -0.9349  0.5768
 9040SOL     OW38755   1.171   1.010   8.495 -0.7565 -0.0678 -0.4572
 9040SOL    HW138756   1.174   1.104   8.477  1.2987 -0.2241 -0.9694
 9040SOL    HW238757   1.254   0.994   8.539 -0.8542  0.2471 -0.1620
 9041SOL     OW38758   1.205   0.133   6.919 -0.0135 -0.0819 -0.0339
 9041SOL    HW138759   1.181   0.106   7.007  1.3123  0.1777  0.4075
 9041SOL    HW238760   1.137   0.090   6.868 -0.3627  1.0353 -0.5062
 9042SOL     OW38761   4.680   1.917   9.773 -0.1990 -0.6661  0.1084
 9042SOL    HW138762   4.713   1.940   9.859  1.0762 -0.7139 -0.3724
 9042SOL    HW238763   0.018   1.878   9.728  1.4103  2.1580  0.3303
 9043SOL     OW38764   2.134   2.139   3.965  0.4869  0.5524 -0.3157
 9043SOL    HW138765   2.097   2.109   4.048 -0.0888  1.7028 -0.1573
 9043SOL    HW238766   2.065   2.184   3.916 -0.7078  0.6271  1.4171
 9044SOL     OW38767   3.558   4.097   3.709  0.6439  0.0485 -0.8754
 9044SOL    HW138768   3.527   4.172   3.759 -0.8627 -0.7231 -0.6476
 9044SOL    HW238769   3.617   4.133   3.643  1.2812 -0.0828 -0.3726
 9045SOL     OW38770   2.464   4.059   0.542 -0.2085  0.2997  0.6129
 9045SOL    HW138771   2.526   4.130   0.559  0.5181 -0.5653  1.5531
 9045SOL    HW238772   2.484   3.990   0.605 -1.1903 -0.9162 -0.4056
 9046SOL     OW38773   1.250   2.349   7.668 -0.3325 -0.7204  0.3402
 9046SOL    HW138774   1.180   2.398   7.625 -0.2443 -0.9814 -0.1066
 9046SOL    HW238775   1.237   2.263   7.628 -1.2818 -0.3737 -0.0959
 9047SOL     OW38776   3.024   4.365  15.991 -0.0949  0.7754 -0.2723
 9047SOL    HW138777   3.090   4.350  16.059 -0.3724  0.2632 -0.1108
 9047SOL    HW238778   3.026   4.286  15.938  0.2841  1.0997 -0.7319
 9048SOL     OW38779   2.184   1.853   7.384  0.7204  0.3305 -0.4108
 9048SOL    HW138780   2.193   1.945   7.363  0.4960  0.4895  0.1825
 9048SOL    HW238781   2.236   1.810   7.317  2.1885  0.3777  0.6925
 9049SOL     OW38782   2.549   3.677   4.978  0.5651  0.6477 -0.5767
 9049SOL    HW138783   2.604   3.609   4.941 -0.6319 -1.0141  0.6569
 9049SOL    HW238784   2.589   3.687   5.064  0.7448  1.1154 -0.7142
 9050SOL     OW38785   1.082   1.185  15.561  0.3387 -0.2283 -0.1016
 9050SOL    HW138786   1.054   1.118  15.499 -0.1008 -0.0589 -0.0840
 9050SOL    HW238787   1.063   1.136  15.641 -0.7381  0.4694  0.0632
 9051SOL     OW38788   2.060   0.937   9.518  0.3735  0.0137  0.7389
 9051SOL    HW138789   2.015   0.920   9.601  1.4645 -2.2468  0.8780
 9051SOL    HW238790   2.146   0.916   9.553 -0.6896 -2.1001  2.1390
 9052SOL     OW38791   0.922   0.967   4.795  0.4040  0.1936  0.1634
 9052SOL    HW138792   0.859   0.896   4.780  0.5157  0.1846 -0.2794
 9052SOL    HW238793   0.999   0.924   4.834 -0.8479 -0.3013  2.0643
 9053SOL     OW38794   4.431   0.740   9.388 -0.0628  0.1549 -0.0429
 9053SOL    HW138795   4.513   0.788   9.401  0.7445 -1.6648  1.6702
 9053SOL    HW238796   4.422   0.727   9.294 -1.0534 -0.2877  0.1141
 9054SOL     OW38797   1.098   4.659   9.563 -0.2201 -0.1654 -0.2266
 9054SOL    HW138798   1.095   4.730   9.627 -0.7356 -0.9933  0.6688
 9054SOL    HW238799   1.004   4.655   9.546 -0.4812  0.3605  1.1329
 9055SOL     OW38800   3.680   0.020   6.557  0.1303  0.0283 -0.2893
 9055SOL    HW138801   3.667   4.686   6.621 -0.1366  0.2023 -0.1457
 9055SOL    HW238802   3.772   0.029   6.534 -0.7009  1.6962 -2.9464
 9056SOL     OW38803   3.171   1.958   3.412 -0.3843 -0.3961  0.4704
 9056SOL    HW138804   3.104   1.995   3.469 -0.0750  1.2454 -0.2322
 9056SOL    HW238805   3.157   1.863   3.407  0.5510 -0.4393 -1.5728
 9057SOL     OW38806   3.705   4.374   6.014  0.2807 -0.1711 -0.6792
 9057SOL    HW138807   3.759   4.321   5.956  0.5250  0.6873 -1.2424
 9057SOL    HW238808   3.620   4.369   5.971 -1.3494  2.0144  2.3041
 9058SOL     OW38809   3.380   1.332   4.602 -0.0382 -0.0491  0.3569
 9058SOL    HW138810   3.288   1.307   4.601  0.3765 -1.5693  0.1952
 9058SOL    HW238811   3.387   1.369   4.514 -1.1609 -0.6358  0.0211
 9059SOL     OW38812   1.894   2.449  12.147 -0.2975 -0.2878 -0.3097
 9059SOL    HW138813   1.919   2.486  12.062  1.6762  0.5565  0.6349
 9059SOL    HW238814   1.909   2.524  12.205  0.7448 -0.4709 -0.3504
 9060SOL     OW38815   0.501   3.222   5.975 -0.1056 -0.1819  0.1014
 9060SOL    HW138816   0.585   3.179   5.960  0.0784 -0.0121  0.6331
 9060SOL    HW238817   0.505   3.233   6.070  0.8857  0.5665 -0.0328
 9061SOL     OW38818   3.900   0.459  10.000  0.5663  0.7683  0.3331
 9061SOL    HW138819   3.965   0.445   9.931  0.8607  1.0188  0.5564
 9061SOL    HW238820   3.946   0.517  10.061  1.2825 -0.1348  0.6410
 9062SOL     OW38821   4.081   3.211   4.372  0.9082  0.2496  0.1910
 9062SOL    HW138822   4.145   3.150   4.334  0.0845 -0.2210 -0.4478
 9062SOL    HW238823   4.111   3.225   4.462  0.7366 -0.1745  0.3171
 9063SOL     OW38824   1.083   2.866   1.190  0.4560  0.3398 -0.1890
 9063SOL    HW138825   1.139   2.796   1.221 -0.0959 -0.2598 -0.5459
 9063SOL    HW238826   1.073   2.922   1.267 -0.0648  0.7950 -0.5816
 9064SOL     OW38827   1.375   1.005   1.189 -0.4416  0.1920 -0.0696
 9064SOL    HW138828   1.432   1.059   1.135 -0.5800  1.9794  1.5604
 9064SOL    HW238829   1.363   1.059   1.267  1.7921  1.2926 -0.4649
 9065SOL     OW38830   1.593   1.575  10.688 -0.4048 -0.1318  0.3382
 9065SOL    HW138831   1.657   1.595  10.756  1.5315 -2.6850 -0.7171
 9065SOL    HW238832   1.642   1.598  10.610  0.5761 -2.0980  0.3756
 9066SOL     OW38833   2.672   3.168   7.719  0.5720  0.2271  0.0002
 9066SOL    HW138834   2.735   3.120   7.775 -1.8550 -1.6653  1.1083
 9066SOL    HW238835   2.609   3.096   7.724 -0.7783  1.3625 -0.9972
 9067SOL     OW38836   0.792   0.716   0.153 -0.7375  0.4667  0.6285
 9067SOL    HW138837   0.823   0.725   0.243  0.1918  1.4170  0.2106
 9067SOL    HW238838   0.760   0.626   0.162 -1.9080  0.7481 -0.6529
 9068SOL     OW38839   2.050   2.211  14.209 -0.7135 -0.9932 -0.2321
 9068SOL    HW138840   2.037   2.193  14.116 -2.0074 -0.3606 -0.1762
 9068SOL    HW238841   1.979   2.272  14.231  0.7882  0.4040  0.8036
 9069SOL     OW38842   3.386   3.886   5.063  0.3298  0.3401  0.1051
 9069SOL    HW138843   3.323   3.890   5.135 -0.6590 -1.8052 -0.6357
 9069SOL    HW238844   3.330   3.888   4.985  0.1727 -0.0903  0.2067
 9070SOL     OW38845   0.988   4.571   2.345 -0.3061  0.2647  0.0322
 9070SOL    HW138846   1.040   4.651   2.333 -1.8443  1.0656 -1.3555
 9070SOL    HW238847   0.952   4.583   2.433 -0.0209 -1.1295  0.3311
 9071SOL     OW38848   1.810   2.200  13.625  0.1125 -0.0756 -0.1678
 9071SOL    HW138849   1.815   2.139  13.697 -0.2014  0.0878 -0.0051
 9071SOL    HW238850   1.832   2.148  13.548 -1.5023 -2.4699  1.0092
 9072SOL     OW38851   2.815   3.928   0.631  0.3738  0.4288 -0.5833
 9072SOL    HW138852   2.798   3.961   0.720  0.4307 -0.6274 -0.1788
 9072SOL    HW238853   2.853   4.003   0.585 -0.8471  0.1048 -2.0950
 9073SOL     OW38854   1.146   2.093   8.610 -0.2656 -0.0461 -0.1980
 9073SOL    HW138855   1.233   2.097   8.570  1.5542 -0.4712  3.7223
 9073SOL    HW238856   1.097   2.097   8.528  1.4726 -2.1207 -1.3323
 9074SOL     OW38857   0.377   4.157  14.038  0.1185  0.4181 -0.1121
 9074SOL    HW138858   0.307   4.198  14.089  0.1253  1.0383 -0.5982
 9074SOL    HW238859   0.447   4.222  14.038 -0.2303  0.7996  0.7226
 9075SOL     OW38860   1.630   4.427  12.493 -0.2383  0.2633 -0.3108
 9075SOL    HW138861   1.553   4.471  12.529  0.2851  0.9157  0.0122
 9075SOL    HW238862   1.689   4.416  12.567 -0.4108 -0.9803 -0.3703
 9076SOL     OW38863   2.958   4.495   2.558 -0.2386 -0.6159 -0.6207
 9076SOL    HW138864   2.881   4.494   2.614  0.1024  2.7932 -0.0754
 9076SOL    HW238865   3.007   4.574   2.581 -3.5315  0.6810  1.8238
 9077SOL     OW38866   3.828   0.084  14.920  0.5992  0.0321  0.3350
 9077SOL    HW138867   3.793   0.047  14.839 -0.4824  0.3702  0.6568
 9077SOL    HW238868   3.754   0.075  14.980  0.5115  0.7066  0.3292
 9078SOL     OW38869   1.311   3.226   4.716 -0.6314 -0.2635 -0.1622
 9078SOL    HW138870   1.237   3.226   4.776  0.4924  0.5368  1.2288
 9078SOL    HW238871   1.273   3.200   4.632 -1.6674 -0.3008  0.3139
 9079SOL     OW38872   2.628   1.759   3.215  0.3971  0.1057 -0.1087
 9079SOL    HW138873   2.684   1.691   3.253  0.3607  0.2428  0.1843
 9079SOL    HW238874   2.541   1.734   3.244  1.0907 -2.4008 -0.1544
 9080SOL     OW38875   1.471   3.689  14.887  0.3946 -0.2443 -0.2091
 9080SOL    HW138876   1.532   3.616  14.901  2.2255  1.8081  2.4856
 9080SOL    HW238877   1.525   3.755  14.929 -0.1395  0.5264 -0.7327
 9081SOL     OW38878   3.793   2.059   9.168  0.0376 -0.2991 -0.0342
 9081SOL    HW138879   3.844   2.139   9.179 -0.2019 -0.2618  0.8818
 9081SOL    HW238880   3.707   2.099   9.187 -0.3072 -1.1111  0.1112
 9082SOL     OW38881   4.582   3.822   5.236  0.3018 -0.0147 -0.2711
 9082SOL    HW138882   4.643   3.779   5.176  1.9939  0.1539  1.3165
 9082SOL    HW238883   4.582   3.760   5.308 -1.6802  0.7291  0.3649
 9083SOL     OW38884   1.772   2.709   0.935 -0.0757 -0.3286 -0.2004
 9083SOL    HW138885   1.814   2.749   1.011 -0.3970 -0.0490 -0.1678
 9083SOL    HW238886   1.852   2.680   0.891 -1.8365 -1.2057 -2.8122
 9084SOL     OW38887   1.309   0.893   5.895  0.1337  0.3562  0.1223
 9084SOL    HW138888   1.345   0.848   5.819  0.7315  2.6294 -0.9430
 9084SOL    HW238889   1.221   0.857   5.892  0.0928  0.4622  0.0792
 9085SOL     OW38890   4.702   2.080  13.733 -0.1526 -0.0824  0.1265
 9085SOL    HW138891   4.623   2.050  13.689 -0.0021  0.0323 -0.2196
 9085SOL    HW238892   4.673   2.143  13.800  1.9815 -1.0069  1.9280
 9086SOL     OW38893   1.649   1.251  13.231  0.4874  0.4276  0.3134
 9086SOL    HW138894   1.686   1.330  13.192 -0.7689  0.4950 -0.7484
 9086SOL    HW238895   1.707   1.184  13.195 -0.6305  0.4808 -1.5818
 9087SOL     OW38896   0.025   4.315   7.839 -0.1393  0.7463 -0.3405
 9087SOL    HW138897   4.701   4.329   7.767  0.1444  1.4378 -0.4449
 9087SOL    HW238898   4.718   4.245   7.889  3.3752 -0.5534  0.8949
 9088SOL     OW38899   2.520   1.080   6.129 -0.0150 -0.1452  0.4339
 9088SOL    HW138900   2.491   1.054   6.217  0.9901 -1.3880  0.4008
 9088SOL    HW238901   2.602   1.121   6.156  0.0389 -0.2530  0.4349
 9089SOL     OW38902   4.102   1.812   5.486 -0.6441 -0.2198  0.1703
 9089SOL    HW138903   4.098   1.903   5.514 -0.3510 -0.3048  0.4844
 9089SOL    HW238904   4.020   1.772   5.514 -0.7893  0.3213  0.4991
 9090SOL     OW38905   1.370   2.675   8.879  0.1981  0.3308 -0.1235
 9090SOL    HW138906   1.385   2.582   8.897 -0.0087  0.1324 -1.0023
 9090SOL    HW238907   1.293   2.671   8.823 -0.9249  0.0086  1.4320
 9091SOL     OW38908   3.570   0.009   2.263 -0.1550 -0.1503  0.0740
 9091SOL    HW138909   3.649   4.711   2.306 -3.0377 -3.3287  2.7422
 9091SOL    HW238910   3.567   4.691   2.185  1.2750 -0.7682  0.4454
 9092SOL     OW38911   3.581   3.978   5.601 -0.3739  0.2878 -0.1055
 9092SOL    HW138912   3.542   4.065   5.596  0.6134  0.8305  1.7232
 9092SOL    HW238913   3.651   3.981   5.667 -0.3540  0.1816 -0.1223
 9093SOL     OW38914   0.466   0.363   3.255 -0.1406 -0.2930 -0.1596
 9093SOL    HW138915   0.434   0.275   3.274  0.0814 -0.6182 -1.3228
 9093SOL    HW238916   0.560   0.359   3.271 -0.4612 -2.9990  0.9181
 9094SOL     OW38917   1.292   0.609   1.007 -0.6471  0.4764 -0.2374
 9094SOL    HW138918   1.319   0.524   1.042 -0.7549 -0.1596 -1.7005
 9094SOL    HW238919   1.275   0.668   1.081 -0.6623 -0.9235  0.8852
 9095SOL     OW38920   4.420   4.661   3.215  0.0587  0.3594 -0.2187
 9095SOL    HW138921   4.482   4.623   3.278 -0.6729 -4.1903 -2.3085
 9095SOL    HW238922   4.402   4.590   3.154  0.7668 -0.6633  0.7516
 9096SOL     OW38923   1.992   0.051   4.024  0.7150 -0.3148  0.1060
 9096SOL    HW138924   1.941   0.131   4.012 -1.4487 -1.9262 -1.5257
 9096SOL    HW238925   2.063   0.070   3.962  1.0453 -1.1404  0.2217
 9097SOL     OW38926   3.968   1.283   3.222  0.0137  0.1789 -0.3573
 9097SOL    HW138927   3.956   1.378   3.230  0.2980  0.0754  1.1733
 9097SOL    HW238928   4.051   1.283   3.174  0.6737 -1.2148  0.7827
 9098SOL     OW38929   4.002   1.310   5.447  0.1195 -0.0823  0.1267
 9098SOL    HW138930   3.926   1.252   5.443 -0.4523  0.8259 -1.9665
 9098SOL    HW238931   3.981   1.348   5.533 -1.4449  0.3821 -0.4485
 9099SOL     OW38932   3.045   3.025   7.189  0.0012 -0.3413  0.0336
 9099SOL    HW138933   3.077   2.962   7.124 -1.7801 -1.7291  0.4998
 9099SOL    HW238934   2.960   3.048   7.151 -0.6271  0.1012  1.7331
 9100SOL     OW38935   2.811   1.485   7.287 -0.1454 -0.8956 -0.4709
 9100SOL    HW138936   2.773   1.475   7.375  1.5045 -1.1876  0.2078
 9100SOL    HW238937   2.898   1.512   7.315  0.9011 -1.3985 -3.2224
 9101SOL     OW38938   4.516   2.311  13.497  0.4990 -0.0124  0.0261
 9101SOL    HW138939   4.507   2.361  13.578 -0.9534  0.2955 -0.3263
 9101SOL    HW238940   4.612   2.310  13.496  0.4964  0.0381 -1.1443
 9102SOL     OW38941   4.003   4.019   7.605 -0.1222 -0.7362  0.1537
 9102SOL    HW138942   3.968   4.053   7.523 -1.1137 -0.4107  0.7136
 9102SOL    HW238943   3.923   3.978   7.640 -0.7534 -0.9172 -1.4903
 9103SOL     OW38944   1.132   2.487  14.168  0.6661 -0.3144 -0.0498
 9103SOL    HW138945   1.046   2.508  14.132  0.9806 -0.2606 -0.7829
 9103SOL    HW238946   1.117   2.424  14.239 -0.4177  0.1269  0.1114
 9104SOL     OW38947   4.646   3.749   5.479  0.4106 -0.1740 -0.5051
 9104SOL    HW138948   4.609   3.830   5.515  0.4400  0.3730 -1.6722
 9104SOL    HW238949   4.648   3.705   5.564 -2.1832  1.1006  0.2163
 9105SOL     OW38950   3.700   2.663   6.553 -0.5566 -0.5232  0.0792
 9105SOL    HW138951   3.611   2.644   6.523 -0.1630 -0.8116 -0.9020
 9105SOL    HW238952   3.729   2.737   6.500  1.3826 -1.6346 -0.4191
 9106SOL     OW38953   3.564   0.946   3.807 -0.1497  0.5182 -0.1254
 9106SOL    HW138954   3.515   1.007   3.752 -2.2478  0.8710  2.1227
 9106SOL    HW238955   3.601   1.010   3.868 -0.7323  1.5224 -0.8133
 9107SOL     OW38956   0.700   0.983  15.558 -0.4962  0.2389  0.5591
 9107SOL    HW138957   0.682   1.055  15.619 -0.4364  0.8054 -0.0959
 9107SOL    HW238958   0.640   0.913  15.581  2.5362 -1.7703  2.2944
 9108SOL     OW38959   1.310   0.876   2.142 -0.8664  0.2546 -0.4454
 9108SOL    HW138960   1.303   0.833   2.227 -0.7070  0.7214 -0.1945
 9108SOL    HW238961   1.315   0.794   2.092  0.4645  0.0282  0.0658
 9109SOL     OW38962   1.376   1.667  13.670 -0.3879 -0.1589  0.5521
 9109SOL    HW138963   1.331   1.735  13.618 -2.1375 -1.7142  0.0400
 9109SOL    HW238964   1.451   1.642  13.616 -0.5974 -0.3608  0.3547
 9110SOL     OW38965   1.885   4.319   4.335 -0.5114  0.7685 -0.1997
 9110SOL    HW138966   1.966   4.269   4.327 -0.6448  0.2452  1.7575
 9110SOL    HW238967   1.916   4.350   4.420  0.6751  0.1064 -0.3904
 9111SOL     OW38968   0.878   3.077   2.471  0.1450 -0.2027  0.3408
 9111SOL    HW138969   0.950   3.115   2.520 -0.1650 -1.2163  1.5736
 9111SOL    HW238970   0.900   3.068   2.378  0.5132 -1.5115  0.5516
 9112SOL     OW38971   2.445   1.406   5.819  1.0586 -0.3860  0.1575
 9112SOL    HW138972   2.421   1.314   5.814  1.0545 -0.3651 -0.2091
 9112SOL    HW238973   2.535   1.385   5.844  0.6875 -0.3518  1.5520
 9113SOL     OW38974   0.592   1.074   8.869 -0.7362  0.2114  0.1775
 9113SOL    HW138975   0.533   1.071   8.944 -1.8625 -0.2115 -0.7168
 9113SOL    HW238976   0.589   1.169   8.858  2.6573  0.4987  1.8819
 9114SOL     OW38977   2.593   1.374   3.955  0.4202  0.6846  0.0270
 9114SOL    HW138978   2.677   1.386   4.000  1.0427 -1.2656 -0.6370
 9114SOL    HW238979   2.552   1.304   4.005  1.4255  1.0309  1.3254
 9115SOL     OW38980   2.403   0.958   4.800  0.3774 -0.0700  0.1880
 9115SOL    HW138981   2.357   1.034   4.834  0.4793  0.9835 -1.9975
 9115SOL    HW238982   2.401   0.987   4.709  0.5790 -0.4560  0.0604
 9116SOL     OW38983   4.389   0.939   7.340  0.2414  0.4133  0.2837
 9116SOL    HW138984   4.462   0.922   7.280  0.8241  1.5869  0.6792
 9116SOL    HW238985   4.353   0.852   7.357 -0.1863  0.4833 -0.2618
 9117SOL     OW38986   3.321   2.297  14.205 -0.0969  0.1056  0.2477
 9117SOL    HW138987   3.349   2.303  14.296 -0.0433 -0.5596  0.2730
 9117SOL    HW238988   3.237   2.341  14.219 -0.2282  0.1670 -0.7075
 9118SOL     OW38989   4.380   0.995   1.931 -0.0101  0.1575 -0.1727
 9118SOL    HW138990   4.457   0.975   1.984 -0.3149 -0.6990 -0.0564
 9118SOL    HW238991   4.380   1.090   1.940  2.2880  0.2429 -1.0769
 9119SOL     OW38992   0.186   2.300   8.888 -0.0591 -0.2881  0.0564
 9119SOL    HW138993   0.105   2.262   8.855 -1.0961  0.9081  1.2147
 9119SOL    HW238994   0.219   2.334   8.805 -1.8887  1.0798 -0.1176
 9120SOL     OW38995   4.318   3.324   7.708  0.2082 -0.2533  1.1402
 9120SOL    HW138996   4.357   3.274   7.780  1.4797 -3.0812 -1.5217
 9120SOL    HW238997   4.304   3.263   7.635 -0.4708  2.5662 -1.0956
 9121SOL     OW38998   1.498   1.131   0.990 -0.1248  0.2045 -0.2159
 9121SOL    HW138999   1.441   1.124   0.914 -1.4496 -0.2121  0.8040
 9121SOL    HW239000   1.581   1.157   0.950  0.7740  0.4703  1.7846
 9122SOL     OW39001   1.824   1.310   2.482  0.6796  0.0379  0.4676
 9122SOL    HW139002   1.906   1.309   2.531  0.2497 -1.0045  1.1517
 9122SOL    HW239003   1.845   1.265   2.400 -0.5834 -1.2737  0.8742
 9123SOL     OW39004   2.099   0.094   8.652 -0.8220  0.0212  0.0801
 9123SOL    HW139005   2.175   0.050   8.613  0.5122  1.5324  0.9619
 9123SOL    HW239006   2.049   0.013   8.662 -0.3940 -0.1892  0.5283
 9124SOL     OW39007   1.623   2.807  12.207  0.3091 -0.4341  0.1169
 9124SOL    HW139008   1.706   2.769  12.178 -0.2486 -0.6985 -1.1334
 9124SOL    HW239009   1.631   2.819  12.302  0.9038  0.2434 -0.0186
 9125SOL     OW39010   1.424   1.573   2.674 -0.3590  0.2080 -0.3195
 9125SOL    HW139011   1.350   1.540   2.622 -0.3012  0.1680 -0.3765
 9125SOL    HW239012   1.495   1.527   2.629  0.9845  0.8112  1.2191
 9126SOL     OW39013   3.411   0.358  17.067 -0.3892 -0.3407  0.3622
 9126SOL    HW139014   3.418   0.394  17.156 -0.3528  0.1551  0.1604
 9126SOL    HW239015   3.316   0.355  17.062 -0.6530  1.2161  4.2341
 9127SOL     OW39016   3.365   0.432  12.145  0.1262  0.9392 -0.0343
 9127SOL    HW139017   3.447   0.408  12.189  0.8077  1.2612 -1.1432
 9127SOL    HW239018   3.374   0.395  12.058  0.9248 -1.8749  1.2427
 9128SOL     OW39019   2.629   2.794   6.316  0.3821  0.4656  0.2558
 9128SOL    HW139020   2.721   2.818   6.308  0.0253  1.9975  0.6836
 9128SOL    HW239021   2.601   2.841   6.238  0.1659  1.2479  0.7974
 9129SOL     OW39022   3.163   0.839   0.037  0.1035  0.5163 -1.0206
 9129SOL    HW139023   3.075   0.827   0.001  0.8981 -0.2945 -2.7168
 9129SOL    HW239024   3.219   0.792  17.721 -2.2976 -2.2321 -1.1211
 9130SOL     OW39025   1.221   3.084  10.801  0.0230 -0.4486  0.5607
 9130SOL    HW139026   1.188   3.173  10.814  0.8495 -0.0363 -0.2047
 9130SOL    HW239027   1.309   3.088  10.765 -0.0320  0.7776  0.5542
 9131SOL     OW39028   3.308   4.532  17.731  0.8176 -1.2192 -0.0205
 9131SOL    HW139029   3.392   4.501   0.018  1.4866 -0.0568 -0.6482
 9131SOL    HW239030   3.259   4.542   0.067  2.8309 -1.7247  1.2425
 9132SOL     OW39031   3.883   1.788   7.744  0.5900 -0.1139  0.1109
 9132SOL    HW139032   3.960   1.841   7.727  0.4939  0.1853  0.6165
 9132SOL    HW239033   3.824   1.863   7.754  1.7478  0.6262  1.3582
 9133SOL     OW39034   2.838   2.802   4.950 -0.3330  0.2409  0.3323
 9133SOL    HW139035   2.822   2.871   5.014 -0.3701  0.1206  0.4551
 9133SOL    HW239036   2.761   2.745   4.946  0.5067 -0.7401 -1.8531
 9134SOL     OW39037   0.800   1.238  11.752  0.2854  1.0621 -0.2702
 9134SOL    HW139038   0.750   1.284  11.685  3.8155  1.0949 -2.8504
 9134SOL    HW239039   0.870   1.192  11.706  1.2804  2.5518 -0.2688
 9135SOL     OW39040   1.201   2.801   8.555 -0.7766  0.5650  0.0097
 9135SOL    HW139041   1.201   2.866   8.625 -0.2524 -1.6877  2.1156
 9135SOL    HW239042   1.233   2.721   8.597 -1.7403  0.7776  1.1520
 9136SOL     OW39043   3.592   1.077   5.533 -0.0699 -0.7370  0.3556
 9136SOL    HW139044   3.498   1.093   5.522  0.7174  2.8428 -1.2981
 9136SOL    HW239045   3.582   1.097   5.625  2.1403 -1.1589  0.7051
 9137SOL     OW39046   3.931   0.143   3.579  0.3109 -0.1883  0.3151
 9137SOL    HW139047   3.935   0.058   3.624  2.2999  0.1907  0.8462
 9137SOL    HW239048   3.837   0.145   3.563  0.8575  0.0260 -2.9309
 9138SOL     OW39049   1.817   1.946   2.426 -0.3244  0.0888  0.3605
 9138SOL    HW139050   1.722   1.949   2.439 -0.3792 -1.9367  0.4362
 9138SOL    HW239051   1.851   1.961   2.514  2.3085 -1.7411 -0.3367
 9139SOL     OW39052   0.881   2.351   3.931 -0.8340 -0.0956  0.2364
 9139SOL    HW139053   0.825   2.344   4.009 -2.0519  2.5049 -0.4024
 9139SOL    HW239054   0.942   2.422   3.951 -1.6784  1.1385 -1.6310
 9140SOL     OW39055   0.275   3.529   3.635 -0.0358  0.1996  0.5851
 9140SOL    HW139056   0.337   3.500   3.703  0.0209  0.3580  0.6002
 9140SOL    HW239057   0.254   3.444   3.597  2.2753 -0.3998  0.6336
 9141SOL     OW39058   4.433   4.089   0.303  0.2642 -0.5647  0.2618
 9141SOL    HW139059   4.501   4.104   0.368  0.3433 -1.7636  0.4627
 9141SOL    HW239060   4.427   4.181   0.278  1.3136 -0.1026  1.7063
 9142SOL     OW39061   3.879   1.541  13.015 -0.4951 -0.2574  0.1123
 9142SOL    HW139062   3.972   1.528  13.031 -0.3820  1.1460  0.5761
 9142SOL    HW239063   3.855   1.603  13.084 -0.5063  0.2851 -0.3722
 9143SOL     OW39064   2.621   1.313  13.746  0.0089 -0.1004 -0.2817
 9143SOL    HW139065   2.633   1.249  13.677  0.9165  0.6547 -0.8370
 9143SOL    HW239066   2.564   1.373  13.698  0.5137  0.0730 -0.6679
 9144SOL     OW39067   0.509   2.050  13.500 -0.1687 -0.1099 -0.1513
 9144SOL    HW139068   0.543   1.976  13.551 -2.1314  0.8123  2.5003
 9144SOL    HW239069   0.593   2.093  13.484  0.3034 -0.3415  1.8023
 9145SOL     OW39070   3.010   0.689   2.268  0.0353  0.2766  0.0744
 9145SOL    HW139071   3.017   0.746   2.192 -2.5797  1.5743  0.8481
 9145SOL    HW239072   2.915   0.690   2.265  0.0768 -0.5733 -1.2419
 9146SOL     OW39073   0.747   0.662   6.192  0.0770  0.6636  0.0412
 9146SOL    HW139074   0.809   0.628   6.127 -0.4544  0.5606 -0.4180
 9146SOL    HW239075   0.805   0.686   6.263  0.6435  0.5135 -0.3699
 9147SOL     OW39076   3.350   2.379   0.293  0.1870  0.2260 -0.4725
 9147SOL    HW139077   3.284   2.342   0.352  0.6671  1.4943  0.8754
 9147SOL    HW239078   3.339   2.331   0.211  0.7589  0.8238 -0.8987
 9148SOL     OW39079   1.428   2.296   8.586 -0.7542 -0.2380  0.2303
 9148SOL    HW139080   1.343   2.340   8.598 -1.8808 -2.2132 -0.4437
 9148SOL    HW239081   1.431   2.293   8.491  3.8148  1.6922  0.3353
 9149SOL     OW39082   1.564   4.186   3.570  0.3239  0.0121 -0.3137
 9149SOL    HW139083   1.602   4.188   3.658 -2.4707 -1.5301  0.9174
 9149SOL    HW239084   1.602   4.105   3.536  1.6414 -0.6783  2.7343
 9150SOL     OW39085   1.888   1.104   9.369  0.5388 -0.1076  0.4967
 9150SOL    HW139086   1.946   1.052   9.425  0.9054 -0.8496 -0.5616
 9150SOL    HW239087   1.834   1.140   9.439 -0.8968 -0.5128 -0.4123
 9151SOL     OW39088   4.402   1.455   6.028  0.1252 -0.1955 -0.3524
 9151SOL    HW139089   4.354   1.477   6.108 -0.4522 -1.3479 -0.3830
 9151SOL    HW239090   4.481   1.413   6.061 -0.5189 -0.8283  0.3759
 9152SOL     OW39091   3.015   3.893   8.734 -0.0869 -0.2369 -0.5249
 9152SOL    HW139092   3.059   3.817   8.695 -1.0287 -0.1394 -1.7836
 9152SOL    HW239093   2.998   3.942   8.653 -1.5312  1.2353  0.6705
 9153SOL     OW39094   3.843   2.389   6.931  0.2115 -0.1906  0.1527
 9153SOL    HW139095   3.796   2.463   6.894  0.7994 -1.6936 -3.6071
 9153SOL    HW239096   3.904   2.350   6.868 -0.6816 -1.5472  0.1322
 9154SOL     OW39097   2.978   4.237  11.621  0.3818 -0.4310  0.3594
 9154SOL    HW139098   3.048   4.205  11.677  0.4437 -0.3450  0.3318
 9154SOL    HW239099   2.995   4.196  11.537 -0.3191  1.5520 -0.7661
 9155SOL     OW39100   1.154   1.558   1.709 -0.2442  0.1934 -0.4834
 9155SOL    HW139101   1.089   1.626   1.691  0.3049  0.8467  0.0093
 9155SOL    HW239102   1.140   1.550   1.804 -0.8416  2.0341 -0.4267
 9156SOL     OW39103   0.754   1.326  13.208 -0.5154 -0.2592 -0.2816
 9156SOL    HW139104   0.816   1.269  13.253  0.7429  1.0124 -0.4032
 9156SOL    HW239105   0.805   1.404  13.230 -1.9139  0.4122  0.5761
 9157SOL     OW39106   0.416   1.638   7.435 -0.8972  0.0437  0.0391
 9157SOL    HW139107   0.382   1.604   7.518 -0.2886  1.0675  0.7115
 9157SOL    HW239108   0.330   1.653   7.395  0.2879 -0.1178 -2.6023
 9158SOL     OW39109   3.125   3.768   3.815 -0.0460  0.0906 -0.5090
 9158SOL    HW139110   3.031   3.752   3.807  0.0865 -1.1225  0.2724
 9158SOL    HW239111   3.148   3.776   3.908 -0.7234 -1.8407 -0.1624
 9159SOL     OW39112   3.751   2.871   5.385 -0.1697 -0.7040  0.0225
 9159SOL    HW139113   3.695   2.797   5.362 -0.4479 -0.6552  0.5528
 9159SOL    HW239114   3.775   2.907   5.300 -0.3135 -1.8696 -0.5087
 9160SOL     OW39115   3.737   4.368   7.774  0.2429 -0.1257 -0.1346
 9160SOL    HW139116   3.793   4.335   7.704 -1.0577 -1.9824 -0.3034
 9160SOL    HW239117   3.690   4.290   7.805  1.2591 -0.4876  0.4879
 9161SOL     OW39118   2.488   4.665   5.145 -0.5397 -0.6707 -0.0893
 9161SOL    HW139119   2.505   4.575   5.174  0.0835 -0.4059  0.3582
 9161SOL    HW239120   2.543   4.719   5.201 -1.5958  0.2244  0.0913
 9162SOL     OW39121   3.512   3.802   8.182 -0.2083 -0.0076  0.4249
 9162SOL    HW139122   3.547   3.713   8.189  0.1807  0.0569 -0.8154
 9162SOL    HW239123   3.596   3.850   8.182  0.1089 -0.5971 -1.5691
 9163SOL     OW39124   1.136   3.421   4.864  0.0694  0.9565  0.7724
 9163SOL    HW139125   1.090   3.395   4.784  0.7921  0.4722  0.5184
 9163SOL    HW239126   1.198   3.486   4.831 -0.0625  1.2531  1.1056
 9164SOL     OW39127   2.518   1.461   2.530  0.0905 -0.4721 -0.3181
 9164SOL    HW139128   2.564   1.377   2.530  3.1556  1.2081 -0.2557
 9164SOL    HW239129   2.438   1.446   2.480  0.6722 -0.8148 -1.1578
 9165SOL     OW39130   0.048   0.815   4.088 -0.7223 -0.2466 -0.2823
 9165SOL    HW139131   0.060   0.842   3.997 -2.1234 -0.1687 -0.4480
 9165SOL    HW239132   0.049   0.722   4.068 -0.1926 -0.1356 -0.7544
 9166SOL     OW39133   3.725   2.508   7.660  0.1336 -0.3488 -0.4002
 9166SOL    HW139134   3.766   2.455   7.728 -1.7525 -3.9986 -2.1395
 9166SOL    HW239135   3.798   2.509   7.598  0.7506 -0.1675  0.3322
 9167SOL     OW39136   0.012   1.870   8.665 -0.5876  0.2116 -0.1423
 9167SOL    HW139137   4.659   1.856   8.697  0.0869 -0.4366  1.4621
 9167SOL    HW239138   0.029   1.779   8.642  2.2411  0.6205  0.4195
 9168SOL     OW39139   3.792   3.508   5.671  0.2989  0.0278  0.0458
 9168SOL    HW139140   3.880   3.526   5.704  0.8505  1.6476 -2.2934
 9168SOL    HW239141   3.804   3.425   5.626  1.3735 -0.7922  1.8212
 9169SOL     OW39142   1.627   1.163   7.849 -0.8828 -0.9217  0.4305
 9169SOL    HW139143   1.656   1.254   7.852 -0.9236 -0.9310  1.1718
 9169SOL    HW239144   1.567   1.164   7.774 -1.2877  1.6491  0.7928
 9170SOL     OW39145   2.844   1.351  16.707  0.7799 -0.1418  0.2632
 9170SOL    HW139146   2.890   1.412  16.649  0.6259  0.8654  1.2072
 9170SOL    HW239147   2.767   1.335  16.653  0.5870  0.2480  0.4267
 9171SOL     OW39148   3.779   3.322  14.990  0.3513  0.1745  0.1962
 9171SOL    HW139149   3.704   3.302  14.935  0.4750 -1.1834  0.5107
 9171SOL    HW239150   3.781   3.418  14.993 -2.0735  0.2597 -0.7943
 9172SOL     OW39151   1.613   3.855   8.072  0.1528 -0.8255 -0.5300
 9172SOL    HW139152   1.684   3.911   8.102 -0.3723  0.1913 -1.2074
 9172SOL    HW239153   1.540   3.917   8.079  0.3791 -0.8365  1.8085
 9173SOL     OW39154   2.915   1.073   5.696 -0.5909 -0.8637 -0.4113
 9173SOL    HW139155   2.849   1.090   5.763  3.5816  1.4461  3.1723
 9173SOL    HW239156   2.888   0.993   5.652 -0.5797 -1.3410  0.4437
 9174SOL     OW39157   1.829   1.697  13.470 -0.8424 -0.4254 -0.3841
 9174SOL    HW139158   1.873   1.612  13.465  1.4359  0.7441 -0.2860
 9174SOL    HW239159   1.802   1.678  13.560 -0.5279  2.4365  0.2919
 9175SOL     OW39160   2.576   1.841   2.538  0.7781  0.5506  0.0261
 9175SOL    HW139161   2.633   1.856   2.463  1.1858 -0.7650  0.0662
 9175SOL    HW239162   2.511   1.909   2.522  0.6528  0.5469  0.5246
 9176SOL     OW39163   0.523   2.760   2.288  0.4868 -0.4192 -0.2573
 9176SOL    HW139164   0.477   2.756   2.371  1.6518 -1.9627  0.3252
 9176SOL    HW239165   0.602   2.812   2.303 -0.2709  1.2519 -2.1016
 9177SOL     OW39166   0.949   4.176   4.418 -0.7423  0.0507  0.5329
 9177SOL    HW139167   0.943   4.272   4.416 -0.6847  0.0787  1.8625
 9177SOL    HW239168   1.017   4.172   4.484 -0.4294 -0.4463  0.1794
 9178SOL     OW39169   2.145   1.926   2.548 -0.4411  0.2486 -0.0044
 9178SOL    HW139170   2.149   1.856   2.483  1.7304  0.2657  0.1276
 9178SOL    HW239171   2.234   1.960   2.555 -1.8279  3.4576  1.7967
 9179SOL     OW39172   4.609   3.113   2.768  0.0934  0.4920  0.2078
 9179SOL    HW139173   4.604   3.190   2.825 -0.9626 -0.0691  0.8669
 9179SOL    HW239174   4.516   3.097   2.754  0.0709 -0.1224  1.0079
 9180SOL     OW39175   2.287   0.842   5.721  0.2107  0.1891 -0.2677
 9180SOL    HW139176   2.202   0.843   5.675  0.2765  2.4234 -0.3272
 9180SOL    HW239177   2.277   0.832   5.815  0.9522 -1.7562 -0.3792
 9181SOL     OW39178   3.129   2.968  10.970 -1.1853 -0.2736 -0.3371
 9181SOL    HW139179   3.197   2.901  10.982 -1.7381 -0.6497  0.7053
 9181SOL    HW239180   3.146   2.994  10.879  0.7085  1.3781  0.4925
 9182SOL     OW39181   2.573   4.208   7.245  0.0776 -0.1206  0.2024
 9182SOL    HW139182   2.638   4.246   7.185  0.4353  1.5530  1.6600
 9182SOL    HW239183   2.625   4.139   7.287 -0.9242 -0.4523  0.8917
 9183SOL     OW39184   0.971   3.309   9.430 -0.5530  0.1790 -0.4050
 9183SOL    HW139185   0.910   3.338   9.362 -0.3207  1.6656  0.0215
 9183SOL    HW239186   1.052   3.356   9.413 -0.1801 -0.3299 -0.0198
 9184SOL     OW39187   4.183   2.935   8.389  0.3451  0.0421  0.3921
 9184SOL    HW139188   4.246   2.958   8.321 -0.5677 -0.4530 -0.6232
 9184SOL    HW239189   4.224   2.870   8.445  0.3175 -1.0069 -0.8080
 9185SOL     OW39190   1.292   1.569   2.414  0.1045 -0.0632  0.4226
 9185SOL    HW139191   1.313   1.502   2.349 -0.7674 -0.8783  0.9918
 9185SOL    HW239192   1.290   1.646   2.357 -0.8170  1.0443  1.9562
 9186SOL     OW39193   3.560   0.595   7.366 -0.0382 -0.1273 -0.4286
 9186SOL    HW139194   3.645   0.635   7.346 -0.1857  0.9112  1.0663
 9186SOL    HW239195   3.554   0.545   7.284 -0.1498 -1.2425  0.2660
 9187SOL     OW39196   4.052   4.689  10.319 -0.3851 -0.1729  0.4188
 9187SOL    HW139197   4.061   4.723  10.408 -1.0678 -3.1505  1.6289
 9187SOL    HW239198   4.132   4.720  10.277 -0.5484  1.7806  1.5196
 9188SOL     OW39199   2.722   0.744   2.858 -0.0064  0.1326  0.3645
 9188SOL    HW139200   2.804   0.722   2.902  0.8680 -1.3106 -2.0224
 9188SOL    HW239201   2.705   0.829   2.899  0.0695  0.5085 -0.3922
 9189SOL     OW39202   2.948   3.296   3.878 -0.6305  0.0956 -0.6816
 9189SOL    HW139203   2.954   3.204   3.855 -0.9834 -0.1281  0.1073
 9189SOL    HW239204   2.956   3.346   3.797  3.0555 -0.3964 -0.6191
 9190SOL     OW39205   2.387   0.384   5.246  0.1202  0.7680  0.1192
 9190SOL    HW139206   2.431   0.376   5.330  0.2726  0.7934  0.0406
 9190SOL    HW239207   2.468   0.368   5.199  1.5554  2.1018  2.1595
 9191SOL     OW39208   4.579   0.448   3.355  0.0663 -0.0200 -0.4732
 9191SOL    HW139209   4.612   0.406   3.434  2.8451 -0.1485 -1.6792
 9191SOL    HW239210   4.658   0.478   3.309  0.4013  0.0805  0.1641
 9192SOL     OW39211   3.727   2.765   2.437  0.1849 -0.1391 -0.1529
 9192SOL    HW139212   3.751   2.792   2.348 -0.8143 -1.8996 -0.9648
 9192SOL    HW239213   3.647   2.722   2.407 -0.2880  0.0742  0.7902
 9193SOL     OW39214   0.047   2.311  13.435  0.5734  0.0777 -0.3075
 9193SOL    HW139215   0.028   2.399  13.402  2.4435  0.3759 -0.5936
 9193SOL    HW239216   0.064   2.264  13.354 -2.0018  0.7968 -1.2873
 9194SOL     OW39217   2.140   1.105   3.052  0.3405  0.4262 -0.0576
 9194SOL    HW139218   2.149   1.084   3.145 -0.7195  0.6645  0.0975
 9194SOL    HW239219   2.046   1.104   3.037  0.4188 -0.2430 -0.4962
 9195SOL     OW39220   3.010   2.219  11.703 -0.2569  0.7381  0.0681
 9195SOL    HW139221   3.032   2.126  11.708 -0.0469  0.7377 -0.9291
 9195SOL    HW239222   3.060   2.252  11.628  1.0639 -1.9353 -0.2084
 9196SOL     OW39223   3.155   2.590   3.502  0.4052  0.0167  0.0204
 9196SOL    HW139224   3.152   2.652   3.575 -0.5574  1.3712 -1.1517
 9196SOL    HW239225   3.244   2.556   3.493  0.3474  0.0766 -0.7556
 9197SOL     OW39226   1.903   4.197   1.806 -0.0032  0.0963  0.3684
 9197SOL    HW139227   1.811   4.220   1.819  0.8415  2.7025  1.6733
 9197SOL    HW239228   1.938   4.255   1.874 -2.0268  1.3165  0.3706
 9198SOL     OW39229   3.400   3.708   9.563  0.4121  0.6289  0.3470
 9198SOL    HW139230   3.489   3.675   9.577  0.8859  2.4907  1.7502
 9198SOL    HW239231   3.348   3.632   9.535 -0.0931  0.7991  0.8241
 9199SOL     OW39232   0.051   3.457  13.765 -1.3873 -0.6684  0.0207
 9199SOL    HW139233   4.698   3.475  13.736 -1.8123 -2.8515  0.0016
 9199SOL    HW239234   0.079   3.547  13.785 -1.2082 -0.4571 -1.1791
 9200SOL     OW39235   0.765   0.724   8.309  0.3701  0.2349  0.3846
 9200SOL    HW139236   0.843   0.758   8.354  0.2895  0.3501  0.4385
 9200SOL    HW239237   0.808   0.725   8.224 -0.0965 -1.3805  0.1284
 9201SOL     OW39238   1.709   2.850   6.155 -0.2705 -0.3644 -0.4374
 9201SOL    HW139239   1.717   2.798   6.075  2.0434 -0.5007 -0.1083
 9201SOL    HW239240   1.663   2.928   6.123  0.7709  0.3578 -0.1521
 9202SOL     OW39241   0.348   0.288   3.663 -0.5601  0.3816  0.3642
 9202SOL    HW139242   0.368   0.213   3.607  2.2305  0.2114  1.5935
 9202SOL    HW239243   0.424   0.286   3.722 -0.2702  1.1346  0.0087
 9203SOL     OW39244   3.031   1.698  17.517 -0.0805  0.1360  0.0206
 9203SOL    HW139245   3.023   1.632  17.586 -0.0000 -0.9023 -0.9523
 9203SOL    HW239246   3.123   1.683  17.492 -0.1539 -0.8974  0.3872
 9204SOL     OW39247   0.241   0.184  12.109  0.9260  0.2089 -0.4117
 9204SOL    HW139248   0.307   0.197  12.176 -1.4108 -1.5241  2.2084
 9204SOL    HW239249   0.194   0.267  12.113  0.0014 -0.4784  3.0182
 9205SOL     OW39250   4.538   0.417   2.951  0.2404 -0.3696  0.0021
 9205SOL    HW139251   4.455   0.444   2.912  1.0837  2.2499  0.0792
 9205SOL    HW239252   4.506   0.396   3.039 -0.6194  3.5310  0.6151
 9206SOL     OW39253   3.523   4.704   5.601  0.2039  0.2291  0.0406
 9206SOL    HW139254   3.589   4.639   5.625  1.1117  1.0764 -0.2211
 9206SOL    HW239255   3.461   4.684   5.672 -2.3152  0.9850 -1.9720
 9207SOL     OW39256   0.773   1.068   7.659 -0.5045 -0.4790 -0.6588
 9207SOL    HW139257   0.721   1.018   7.721 -0.7460  1.5857  0.8152
 9207SOL    HW239258   0.842   1.103   7.715 -1.2048  0.0181 -0.1028
 9208SOL     OW39259   3.111   0.516   1.423 -0.0794  0.0645 -0.3984
 9208SOL    HW139260   3.206   0.517   1.427 -0.1298 -0.5193  0.8896
 9208SOL    HW239261   3.096   0.444   1.484 -0.7906 -0.9073 -1.7152
 9209SOL     OW39262   4.583   3.058  17.618  0.6858 -0.5288 -0.5710
 9209SOL    HW139263   4.545   3.101  17.542 -0.6018 -1.2985 -0.3742
 9209SOL    HW239264   4.676   3.047  17.599  0.5032 -1.3365 -1.0073
 9210SOL     OW39265   2.668   3.254  10.207  0.1401 -0.1002  0.0388
 9210SOL    HW139266   2.582   3.291  10.228  1.2417  0.7146  3.2385
 9210SOL    HW239267   2.721   3.311  10.264 -0.0104 -0.0857  0.1652
 9211SOL     OW39268   1.661   0.955  15.704  0.2007  0.0927 -0.1129
 9211SOL    HW139269   1.697   0.992  15.785  1.2167 -0.8635 -0.1275
 9211SOL    HW239270   1.683   1.023  15.641 -0.4710 -1.0590 -1.5791
 9212SOL     OW39271   4.078   3.994   9.013 -0.4056 -0.4084  0.0231
 9212SOL    HW139272   4.010   3.947   9.061  0.4431 -0.7300  0.9125
 9212SOL    HW239273   4.159   3.958   9.050  1.0375  1.3741 -1.4485
 9213SOL     OW39274   1.279   0.290  15.991  0.1781  0.2368 -0.1102
 9213SOL    HW139275   1.291   0.202  15.956  0.0680  0.2121 -0.0855
 9213SOL    HW239276   1.194   0.299  15.949  0.2706  1.0340 -0.1419
 9214SOL     OW39277   3.777   2.241  14.754 -0.6383  0.4218  0.0732
 9214SOL    HW139278   3.793   2.272  14.843 -3.4898  0.9908  0.4146
 9214SOL    HW239279   3.844   2.174  14.748  0.5727  1.4846  1.7907
 9215SOL     OW39280   0.044   4.421   2.145  0.2060 -0.1353  0.3445
 9215SOL    HW139281   0.066   4.328   2.135  1.8905  0.2180  0.6608
 9215SOL    HW239282   0.094   4.444   2.224 -1.2933  0.7294  1.0402
 9216SOL     OW39283   3.887   0.809   3.389  0.0395 -0.2104  0.3305
 9216SOL    HW139284   3.891   0.871   3.462  0.1841 -0.0868  0.2180
 9216SOL    HW239285   3.850   0.730   3.428 -1.2114  0.1475 -0.1002
 9217SOL     OW39286   2.888   0.357   7.657 -0.4307 -0.3301 -0.8224
 9217SOL    HW139287   2.943   0.280   7.672 -0.3610 -0.1959 -0.3825
 9217SOL    HW239288   2.899   0.386   7.748  0.3919  0.6539 -1.2462
 9218SOL     OW39289   0.681   0.613  16.488 -0.4043 -0.1525  0.0099
 9218SOL    HW139290   0.699   0.532  16.535 -0.3518 -0.2751 -0.2195
 9218SOL    HW239291   0.749   0.602  16.420 -0.1757 -0.8575  0.3545
 9219SOL     OW39292   1.812   3.083   1.837 -0.1245 -0.0158  0.0632
 9219SOL    HW139293   1.720   3.079   1.865 -0.5816  2.3013 -1.0883
 9219SOL    HW239294   1.808   3.174   1.807  1.1262  0.0450  0.0892
 9220SOL     OW39295   4.280   3.407   6.226 -0.4316 -0.5935  0.0911
 9220SOL    HW139296   4.344   3.352   6.180 -0.0461 -0.7548  0.8231
 9220SOL    HW239297   4.254   3.474   6.162 -1.9314 -0.4554  0.8451
 9221SOL     OW39298   0.395   0.077   8.271 -0.2207 -0.3893  0.2002
 9221SOL    HW139299   0.366   0.165   8.246  0.9430 -0.2584 -0.6936
 9221SOL    HW239300   0.319   0.057   8.326 -0.2338 -1.7615 -0.3121
 9222SOL     OW39301   1.794   0.810   0.394 -0.5909 -0.0802 -0.0977
 9222SOL    HW139302   1.782   0.787   0.486 -0.5594  0.6473  0.0833
 9222SOL    HW239303   1.887   0.834   0.398 -0.3210 -1.0134 -0.6430
 9223SOL     OW39304   4.098   0.604  11.881 -0.4217  0.0972  0.4000
 9223SOL    HW139305   4.043   0.588  11.958 -1.2289 -2.8145 -0.7689
 9223SOL    HW239306   4.075   0.696  11.873  2.2023  0.6626 -0.7244
 9224SOL     OW39307   2.780   1.351   1.042 -0.4325  0.6214  0.1563
 9224SOL    HW139308   2.787   1.332   0.949 -2.7145  0.9933 -0.0935
 9224SOL    HW239309   2.793   1.445   1.033 -1.6498  1.0076  2.3653
 9225SOL     OW39310   4.602   1.561  17.678 -0.1780  0.0044  0.0630
 9225SOL    HW139311   4.670   1.577  17.742  0.2135 -0.7595 -0.1641
 9225SOL    HW239312   4.614   1.641  17.627  0.7945  0.3803  0.8842
 9226SOL     OW39313   3.889   4.258   4.466  0.3364  0.1730 -0.4080
 9226SOL    HW139314   3.908   4.310   4.388  1.3997 -1.1023 -1.0064
 9226SOL    HW239315   3.946   4.182   4.452  1.3307  0.6091  1.3681
 9227SOL     OW39316   1.993   2.055   1.590 -0.0163  0.1548  0.4151
 9227SOL    HW139317   1.903   2.037   1.614 -0.2100  0.2492 -0.2530
 9227SOL    HW239318   2.053   2.034   1.662 -2.5526 -1.9297  1.9161
 9228SOL     OW39319   2.856   4.459   2.157 -0.2948  0.1878 -0.2126
 9228SOL    HW139320   2.926   4.521   2.177  1.0138 -1.2438 -0.4061
 9228SOL    HW239321   2.835   4.420   2.242 -0.7893  0.5981 -0.1434
 9229SOL     OW39322   4.401   0.917   3.997  0.1143 -0.4996  0.3486
 9229SOL    HW139323   4.493   0.909   3.972  0.2259 -3.1317  1.6218
 9229SOL    HW239324   4.400   1.004   4.036 -1.6306 -1.3174  2.1491
 9230SOL     OW39325   2.398   2.826   0.947 -0.1658 -0.1890 -0.1511
 9230SOL    HW139326   2.423   2.864   1.032 -2.5145  3.0070 -0.8850
 9230SOL    HW239327   2.484   2.789   0.926  0.4849 -0.6063  3.1675
 9231SOL     OW39328   2.346   3.642   7.050 -0.1473  0.4834 -0.3624
 9231SOL    HW139329   2.286   3.652   7.124  1.1107 -1.6480  0.9537
 9231SOL    HW239330   2.369   3.732   7.026 -2.4542  1.0360 -0.5437
 9232SOL     OW39331   1.381   2.810   2.094  0.6172 -0.1365  0.5048
 9232SOL    HW139332   1.455   2.771   2.049 -1.4907 -2.4692 -0.9248
 9232SOL    HW239333   1.375   2.753   2.171 -0.1447 -1.5754 -0.6228
 9233SOL     OW39334   2.063   2.427  15.474  0.0073  0.3868  0.0156
 9233SOL    HW139335   2.154   2.449  15.455 -0.1691  1.5599  0.5321
 9233SOL    HW239336   2.040   2.403  15.385  0.3078 -0.2709  0.1110
 9234SOL     OW39337   0.967   0.808   6.819 -0.0985  0.3809  0.2194
 9234SOL    HW139338   1.020   0.822   6.740 -1.1853  0.5180 -0.4873
 9234SOL    HW239339   1.005   0.879   6.871  0.4016  1.1116 -1.1496
 9235SOL     OW39340   2.377   2.654  13.578  0.0843 -0.3403 -0.2363
 9235SOL    HW139341   2.293   2.677  13.618  0.4234  0.9133 -0.2276
 9235SOL    HW239342   2.370   2.698  13.493 -1.2435 -0.0563  0.0308
 9236SOL     OW39343   0.718   4.522   0.788  0.8535  0.0611 -0.0760
 9236SOL    HW139344   0.674   4.572   0.857  0.7156  1.6959 -1.3563
 9236SOL    HW239345   0.650   4.513   0.722 -0.4698  2.1979  1.0152
 9237SOL     OW39346   1.722   1.192   0.860  0.0888  0.2977 -0.0912
 9237SOL    HW139347   1.746   1.147   0.780 -3.4431  1.5971 -1.8761
 9237SOL    HW239348   1.809   1.221   0.889 -0.9180  1.8310  1.4328
 9238SOL     OW39349   4.168   4.672  11.637 -0.0637 -0.0756  0.0956
 9238SOL    HW139350   4.254   4.629  11.642 -1.0923 -1.9409  1.9364
 9238SOL    HW239351   4.117   4.615  11.695  0.3257 -1.5041 -0.9681
 9239SOL     OW39352   0.897   2.376  15.469  0.0444 -0.0454 -0.5017
 9239SOL    HW139353   0.871   2.365  15.561  2.5800  0.4579  0.2576
 9239SOL    HW239354   0.894   2.288  15.432  0.3001  0.0019 -0.6307
 9240SOL     OW39355   1.528   3.841  10.881 -0.6270 -0.3400  0.1219
 9240SOL    HW139356   1.620   3.825  10.902 -1.6400 -3.0048  2.4647
 9240SOL    HW239357   1.488   3.838  10.968  1.5219 -0.4165  1.1219
 9241SOL     OW39358   2.352   0.591   0.082  0.2980  0.0731 -0.3481
 9241SOL    HW139359   2.296   0.640   0.022 -0.0915  0.8612  0.6637
 9241SOL    HW239360   2.423   0.654   0.096  1.0247 -0.9283  0.5997
 9242SOL     OW39361   1.549   3.044   1.847  0.0186  0.5444  0.2143
 9242SOL    HW139362   1.526   3.080   1.762  1.9806 -0.5993 -0.8185
 9242SOL    HW239363   1.470   3.013   1.891 -1.7682  0.3108 -3.1782
 9243SOL     OW39364   0.326   1.996  10.593 -0.1211  0.0779 -1.0387
 9243SOL    HW139365   0.258   1.991  10.526 -0.4376  1.5447 -0.8375
 9243SOL    HW239366   0.300   1.914  10.634  0.5429  0.9153  1.0930
 9244SOL     OW39367   1.799   2.164   5.592  0.8780  0.2178  0.0767
 9244SOL    HW139368   1.787   2.175   5.686 -2.7446 -1.4428 -0.1582
 9244SOL    HW239369   1.892   2.176   5.578  1.1833 -0.4871  1.5340
 9245SOL     OW39370   1.801   0.028   7.637  0.1662  0.4795 -0.8479
 9245SOL    HW139371   1.806   0.120   7.611 -1.4678  2.0534  4.3466
 9245SOL    HW239372   1.716   0.004   7.600 -0.1031 -1.3132  0.8930
 9246SOL     OW39373   1.651   2.430  15.574  0.1750  0.0640  0.1300
 9246SOL    HW139374   1.598   2.510  15.580  1.7211  1.0098  1.4237
 9246SOL    HW239375   1.742   2.463  15.575 -0.0128  0.6247 -1.5092
 9247SOL     OW39376   2.502   4.037   9.052 -1.2202 -0.0429 -0.0306
 9247SOL    HW139377   2.481   3.949   9.020  0.9816 -0.6309  0.1418
 9247SOL    HW239378   2.453   4.030   9.134 -1.1548  3.8624  0.3017
 9248SOL     OW39379   2.101   2.022   8.302  0.3823 -0.0678 -0.1251
 9248SOL    HW139380   2.163   1.967   8.254 -0.5245  0.7873 -2.2705
 9248SOL    HW239381   2.018   1.999   8.260  0.6747  2.2211 -1.9237
 9249SOL     OW39382   2.456   4.166   6.514  0.5729 -0.4854 -0.0421
 9249SOL    HW139383   2.366   4.199   6.523  1.3952  1.2160  1.8232
 9249SOL    HW239384   2.456   4.088   6.570  0.4692 -1.4634 -1.4082
 9250SOL     OW39385   3.745   2.255   6.117 -0.6063  0.2158 -0.2104
 9250SOL    HW139386   3.831   2.289   6.090 -1.7149  1.3005 -2.3742
 9250SOL    HW239387   3.738   2.186   6.051  0.2905  0.2288 -0.3285
 9251SOL     OW39388   1.179   2.302   8.184 -0.5073  0.2053  0.2234
 9251SOL    HW139389   1.105   2.359   8.163  0.7741  1.9136  0.3365
 9251SOL    HW239390   1.194   2.265   8.097  0.3198  0.0120  0.4548
 9252SOL     OW39391   4.732   3.819  10.068  0.1295  1.2148 -0.5271
 9252SOL    HW139392   0.000   3.907  10.106  0.7708 -1.2585  5.1769
 9252SOL    HW239393   4.659   3.830  10.007 -0.2075 -0.7383 -0.4921
 9253SOL     OW39394   3.395   4.019  13.353 -0.1490  0.7740 -0.0419
 9253SOL    HW139395   3.362   3.965  13.425  0.8654  1.4059  0.9054
 9253SOL    HW239396   3.353   3.980  13.277 -1.0226 -0.2474  0.9805
 9254SOL     OW39397   0.963   0.820   8.893 -0.0699 -0.1053 -0.3378
 9254SOL    HW139398   1.014   0.881   8.840 -1.7388  1.7607  0.2084
 9254SOL    HW239399   0.959   0.759   8.820  0.1772 -0.4009 -0.1060
 9255SOL     OW39400   1.721   2.766  16.947  0.3597  0.2657  0.3214
 9255SOL    HW139401   1.656   2.754  16.878  0.6548  1.5598 -0.1688
 9255SOL    HW239402   1.668   2.737  17.022 -1.5562  0.4552 -0.9536
 9256SOL     OW39403   4.303   4.459   4.626 -0.9137 -0.2381  0.0355
 9256SOL    HW139404   4.259   4.397   4.568 -1.3791 -0.1780  0.3211
 9256SOL    HW239405   4.285   4.544   4.586  1.9515 -0.0242 -0.8346
 9257SOL     OW39406   0.049   4.670  14.739 -0.6136  0.1123  0.3392
 9257SOL    HW139407   0.015   4.610  14.805  1.9608  0.2240  1.7426
 9257SOL    HW239408   0.080   0.003  14.796  0.7948 -0.4336  0.2389
 9258SOL     OW39409   1.610   0.944   5.890 -0.2802 -0.1636  0.0767
 9258SOL    HW139410   1.529   0.938   5.840 -0.0532 -2.0481 -0.0401
 9258SOL    HW239411   1.610   0.876   5.957  2.4621 -1.3805 -1.1652
 9259SOL     OW39412   1.089   3.648   9.760  0.0154 -0.0620  0.5661
 9259SOL    HW139413   1.116   3.734   9.727 -0.3584  0.0873  0.6446
 9259SOL    HW239414   1.166   3.623   9.811  0.3285 -0.8186 -0.2610
 9260SOL     OW39415   1.020   1.888   9.209  0.7710 -0.0899  0.1742
 9260SOL    HW139416   0.971   1.900   9.127  1.0560 -1.4529 -0.2016
 9260SOL    HW239417   1.078   1.964   9.201  1.4298 -0.5197  0.9311
 9261SOL     OW39418   1.941   0.883   7.278  0.1022 -0.1971 -1.0364
 9261SOL    HW139419   2.024   0.880   7.230  1.2278 -0.9403  0.9342
 9261SOL    HW239420   1.899   0.952   7.226  1.4513  2.7802  1.7909
 9262SOL     OW39421   4.031   1.544   2.287 -0.0824 -0.2029  0.3225
 9262SOL    HW139422   4.123   1.545   2.258 -0.1548 -2.8832 -0.0215
 9262SOL    HW239423   3.986   1.491   2.221 -0.4077  1.0397 -0.4324
 9263SOL     OW39424   1.623   2.886   7.010 -0.4989  0.0757  0.4546
 9263SOL    HW139425   1.704   2.872   7.059  0.0995 -1.5150 -0.9856
 9263SOL    HW239426   1.619   2.798   6.972  1.6680 -0.0750  0.5485
 9264SOL     OW39427   2.510   3.547   1.992  0.0137 -0.1589  0.0645
 9264SOL    HW139428   2.505   3.627   2.045  1.0120 -0.8215  1.1441
 9264SOL    HW239429   2.582   3.496   2.028  0.7051 -0.5231 -1.8265
 9265SOL     OW39430   4.336   4.490   1.643 -0.1135 -0.0965 -0.2869
 9265SOL    HW139431   4.431   4.498   1.647  0.0674 -1.5347 -1.8492
 9265SOL    HW239432   4.313   4.545   1.568 -1.4173 -1.0351 -0.5666
 9266SOL     OW39433   3.783   0.269   5.749 -0.0824 -0.7765 -0.4529
 9266SOL    HW139434   3.692   0.241   5.757  0.6424 -1.8054  4.5002
 9266SOL    HW239435   3.797   0.256   5.655  1.4983  3.5566 -0.8205
 9267SOL     OW39436   0.336   4.373   5.901 -0.2738  0.2640 -0.4376
 9267SOL    HW139437   0.287   4.403   5.825 -3.2326  0.4373  1.5478
 9267SOL    HW239438   0.306   4.437   5.966 -0.8924 -0.2939 -0.1813
 9268SOL     OW39439   3.231   4.621   1.113 -0.2747 -0.1898 -0.2389
 9268SOL    HW139440   3.272   4.577   1.188  0.5170  0.4175 -0.3099
 9268SOL    HW239441   3.253   4.550   1.052 -0.2178 -0.7954  0.4775
 9269SOL     OW39442   1.380   4.542   9.264 -0.0088 -0.1279 -0.2376
 9269SOL    HW139443   1.353   4.621   9.310 -0.8474 -0.3652 -0.3082
 9269SOL    HW239444   1.466   4.527   9.302  0.0063 -0.5800 -0.4537
 9270SOL     OW39445   4.131   3.614   3.635 -0.0709  0.2684  0.0042
 9270SOL    HW139446   4.166   3.667   3.563 -0.4026 -0.1962 -0.5050
 9270SOL    HW239447   4.199   3.628   3.701  0.2216  1.3273 -0.5145
 9271SOL     OW39448   0.369   2.704   2.047  0.9479  0.5482 -0.0237
 9271SOL    HW139449   0.439   2.697   2.111  1.5103  0.8337 -0.6008
 9271SOL    HW239450   0.313   2.774   2.083 -2.5143 -1.7755 -0.8766
 9272SOL     OW39451   1.171   3.498   9.067 -0.2545 -0.2273  0.7910
 9272SOL    HW139452   1.199   3.407   9.056  0.0150 -0.0622  0.0675
 9272SOL    HW239453   1.109   3.498   9.139 -0.6669 -1.3269  0.4393
 9273SOL     OW39454   0.827   3.283   8.105 -0.4070  0.3112 -0.8887
 9273SOL    HW139455   0.854   3.374   8.113 -0.1930  0.2304 -0.6837
 9273SOL    HW239456   0.811   3.280   8.011  1.5561  3.0005 -1.3076
 9274SOL     OW39457   1.792   2.767  12.583 -0.4895  0.4384 -0.3511
 9274SOL    HW139458   1.747   2.725  12.656  0.6441 -1.0284 -0.4957
 9274SOL    HW239459   1.729   2.828  12.544  0.0661  1.7966  0.8852
 9275SOL     OW39460   3.876   4.153   6.576 -0.0853  0.0494 -0.4782
 9275SOL    HW139461   3.908   4.082   6.633 -2.5140  0.1947  1.0550
 9275SOL    HW239462   3.952   4.160   6.518  0.7901 -1.7917  0.4168
 9276SOL     OW39463   1.974   0.930   7.986  0.7555  0.1911  0.8003
 9276SOL    HW139464   2.053   0.981   7.966  1.3651 -0.7301  0.8756
 9276SOL    HW239465   2.000   0.885   8.066 -0.7750 -0.7963  0.7567
 9277SOL     OW39466   1.601   3.962   8.559 -0.3660 -0.4948  0.3666
 9277SOL    HW139467   1.599   3.939   8.652 -0.0028  1.0277  0.7590
 9277SOL    HW239468   1.676   4.022   8.558 -0.8633  0.0936 -2.0881
 9278SOL     OW39469   1.042   2.907  14.799 -0.2030 -0.7248  0.0444
 9278SOL    HW139470   1.045   2.960  14.719 -1.0468  0.4838  0.8167
 9278SOL    HW239471   1.114   2.847  14.777 -0.5705 -0.6889 -1.2718
 9279SOL     OW39472   1.971   1.678   0.410 -0.2222  0.0834  0.0374
 9279SOL    HW139473   2.064   1.664   0.394 -0.3528  0.0540 -0.6687
 9279SOL    HW239474   1.930   1.592   0.409  1.2354 -0.6394  2.3801
 9280SOL     OW39475   2.931   3.316   4.892  0.2937  0.1932  0.2822
 9280SOL    HW139476   3.010   3.309   4.839 -1.2503 -1.1005 -1.8496
 9280SOL    HW239477   2.973   3.383   4.945  1.0042 -0.0806  0.0607
 9281SOL     OW39478   2.868   3.851   5.639 -0.6697 -0.8612  0.5621
 9281SOL    HW139479   2.880   3.775   5.583 -2.0878 -1.8713  1.6442
 9281SOL    HW239480   2.808   3.909   5.593  0.4635 -0.5916 -0.5865
 9282SOL     OW39481   0.592   3.113   9.392  0.1443 -0.5364  0.3413
 9282SOL    HW139482   0.626   3.152   9.473  2.2567 -0.4434 -0.5900
 9282SOL    HW239483   0.519   3.071   9.439  0.2780 -1.9538 -0.7316
 9283SOL     OW39484   0.158   3.178   3.196  0.5964 -0.0382  0.0433
 9283SOL    HW139485   0.191   3.158   3.108  0.3802  0.0632 -0.0605
 9283SOL    HW239486   0.193   3.265   3.214 -3.5564  1.0747  2.6341
 9284SOL     OW39487   3.391   1.851   4.056  0.5006  0.4720 -0.2346
 9284SOL    HW139488   3.470   1.899   4.079  0.1138  1.4331 -0.8948
 9284SOL    HW239489   3.314   1.907   4.070 -1.7752 -2.7404  0.2532
 9285SOL     OW39490   0.270   4.052   4.364  0.3580 -0.4670 -0.0412
 9285SOL    HW139491   0.280   4.066   4.458  2.1379  0.8782 -0.4374
 9285SOL    HW239492   0.342   3.993   4.341  0.0822 -0.4075 -1.0468
 9286SOL     OW39493   1.442   4.507   3.050  0.4211  0.3459 -0.2622
 9286SOL    HW139494   1.350   4.485   3.060  1.1608 -1.7193  1.9504
 9286SOL    HW239495   1.430   4.602   3.044  1.8019  0.5768  0.5843
 9287SOL     OW39496   3.324   1.910   2.363  0.5830 -0.2607  0.0056
 9287SOL    HW139497   3.307   1.912   2.269  2.5448  0.4514 -0.3521
 9287SOL    HW239498   3.383   1.834   2.366  0.5379 -0.3352 -1.1316
 9288SOL     OW39499   1.357   3.964   2.185  0.0597 -0.2536 -0.3129
 9288SOL    HW139500   1.356   3.868   2.180  2.0491 -0.2331 -1.1078
 9288SOL    HW239501   1.265   3.987   2.174  0.5029  1.5529 -0.1055
 9289SOL     OW39502   2.567   0.199   3.209 -0.2281 -0.2455  0.3555
 9289SOL    HW139503   2.561   0.164   3.298  0.4812 -0.8257  0.1726
 9289SOL    HW239504   2.660   0.181   3.195 -0.3628  0.9656 -2.0068
 9290SOL     OW39505   3.448   4.235  11.014  0.5578 -0.1655 -0.2104
 9290SOL    HW139506   3.514   4.220  11.082  0.8240  0.5860 -0.2998
 9290SOL    HW239507   3.436   4.330  11.024 -0.0977 -0.3202  0.3868
 9291SOL     OW39508   1.368   3.814  12.632 -0.4182 -0.0463 -0.2192
 9291SOL    HW139509   1.395   3.723  12.614 -0.6196 -0.7850  3.3486
 9291SOL    HW239510   1.301   3.825  12.565 -1.3624  0.8697  0.8856
 9292SOL     OW39511   3.547   0.051  10.060  0.5744 -0.3816 -0.1524
 9292SOL    HW139512   3.590   0.136  10.051  0.9745 -0.6609 -0.8734
 9292SOL    HW239513   3.592   0.014   9.984 -1.5881  2.3001 -2.7449
 9293SOL     OW39514   2.637   1.172   4.214 -0.0181  0.1627 -0.1105
 9293SOL    HW139515   2.632   1.141   4.124 -0.1010  0.8480 -0.3363
 9293SOL    HW239516   2.683   1.096   4.250  0.5414  1.0821  1.1254
 9294SOL     OW39517   4.086   3.267   3.492  0.2572  0.3299  0.3605
 9294SOL    HW139518   4.077   3.296   3.582  1.9415 -0.1604  0.6838
 9294SOL    HW239519   4.027   3.192   3.488  0.5095  0.1482  0.0723
 9295SOL     OW39520   4.604   0.345  15.132  0.2982  0.0250 -0.2980
 9295SOL    HW139521   4.656   0.316  15.207 -0.1609 -1.3542 -0.5012
 9295SOL    HW239522   4.573   0.429  15.165 -1.1560 -0.7948  0.4163
 9296SOL     OW39523   1.674   2.997   0.974 -0.1496  0.5158 -0.3252
 9296SOL    HW139524   1.754   2.945   0.973  0.3732  1.3100 -0.1881
 9296SOL    HW239525   1.606   2.930   0.974 -0.5335  0.9030  0.1014
 9297SOL     OW39526   0.697   4.026   8.493 -0.1169 -0.2923 -0.4166
 9297SOL    HW139527   0.684   4.016   8.587  0.2465 -0.2724 -0.3654
 9297SOL    HW239528   0.766   4.092   8.486  1.2922 -1.4605  2.1211
 9298SOL     OW39529   4.021   2.392   1.881  0.5530 -0.1331 -0.4297
 9298SOL    HW139530   3.948   2.396   1.943  1.6529 -0.6903  0.8961
 9298SOL    HW239531   3.997   2.319   1.824  0.7864  0.4064 -1.2060
 9299SOL     OW39532   1.159   1.384   0.857 -0.1768 -0.2124 -0.8859
 9299SOL    HW139533   1.104   1.330   0.915 -1.3291  3.9049  1.8476
 9299SOL    HW239534   1.109   1.459   0.825 -0.7602 -0.6496 -1.0041
 9300SOL     OW39535   3.600   3.105   7.213 -0.3141  0.7231 -0.3284
 9300SOL    HW139536   3.564   3.109   7.302 -0.4885 -3.0050 -0.2172
 9300SOL    HW239537   3.674   3.056   7.250  0.6511  1.8267 -0.7895
 9301SOL     OW39538   0.673   1.638   1.836  0.4542 -0.3300  0.3857
 9301SOL    HW139539   0.649   1.724   1.872 -1.1450 -0.9025  0.6589
 9301SOL    HW239540   0.713   1.674   1.757 -0.4170  1.7180  0.8805
 9302SOL     OW39541   3.926   1.371  17.711 -0.5189 -0.4815 -0.2979
 9302SOL    HW139542   4.017   1.355  17.736 -0.0806  0.1403 -1.4932
 9302SOL    HW239543   3.935   1.389  17.618  1.9921 -0.4014 -0.0522
 9303SOL     OW39544   4.069   0.008  15.192 -0.6091  0.0797  0.1167
 9303SOL    HW139545   4.112   4.712  15.270 -1.7150  0.1319  0.7470
 9303SOL    HW239546   4.040   0.096  15.219 -1.6534 -0.1478 -0.2593
 9304SOL     OW39547   1.342   1.350   5.973  0.0123 -0.3890  0.0941
 9304SOL    HW139548   1.332   1.446   5.974 -2.2714 -0.6066 -0.4832
 9304SOL    HW239549   1.426   1.346   6.018 -0.0276 -0.8687  0.1235
 9305SOL     OW39550   0.767   2.815  17.181 -0.4732 -0.1167 -0.3245
 9305SOL    HW139551   0.699   2.799  17.116 -0.0304 -0.7021 -0.6418
 9305SOL    HW239552   0.741   2.758  17.254 -0.7567  0.1397 -0.2221
 9306SOL     OW39553   4.512   2.401  17.044 -0.0676  0.2920 -0.2576
 9306SOL    HW139554   4.586   2.362  17.090 -0.3963 -1.6562 -1.3633
 9306SOL    HW239555   4.479   2.327  16.993 -0.4727  0.7143 -0.6198
 9307SOL     OW39556   3.242   0.361   6.919 -0.1390 -0.1385 -0.0039
 9307SOL    HW139557   3.172   0.301   6.893  1.0881 -1.0109 -1.2495
 9307SOL    HW239558   3.319   0.310   6.894 -1.2277 -0.7517 -2.0957
 9308SOL     OW39559   1.827   4.134  16.985  0.3789  0.7766  0.1717
 9308SOL    HW139560   1.849   4.225  17.006  2.8036  0.2129  0.0839
 9308SOL    HW239561   1.776   4.105  17.061 -0.0434 -3.9012 -1.8968
 9309SOL     OW39562   0.122   4.118   2.684  0.1603  0.4361 -0.6611
 9309SOL    HW139563   0.156   4.152   2.601  2.0777 -0.7714 -0.3716
 9309SOL    HW239564   0.044   4.091   2.637 -0.1338  0.4477 -0.1728
 9310SOL     OW39565   1.819   3.019   6.698 -0.2598  0.2680  0.3429
 9310SOL    HW139566   1.739   3.049   6.741 -1.0659  1.0751 -1.7064
 9310SOL    HW239567   1.779   2.946   6.650 -0.2723 -0.1975  1.0641
 9311SOL     OW39568   2.333   1.635   1.606  0.0429 -0.8741  0.3588
 9311SOL    HW139569   2.423   1.655   1.580 -0.0373 -1.1859 -0.1595
 9311SOL    HW239570   2.286   1.650   1.524 -1.0344  0.7644  1.2620
 9312SOL     OW39571   1.558   3.275   3.958 -0.2040  0.6578  0.3093
 9312SOL    HW139572   1.538   3.291   4.050 -1.0153 -3.6301  0.8879
 9312SOL    HW239573   1.557   3.179   3.957  0.6014  0.6816 -2.6476
 9313SOL     OW39574   1.305   1.453   5.077 -0.4441  0.2435 -0.2810
 9313SOL    HW139575   1.298   1.490   5.165 -0.4176 -0.2561 -0.0687
 9313SOL    HW239576   1.238   1.385   5.069  0.7433 -0.7208 -2.2066
 9314SOL     OW39577   2.961   0.663   3.016 -0.6061  0.2330  0.4125
 9314SOL    HW139578   3.026   0.603   3.053 -1.7263 -1.1334  0.2032
 9314SOL    HW239579   2.958   0.740   3.074 -2.0817  0.8177 -0.4455
 9315SOL     OW39580   3.941   1.415   7.525 -0.1624 -0.0792  0.3804
 9315SOL    HW139581   3.921   1.377   7.440 -0.9294 -0.3237  0.6724
 9315SOL    HW239582   3.854   1.450   7.544  0.9424  3.1462 -0.4153
 9316SOL     OW39583   2.706   3.629   3.954  0.2465  0.0249  0.1279
 9316SOL    HW139584   2.723   3.538   3.977  2.9606  0.0628 -1.8061
 9316SOL    HW239585   2.621   3.651   3.993  1.3621  1.5675  1.7174
 9317SOL     OW39586   0.769   3.319   5.319  0.4558 -0.0959 -0.5898
 9317SOL    HW139587   0.703   3.327   5.388  0.1470  0.8398 -1.0006
 9317SOL    HW239588   0.783   3.404   5.278  0.9663  0.6356  1.1151
 9318SOL     OW39589   0.299   4.169   0.700 -0.5170 -0.6274  0.1625
 9318SOL    HW139590   0.378   4.192   0.750 -0.4519 -0.1925 -0.1353
 9318SOL    HW239591   0.258   4.108   0.761  1.7370 -0.4623  1.8422
 9319SOL     OW39592   1.164   4.169   4.595 -0.0858  0.2457  0.4901
 9319SOL    HW139593   1.144   4.231   4.665 -0.6831  0.4224  0.1609
 9319SOL    HW239594   1.257   4.189   4.580 -0.1253  0.1567  0.1087
 9320SOL     OW39595   0.096   4.366   6.969  0.0989 -0.5432  0.4897
 9320SOL    HW139596   0.040   4.431   7.012 -0.2156  1.0752 -2.3927
 9320SOL    HW239597   0.127   4.305   7.036  0.0946 -1.4202 -0.3098
 9321SOL     OW39598   2.754   3.047   2.961 -0.3645  0.0785 -0.0590
 9321SOL    HW139599   2.682   3.078   3.017 -0.9529 -2.4389  0.5623
 9321SOL    HW239600   2.819   3.106   3.002 -0.7459 -0.5521  1.4536
 9322SOL     OW39601   3.306   1.680   3.309  0.6834 -0.2695  0.1408
 9322SOL    HW139602   3.383   1.624   3.303  0.3225 -0.6389 -1.0788
 9322SOL    HW239603   3.247   1.653   3.239  0.5875  0.1974  0.0376
 9323SOL     OW39604   1.748   4.177  12.185 -0.3300 -0.1837  0.1427
 9323SOL    HW139605   1.766   4.093  12.143 -1.2457 -1.8353  3.0427
 9323SOL    HW239606   1.793   4.236  12.125 -0.2580 -0.7378 -0.3479
 9324SOL     OW39607   4.135   1.960   7.363 -0.0948  0.2127  0.1171
 9324SOL    HW139608   4.218   1.960   7.412 -0.5142  0.3340  0.8401
 9324SOL    HW239609   4.099   2.049   7.369 -1.2230 -0.2947  0.7143
 9325SOL     OW39610   0.528   2.736   8.041  0.0245 -0.6038  0.4482
 9325SOL    HW139611   0.527   2.721   8.136 -1.7001  0.5391  0.6077
 9325SOL    HW239612   0.535   2.831   8.031 -1.3384 -0.4997  0.3649
 9326SOL     OW39613   2.160   1.375   4.385 -0.0553 -0.7664 -0.2863
 9326SOL    HW139614   2.102   1.322   4.440  1.6529 -0.3104  1.9048
 9326SOL    HW239615   2.220   1.311   4.345  0.2937  0.2002 -1.3133
 9327SOL     OW39616   3.197   1.217   8.206  0.6120 -0.3017  0.3030
 9327SOL    HW139617   3.219   1.289   8.146 -0.1701  0.4035  0.8744
 9327SOL    HW239618   3.102   1.214   8.196  0.4609  0.2293  1.6712
 9328SOL     OW39619   0.663   1.456  12.638 -0.0688 -0.0509 -0.1327
 9328SOL    HW139620   0.685   1.453  12.731  0.0694 -1.2949 -0.2061
 9328SOL    HW239621   0.568   1.443  12.637  0.0561 -1.1610  3.2209
 9329SOL     OW39622   2.505   3.483   7.270  0.2047  0.0189 -0.0045
 9329SOL    HW139623   2.600   3.474   7.283  0.5956 -0.1087 -2.9146
 9329SOL    HW239624   2.507   3.540   7.193  2.1084 -0.9325 -0.6660
 9330SOL     OW39625   1.491   2.594   1.909  0.0083 -0.5484  0.0142
 9330SOL    HW139626   1.565   2.600   1.970 -1.7112  1.5771  1.9075
 9330SOL    HW239627   1.508   2.664   1.847 -0.8326  0.4041  0.8571
 9331SOL     OW39628   3.312   3.163   6.614  0.3250 -0.3210  0.3821
 9331SOL    HW139629   3.378   3.188   6.678 -0.7271  0.4934  1.1535
 9331SOL    HW239630   3.336   3.075   6.583 -1.0483 -0.0203 -1.5350
 9332SOL     OW39631   0.536   3.094   4.298  0.0365 -0.2817 -0.2276
 9332SOL    HW139632   0.556   3.036   4.224 -0.4046  0.5161 -0.9810
 9332SOL    HW239633   0.582   3.065   4.376  0.2374 -0.3052 -0.3540
 9333SOL     OW39634   4.160   3.908  11.237  0.2883  0.5510  0.0032
 9333SOL    HW139635   4.121   3.928  11.322 -1.5706  0.0889 -0.7465
 9333SOL    HW239636   4.165   3.813  11.246 -0.7856  0.4149 -0.9102
 9334SOL     OW39637   0.205   2.661   5.239  0.9198  0.5348 -0.0803
 9334SOL    HW139638   0.110   2.664   5.226  0.8971  0.9013  0.1782
 9334SOL    HW239639   0.235   2.615   5.161 -2.1976  1.5640 -1.8667
 9335SOL     OW39640   3.494   3.972   9.872 -0.0846 -0.6641 -0.1414
 9335SOL    HW139641   3.517   3.979   9.965 -3.1292 -0.0125  0.5460
 9335SOL    HW239642   3.442   3.892   9.869  0.2536 -0.9374  0.9793
 9336SOL     OW39643   1.711   1.167   5.993  0.7504  0.5311 -0.0859
 9336SOL    HW139644   1.658   1.162   6.073  2.1770 -0.9461  0.7697
 9336SOL    HW239645   1.684   1.091   5.942 -1.8394  0.1917  1.7761
 9337SOL     OW39646   0.423   2.957  10.490  0.2384  0.2029  0.0397
 9337SOL    HW139647   0.443   2.905  10.568  1.4028  2.4781  1.2657
 9337SOL    HW239648   0.329   2.967  10.498  0.1529  0.4285 -1.2294
 9338SOL     OW39649   3.937   3.981  10.213 -0.3181 -0.1309 -0.5093
 9338SOL    HW139650   4.006   3.954  10.152 -0.6935 -1.6734 -0.2610
 9338SOL    HW239651   3.893   3.896  10.219 -0.0823 -0.4646 -3.2607
 9339SOL     OW39652   1.986   3.820  14.735  0.1433  0.7266  0.2421
 9339SOL    HW139653   1.982   3.744  14.794  1.8107  1.0256  0.7358
 9339SOL    HW239654   2.065   3.862  14.770  0.8987 -0.3385 -0.1926
 9340SOL     OW39655   1.779   3.044  10.795  0.0439 -0.3862  0.2717
 9340SOL    HW139656   1.765   3.103  10.869 -1.9889 -1.7027  0.9192
 9340SOL    HW239657   1.821   2.966  10.831 -1.0727 -1.9154 -1.6895
 9341SOL     OW39658   4.002   3.635  15.310 -0.1902 -0.1629 -0.4091
 9341SOL    HW139659   3.998   3.671  15.399 -0.6673  2.1922 -1.3632
 9341SOL    HW239660   4.043   3.708  15.264 -0.9492  0.4284 -0.1602
 9342SOL     OW39661   4.291   0.294   5.678 -0.5729  0.1992 -0.4478
 9342SOL    HW139662   4.279   0.266   5.587 -0.1910 -0.0637 -0.4191
 9342SOL    HW239663   4.384   0.315   5.684 -0.6132 -0.1687  1.3517
 9343SOL     OW39664   2.120   1.765   7.654 -0.3137  0.6948 -0.1282
 9343SOL    HW139665   2.208   1.770   7.691 -0.1280 -1.2936 -0.3241
 9343SOL    HW239666   2.137   1.775   7.560  2.1291 -0.1034  0.2151
 9344SOL     OW39667   2.441   3.912   6.909 -0.0148  0.4646 -0.1616
 9344SOL    HW139668   2.415   3.964   6.985 -0.1687 -0.1311  0.1828
 9344SOL    HW239669   2.535   3.908   6.924 -0.1387 -0.0432  0.4410
 9345SOL     OW39670   1.859   0.689   4.437  0.2869 -0.7496 -0.4377
 9345SOL    HW139671   1.818   0.755   4.382 -0.8552 -1.4350 -0.4197
 9345SOL    HW239672   1.827   0.610   4.392 -0.7199  0.4558 -1.8030
 9346SOL     OW39673   0.166   1.721   5.881 -0.0525 -0.1564 -0.4736
 9346SOL    HW139674   0.201   1.646   5.833  1.8796  1.0125 -0.8685
 9346SOL    HW239675   0.123   1.777   5.816 -0.7425 -0.5477 -0.3578
 9347SOL     OW39676   3.480   1.371   6.519 -0.5740  0.6190 -0.1051
 9347SOL    HW139677   3.392   1.351   6.552 -0.6270  1.0173 -0.0001
 9347SOL    HW239678   3.534   1.380   6.598 -1.0019 -0.5255  0.3086
 9348SOL     OW39679   3.411   4.289   5.568  0.5608  0.1307  0.1643
 9348SOL    HW139680   3.392   4.376   5.532  0.1732  1.0530  2.5883
 9348SOL    HW239681   3.366   4.229   5.510 -0.0668  1.3040 -0.5700
 9349SOL     OW39682   1.356   0.586   8.884  0.4201 -0.4869 -0.1491
 9349SOL    HW139683   1.267   0.566   8.856  0.4144 -2.9227  1.6412
 9349SOL    HW239684   1.389   0.504   8.920  1.2448 -0.1907 -0.2384
 9350SOL     OW39685   3.281   0.090  13.189  0.2079  0.6214  0.0282
 9350SOL    HW139686   3.191   0.113  13.215 -0.8064 -0.7373 -2.2236
 9350SOL    HW239687   3.268   0.021  13.124 -1.3900 -0.8834  1.9326
 9351SOL     OW39688   4.361   1.432   0.033 -0.0829  0.5199  0.1651
 9351SOL    HW139689   4.432   1.477  17.734  0.4154  0.3316  0.7767
 9351SOL    HW239690   4.373   1.449   0.127 -2.1361 -0.5369  0.6146
 9352SOL     OW39691   3.909   4.632  17.100 -0.3611 -0.5065  0.3444
 9352SOL    HW139692   3.966   4.633  17.023  0.4697 -1.3812  0.9519
 9352SOL    HW239693   3.836   4.686  17.069  2.2487  2.1613 -1.1555
 9353SOL     OW39694   2.195   1.587   3.239  0.6285 -0.3315  0.2969
 9353SOL    HW139695   2.271   1.551   3.193  0.1187  0.1519 -0.9289
 9353SOL    HW239696   2.251   1.636   3.299  0.9352  0.9888 -1.0634
 9354SOL     OW39697   4.045   1.674   4.590 -0.0683  0.0272 -0.3404
 9354SOL    HW139698   4.034   1.723   4.672 -4.5880 -2.8457  0.7428
 9354SOL    HW239699   3.989   1.598   4.604 -2.8215  1.6512 -2.6176
 9355SOL     OW39700   3.098   1.011  13.568  0.9245  0.1853 -0.4497
 9355SOL    HW139701   3.174   1.000  13.625  2.9484  3.2741 -2.5293
 9355SOL    HW239702   3.031   1.047  13.626  0.5058 -0.3731 -0.5886
 9356SOL     OW39703   1.643   3.704   3.952 -0.6412 -0.0146 -0.3588
 9356SOL    HW139704   1.736   3.701   3.927 -0.6603 -1.2622 -0.2729
 9356SOL    HW239705   1.596   3.690   3.870 -0.5545 -0.3095 -0.3579
 9357SOL     OW39706   0.087   2.159   7.236 -0.4232  0.3264  0.1813
 9357SOL    HW139707   0.162   2.102   7.255  0.4897  1.3333 -0.3913
 9357SOL    HW239708   0.140   2.218   7.182 -1.7829  0.0048 -1.5252
 9358SOL     OW39709   1.798   4.417   0.923  0.6927  0.1651 -0.1053
 9358SOL    HW139710   1.844   4.501   0.918  0.0794  0.5557  0.8390
 9358SOL    HW239711   1.845   4.384   0.999 -1.8263  0.0465  1.4122
 9359SOL     OW39712   1.250   3.327   0.265  0.6010 -0.6407  0.4692
 9359SOL    HW139713   1.333   3.369   0.289  0.1366 -1.1796  3.0995
 9359SOL    HW239714   1.221   3.375   0.188  1.8111 -1.7450 -0.6668
 9360SOL     OW39715   2.175   3.495  16.685  0.7370 -0.3665  0.1305
 9360SOL    HW139716   2.208   3.560  16.748 -0.9824 -2.0510  2.7246
 9360SOL    HW239717   2.083   3.482  16.706  0.4885  0.8029 -0.2300
 9361SOL     OW39718   4.618   4.358  11.226 -0.0661 -0.4371 -0.4813
 9361SOL    HW139719   4.562   4.427  11.261 -0.8979 -2.9159  3.1083
 9361SOL    HW239720   4.550   4.299  11.190 -1.2758  1.7965 -1.8749
 9362SOL     OW39721   2.922   3.009   3.747 -0.5225 -0.2674  0.3680
 9362SOL    HW139722   2.982   2.987   3.675 -1.1160  0.8830 -0.4930
 9362SOL    HW239723   2.926   2.939   3.812 -0.8270 -0.0247  0.6438
 9363SOL     OW39724   1.001   4.727   5.264 -0.6208  0.1134 -0.5714
 9363SOL    HW139725   1.040   0.056   5.208 -2.0514  1.6759  0.2441
 9363SOL    HW239726   1.064   4.737   5.336  1.7343  0.7984 -2.7467
 9364SOL     OW39727   3.589   0.711   2.917  0.1669 -0.0884  0.6861
 9364SOL    HW139728   3.642   0.656   2.860  0.3914  1.2128 -0.3720
 9364SOL    HW239729   3.499   0.695   2.889  0.6092 -2.2709  0.5319
 9365SOL     OW39730   3.815   1.943   2.488 -0.3603  0.0323  0.2129
 9365SOL    HW139731   3.731   1.924   2.445  0.5780  0.0376 -1.6352
 9365SOL    HW239732   3.856   2.000   2.422  1.1775 -0.7284  0.5103
 9366SOL     OW39733   3.921   2.980   3.337  0.0185 -0.5199 -0.2913
 9366SOL    HW139734   3.914   2.888   3.311  1.9933 -0.8242  0.2856
 9366SOL    HW239735   3.892   3.029   3.261 -0.3633  0.3821  0.4384
 9367SOL     OW39736   1.980   1.538  12.087 -0.1920  0.1614 -0.2909
 9367SOL    HW139737   1.936   1.516  12.170  0.9974  0.2857  0.3743
 9367SOL    HW239738   2.072   1.529  12.115 -0.9866 -0.0742  2.3020
 9368SOL     OW39739   1.912   4.213   8.235 -0.3515  0.0331  0.1786
 9368SOL    HW139740   1.985   4.152   8.248  1.4664  2.4453  1.1191
 9368SOL    HW239741   1.844   4.151   8.207  1.0594 -1.3593 -0.1906
 9369SOL     OW39742   3.373   1.816   6.040 -0.5214  0.6466  0.6386
 9369SOL    HW139743   3.443   1.839   5.978 -0.3597  2.7585  1.6082
 9369SOL    HW239744   3.386   1.876   6.113  3.2795  2.2211 -1.3106
 9370SOL     OW39745   0.253   0.403   1.830  0.1318 -0.5128 -0.1327
 9370SOL    HW139746   0.306   0.457   1.771 -0.8394  1.0192  0.3817
 9370SOL    HW239747   0.244   0.453   1.912 -0.8014  1.6528 -1.5576
 9371SOL     OW39748   0.948   3.706   5.552 -0.6218 -0.2257 -0.3051
 9371SOL    HW139749   0.914   3.641   5.614  2.9824  0.7229  2.6596
 9371SOL    HW239750   0.919   3.673   5.467 -1.2562  1.7277 -0.8343
 9372SOL     OW39751   4.118   4.652   8.044  0.1296 -0.4290 -0.0283
 9372SOL    HW139752   4.152   4.581   7.989  0.9627  0.5600 -0.7803
 9372SOL    HW239753   4.195   4.686   8.089  0.6366 -3.3889  1.3707
 9373SOL     OW39754   3.889   3.111   8.513  0.2213 -0.5191 -0.2718
 9373SOL    HW139755   3.867   3.042   8.575  2.0738  1.0315  2.0815
 9373SOL    HW239756   3.885   3.073   8.425  2.0517 -0.9503 -0.1686
 9374SOL     OW39757   2.855   1.405   5.414  0.2465 -0.4060 -0.3440
 9374SOL    HW139758   2.846   1.498   5.434  1.4276 -0.8648  2.2954
 9374SOL    HW239759   2.823   1.379   5.500 -1.1021  3.4156  0.3149
 9375SOL     OW39760   1.153   1.933   7.327 -0.6444 -0.0567  0.4599
 9375SOL    HW139761   1.229   1.902   7.277 -0.5013  1.1889 -0.0798
 9375SOL    HW239762   1.100   1.854   7.341 -2.0061  0.3207 -2.4634
 9376SOL     OW39763   1.708   1.567   2.832 -0.1543  0.1247 -0.1166
 9376SOL    HW139764   1.672   1.655   2.844 -2.3225 -0.8684  0.7284
 9376SOL    HW239765   1.736   1.583   2.742 -0.7847  2.1454  0.0383
 9377SOL     OW39766   3.847   2.410   8.181  0.3924 -0.6919 -0.0715
 9377SOL    HW139767   3.826   2.347   8.111  3.1890 -0.9976 -0.6480
 9377SOL    HW239768   3.797   2.355   8.242  0.4498 -1.1607 -0.4420
 9378SOL     OW39769   0.586   3.207   1.833  0.5454  0.0008 -0.2280
 9378SOL    HW139770   0.545   3.120   1.834  0.8411 -0.1319  0.4938
 9378SOL    HW239771   0.620   3.212   1.744  0.7484  1.3891 -0.0733
 9379SOL     OW39772   2.720   1.874   7.102 -0.5283  0.3389 -0.6133
 9379SOL    HW139773   2.758   1.898   7.186 -4.1092 -1.2920  1.4240
 9379SOL    HW239774   2.692   1.784   7.120  0.8079 -0.2356 -1.3235
 9380SOL     OW39775   1.331   1.845  15.561  0.0214 -0.4566  0.2171
 9380SOL    HW139776   1.278   1.773  15.596 -0.2955 -1.1475 -1.6406
 9380SOL    HW239777   1.418   1.813  15.584 -0.7061 -1.3006  1.7745
 9381SOL     OW39778   1.591   3.837   8.825  0.0381 -0.3497  0.4405
 9381SOL    HW139779   1.543   3.770   8.874 -3.2457  0.6120 -1.4949
 9381SOL    HW239780   1.599   3.910   8.885 -1.0117 -1.5665  2.0729
 9382SOL     OW39781   0.296   2.692   5.507  0.4117  0.1096 -0.0828
 9382SOL    HW139782   0.262   2.677   5.418  2.0559  1.4222 -0.9213
 9382SOL    HW239783   0.254   2.626   5.563  1.0216  0.9051  1.3051
 9383SOL     OW39784   1.292   1.439   7.716  0.4855  0.2465 -0.5488
 9383SOL    HW139785   1.239   1.369   7.754  1.1766  0.8325  1.4830
 9383SOL    HW239786   1.314   1.399   7.631 -0.8293  0.4420 -0.9892
 9384SOL     OW39787   4.599   2.697  12.236 -0.0828  0.4609  0.1630
 9384SOL    HW139788   4.523   2.749  12.261 -0.0261  0.8873 -0.5543
 9384SOL    HW239789   4.562   2.689  12.148 -0.7944  1.1095  0.4150
 9385SOL     OW39790   0.669   0.597  10.202 -0.3839  0.2764  0.3674
 9385SOL    HW139791   0.660   0.692  10.213  4.1143  0.7880 -0.1456
 9385SOL    HW239792   0.708   0.570  10.286 -1.2407 -1.4270  0.2049
 9386SOL     OW39793   0.580   3.800   8.395 -0.4083 -0.0862 -0.0286
 9386SOL    HW139794   0.638   3.874   8.410  0.0369 -0.3766 -0.3262
 9386SOL    HW239795   0.513   3.820   8.461 -0.8348 -1.2303 -0.1074
 9387SOL     OW39796   1.812   2.418   1.872  0.6350 -0.1534 -0.3747
 9387SOL    HW139797   1.868   2.345   1.849 -0.8767 -2.3253  2.8736
 9387SOL    HW239798   1.730   2.368   1.877 -0.7634  2.1396 -0.2491
 9388SOL     OW39799   0.241   1.086   7.007 -0.6054 -0.6750 -0.3382
 9388SOL    HW139800   0.250   1.176   7.037 -1.3030 -0.7431  0.0775
 9388SOL    HW239801   0.333   1.062   6.997 -0.5414 -0.9020  0.8198
 9389SOL     OW39802   4.517   4.495  11.647  0.1077 -0.6018 -0.3160
 9389SOL    HW139803   4.496   4.586  11.665  2.2553 -0.2866  0.6011
 9389SOL    HW239804   4.442   4.480  11.590 -1.0077  1.9041  0.5112
 9390SOL     OW39805   2.012   0.268   5.982  0.2495  0.0075 -0.5118
 9390SOL    HW139806   2.098   0.257   5.941 -0.4641  2.5460 -2.6923
 9390SOL    HW239807   2.045   0.283   6.070 -1.6445 -2.3477  0.6045
 9391SOL     OW39808   3.489   0.547   0.608 -0.3572 -0.3205 -0.3505
 9391SOL    HW139809   3.544   0.624   0.594 -1.7116  0.6452 -0.3419
 9391SOL    HW239810   3.480   0.502   0.523 -1.3141  2.4971 -1.7354
 9392SOL     OW39811   0.579   1.919   8.055  0.5430  0.5515 -0.1762
 9392SOL    HW139812   0.628   1.864   7.994 -1.1076  0.4646 -1.4282
 9392SOL    HW239813   0.526   1.967   7.992 -2.5209 -1.1941  1.0672
 9393SOL     OW39814   3.797   2.819   4.709  0.0696 -0.4142  0.2671
 9393SOL    HW139815   3.755   2.805   4.624 -0.4222 -0.0193  0.4435
 9393SOL    HW239816   3.887   2.800   4.683 -0.1041  2.2643 -2.3093
 9394SOL     OW39817   0.741   2.791   1.182  0.4378  0.2019 -0.1944
 9394SOL    HW139818   0.795   2.861   1.218  1.1328 -1.0692  1.2186
 9394SOL    HW239819   0.653   2.814   1.213  1.0768  0.1120  1.6978
 9395SOL     OW39820   3.342   2.079   7.228 -0.0490 -0.1142  0.6102
 9395SOL    HW139821   3.258   2.047   7.195  0.2031  0.2920 -0.4208
 9395SOL    HW239822   3.334   2.066   7.323 -0.3905  3.4328  1.0747
 9396SOL     OW39823   0.864   0.584   3.873  0.1429 -0.4780  0.7400
 9396SOL    HW139824   0.931   0.520   3.897  0.5664  0.3049  1.6565
 9396SOL    HW239825   0.791   0.544   3.922 -0.3468 -0.7370 -0.2033
 9397SOL     OW39826   3.907   3.351   4.598  0.6220 -0.3185  0.3010
 9397SOL    HW139827   3.944   3.393   4.520 -0.0754  1.3389  0.8752
 9397SOL    HW239828   3.950   3.399   4.669 -0.9690  4.2762 -1.8550
 9398SOL     OW39829   4.004   1.145   6.049 -0.4359  0.5582 -0.0765
 9398SOL    HW139830   3.955   1.063   6.060  3.1934 -1.9604 -2.9635
 9398SOL    HW239831   4.010   1.182   6.138 -4.1935  2.0636 -0.4500
 9399SOL     OW39832   0.985   3.031   0.690  0.1949 -0.0749 -0.2133
 9399SOL    HW139833   0.928   2.999   0.760  1.6196 -0.3697  0.8273
 9399SOL    HW239834   1.062   3.049   0.744  0.5653 -1.5099 -0.2606
 9400SOL     OW39835   3.895   3.156   3.102  0.0636  0.3563 -0.3647
 9400SOL    HW139836   3.800   3.145   3.100  0.0958 -0.1565  1.3699
 9400SOL    HW239837   3.924   3.099   3.030  1.2922  0.4181  0.0823
 9401SOL     OW39838   0.716   1.034  13.557  0.1083 -0.2400  0.0822
 9401SOL    HW139839   0.689   1.076  13.638  0.2700  0.1888 -0.0880
 9401SOL    HW239840   0.677   1.099  13.499 -1.6947 -1.9341 -0.5787
 9402SOL     OW39841   3.901   0.451   2.582 -0.1159 -0.0214  0.2794
 9402SOL    HW139842   3.889   0.535   2.538  1.0371  0.2478  0.4767
 9402SOL    HW239843   3.835   0.398   2.538  0.2327 -0.8130  0.7045
 9403SOL     OW39844   4.578   4.276   8.742 -0.1311  0.6069  0.0589
 9403SOL    HW139845   4.542   4.331   8.672 -0.6984  0.3972  0.1839
 9403SOL    HW239846   4.669   4.264   8.715  0.3981 -0.7395  2.4862
 9404SOL     OW39847   3.217   0.236  12.837 -0.4658  0.3620 -0.2829
 9404SOL    HW139848   3.215   0.191  12.753 -1.6373  0.7624 -0.4723
 9404SOL    HW239849   3.124   0.249  12.858 -0.3120  2.0866 -0.6863
 9405SOL     OW39850   3.071   4.147  13.443  0.2597 -0.0472  0.2339
 9405SOL    HW139851   3.035   4.216  13.499  0.2117 -0.0379  0.1916
 9405SOL    HW239852   3.084   4.073  13.503 -0.7234  0.0938  0.6214
 9406SOL     OW39853   3.259   3.242  15.189 -0.3147  0.4808 -0.0141
 9406SOL    HW139854   3.238   3.242  15.096 -1.7631  0.5174  0.3018
 9406SOL    HW239855   3.282   3.149  15.200 -1.9104  0.0775  0.0398
 9407SOL     OW39856   1.797   0.693  17.728 -0.2330 -0.0210  0.0173
 9407SOL    HW139857   1.810   0.625   0.049 -0.6301  0.0650  0.1801
 9407SOL    HW239858   1.711   0.657  17.707  0.1169 -0.9194  0.0874
 9408SOL     OW39859   3.614   4.182   4.605  0.1866  0.4935  0.6305
 9408SOL    HW139860   3.568   4.109   4.564 -0.3070  1.3000 -0.2372
 9408SOL    HW239861   3.702   4.147   4.618  0.9988  1.1711 -3.2206
 9409SOL     OW39862   3.703   3.663   4.865  0.4807 -0.5085  0.9642
 9409SOL    HW139863   3.775   3.661   4.802 -0.9942 -1.8922 -0.6888
 9409SOL    HW239864   3.721   3.579   4.906  1.7819 -0.5838  0.2330
 9410SOL     OW39865   3.588   3.871   3.365 -0.3152  0.7695  0.2214
 9410SOL    HW139866   3.658   3.815   3.332 -1.5198  0.2611 -1.4201
 9410SOL    HW239867   3.524   3.801   3.376  1.0811 -0.2855  1.6753
 9411SOL     OW39868   2.085   2.012  15.822  1.0937 -0.4527  0.1643
 9411SOL    HW139869   2.173   2.045  15.840  1.0794  0.5291 -1.5006
 9411SOL    HW239870   2.076   1.920  15.846 -0.3575 -0.5978 -0.9192
 9412SOL     OW39871   0.218   1.373   7.767 -0.1140  0.0608  0.1380
 9412SOL    HW139872   0.277   1.321   7.712 -1.4986  1.0632 -2.3012
 9412SOL    HW239873   0.191   1.304   7.827 -0.2781 -3.5218 -4.0241
 9413SOL     OW39874   1.184   4.009   0.910 -0.3610  0.1610 -0.6922
 9413SOL    HW139875   1.162   4.036   0.999  0.4218 -0.2738 -0.3649
 9413SOL    HW239876   1.110   4.034   0.855 -1.4289 -1.3845  0.0600
 9414SOL     OW39877   4.486   4.514   6.470  0.5192 -0.2834  0.0944
 9414SOL    HW139878   4.487   4.531   6.376 -2.1603 -0.7632 -0.0279
 9414SOL    HW239879   4.486   4.418   6.464 -0.0316 -0.2332 -0.6970
 9415SOL     OW39880   2.523   0.866   2.171  0.0727  0.1027  0.4695
 9415SOL    HW139881   2.447   0.922   2.188  0.0922  0.2268  0.1586
 9415SOL    HW239882   2.554   0.898   2.086  0.2317 -0.6604  0.2460
 9416SOL     OW39883   1.113   0.628   5.178 -0.2759 -0.0967 -0.0674
 9416SOL    HW139884   1.082   0.718   5.171 -0.1232 -0.1758 -1.6459
 9416SOL    HW239885   1.188   0.635   5.238 -1.2427  2.3668  0.8542
 9417SOL     OW39886   1.679   4.318   2.964  0.7505 -0.4276 -0.8828
 9417SOL    HW139887   1.659   4.387   3.027 -1.0681 -0.4480 -1.4342
 9417SOL    HW239888   1.654   4.240   3.014 -2.6525  0.2041 -1.5769
 9418SOL     OW39889   2.339   1.527   4.949 -0.7100 -0.0209  1.0613
 9418SOL    HW139890   2.329   1.587   5.023 -1.0703  0.1186  0.8963
 9418SOL    HW239891   2.406   1.574   4.900  0.8484 -3.2749  0.0151
 9419SOL     OW39892   0.033   4.511   4.769 -0.3361  0.0595  0.1522
 9419SOL    HW139893   0.025   4.598   4.731  1.4708  0.2334  0.1706
 9419SOL    HW239894   4.710   4.462   4.713  0.1119 -1.2681  0.8282
 9420SOL     OW39895   2.031   1.884  11.180  0.8152  0.4037  0.3909
 9420SOL    HW139896   2.010   1.974  11.154  2.8858  1.0700  1.0105
 9420SOL    HW239897   1.989   1.874  11.265  1.9394  0.1469  0.9120
 9421SOL     OW39898   1.837   2.443  17.481 -0.2780  0.0746 -0.6835
 9421SOL    HW139899   1.847   2.445  17.385  2.0168  1.9988 -0.3932
 9421SOL    HW239900   1.772   2.512  17.497  0.8468  0.5851  1.5611
 9422SOL     OW39901   0.497   4.729   1.617 -0.3619  0.0291 -0.4413
 9422SOL    HW139902   0.406   0.010   1.641 -0.2292  0.2074 -0.0600
 9422SOL    HW239903   0.514   0.073   1.570  1.8225 -0.3471 -0.2677
 9423SOL     OW39904   0.190   3.709  11.162 -0.3675  0.0796 -0.1187
 9423SOL    HW139905   0.109   3.729  11.210 -0.1525  0.4095  0.1147
 9423SOL    HW239906   0.160   3.727  11.073 -0.8226 -0.9017 -0.1571
 9424SOL     OW39907   1.034   2.466   3.170  0.0103  0.2286  0.1611
 9424SOL    HW139908   1.105   2.402   3.171 -0.3882 -0.2310 -0.8571
 9424SOL    HW239909   0.979   2.435   3.098 -0.8192  1.2228  0.3616
 9425SOL     OW39910   0.638   2.052   9.999  0.4266 -0.1671  0.1075
 9425SOL    HW139911   0.634   1.993  10.075 -0.7144 -0.9226 -0.5340
 9425SOL    HW239912   0.665   1.988   9.934  0.5460 -0.1100  0.1019
 9426SOL     OW39913   3.010   4.445   1.910 -0.2948 -0.2921 -0.0536
 9426SOL    HW139914   2.962   4.445   1.993  0.6570 -0.4379  0.4841
 9426SOL    HW239915   2.967   4.374   1.861  0.7574 -1.0160  0.0730
 9427SOL     OW39916   4.243   2.345   3.642  0.8909  0.5879  0.6919
 9427SOL    HW139917   4.258   2.286   3.716 -2.2600 -1.0716  0.0162
 9427SOL    HW239918   4.148   2.330   3.641  0.5605  2.3782  3.7234
 9428SOL     OW39919   1.945   3.719   5.662 -0.0910 -0.2815  0.7633
 9428SOL    HW139920   1.925   3.690   5.573  0.1990  1.4613  0.1185
 9428SOL    HW239921   1.995   3.798   5.641 -0.9509  0.2538  0.7452
 9429SOL     OW39922   1.645   3.777   1.969 -0.0550  0.4112  0.4189
 9429SOL    HW139923   1.724   3.817   2.005  0.3962  0.1995 -0.3306
 9429SOL    HW239924   1.611   3.749   2.054  0.4186 -1.2980  0.0609
 9430SOL     OW39925   1.278   4.171   6.431 -0.1751 -0.0426  0.4031
 9430SOL    HW139926   1.211   4.117   6.388  1.1442  0.2724 -2.0877
 9430SOL    HW239927   1.246   4.180   6.520  2.3654  0.5662  1.2547
 9431SOL     OW39928   1.167   2.221   3.674 -0.2395  0.0601 -0.5985
 9431SOL    HW139929   1.260   2.221   3.652  0.1587 -0.2874  1.0694
 9431SOL    HW239930   1.127   2.183   3.596  0.7132  0.3662 -1.2321
 9432SOL     OW39931   0.687   4.678  15.217 -0.1759 -0.6941 -0.0020
 9432SOL    HW139932   0.733   4.692  15.300  0.5088  0.8865 -0.6494
 9432SOL    HW239933   0.724   0.016  15.170 -0.7250  0.0119  0.6881
 9433SOL     OW39934   4.420   3.591  14.714  0.0263  0.4773 -0.1610
 9433SOL    HW139935   4.423   3.497  14.729 -0.0951  0.3440 -0.9689
 9433SOL    HW239936   4.489   3.610  14.651 -0.0578 -0.1223 -0.4318
 9434SOL     OW39937   3.530   1.151   2.162  0.4921 -0.0923  0.0983
 9434SOL    HW139938   3.439   1.133   2.185  1.0353  0.6029  2.6918
 9434SOL    HW239939   3.547   1.234   2.205  1.6912 -0.3778  0.1871
 9435SOL     OW39940   1.632   4.552   9.352  0.2522 -0.1125  0.4107
 9435SOL    HW139941   1.626   4.640   9.390  1.2212 -1.0607  2.7748
 9435SOL    HW239942   1.709   4.568   9.297  0.2203 -1.6346 -0.0824
 9436SOL     OW39943   3.763   2.462   8.931 -0.0741 -0.1891  0.1510
 9436SOL    HW139944   3.808   2.546   8.929  0.2935 -0.4161 -1.7557
 9436SOL    HW239945   3.720   2.451   9.016  2.6065  2.2940  1.8041
 9437SOL     OW39946   0.659   2.378  12.450 -0.0642  0.0895  0.5608
 9437SOL    HW139947   0.669   2.317  12.377 -1.2296  0.1832  0.3232
 9437SOL    HW239948   0.577   2.419  12.425 -0.6866 -0.6707  1.3364
 9438SOL     OW39949   4.045   0.356   2.280  0.3586  0.5829 -0.3004
 9438SOL    HW139950   4.067   0.332   2.370  2.2441  0.6240 -0.7546
 9438SOL    HW239951   3.999   0.275   2.256 -2.1539  1.9173  0.1276
 9439SOL     OW39952   3.867   0.563  14.156  0.1782  0.4452 -0.3243
 9439SOL    HW139953   3.882   0.650  14.117 -1.5861  0.0718 -1.7956
 9439SOL    HW239954   3.858   0.586  14.249 -0.1532  0.5792 -0.3914
 9440SOL     OW39955   3.352   3.131   3.080  0.1213  0.1280  0.2207
 9440SOL    HW139956   3.290   3.058   3.091  0.3985 -0.0462  0.5974
 9440SOL    HW239957   3.295   3.208   3.085 -1.1082 -0.9247  2.2426
 9441SOL     OW39958   0.219   0.928   3.862  0.3144  0.0058  0.2965
 9441SOL    HW139959   0.297   0.884   3.898 -0.8773  0.8264  3.8181
 9441SOL    HW239960   0.268   0.998   3.820  0.9838  0.3965  1.7215
 9442SOL     OW39961   3.607   0.793   8.513  0.0241 -0.0416 -0.9258
 9442SOL    HW139962   3.540   0.800   8.444  0.3978  1.8774 -1.0979
 9442SOL    HW239963   3.636   0.704   8.493 -0.3827 -0.9085  2.3996
 9443SOL     OW39964   4.133   3.320   1.842 -0.1502  0.1230  0.0375
 9443SOL    HW139965   4.053   3.269   1.843 -0.5247  0.7120  0.2141
 9443SOL    HW239966   4.175   3.273   1.770 -2.0200  0.8016 -1.4896
 9444SOL     OW39967   2.154   0.055   7.545  0.3626 -0.1317 -0.3107
 9444SOL    HW139968   2.199   0.019   7.620 -0.4656 -0.2173  0.1480
 9444SOL    HW239969   2.211   0.007   7.485 -2.3947 -3.1278 -0.5676
 9445SOL     OW39970   2.842   4.016   7.068  0.6719  0.0243  0.4090
 9445SOL    HW139971   2.886   4.092   7.028  2.8222 -0.9806  0.8323
 9445SOL    HW239972   2.918   3.971   7.106  0.5683  1.0211  1.8093
 9446SOL     OW39973   2.850   0.789   5.052  0.2463 -0.2253 -0.4834
 9446SOL    HW139974   2.764   0.749   5.065  0.0398  0.8711  1.5638
 9446SOL    HW239975   2.911   0.720   5.078  2.3555  1.3705 -1.1522
 9447SOL     OW39976   0.091   1.145   2.038 -0.3554 -0.3277  0.4281
 9447SOL    HW139977   0.126   1.102   2.116  0.0415  0.5730  0.7553
 9447SOL    HW239978   0.056   1.066   1.997  1.9229 -0.0955 -1.9477
 9448SOL     OW39979   3.370   4.404   1.603 -0.1286  0.7501  0.3025
 9448SOL    HW139980   3.364   4.485   1.653 -0.3624  0.0434  1.4293
 9448SOL    HW239981   3.429   4.344   1.650 -2.4709 -1.5089  0.4111
 9449SOL     OW39982   2.132   0.678  16.619 -0.6078  0.1619 -0.0067
 9449SOL    HW139983   2.156   0.586  16.603  1.1689  0.6477 -0.1264
 9449SOL    HW239984   2.038   0.681  16.603 -0.5338 -2.2615 -0.9693
 9450SOL     OW39985   4.224   3.250   4.073  0.0606 -0.0153  0.8344
 9450SOL    HW139986   4.195   3.166   4.108  1.1898 -0.3122  1.0538
 9450SOL    HW239987   4.319   3.252   4.081  0.0813  0.4533  0.4566
 9451SOL     OW39988   4.409   1.291  10.693 -0.3063  0.4280 -0.2913
 9451SOL    HW139989   4.427   1.373  10.739  1.7444 -0.5030  0.5662
 9451SOL    HW239990   4.344   1.240  10.740  0.2607  0.4385  0.4962
 9452SOL     OW39991   3.831   0.464   4.934  0.2733 -0.1670 -0.4418
 9452SOL    HW139992   3.925   0.450   4.926  0.4512  0.6281  0.2884
 9452SOL    HW239993   3.809   0.462   4.841  0.0575 -2.2041 -0.3476
 9453SOL     OW39994   2.524   3.450   5.404  0.1420 -0.6328  0.0508
 9453SOL    HW139995   2.605   3.491   5.374 -0.8609  0.8949 -0.5499
 9453SOL    HW239996   2.533   3.424   5.495 -0.2350 -0.1493  0.2232
 9454SOL     OW39997   2.690   4.246   1.543  0.1654 -0.6859 -0.1807
 9454SOL    HW139998   2.607   4.294   1.535  1.3289  1.3242 -0.2202
 9454SOL    HW239999   2.755   4.302   1.501  0.8714 -2.7523 -1.8645
 9455SOL     OW40000   1.289   3.956  12.122  0.2233  0.1754 -0.2686
 9455SOL    HW140001   1.335   3.948  12.039  1.4636  0.7412  0.3712
 9455SOL    HW240002   1.248   4.043  12.127  0.0091  0.0567  0.0505
 9456SOL     OW40003   2.799   1.748   2.189  0.0575 -0.5466  0.3973
 9456SOL    HW140004   2.763   1.826   2.231  1.4019  0.2455  0.0771
 9456SOL    HW240005   2.824   1.687   2.259  1.2910  2.1370  2.2798
 9457SOL     OW40006   0.877   1.628   8.241  0.2620 -0.2923 -0.3402
 9457SOL    HW140007   0.868   1.534   8.232 -0.0384 -0.4257  1.2966
 9457SOL    HW240008   0.964   1.625   8.282  0.4346  1.6463 -0.5551
 9458SOL     OW40009   2.170   1.682   4.700 -0.2412 -0.2991 -0.4198
 9458SOL    HW140010   2.227   1.622   4.748 -0.2646  1.4575  1.7934
 9458SOL    HW240011   2.095   1.631   4.671  0.3580 -1.2272 -0.3249
 9459SOL     OW40012   0.928   3.486  13.394 -0.0451  0.4419  0.2526
 9459SOL    HW140013   0.928   3.570  13.347 -2.2647  0.1906 -0.1763
 9459SOL    HW240014   0.933   3.428  13.318 -1.6545  2.2964 -1.2785
 9460SOL     OW40015   3.924   2.348   7.177  0.5334  0.1283 -0.2341
 9460SOL    HW140016   3.881   2.361   7.093  0.8977  0.2453 -0.4028
 9460SOL    HW240017   3.872   2.412   7.226 -2.1745 -1.2416 -1.2990
 9461SOL     OW40018   0.087   4.090  17.296  0.0074 -0.5480  0.2962
 9461SOL    HW140019   0.146   4.166  17.297 -3.0452  1.7324  4.1848
 9461SOL    HW240020   0.042   4.098  17.380 -0.2748 -0.7800  0.1680
 9462SOL     OW40021   2.177   2.001   5.233  0.9762  0.4934 -0.6013
 9462SOL    HW140022   2.123   2.077   5.257  0.9697  0.5178 -0.6958
 9462SOL    HW240023   2.162   1.998   5.139  0.5674 -0.7339 -0.5005
 9463SOL     OW40024   4.301   4.546   2.733 -0.8077 -0.4208 -0.2210
 9463SOL    HW140025   4.341   4.614   2.787  0.3092  0.0252 -1.5973
 9463SOL    HW240026   4.257   4.612   2.679 -3.2717 -1.1069  0.9701
 9464SOL     OW40027   0.787   4.477   4.148  0.1274  0.0112 -0.6277
 9464SOL    HW140028   0.707   4.511   4.187  0.2569  0.6108 -0.8811
 9464SOL    HW240029   0.843   4.454   4.222 -0.6622  0.9249  0.2521
 9465SOL     OW40030   4.599   3.838   2.779 -0.5917  0.5532 -0.2084
 9465SOL    HW140031   4.628   3.758   2.823 -1.1618  1.0403  1.0438
 9465SOL    HW240032   4.504   3.833   2.790 -0.7993  1.0758 -1.7195
 9466SOL     OW40033   4.331   3.296  14.689  0.1190  0.0342  0.5544
 9466SOL    HW140034   4.367   3.214  14.724 -1.1408 -1.2463 -1.1492
 9466SOL    HW240035   4.238   3.277  14.698  0.8340 -3.9909 -0.1313
 9467SOL     OW40036   0.880   0.491  10.945 -0.1252 -0.2761  0.2431
 9467SOL    HW140037   0.973   0.467  10.944 -0.3530 -1.0388 -2.5703
 9467SOL    HW240038   0.840   0.422  10.892  1.9134 -2.4604  1.5306
 9468SOL     OW40039   3.134   0.507  10.907 -0.3035  0.7642 -0.2998
 9468SOL    HW140040   3.085   0.458  10.972  1.3228  0.8796  1.0152
 9468SOL    HW240041   3.217   0.460  10.907 -1.2282 -0.8576  1.0086
 9469SOL     OW40042   2.838   0.176  16.486  0.3526 -0.0389 -0.1434
 9469SOL    HW140043   2.866   0.106  16.427  3.1199 -0.8529  2.1455
 9469SOL    HW240044   2.812   0.123  16.561 -0.1409 -0.5382 -0.6626
 9470SOL     OW40045   4.686   2.067   3.659  0.0832 -0.3037 -0.6547
 9470SOL    HW140046   4.634   1.993   3.689 -0.0835  0.2660  0.4930
 9470SOL    HW240047   4.712   2.031   3.574 -0.6218  1.2333 -1.5229
 9471SOL     OW40048   0.817   0.313   6.738 -0.0599  0.8520  0.0507
 9471SOL    HW140049   0.815   0.366   6.659  2.3064  0.2758 -0.4216
 9471SOL    HW240050   0.870   0.366   6.798 -0.1826  1.0631 -0.0261
 9472SOL     OW40051   1.076   3.927   9.707 -0.0156  0.3527 -0.0497
 9472SOL    HW140052   1.107   3.996   9.649 -0.7311  2.1456  1.7113
 9472SOL    HW240053   1.026   3.979   9.770 -0.9250  0.8887 -1.1941
 9473SOL     OW40054   3.755   0.685  15.561  0.0342 -0.2165  1.0416
 9473SOL    HW140055   3.800   0.703  15.643  1.8667 -0.8312  0.1605
 9473SOL    HW240056   3.823   0.664  15.497 -3.3066 -1.1388 -2.2356
 9474SOL     OW40057   3.265   1.068   6.231 -0.1056  0.1935 -0.3390
 9474SOL    HW140058   3.325   0.994   6.220 -2.3772 -1.3822 -2.2996
 9474SOL    HW240059   3.269   1.096   6.322  1.0799 -1.1967  0.0266
 9475SOL     OW40060   4.217   4.180  10.531  0.2483 -0.4928  0.5845
 9475SOL    HW140061   4.206   4.174  10.626  1.2112 -1.1673  0.6465
 9475SOL    HW240062   4.136   4.222  10.502 -1.1378 -1.1194  3.5258
 9476SOL     OW40063   4.267   4.167   2.250 -0.2924 -0.0474 -0.1272
 9476SOL    HW140064   4.180   4.151   2.287 -0.0544  1.0422  0.8904
 9476SOL    HW240065   4.290   4.075   2.236  1.7183  0.3637  0.5332
 9477SOL     OW40066   1.615   1.886   3.961 -0.0336 -0.2274 -0.4137
 9477SOL    HW140067   1.606   1.800   3.920  1.1033  0.1705 -1.4995
 9477SOL    HW240068   1.679   1.858   4.027  0.7531  1.8194 -0.3034
 9478SOL     OW40069   4.498   1.608   7.569  0.1277 -0.3456 -0.2366
 9478SOL    HW140070   4.555   1.551   7.621 -0.8191  2.1267  3.5125
 9478SOL    HW240071   4.503   1.570   7.481  0.5194  1.6119 -1.0555
 9479SOL     OW40072   2.557   3.190   0.272 -0.0504 -0.1434  0.0623
 9479SOL    HW140073   2.501   3.242   0.329  0.7840 -0.8618  1.5655
 9479SOL    HW240074   2.500   3.115   0.258 -0.0363 -0.2946  0.7865
 9480SOL     OW40075   3.656   1.049   2.387  0.0671 -0.4338 -0.1336
 9480SOL    HW140076   3.613   1.040   2.302  0.5178  0.6095 -0.4682
 9480SOL    HW240077   3.742   1.072   2.352  1.4931 -2.8669  1.7446
 9481SOL     OW40078   2.522   4.276   5.573  0.0489  0.1191 -0.6272
 9481SOL    HW140079   2.527   4.372   5.571  2.1862 -0.0074 -1.4566
 9481SOL    HW240080   2.580   4.253   5.646  2.6639  0.2574 -2.6335
 9482SOL     OW40081   1.982   1.127  10.414 -0.3552 -0.3226 -0.2790
 9482SOL    HW140082   2.050   1.077  10.458 -0.6334 -2.2147 -1.9940
 9482SOL    HW240083   1.909   1.100  10.470  0.8903 -1.7371  0.6429
 9483SOL     OW40084   3.383   2.126  17.105 -0.3811  0.0348  0.1430
 9483SOL    HW140085   3.305   2.153  17.057 -0.4372 -1.6755 -0.7479
 9483SOL    HW240086   3.447   2.191  17.078 -0.7043  0.9243  1.4916
 9484SOL     OW40087   1.262   0.930   7.863  0.3366 -0.1103  0.2308
 9484SOL    HW140088   1.346   0.927   7.817 -0.4966  1.9840 -1.4083
 9484SOL    HW240089   1.297   0.937   7.952 -0.0094  1.2435  0.2601
 9485SOL     OW40090   2.992   2.744   1.202  0.1266  0.1214  0.0285
 9485SOL    HW140091   2.936   2.758   1.279 -1.3111  0.3941 -1.0798
 9485SOL    HW240092   2.930   2.688   1.155  1.8798 -0.8247 -1.1363
 9486SOL     OW40093   0.783   2.949   8.676 -0.0218  0.3767  0.3716
 9486SOL    HW140094   0.706   2.975   8.726 -0.6934  1.3776 -1.1693
 9486SOL    HW240095   0.750   2.869   8.634  2.7646 -0.8194  0.4277
 9487SOL     OW40096   0.602   3.933   4.655  0.0185  0.0857  0.2438
 9487SOL    HW140097   0.661   3.997   4.693  1.0807 -0.0896 -1.1333
 9487SOL    HW240098   0.660   3.877   4.604 -1.3664  0.1640 -1.4074
 9488SOL     OW40099   3.868   0.822   1.104  0.0398  0.2679  0.5813
 9488SOL    HW140100   3.797   0.759   1.111  0.1451  0.0590 -0.1655
 9488SOL    HW240101   3.822   0.902   1.078  1.7964  1.1151  0.0174
 9489SOL     OW40102   4.440   1.928   8.224  0.4650 -0.3688  0.5152
 9489SOL    HW140103   4.429   2.007   8.278  1.3891  0.3587 -0.3479
 9489SOL    HW240104   4.532   1.944   8.200  0.6635 -1.2051  0.7383
 9490SOL     OW40105   4.037   3.844   7.204  0.3441 -0.0723  0.2973
 9490SOL    HW140106   3.977   3.864   7.276  0.9306 -1.1504  1.0824
 9490SOL    HW240107   4.031   3.927   7.156 -1.2774 -0.8369 -0.8382
 9491SOL     OW40108   3.126   4.556   4.640 -0.4589 -0.2939  0.2399
 9491SOL    HW140109   3.144   4.523   4.552 -1.7706  2.0124 -0.8894
 9491SOL    HW240110   3.209   4.602   4.655 -0.5338 -0.0424 -0.1279
 9492SOL     OW40111   1.522   3.739   8.390  0.0104 -0.3414  0.0901
 9492SOL    HW140112   1.519   3.825   8.433  0.9492  0.0842 -0.6993
 9492SOL    HW240113   1.494   3.689   8.467  1.7110  0.7953  1.4574
 9493SOL     OW40114   1.064   3.245   2.636  0.1388  0.7475 -0.8062
 9493SOL    HW140115   1.095   3.253   2.546  0.8670  1.2477 -0.5096
 9493SOL    HW240116   1.128   3.184   2.672  0.2734  1.3369 -0.0300
 9494SOL     OW40117   1.704   3.259   1.481 -0.2014 -0.3494  0.8254
 9494SOL    HW140118   1.754   3.313   1.543  0.9040 -2.1241  1.4656
 9494SOL    HW240119   1.658   3.323   1.427  0.8264 -0.5667 -0.3130
 9495SOL     OW40120   3.612   0.260  16.308 -0.1951 -0.4199  0.2081
 9495SOL    HW140121   3.565   0.338  16.337 -0.5128 -0.8756  0.9048
 9495SOL    HW240122   3.539   0.208  16.275 -0.9897 -0.0434  1.3598
 9496SOL     OW40123   2.752   3.281  11.093  0.3224 -0.1297  0.0019
 9496SOL    HW140124   2.837   3.237  11.105  0.4595 -0.5384 -2.5448
 9496SOL    HW240125   2.766   3.311  11.004 -2.3410  0.3601 -0.2406
 9497SOL     OW40126   1.420   0.304  13.188  0.1802 -0.1693 -0.3708
 9497SOL    HW140127   1.428   0.298  13.093 -0.9565  1.6799 -0.5850
 9497SOL    HW240128   1.470   0.229  13.219 -0.9030 -0.7872 -0.1031
 9498SOL     OW40129   1.121   3.723   5.162 -0.0630  0.2049 -0.0421
 9498SOL    HW140130   1.139   3.666   5.237  1.5488 -1.2915 -1.5677
 9498SOL    HW240131   1.042   3.680   5.128  0.2618 -1.1297  0.8720
 9499SOL     OW40132   0.301   2.923   1.504  0.4803 -0.1823  0.5239
 9499SOL    HW140133   0.304   2.971   1.421 -0.3542 -1.1891 -0.0879
 9499SOL    HW240134   0.321   2.833   1.478 -1.9257 -0.1853 -1.3568
 9500SOL     OW40135   4.054   2.278   4.318  0.3131  0.3140 -0.0772
 9500SOL    HW140136   4.023   2.367   4.301 -1.7802 -0.5218 -0.5666
 9500SOL    HW240137   4.140   2.311   4.345  0.7938 -0.9753 -0.0379
 9501SOL     OW40138   1.756   1.712   4.423 -0.0738  0.1499  0.6360
 9501SOL    HW140139   1.677   1.663   4.400 -0.3014  0.4402  0.8010
 9501SOL    HW240140   1.801   1.701   4.339 -1.5886 -1.0747 -0.0289
 9502SOL     OW40141   2.246   0.583   6.597 -0.2991  0.8045  0.4942
 9502SOL    HW140142   2.273   0.542   6.680  0.6223 -1.1353 -0.7794
 9502SOL    HW240143   2.228   0.508   6.541 -2.2648  1.0083  0.8519
 9503SOL     OW40144   4.125   3.034  11.153 -0.0158 -0.1393 -0.1354
 9503SOL    HW140145   4.123   3.111  11.096 -0.3991 -0.6725 -0.8448
 9503SOL    HW240146   4.082   3.063  11.234 -0.5010  1.1879 -0.8622
 9504SOL     OW40147   1.778   2.287   4.532  0.5049  0.3979 -0.0138
 9504SOL    HW140148   1.752   2.203   4.569 -1.6054  0.8303 -0.5298
 9504SOL    HW240149   1.825   2.246   4.459  1.4533  0.7806  0.3769
 9505SOL     OW40150   0.428   3.341   8.557  0.3238 -0.3733  0.2456
 9505SOL    HW140151   0.387   3.385   8.632 -0.0091 -1.3999  0.6682
 9505SOL    HW240152   0.356   3.326   8.496 -0.2835 -1.8179  1.3188
 9506SOL     OW40153   0.271   3.185   6.500  0.0607  0.5768 -0.1507
 9506SOL    HW140154   0.199   3.238   6.533 -1.6623 -0.2723 -2.5050
 9506SOL    HW240155   0.335   3.255   6.508  1.9016 -1.1085  0.0973
 9507SOL     OW40156   1.755   2.500   1.140 -0.2215  0.3170 -0.5671
 9507SOL    HW140157   1.840   2.504   1.096 -0.3889 -0.9878 -0.9785
 9507SOL    HW240158   1.773   2.427   1.199  1.7426  2.4244  1.5001
 9508SOL     OW40159   2.324   2.731   4.726  0.2970  0.4784 -0.4919
 9508SOL    HW140160   2.256   2.697   4.669 -0.0908 -2.9350  2.0239
 9508SOL    HW240161   2.291   2.742   4.815  1.6262  0.3050  0.0319
 9509SOL     OW40162   0.812   1.265   8.718  0.2621 -0.3396 -0.2234
 9509SOL    HW140163   0.789   1.275   8.626  2.1491 -2.6256 -0.9464
 9509SOL    HW240164   0.841   1.174   8.722  0.0653 -0.4120 -0.4761
 9510SOL     OW40165   1.725   0.020  11.748 -0.8265  0.4089 -0.4769
 9510SOL    HW140166   1.719   4.676  11.698  1.1099  0.4952 -0.8475
 9510SOL    HW240167   1.798   0.005  11.808 -1.4035  0.8492  0.3311
 9511SOL     OW40168   0.979   3.129   9.793 -0.4493  0.4064 -0.3263
 9511SOL    HW140169   0.994   3.112   9.700  2.5796  0.7868  0.0954
 9511SOL    HW240170   0.991   3.224   9.793 -0.0504  0.3459 -1.6079
 9512SOL     OW40171   3.348   4.317   7.563  0.0042  0.1763 -0.0749
 9512SOL    HW140172   3.354   4.373   7.486 -1.7670 -0.4496 -0.6838
 9512SOL    HW240173   3.350   4.379   7.635  0.1634  2.2651 -1.9011
 9513SOL     OW40174   4.610   2.663   3.118 -0.3574 -0.1582 -0.1606
 9513SOL    HW140175   4.638   2.586   3.068 -0.1507 -1.4513  1.9391
 9513SOL    HW240176   4.636   2.728   3.053  0.0224 -1.3919 -1.2352
 9514SOL     OW40177   1.466   1.022  10.129 -0.1994 -0.3514  0.3548
 9514SOL    HW140178   1.497   1.043  10.041 -0.4820 -0.1024  0.3154
 9514SOL    HW240179   1.473   1.111  10.163  1.5787 -0.1894 -0.4494
 9515SOL     OW40180   3.955   1.933  13.264  0.5827 -0.1200  0.0227
 9515SOL    HW140181   3.967   2.000  13.197  1.6675 -0.2932  0.0442
 9515SOL    HW240182   3.933   1.983  13.343 -0.9687 -1.8081  0.6508
 9516SOL     OW40183   1.856   4.313   2.070  0.0111  0.1531 -0.7320
 9516SOL    HW140184   1.760   4.310   2.074  0.0516 -0.6747 -0.3674
 9516SOL    HW240185   1.877   4.228   2.110  1.0188  0.3720 -0.7985
 9517SOL     OW40186   4.191   0.377   6.441  0.1963  0.0084  0.1182
 9517SOL    HW140187   4.147   0.306   6.394 -1.6834  1.3332 -0.0912
 9517SOL    HW240188   4.166   0.453   6.389 -1.4495 -0.8685 -0.3745
 9518SOL     OW40189   0.217   2.239   6.618  0.1226  0.1726  0.6074
 9518SOL    HW140190   0.227   2.334   6.615  1.0424  0.0333 -0.9011
 9518SOL    HW240191   0.306   2.210   6.596 -1.0971 -1.8311 -1.7221
 9519SOL     OW40192   4.462   4.322   4.349  0.1642  0.5125  0.1535
 9519SOL    HW140193   4.373   4.307   4.316  0.8698  0.4431 -1.7031
 9519SOL    HW240194   4.461   4.416   4.334 -4.6343  0.5433  0.6236
 9520SOL     OW40195   3.208   2.138   5.223  0.0788 -0.1046  0.1305
 9520SOL    HW140196   3.183   2.207   5.162 -0.7950 -0.2571  0.3107
 9520SOL    HW240197   3.214   2.064   5.162  3.5608 -1.3912  2.0182
 9521SOL     OW40198   3.949   4.271  10.465  0.8137  0.2190 -0.2858
 9521SOL    HW140199   3.869   4.236  10.426  2.2137 -3.1983 -0.0786
 9521SOL    HW240200   3.960   4.335  10.395 -1.1172  0.4539 -0.3729
 9522SOL     OW40201   2.763   3.789   4.301  0.1761  0.0245 -0.6219
 9522SOL    HW140202   2.812   3.869   4.283  0.0484  0.0110 -1.0301
 9522SOL    HW240203   2.713   3.815   4.379 -0.3278 -2.1122 -0.2130
 9523SOL     OW40204   1.319   4.623  11.103  0.4112  0.9209 -0.1480
 9523SOL    HW140205   1.364   4.648  11.184 -0.3632  0.2480  0.4905
 9523SOL    HW240206   1.395   4.610  11.046  0.6972  0.3456  0.3551
 9524SOL     OW40207   1.002   4.510  17.385  0.2183 -0.0237  0.5741
 9524SOL    HW140208   1.019   4.576  17.318  1.8211  0.0542  1.0615
 9524SOL    HW240209   0.992   4.563  17.464 -1.3788 -0.7832  0.8845
 9525SOL     OW40210   1.633   0.729   9.442 -0.2167 -0.0957 -0.1103
 9525SOL    HW140211   1.658   0.636   9.443 -1.8421 -0.5167  2.1636
 9525SOL    HW240212   1.705   0.766   9.391  1.2416 -1.9581  0.6087
 9526SOL     OW40213   1.038   3.953   9.207  0.1043  0.3384  0.3904
 9526SOL    HW140214   1.048   3.887   9.276  0.4614 -0.7713 -0.7358
 9526SOL    HW240215   1.049   3.900   9.129  0.3443 -1.0758  1.3947
 9527SOL     OW40216   1.074   4.143  10.543 -0.3603  0.7170 -0.3811
 9527SOL    HW140217   1.077   4.227  10.497 -1.4103  0.7836 -0.3122
 9527SOL    HW240218   1.094   4.190  10.624  3.2892 -1.7092  0.1287
 9528SOL     OW40219   3.566   1.310   0.527  0.5180 -0.0668  0.0242
 9528SOL    HW140220   3.657   1.281   0.524  0.3583 -0.4394 -1.5348
 9528SOL    HW240221   3.525   1.230   0.559 -0.7869  0.5997  0.0088
 9529SOL     OW40222   3.137   4.699   8.023  0.2784 -0.0056 -0.1438
 9529SOL    HW140223   3.180   0.038   7.985  0.4552 -0.3123 -0.5639
 9529SOL    HW240224   3.139   4.713   8.118  2.2206  0.6494 -0.2820
 9530SOL     OW40225   3.685   0.847  16.559 -0.2655 -0.5277  0.0935
 9530SOL    HW140226   3.690   0.933  16.599  2.3164  0.6617 -2.7775
 9530SOL    HW240227   3.734   0.855  16.477  0.1235  0.0239  0.3821
 9531SOL     OW40228   3.014   3.402   9.578  0.1443  0.3293 -0.0085
 9531SOL    HW140229   3.070   3.328   9.600  1.7080  1.4204 -0.3382
 9531SOL    HW240230   2.934   3.349   9.578  0.8359 -0.7173 -1.0305
 9532SOL     OW40231   3.265   0.540   8.999 -0.2628  0.8340 -0.0164
 9532SOL    HW140232   3.320   0.536   8.920 -1.2880 -0.0457 -0.6714
 9532SOL    HW240233   3.247   0.447   9.011 -2.4610  1.1901 -0.5853
 9533SOL     OW40234   1.082   0.604  15.222 -0.9771 -0.4619  0.4671
 9533SOL    HW140235   1.019   0.558  15.278 -0.2392  2.0132  3.3311
 9533SOL    HW240236   1.115   0.676  15.275 -1.8954 -0.1907  0.6773
 9534SOL     OW40237   1.229   0.595   9.275  0.3348  0.1769  0.1302
 9534SOL    HW140238   1.308   0.638   9.242 -0.3599  0.1333 -1.5912
 9534SOL    HW240239   1.164   0.632   9.216  1.6908  1.6020 -0.4727
 9535SOL     OW40240   1.948   1.951   7.176  0.2176  0.0216 -0.4754
 9535SOL    HW140241   2.015   1.885   7.191  0.7011  0.2199 -1.8437
 9535SOL    HW240242   1.982   2.007   7.107 -1.3920  1.7107  0.0819
 9536SOL     OW40243   3.205   1.945   1.366  0.1893 -0.1995 -0.3097
 9536SOL    HW140244   3.166   1.876   1.420 -0.1274 -0.7145 -1.1921
 9536SOL    HW240245   3.206   1.897   1.283  1.3890 -3.0240  1.3596
 9537SOL     OW40246   0.747   2.132   7.766 -0.0967 -0.7117 -0.4919
 9537SOL    HW140247   0.701   2.053   7.795  0.1490 -0.3705  0.8542
 9537SOL    HW240248   0.837   2.108   7.788  0.3286 -0.1167 -1.5976
 9538SOL     OW40249   2.850   4.554   8.146  0.3316 -0.6257  0.3410
 9538SOL    HW140250   2.867   4.511   8.062  1.1322 -0.2638  0.3190
 9538SOL    HW240251   2.896   4.489   8.199 -1.0656 -0.2673  1.9933
 9539SOL     OW40252   4.114   2.095   2.713  0.1002  0.2111  0.1906
 9539SOL    HW140253   4.122   2.145   2.632 -1.0664  0.3527  0.1567
 9539SOL    HW240254   4.074   2.011   2.689  0.1309  0.5631 -1.0862
 9540SOL     OW40255   1.827   3.604   8.889  0.2499 -0.1377  0.1823
 9540SOL    HW140256   1.849   3.533   8.829  0.3067  2.0726 -2.4041
 9540SOL    HW240257   1.907   3.621   8.939 -0.1395 -2.7354  1.6709
 9541SOL     OW40258   0.840   2.988   7.415  0.4315 -0.3952  0.1080
 9541SOL    HW140259   0.809   3.011   7.503  0.7896  1.1978 -0.1815
 9541SOL    HW240260   0.787   3.049   7.363  0.4534  0.6623  1.3365
 9542SOL     OW40261   1.346   3.292   7.041  0.5826 -0.7838  0.0995
 9542SOL    HW140262   1.389   3.211   7.070  0.0062 -1.1459 -0.0619
 9542SOL    HW240263   1.342   3.346   7.120 -1.0750  1.4801 -1.5402
 9543SOL     OW40264   0.677   1.762  13.396 -0.2009 -0.0291 -0.7417
 9543SOL    HW140265   0.753   1.810  13.365  1.1841 -0.9918  1.2066
 9543SOL    HW240266   0.668   1.798  13.484  1.7793  1.1027 -1.0168
 9544SOL     OW40267   2.855   1.527   7.796  0.1838  0.2186  0.4525
 9544SOL    HW140268   2.803   1.552   7.719 -2.3503  1.4893  2.5669
 9544SOL    HW240269   2.918   1.599   7.796  0.5177 -0.0548 -2.7363
 9545SOL     OW40270   3.334   4.502   7.374 -0.1695  0.5912 -0.1789
 9545SOL    HW140271   3.400   4.567   7.349  1.0886 -0.8254 -0.5555
 9545SOL    HW240272   3.264   4.520   7.311 -1.2606  1.7978  1.3891
 9546SOL     OW40273   1.995   0.871   2.021  0.0418  0.2297 -0.3136
 9546SOL    HW140274   1.941   0.858   1.943 -1.4942  3.6823  0.1659
 9546SOL    HW240275   2.067   0.811   2.008 -0.2435  0.0564 -1.0711
 9547SOL     OW40276   3.233   2.426  11.854 -0.5702  0.2213 -0.0002
 9547SOL    HW140277   3.196   2.450  11.770 -1.5837 -0.0584  0.3596
 9547SOL    HW240278   3.181   2.481  11.913 -0.0147  0.0041  0.7046
 9548SOL     OW40279   2.707   4.511   7.827 -0.0425  0.5357  0.4722
 9548SOL    HW140280   2.682   4.452   7.898 -0.2554  0.5739  0.4318
 9548SOL    HW240281   2.764   4.573   7.872  0.7069 -0.0978  0.3919
 9549SOL     OW40282   1.497   1.972   8.399  0.6762  0.0104  0.0454
 9549SOL    HW140283   1.448   2.047   8.363  1.4494  0.4108 -0.1692
 9549SOL    HW240284   1.500   2.001   8.490 -0.9374 -0.4073  0.2332
 9550SOL     OW40285   0.835   4.077  10.187  0.0030 -0.3714  0.1469
 9550SOL    HW140286   0.862   4.025  10.112 -0.4833 -0.0019 -0.2804
 9550SOL    HW240287   0.794   4.007  10.238  0.2632  1.0315  2.3084
 9551SOL     OW40288   4.635   0.714   7.444 -0.3178 -0.0564 -0.0968
 9551SOL    HW140289   4.718   0.698   7.398  0.1366 -0.4230  0.8484
 9551SOL    HW240290   4.576   0.680   7.376  0.5935 -1.4231 -0.2006
 9552SOL     OW40291   0.705   1.133   0.330 -0.0397  0.1337  0.3033
 9552SOL    HW140292   0.694   1.210   0.273 -0.7825  0.6868  1.1865
 9552SOL    HW240293   0.787   1.156   0.374  1.0027 -2.0170 -0.5233
 9553SOL     OW40294   0.410   3.474   1.566  0.2486  0.3534  0.0644
 9553SOL    HW140295   0.348   3.547   1.567 -1.1116 -0.7750  0.5990
 9553SOL    HW240296   0.496   3.515   1.571  1.4066 -1.8527 -2.1205
 9554SOL     OW40297   1.732   4.578   5.883 -0.5414  0.4572 -0.5569
 9554SOL    HW140298   1.715   4.529   5.963  0.3243 -1.3781 -1.4886
 9554SOL    HW240299   1.822   4.607   5.900 -0.0106 -1.2020 -0.5632
 9555SOL     OW40300   1.456   2.790   5.281 -0.4875 -0.1121 -0.2500
 9555SOL    HW140301   1.405   2.853   5.229 -0.6131 -3.0538 -3.7360
 9555SOL    HW240302   1.535   2.842   5.292 -1.0282  0.5451  0.4762
 9556SOL     OW40303   4.319   3.683   1.226  0.1338 -0.2970  0.4805
 9556SOL    HW140304   4.404   3.722   1.205 -0.0096 -0.5873 -0.6742
 9556SOL    HW240305   4.278   3.653   1.145  1.3294 -0.9210  0.1035
 9557SOL     OW40306   1.598   2.749   5.632  0.1820 -0.2339  0.1092
 9557SOL    HW140307   1.503   2.747   5.627  0.0737 -0.2908  1.9835
 9557SOL    HW240308   1.611   2.841   5.652  0.9163 -0.4262  0.5191
 9558SOL     OW40309   1.046   1.265   0.240  0.7024 -0.3930 -0.7291
 9558SOL    HW140310   1.101   1.320   0.295  0.0221  2.4606 -2.8771
 9558SOL    HW240311   0.996   1.219   0.307  0.9479 -1.4503 -1.2716
 9559SOL     OW40312   3.439   0.512  16.400  0.0587  0.1084  0.2507
 9559SOL    HW140313   3.402   0.596  16.428 -1.1452 -1.2820  2.8894
 9559SOL    HW240314   3.443   0.517  16.305 -1.9941  1.6219  0.2252
 9560SOL     OW40315   3.889   3.197  15.203 -0.0647 -0.2032  0.6937
 9560SOL    HW140316   3.980   3.227  15.211  0.9033 -2.6067 -1.2334
 9560SOL    HW240317   3.849   3.246  15.131 -0.1384  0.1307  0.9613
 9561SOL     OW40318   2.186   3.686   3.855 -0.3544  0.1123 -0.2053
 9561SOL    HW140319   2.260   3.654   3.804 -0.3689  1.3371 -0.9961
 9561SOL    HW240320   2.235   3.751   3.905 -0.1149  0.7369 -1.2475
 9562SOL     OW40321   4.643   0.903   4.910  0.5300 -0.0201  0.4128
 9562SOL    HW140322   4.607   0.823   4.948  0.0920 -0.6882 -1.4148
 9562SOL    HW240323   4.707   0.929   4.977 -0.6880  0.0179  1.5617
 9563SOL     OW40324   2.112   0.341  10.487  0.3169  0.1054 -0.2039
 9563SOL    HW140325   2.087   0.337  10.579 -1.8490  3.6466 -0.6310
 9563SOL    HW240326   2.171   0.267  10.475 -0.5900 -0.7484  0.5482
 9564SOL     OW40327   2.561   1.605   5.396  0.4187  0.0014 -0.2337
 9564SOL    HW140328   2.577   1.557   5.314  0.0594 -2.4060  1.1018
 9564SOL    HW240329   2.512   1.535   5.438  0.8332 -0.8145 -1.0876
 9565SOL     OW40330   4.379   3.078   2.923 -0.5536  0.0629  0.2039
 9565SOL    HW140331   4.462   3.049   2.961 -0.9210 -1.4905 -0.1853
 9565SOL    HW240332   4.342   3.113   3.004 -0.3764 -0.9677  0.7390
 9566SOL     OW40333   1.542   0.062   6.288  0.0123  0.4101  0.4438
 9566SOL    HW140334   1.581   0.104   6.366  1.4134 -1.2307  0.6289
 9566SOL    HW240335   1.618   0.065   6.230  0.6145  1.5395  1.2896
 9567SOL     OW40336   1.995   4.330   1.111  0.1470 -0.1322  0.3164
 9567SOL    HW140337   2.066   4.327   1.175  0.4678  1.1281  0.0205
 9567SOL    HW240338   1.939   4.259   1.144  0.4547 -0.8965 -0.7912
 9568SOL     OW40339   4.347   2.558  11.446  0.0187 -0.3846  0.0144
 9568SOL    HW140340   4.412   2.490  11.432  0.6311  0.4326 -1.1416
 9568SOL    HW240341   4.272   2.499  11.452 -0.2971  0.0994  0.8867
 9569SOL     OW40342   3.568   3.008  13.163  0.2456 -0.2336 -0.1973
 9569SOL    HW140343   3.658   3.027  13.135  0.1444 -2.1093 -1.8579
 9569SOL    HW240344   3.544   2.954  13.088 -2.9693  0.5217  0.3046
   4.73683   4.73683  17.74575
